Membrane in water
40167
    1TCq1    O1    1   1.771   0.196  11.391 -0.8199  0.4058 -0.2911
    1TCq1    C1    2   1.651   0.248  11.355  0.1515  0.0582 -0.2256
    1TCq1    O2    3   1.623   0.365  11.366 -0.2020 -0.1496  0.2248
    1TCq1    C2    4   1.606   0.162  11.242 -0.0749 -0.1075 -0.7113
    1TCq1    C3    5   1.559   0.225  11.129 -0.1981  0.4177  0.6915
    1TCq1    C4    6   1.487   0.149  11.042  0.3331  0.4019  1.0646
    1TCq1    C5    7   1.458   0.019  11.071  1.0100 -0.5620 -0.0648
    1TCq1    C6    8   1.499   4.686  11.182 -0.4946 -0.4604 -0.2730
    1TCq1    C7    9   1.581   0.028  11.272 -0.0901  0.3844 -0.3177
    1TCq1    C8   10   1.423   4.576  11.233 -0.6407  0.2107  0.3387
    1TCq1    O4   11   1.320   4.545  11.174 -0.2179  0.6734 -0.0683
    1TCq1    C9   12   1.426   0.208  10.925  0.2473  0.1075  0.4972
    1TCq1    O5   13   1.503   0.282  10.856  0.1853 -0.0256 -0.4502
    1TCq1    O6   14   1.307   0.181  10.893  0.4057  0.3655 -0.1643
    1TCq1    H1   15   1.800   0.119  11.337  1.0765  0.5075  0.5879
    1TCq1    H2   16   1.573   0.331  11.111  1.1242 -0.1613 -1.7240
    1TCq1    H3   17   1.401   4.686  10.999  1.7217  0.3881 -1.3809
    1TCq1    H4   18   1.597   4.701  11.367  1.5920  0.0309 -0.7850
    2MPD2     C   19   1.356   4.223  11.602 -0.1483  0.0166  0.2097
    2MPD2    C1   20   1.263   4.287  11.521 -1.0400  0.3869 -0.1748
    2MPD2    C2   21   1.308   4.375  11.424 -0.2191  0.0331 -0.2083
    2MPD2    C3   22   1.446   4.400  11.403  0.0817  0.2238 -0.0433
    2MPD2    C4   23   1.532   4.338  11.495  0.0801 -0.0090 -0.0603
    2MPD2    C5   24   1.487   4.252  11.591 -0.0969  0.3492  0.3626
    2MPD2     H   25   1.240   4.428  11.359 -0.1626  0.0869 -0.2236
    2MPD2    H1   26   1.638   4.338  11.476  0.1459  0.7781  0.3241
    2MPD2    H2   27   1.327   4.138  11.662 -2.8104 -0.4070 -1.6885
    2MPD2    H3   28   1.557   4.182  11.634 -2.2336 -1.0391  1.5768
    2MPD2     N   29   1.502   4.497  11.314  0.5129  0.5521 -0.2368
    2MPD2    H5   30   1.597   4.528  11.329  0.5389  1.0872 -1.5027
    2MPD2    N1   31   1.124   4.276  11.537 -0.4983  0.0131  1.5405
    2MPD2    H7   32   1.063   4.340  11.488 -0.1900 -0.8548  0.0069
    3TCq1    O1   33   0.335   0.179  10.521 -0.1047  0.4397  0.2928
    3TCq1    C1   34   0.248   0.208  10.618 -0.2729  0.7813 -0.0112
    3TCq1    O2   35   0.250   0.322  10.671  1.0319 -0.4378 -0.1076
    3TCq1    C2   36   0.186   0.089  10.672 -0.2066 -0.3901  0.0818
    3TCq1    C3   37   0.132   4.713  10.588  0.5346 -0.0710 -0.7471
    3TCq1    C4   38   0.052   4.618  10.643 -0.2829 -1.2392 -0.3899
    3TCq1    C5   39   0.041   4.604  10.778 -0.4043  0.3201 -0.2936
    3TCq1    C6   40   0.090   4.712  10.854 -0.3936 -1.0002 -0.4597
    3TCq1    C7   41   0.166   0.094  10.807  0.5591  0.1329 -0.3370
    3TCq1    C8   42   0.033   0.002  10.990 -0.1757  0.3049 -0.4741
    3TCq1    O4   43   0.022   4.621  11.061 -0.0199  0.3726  0.6746
    3TCq1    C9   44   4.711   4.520  10.560  0.0734 -0.0625  0.0314
    3TCq1    O5   45   4.650   4.436  10.628  0.8053  0.0760 -0.5206
    3TCq1    O6   46   4.710   4.530  10.436  0.3616 -0.2127  0.2872
    3TCq1    H1   47   0.336   0.083  10.502 -0.8568  0.5028 -0.0741
    3TCq1    H2   48   0.128   4.723  10.480  2.1051  2.8084 -0.5417
    3TCq1    H3   49   4.702   4.529  10.825  3.1871 -1.9525  0.8894
    3TCq1    H4   50   0.212   0.172  10.866  2.0253 -2.2334  1.6248
    4MPD2     C   51   4.594   0.303  11.365  0.3534 -0.1195  0.1793
    4MPD2    C1   52   4.622   0.386  11.256 -0.0555 -0.1829 -0.1153
    4MPD2    C2   53   4.661   0.319  11.141  0.5600 -0.4784  0.0631
    4MPD2    C3   54   4.686   0.184  11.136 -0.9512 -0.2264 -0.9468
    4MPD2    C4   55   4.663   0.104  11.245  0.1219 -0.4574 -0.6083
    4MPD2    C5   56   4.612   0.168  11.356  0.4510  0.7188  0.5175
    4MPD2     H   57   4.677   0.381  11.054 -1.9222 -0.3430 -0.2811
    4MPD2    H1   58   4.675   4.721  11.250 -1.8338 -0.5827  0.9558
    4MPD2    H2   59   4.553   0.348  11.455 -0.4101  0.2775 -0.3683
    4MPD2    H3   60   4.585   0.118  11.449  0.2999 -1.7089 -0.8333
    4MPD2     N   61   0.010   0.136  11.013 -0.6638  0.0998 -0.8913
    4MPD2    H5   62   0.023   0.202  10.937  0.7749  1.0407  0.1761
    4MPD2    N1   63   4.617   0.526  11.258 -0.2627 -0.0070 -0.2216
    4MPD2    H7   64   4.638   0.571  11.170  0.0250 -1.0245 -0.6787
    5TCq1    O1   65   0.818   2.416  12.480  0.2883 -0.3844  0.5624
    5TCq1    C1   66   0.932   2.478  12.437  0.0627 -0.9013  0.6530
    5TCq1    O2   67   1.041   2.439  12.472  0.1673  0.1141 -0.0647
    5TCq1    C2   68   0.903   2.565  12.324 -0.1629  0.6048 -0.1809
    5TCq1    C3   69   0.797   2.654  12.339  0.6536  0.1233  0.7078
    5TCq1    C4   70   0.738   2.701  12.230  0.4439  0.4282  0.0021
    5TCq1    C5   71   0.775   2.665  12.103 -0.1514 -0.5984 -0.2906
    5TCq1    C6   72   0.878   2.580  12.090  0.1466 -0.2838 -0.2652
    5TCq1    C7   73   0.943   2.521  12.201  0.8061 -0.2836  0.0469
    5TCq1    C8   74   0.895   2.510  11.967 -0.3529 -0.0214  0.5823
    5TCq1    O4   75   0.980   2.419  11.965  0.0369  0.3083  0.2962
    5TCq1    C9   76   0.624   2.789  12.249  0.9095 -0.0773 -0.5462
    5TCq1    O5   77   0.611   2.833  12.366  0.4176  0.0151  0.2183
    5TCq1    O6   78   0.538   2.800  12.156 -0.5514 -0.0809  0.0740
    5TCq1    H1   79   0.738   2.456  12.440  0.2530 -0.3811  0.6373
    5TCq1    H2   80   0.755   2.676  12.437 -0.5280 -1.9409  0.6644
    5TCq1    H3   81   0.732   2.719  12.019  1.2117  0.5567 -0.2586
    5TCq1    H4   82   1.028   2.455  12.189  0.4203 -0.8849  0.6129
    6MPD2     C   83   0.681   2.527  11.663 -0.0944  0.5135  0.0894
    6MPD2    C1   84   0.784   2.487  11.744  0.3956  0.4798  0.0587
    6MPD2    C2   85   0.861   2.385  11.691  0.1739 -0.4754  1.1088
    6MPD2    C3   86   0.832   2.317  11.574 -0.5850 -0.5150  0.0443
    6MPD2    C4   87   0.720   2.355  11.506  0.0267 -0.5232  0.3889
    6MPD2    C5   88   0.647   2.462  11.550 -0.0196  0.0596  0.1137
    6MPD2     H   89   0.931   2.337  11.759  1.5753  1.3756  0.9575
    6MPD2    H1   90   0.680   2.309  11.417  0.6241  1.9756 -1.1764
    6MPD2    H2   91   0.619   2.609  11.697 -1.3675  0.4358 -2.0458
    6MPD2    H3   92   0.566   2.492  11.484 -0.2878 -0.5510  0.1674
    6MPD2     N   93   0.901   2.200  11.550  0.1575 -0.8547  0.0948
    6MPD2    H5   94   0.984   2.183  11.606  1.3763  0.9634 -1.1421
    6MPD2    N1   95   0.799   2.538  11.871  0.2579 -0.3737  0.6212
    6MPD2    H7   96   0.735   2.612  11.899 -1.5810 -1.9121  0.5023
    7TCq1    O1   97   3.126   1.598  12.942 -0.3522 -0.7865 -0.1617
    7TCq1    C1   98   3.129   1.544  13.064 -0.0497 -0.7579  0.0772
    7TCq1    O2   99   3.150   1.593  13.173  0.3245  0.3405  0.3523
    7TCq1    C2  100   3.096   1.402  13.054 -0.6030 -0.9695  0.5088
    7TCq1    C3  101   3.013   1.354  12.960  0.5825 -0.1729  0.2191
    7TCq1    C4  102   2.952   1.233  12.986  0.0092 -0.1154  0.3291
    7TCq1    C5  103   2.971   1.166  13.096 -0.3000 -0.0323 -0.3718
    7TCq1    C6  104   3.057   1.208  13.192 -0.3593  0.3636  0.3195
    7TCq1    C7  105   3.120   1.327  13.167  0.0802  0.2177 -0.5561
    7TCq1    C8  106   3.105   1.108  13.290 -0.1666  0.1070 -0.8119
    7TCq1    O4  107   3.023   1.022  13.316  0.0192 -0.0085 -0.6053
    7TCq1    C9  108   2.858   1.185  12.884  0.4671  0.1619  0.0344
    7TCq1    O5  109   2.853   1.063  12.866 -0.0707 -0.2095 -0.5650
    7TCq1    O6  110   2.816   1.272  12.803 -0.3205 -0.4730  0.2663
    7TCq1    H1  111   3.130   1.529  12.873  1.5114 -1.0232  0.1807
    7TCq1    H2  112   2.998   1.400  12.863 -0.3399 -2.7078 -0.8456
    7TCq1    H3  113   2.923   1.069  13.100  0.1800 -0.2256  0.7930
    7TCq1    H4  114   3.181   1.370  13.246 -2.8400  2.3703  0.5564
    8MPD2     C  115   3.461   0.849  13.553 -0.6381  0.3886 -0.2749
    8MPD2    C1  116   3.328   0.817  13.522 -0.0878  0.2775  0.7326
    8MPD2    C2  117   3.260   0.906  13.448 -0.4440 -0.5890  0.3697
    8MPD2    C3  118   3.311   1.023  13.401 -0.2367  0.1213  0.8087
    8MPD2    C4  119   3.448   1.047  13.426  0.1519 -0.2415 -0.0729
    8MPD2    C5  120   3.519   0.962  13.503 -0.3825  0.2825  0.1376
    8MPD2     H  121   3.159   0.876  13.423 -0.2320 -2.6204  1.9834
    8MPD2    H1  122   3.501   1.134  13.391  1.5850 -1.5053 -1.0258
    8MPD2    H2  123   3.522   0.776  13.604 -3.2484 -1.9561 -0.5308
    8MPD2    H3  124   3.623   0.984  13.527 -0.1173 -0.8411  0.0585
    8MPD2     N  125   3.240   1.117  13.319 -0.0501  0.0073 -0.3760
    8MPD2    H5  126   3.295   1.198  13.291  3.4246 -2.5576 -0.9427
    8MPD2    N1  127   3.277   0.693  13.568 -0.1802  0.6762  0.6469
    8MPD2    H7  128   3.330   0.664  13.650  0.9914  0.3905 -0.2152
    9TCq1    O1  129   1.325   1.687  11.855 -0.0255  0.4629 -0.5724
    9TCq1    C1  130   1.220   1.615  11.876 -0.3613  0.1359 -0.0368
    9TCq1    O2  131   1.170   1.609  11.986 -0.2776 -0.8609 -0.2337
    9TCq1    C2  132   1.182   1.538  11.760  0.2107  0.3927  0.3269
    9TCq1    C3  133   1.274   1.502  11.661 -0.9195 -0.0375  0.6877
    9TCq1    C4  134   1.224   1.421  11.561  0.6690  0.7826  0.4269
    9TCq1    C5  135   1.090   1.400  11.543 -0.7700  0.2612 -0.7711
    9TCq1    C6  136   1.001   1.452  11.635  0.2464 -0.0186  0.2710
    9TCq1    C7  137   1.048   1.513  11.750 -0.5374  0.2428 -0.0941
    9TCq1    C8  138   0.866   1.410  11.646  0.8271  0.1248  0.2327
    9TCq1    O4  139   0.809   1.444  11.750  0.0285 -0.3268 -0.1606
    9TCq1    C9  140   1.319   1.382  11.451  0.1429 -0.4425  0.1553
    9TCq1    O5  141   1.264   1.329  11.349  0.2568 -0.4817  0.7097
    9TCq1    O6  142   1.439   1.414  11.456  0.1826 -0.6845  0.3888
    9TCq1    H1  143   1.343   1.685  11.759 -0.3028 -3.5489 -0.5269
    9TCq1    H2  144   1.379   1.524  11.671 -1.0100 -0.0225  1.6510
    9TCq1    H3  145   1.051   1.345  11.458 -0.0687 -1.9853  0.3584
    9TCq1    H4  146   0.991   1.544  11.836 -1.7904  0.1799 -0.9060
   10MPD2     C  147   0.598   1.260  11.626 -0.2286  0.2085 -0.1731
   10MPD2    C1  148   0.718   1.215  11.575  0.4532 -0.1968 -0.1620
   10MPD2    C2  149   0.725   1.090  11.511  0.5808 -0.2910 -1.0220
   10MPD2    C3  150   0.615   1.014  11.515  0.1144  0.1226 -0.2165
   10MPD2    C4  151   0.498   1.059  11.567  0.1459 -0.3756  0.3541
   10MPD2    C5  152   0.487   1.182  11.615 -0.4777  0.1666  0.8056
   10MPD2     H  153   0.820   1.070  11.463  0.1473 -4.5843 -0.0045
   10MPD2    H1  154   0.413   0.992  11.569 -0.2281  0.1804  2.4399
   10MPD2    H2  155   0.606   1.354  11.681 -0.5159 -1.3257  2.4839
   10MPD2    H3  156   0.390   1.214  11.653 -0.5437  0.4719  0.3731
   10MPD2     N  157   0.613   0.879  11.481 -0.4770  0.3572  1.5834
   10MPD2    H5  158   0.531   0.825  11.507 -0.9158  1.0402  1.5972
   10MPD2    N1  159   0.838   1.292  11.576  0.3605 -0.5675 -0.2909
   10MPD2    H7  160   0.911   1.240  11.528  0.7807 -1.4538  1.3112
   11TCq1    O1  161   1.753   0.408  14.765  0.3473 -0.5935 -0.5675
   11TCq1    C1  162   1.798   0.282  14.783  0.7327 -0.6052  1.1502
   11TCq1    O2  163   1.740   0.183  14.833  0.4559  0.0444 -1.0017
   11TCq1    C2  164   1.919   0.272  14.709 -0.8882 -0.5414  0.4032
   11TCq1    C3  165   2.010   0.373  14.710  0.8658  0.3499  0.3626
   11TCq1    C4  166   2.115   0.348  14.627  0.4996  0.4256 -0.0509
   11TCq1    C5  167   2.121   0.244  14.537 -0.6606  0.2835  0.0548
   11TCq1    C6  168   2.029   0.144  14.554  0.2417 -1.2139 -0.4137
   11TCq1    C7  169   1.928   0.154  14.642 -0.5811  0.0605  0.0414
   11TCq1    C8  170   2.059   0.025  14.475 -0.3305  0.3312 -0.4186
   11TCq1    O4  171   2.170   0.019  14.420 -0.4646  0.5809  0.4785
   11TCq1    C9  172   2.220   0.449  14.619 -0.1759  0.0687 -0.6179
   11TCq1    O5  173   2.214   0.544  14.700  0.5916  0.5943 -0.2228
   11TCq1    O6  174   2.304   0.429  14.531 -0.0208  0.4096 -0.2279
   11TCq1    H1  175   1.822   0.453  14.711  0.7264 -0.7246 -0.1874
   11TCq1    H2  176   1.994   0.468  14.761  0.1572 -0.7849  2.2690
   11TCq1    H3  177   2.206   0.229  14.473 -0.9521  0.4346 -0.3678
   11TCq1    H4  178   1.858   0.072  14.654 -1.1527  0.2182 -2.2255
   12MPD2     C  179   2.077   4.473  14.360  0.4264  0.2118 -0.4143
   12MPD2    C1  180   1.965   4.531  14.419 -0.2219  0.7621 -0.1031
   12MPD2    C2  181   1.855   4.446  14.421  0.9107 -0.1921 -0.2481
   12MPD2    C3  182   1.857   4.318  14.370 -0.6555 -0.1084 -0.6000
   12MPD2    C4  183   1.976   4.266  14.325 -0.1053 -0.0717  0.2535
   12MPD2    C5  184   2.079   4.346  14.316  0.0500 -0.2756 -0.6980
   12MPD2     H  185   1.766   4.492  14.463 -0.5433 -2.8851 -0.3320
   12MPD2    H1  186   1.987   4.162  14.295 -0.1435 -0.4410  1.5385
   12MPD2    H2  187   2.170   4.529  14.355  1.7103 -1.8981 -0.1003
   12MPD2    H3  188   2.167   4.311  14.264  1.3015  2.6609 -0.5357
   12MPD2     N  189   1.745   4.231  14.350  0.3966 -0.7364  0.2458
   12MPD2    H5  190   1.763   4.147  14.296 -0.3808 -1.2428  0.7676
   12MPD2    N1  191   1.959   4.655  14.475  0.1268 -0.0821 -1.0668
   12MPD2    H7  192   1.865   4.676  14.506 -0.0225 -2.5781  0.2282
   13TCq1    O1  193   0.692   0.616  10.468  0.0421 -0.5586  0.1158
   13TCq1    C1  194   0.691   0.657  10.598  0.2375  0.0958 -0.3457
   13TCq1    O2  195   0.592   0.720  10.634 -0.2331 -0.1591 -0.5989
   13TCq1    C2  196   0.737   0.536  10.653  0.2562  0.0744  0.7137
   13TCq1    C3  197   0.874   0.500  10.628  0.1315  0.0440 -0.2348
   13TCq1    C4  198   0.915   0.380  10.666  0.1976  1.1798 -0.8166
   13TCq1    C5  199   0.823   0.282  10.711 -0.6891 -0.0210 -0.0240
   13TCq1    C6  200   0.692   0.324  10.738 -1.1335  0.3261  0.3158
   13TCq1    C7  201   0.647   0.453  10.706 -0.4239  0.1414 -0.9740
   13TCq1    C8  202   0.596   0.238  10.795 -0.1644 -0.3132 -0.4308
   13TCq1    O4  203   0.500   0.293  10.847  0.3049  0.6604  0.1749
   13TCq1    C9  204   1.050   0.341  10.652  1.1775  0.4009  0.1089
   13TCq1    O5  205   1.136   0.433  10.638 -0.1289 -0.8712 -0.6713
   13TCq1    O6  206   1.079   0.226  10.698 -0.4805  0.1692 -0.3020
   13TCq1    H1  207   0.762   0.548  10.459  2.5630  1.9155  1.2225
   13TCq1    H2  208   0.940   0.571  10.580 -0.0362 -0.0786 -0.6435
   13TCq1    H3  209   0.860   0.187  10.747  0.4033  0.6899  0.7241
   13TCq1    H4  210   0.543   0.480  10.720 -0.4670 -2.6592  3.9420
   14MPD2     C  211   0.545   4.600  10.799 -0.4865  0.0866  0.0302
   14MPD2    C1  212   0.563   0.002  10.853 -0.5929  0.6717 -0.9941
   14MPD2    C2  213   0.497   0.024  10.973 -0.0622  0.3696 -0.2351
   14MPD2    C3  214   0.414   4.658  11.031  0.0075 -0.4923 -0.4769
   14MPD2    C4  215   0.391   4.530  10.979  0.3312  0.1541 -0.1064
   14MPD2    C5  216   0.463   4.508  10.863 -0.6353  0.1391  0.7546
   14MPD2     H  217   0.509   0.124  11.014 -2.4343  0.8196 -0.6600
   14MPD2    H1  218   0.343   4.445  11.025 -0.1489  0.2202 -0.4827
   14MPD2    H2  219   0.596   4.582  10.705  2.3122 -1.0026  1.7396
   14MPD2    H3  220   0.463   4.408  10.822  1.0624  1.1487 -1.6751
   14MPD2     N  221   0.363   4.701  11.160 -0.2323 -0.4178  0.4457
   14MPD2    H5  222   0.385   0.072  11.189  0.6784 -0.6217  0.4507
   14MPD2    N1  223   0.634   0.104  10.782  0.2836  0.3616 -0.1745
   14MPD2    H7  224   0.683   0.081  10.696  0.2500  2.3177 -0.7247
   15TCq1    O1  225   2.812   3.657   2.258 -0.7128 -0.1755  0.2222
   15TCq1    C1  226   2.894   3.665   2.162  0.3349 -0.1406 -0.4532
   15TCq1    O2  227   2.864   3.686   2.044 -0.0970 -0.3020 -0.2218
   15TCq1    C2  228   3.002   3.567   2.196  0.5674  0.3941  0.5096
   15TCq1    C3  229   3.069   3.594   2.310 -0.0775  0.0737 -0.0265
   15TCq1    C4  230   3.194   3.536   2.319  0.1021 -0.2671  0.0106
   15TCq1    C5  231   3.250   3.463   2.217  0.2076 -1.0685 -0.2252
   15TCq1    C6  232   3.183   3.444   2.104  0.2101  0.9673  0.2990
   15TCq1    C7  233   3.056   3.497   2.096  0.5923  1.0074  0.3101
   15TCq1    C8  234   3.204   3.317   2.038 -0.3602  0.0208  0.0183
   15TCq1    O4  235   3.317   3.271   2.045  0.0492 -0.5715  0.7747
   15TCq1    C9  236   3.263   3.547   2.449 -0.4195 -0.6309 -0.0577
   15TCq1    O5  237   3.362   3.471   2.468  0.1827  0.2163  0.2082
   15TCq1    O6  238   3.209   3.618   2.536 -0.0176  0.8166  0.4406
   15TCq1    H1  239   2.832   3.607   2.341 -0.1919 -3.4321 -1.8695
   15TCq1    H2  240   3.031   3.662   2.385 -0.5264  0.9274 -1.0271
   15TCq1    H3  241   3.350   3.425   2.234  0.8136 -1.1644 -4.0149
   15TCq1    H4  242   2.993   3.479   2.010 -1.0874  3.4786  1.0304
   16MPD2     C  243   2.965   3.109   1.849 -0.2368  0.0288  0.1261
   16MPD2    C1  244   3.083   3.138   1.906 -0.5467  0.0510 -1.0840
   16MPD2    C2  245   3.179   3.046   1.888  0.5775 -0.2764  0.2190
   16MPD2    C3  246   3.161   2.923   1.826  0.4752 -0.6518  0.4288
   16MPD2    C4  247   3.033   2.893   1.779  0.1793  0.6399  0.0736
   16MPD2    C5  248   2.937   2.989   1.796  0.1424 -0.0404 -0.3191
   16MPD2     H  249   3.282   3.063   1.918  0.3980 -0.3953  0.9021
   16MPD2    H1  250   2.997   2.798   1.742 -1.5591  0.2071  2.8559
   16MPD2    H2  251   2.878   3.172   1.858  1.6918  2.5352  1.1737
   16MPD2    H3  252   2.838   2.974   1.756  0.5993 -2.2825 -0.5778
   16MPD2     N  253   3.272   2.839   1.801 -0.2348 -0.5337  0.5573
   16MPD2    H5  254   3.366   2.874   1.818  0.1899 -0.8066 -1.2640
   16MPD2    N1  255   3.093   3.260   1.972 -0.2894 -0.0660 -0.2271
   16MPD2    H7  256   3.010   3.319   1.973  1.1029  1.8565  1.6317
   17TCq1    O1  257   4.615   3.744  10.897 -0.0436  0.3821 -0.8618
   17TCq1    C1  258   4.701   3.752  10.786 -0.0647 -0.8652  0.5789
   17TCq1    O2  259   4.673   3.733  10.670 -0.4050  0.5506  0.3151
   17TCq1    C2  260   0.101   3.804  10.823 -1.2616 -0.3538 -0.0666
   17TCq1    C3  261   0.173   3.876  10.724 -0.1421 -0.4303  1.3181
   17TCq1    C4  262   0.298   3.924  10.764  0.0898  0.7249 -0.2964
   17TCq1    C5  263   0.334   3.933  10.895 -0.1026  0.2710 -0.0737
   17TCq1    C6  264   0.252   3.876  10.988  0.0886 -0.8750 -0.7131
   17TCq1    C7  265   0.139   3.808  10.955  0.4461 -0.2401 -0.8483
   17TCq1    C8  266   0.286   3.874  11.135 -0.5329 -0.2930  0.2215
   17TCq1    O4  267   0.219   3.812  11.217  0.8056  0.1893 -0.6230
   17TCq1    C9  268   0.394   3.977  10.668  0.4518 -0.2692 -0.5389
   17TCq1    O5  269   0.517   3.943  10.685 -0.3201  0.6947 -0.3161
   17TCq1    O6  270   0.357   4.020  10.555  0.0808 -0.1941  0.0427
   17TCq1    H1  271   4.658   3.752  10.985  0.5961  1.0624 -1.2362
   17TCq1    H2  272   0.150   3.873  10.618  1.5514  1.1294  0.8972
   17TCq1    H3  273   0.435   3.964  10.917 -0.5484  1.5026  0.2369
   17TCq1    H4  274   0.089   3.775  11.046  1.7645 -4.8639 -1.8357
   18MPD2     C  275   0.451   3.830  11.389 -0.2178  0.1045  0.0001
   18MPD2    C1  276   0.484   3.920  11.284 -0.5248  0.1969 -1.4203
   18MPD2    C2  277   0.620   3.966  11.286 -0.5191 -0.3437 -0.2390
   18MPD2    C3  278   0.711   3.930  11.377 -0.4467 -0.3168  0.7764
   18MPD2    C4  279   0.677   3.864  11.487 -0.3064  0.7006  0.4689
   18MPD2    C5  280   0.549   3.811  11.483  0.5324 -0.0302 -0.0919
   18MPD2     H  281   0.656   4.014  11.197  0.5970  0.6366  0.7389
   18MPD2    H1  282   0.741   3.845  11.573 -1.1992  2.4169  1.5240
   18MPD2    H2  283   0.353   3.785  11.391  0.7203 -1.9103  0.6788
   18MPD2    H3  284   0.512   3.748  11.563  0.1853  0.3988  0.0869
   18MPD2     N  285   0.849   3.973  11.366  0.1046 -0.0844 -0.0822
   18MPD2    H5  286   0.908   3.928  11.435 -0.2185  0.4188  0.5267
   18MPD2    N1  287   0.404   3.940  11.169  0.3616 -0.2222 -0.2008
   18MPD2    H7  288   0.445   4.002  11.100  1.7076 -0.8677 -0.0039
   19TMC2    C1  289   2.749   4.249  14.168 -0.2137 -0.2072 -0.0700
   19TMC2    C2  290   2.784   4.167  14.266 -1.1039 -0.1730 -0.7849
   19TMC2    C3  291   2.807   4.038  14.249  0.0192 -0.9451  0.2027
   19TMC2    C4  292   2.708   4.202  14.044 -0.2304 -0.4398 -0.1082
   19TMC2    C5  293   2.722   4.068  14.029  0.2588  0.5014  0.0109
   19TMC2    C6  294   2.771   3.982  14.127 -1.5343  0.0495  0.9208
   19TMC2     C  295   2.811   4.378  14.168 -0.0598 -0.2030  0.3817
   19TMC2     O  296   2.767   4.468  14.096 -0.1807 -0.6702 -0.0095
   19TMC2     H  297   2.796   4.210  14.365 -0.9411 -0.9175 -0.4778
   19TMC2    H1  298   2.663   4.260  13.965 -0.1948  2.8193  2.2560
   19TMC2    H2  299   2.800   3.881  14.101 -1.8116  0.7195 -1.9962
   19TMC2    C7  300   2.663   4.017  13.904 -0.3226  0.2212 -1.0385
   19TMC2    C8  301   2.936   4.020  14.309  0.1347  0.3179 -0.1185
   19TMC2    O1  302   2.619   4.098  13.823 -0.2380 -0.2242 -0.5357
   19TMC2    O2  303   2.996   4.116  14.346 -0.5300 -0.0088  0.4177
   19TMC2    O5  304   2.998   3.911  14.251  0.2929 -0.0679 -0.7419
   19TMC2    H5  305   2.941   3.831  14.241 -1.1130  1.1228 -2.2666
   20MPD2     C  306   3.015   4.609  14.189  0.2335  0.1142  0.8654
   20MPD2    C1  307   3.012   4.486  14.264 -0.0979 -0.3059  0.0713
   20MPD2    C2  308   3.111   4.466  14.362 -0.2904 -0.1494  0.0724
   20MPD2    C3  309   3.212   4.559  14.394  0.7288  0.4478 -0.4007
   20MPD2    C4  310   3.197   4.685  14.322  0.0757  0.5096 -0.0234
   20MPD2    C5  311   3.112   4.703  14.218  0.0285  0.0397 -0.0403
   20MPD2     H  312   3.098   4.370  14.412 -0.8804 -0.1721 -0.1256
   20MPD2    H1  313   3.271   0.037  14.342  2.0582 -1.9982  2.1443
   20MPD2    H2  314   2.954   4.623  14.101 -0.2505  0.8788  1.3315
   20MPD2    H3  315   3.115   0.067  14.154 -0.3271  0.8127  1.0056
   20MPD2     N  316   3.304   4.549  14.502  0.2600  0.1698  0.2734
   20MPD2    H5  317   3.347   4.636  14.531 -0.7379  1.2308 -1.3854
   20MPD2    N1  318   2.926   4.379  14.241 -0.1725  0.5744 -0.3044
   20MPD2    H7  319   2.950   4.295  14.293  1.7456  4.3203  4.7624
   21MPD2     C  320   0.316   4.167  14.438 -0.4683 -0.2721  0.1143
   21MPD2    C1  321   0.409   4.234  14.516 -0.0350 -0.0665  0.4009
   21MPD2    C2  322   0.362   4.330  14.612 -0.1734  0.0112  0.1863
   21MPD2    C3  323   0.232   4.342  14.648 -0.0582  0.1242  0.1450
   21MPD2    C4  324   0.142   4.261  14.573  0.2627 -0.5712  0.3813
   21MPD2    C5  325   0.190   4.180  14.475 -0.3941  0.4395  0.3491
   21MPD2     H  326   0.442   4.393  14.650 -1.0087  0.5888  1.0022
   21MPD2    H1  327   0.035   4.253  14.592 -0.0546  2.7286  0.1351
   21MPD2    H2  328   0.347   4.093  14.365 -5.5227  0.5528 -2.8185
   21MPD2    H3  329   0.114   4.129  14.415  0.4518 -0.9237  0.4299
   21MPD2     N  330   0.186   4.433  14.745  0.1807  0.0103  0.2730
   21MPD2    H5  331   0.087   4.456  14.743  0.7781  2.6577  0.1229
   21MPD2    N1  332   0.550   4.230  14.499  0.3459  0.4875  0.1084
   21MPD2    H7  333   0.605   4.288  14.561  0.9513 -0.0958  0.1147
   22TCq2    C1  334   0.259   4.490  14.847 -0.5020  0.4921 -0.2869
   22TCq2    O2  335   0.381   4.490  14.867 -0.2256  0.0961  0.5052
   22TCq2    C2  336   0.179   4.570  14.941  0.1599 -0.2852  1.0139
   22TCq2    C3  337   0.191   4.536  15.070  0.2019  0.2467 -1.1412
   22TCq2    C4  338   0.102   4.592  15.158 -0.1088 -0.7217 -0.4380
   22TCq2    C5  339   0.024   4.695  15.115  0.5537  0.0926  0.4625
   22TCq2    C6  340   0.012   0.005  14.979  0.2653 -0.0719  0.0322
   22TCq2    C7  341   0.087   4.660  14.891  0.4234 -0.4178  0.0806
   22TCq2    C8  342   4.671   0.133  14.942  0.2713  0.1338 -0.1135
   22TCq2    O4  343   4.625   0.147  14.826  0.0462 -0.5599  0.0031
   22TCq2    C9  344   0.104   4.544  15.296 -0.9799  0.2752 -0.1333
   22TCq2    O5  345   0.139   4.422  15.314  0.5989  0.4248 -0.8136
   22TCq2    O6  346   0.067   4.613  15.392  0.1146 -0.1115 -0.4120
   22TCq2    H2  347   0.256   4.455  15.100 -1.3758 -1.1320 -1.4456
   22TCq2    H3  348   4.686   0.008  15.196 -1.4838  0.9644 -1.4812
   22TCq2    H4  349   0.071   4.676  14.784  0.7592 -6.2051 -0.8147
   23MPD2     C  350   2.272   0.959  14.763 -0.0890  0.1108 -0.0676
   23MPD2    C1  351   2.178   1.037  14.834 -1.0687  0.4652  0.0137
   23MPD2    C2  352   2.108   1.136  14.766 -0.1547  0.1393 -0.1268
   23MPD2    C3  353   2.133   1.164  14.636  0.0133  0.0790 -0.0911
   23MPD2    C4  354   2.225   1.085  14.569  0.3306 -0.1687  0.0699
   23MPD2    C5  355   2.292   0.983  14.631  0.6758  0.0849  0.1688
   23MPD2     H  356   2.029   1.188  14.818 -0.4163 -0.7476  0.3627
   23MPD2    H1  357   2.255   1.094  14.465  0.7277 -2.5753 -0.0206
   23MPD2    H2  358   2.321   0.873  14.806 -1.1205 -1.1536 -1.4234
   23MPD2    H3  359   2.366   0.919  14.585 -0.5163 -1.4774  0.4435
   23MPD2     N  360   2.059   1.257  14.562 -0.6296 -0.0002  0.4695
   23MPD2    H5  361   2.087   1.275  14.466  4.9887 -0.9758  1.9270
   23MPD2    N1  362   2.155   1.026  14.969 -0.5061  0.2150  0.1620
   23MPD2    H7  363   2.111   1.107  15.012  2.0265  0.6988  1.8516
   24TCq2    C1  364   1.966   1.347  14.606 -0.4319  0.1466 -0.1528
   24TCq2    O2  365   1.915   1.371  14.718  0.7778  0.1567 -0.6256
   24TCq2    C2  366   1.931   1.440  14.498 -0.2766  0.0596  0.5400
   24TCq2    C3  367   1.949   1.405  14.363 -0.2606  0.2831 -0.6365
   24TCq2    C4  368   1.905   1.486  14.263  0.4251 -0.1448 -0.1751
   24TCq2    C5  369   1.836   1.604  14.289  0.1410  0.0142  0.4916
   24TCq2    C6  370   1.814   1.641  14.421 -0.3184  0.0642 -0.1679
   24TCq2    C7  371   1.860   1.556  14.524 -0.3002  0.5857  0.0535
   24TCq2    C8  372   1.771   1.776  14.464 -0.3309  0.5143 -0.7151
   24TCq2    O4  373   1.813   1.813  14.571 -0.4095 -1.0262  0.1630
   24TCq2    C9  374   1.931   1.450  14.128 -0.3633  0.3054 -0.7451
   24TCq2    O5  375   2.043   1.396  14.102 -0.2122  0.3367  0.1870
   24TCq2    O6  376   1.855   1.499  14.036  0.2252  0.7010 -0.3306
   24TCq2    H2  377   1.999   1.316  14.326 -1.3732 -0.0500 -1.3446
   24TCq2    H3  378   1.809   1.672  14.209 -2.4687  0.5127  1.7941
   24TCq2    H4  379   1.836   1.572  14.628 -3.1442  0.4913 -0.5854
   25TMC2    C1  380   0.338   4.031  12.095 -0.1193 -0.0735 -0.1559
   25TMC2    C2  381   0.471   4.064  12.105  0.3949 -0.1615 -0.4246
   25TMC2    C3  382   0.557   3.990  12.177 -0.0161  0.1706 -0.1521
   25TMC2    C4  383   0.291   3.922  12.164  0.0255  0.7543 -0.1572
   25TMC2    C5  384   0.380   3.848  12.244  0.4408  0.1254 -0.6720
   25TMC2    C6  385   0.516   3.879  12.248 -0.1503 -0.5701  1.4838
   25TMC2     C  386   0.255   4.082  11.992  0.5826 -0.5579 -0.4750
   25TMC2     O  387   0.276   4.199  11.957  0.0980  0.5672 -0.6000
   25TMC2     H  388   0.500   4.153  12.051 -1.3136 -0.5369 -1.9597
   25TMC2    H1  389   0.184   3.904  12.168  0.3240 -1.1915 -1.0770
   25TMC2    H2  390   0.589   3.821  12.302 -0.8222 -0.3320  2.6441
   25TMC2    C7  391   0.335   3.739  12.328  0.0209 -0.2559  0.3465
   25TMC2    C8  392   0.688   4.053  12.198  0.5227  0.2841 -0.0894
   25TMC2    O1  393   0.415   3.694  12.412  0.7881 -0.3952  0.2962
   25TMC2    O2  394   0.701   4.170  12.167  0.1366 -0.4711 -0.3995
   25TMC2    O5  395   0.718   4.016  12.324  0.2447 -0.3786  0.1957
   25TMC2    H5  396   0.676   3.929  12.341  2.4243 -1.2477  1.1541
   26MPD2     C  397   0.080   3.984  11.517 -0.3829  0.1833 -0.9165
   26MPD2    C1  398   0.115   3.864  11.579  0.4836  0.7495  0.1723
   26MPD2    C2  399   0.142   3.865  11.715 -0.3864  0.2065  0.1794
   26MPD2    C3  400   0.145   3.990  11.788 -0.1652  0.1563 -0.3312
   26MPD2    C4  401   0.112   4.107  11.722  0.1023  0.1310 -0.1249
   26MPD2    C5  402   0.081   4.101  11.588  0.1134  0.2151 -0.3706
   26MPD2     H  403   0.158   3.777  11.777  4.9335  0.8431 -0.3327
   26MPD2    H1  404   0.116   4.203  11.773 -0.6887 -0.3565  0.8571
   26MPD2    H2  405   0.065   3.993  11.410 -1.7131  0.1885 -0.7360
   26MPD2    H3  406   0.071   4.189  11.526 -0.8051  0.7232  0.5073
   26MPD2     N  407   0.192   3.986  11.922  0.0575 -0.7647  0.2198
   26MPD2    H5  408   0.216   3.895  11.960  2.8976  0.9181  2.4087
   26MPD2    N1  409   0.109   3.744  11.500 -0.1772  0.6387  0.1270
   26MPD2    H7  410   0.096   3.743  11.399  2.0828  2.8013 -0.2068
   27TMC2    C1  411   4.029   0.390  12.494 -0.0240 -0.3144  1.5542
   27TMC2    C2  412   3.990   0.460  12.386 -0.1647  0.1294 -0.1122
   27TMC2    C3  413   3.986   0.595  12.395 -0.0884 -0.1891 -0.2248
   27TMC2    C4  414   4.076   0.455  12.609 -0.5889 -0.5948  0.7440
   27TMC2    C5  415   4.083   0.591  12.611 -0.1959  0.2543 -0.2113
   27TMC2    C6  416   4.042   0.663  12.500  0.2373  0.3614 -0.1884
   27TMC2     C  417   3.946   0.274  12.529 -0.0997  0.2082  0.4147
   27TMC2     O  418   3.914   0.183  12.456  0.0438 -1.0691  0.5382
   27TMC2     H  419   3.940   0.418  12.299  1.3399  0.4158 -1.1092
   27TMC2    H1  420   4.121   0.397  12.688  1.9389 -1.8514 -1.6175
   27TMC2    H2  421   4.055   0.771  12.494  1.7265  0.2335  0.7841
   27TMC2    C7  422   4.055   0.628  12.744  0.5288  0.4175 -0.5267
   27TMC2    C8  423   3.921   0.662  12.283  0.5723 -0.2119 -0.9199
   27TMC2    O1  424   4.010   0.536  12.808  0.2056 -0.0898  0.1633
   27TMC2    O2  425   3.874   0.597  12.189 -0.5896 -0.4354  0.1614
   27TMC2    O5  426   3.879   0.787  12.318  0.0558  0.5681  0.0366
   27TMC2    H5  427   3.911   0.830  12.400  0.9155 -2.0023  1.0504
   28MPD2     C  428   3.666   0.066  12.905  0.0168  0.7296  0.2538
   28MPD2    C1  429   3.702   0.194  12.946  0.5553 -0.4873  0.3206
   28MPD2    C2  430   3.802   0.256  12.871 -0.1717 -0.2047  0.4302
   28MPD2    C3  431   3.825   0.206  12.743  0.5223 -0.4535 -0.0070
   28MPD2    C4  432   3.770   0.093  12.693  0.0390 -0.1402 -0.4048
   28MPD2    C5  433   3.695   0.021  12.780 -0.2294  0.5194 -0.6216
   28MPD2     H  434   3.844   0.350  12.903 -0.0235 -0.1552  0.0984
   28MPD2    H1  435   3.774   0.059  12.590 -1.2727 -1.0484 -0.1555
   28MPD2    H2  436   3.602   0.014  12.975  0.0110  0.0920 -0.2197
   28MPD2    H3  437   3.648   4.655  12.742 -1.3549 -0.0278  2.0189
   28MPD2     N  438   3.905   0.289  12.660  0.0473 -0.7146 -0.5972
   28MPD2    H5  439   3.935   0.376  12.703 -2.8423 -1.1110  2.2052
   28MPD2    N1  440   3.651   0.242  13.064 -0.1855  0.2447  0.6050
   28MPD2    H7  441   3.578   0.189  13.112  1.3817 -2.3652  0.1114
   29MPD2     C  442   3.903   2.550  14.434 -0.3485 -0.3599  0.1238
   29MPD2    C1  443   3.958   2.515  14.556 -0.2117  0.3769  0.1301
   29MPD2    C2  444   3.978   2.611  14.653  0.1838 -0.4790  0.2194
   29MPD2    C3  445   3.948   2.747  14.628  0.2608  0.5354 -0.1622
   29MPD2    C4  446   3.900   2.781  14.500  0.1014 -0.1924  0.8007
   29MPD2    C5  447   3.871   2.683  14.406  0.2741 -0.3707  0.1213
   29MPD2     H  448   4.021   2.574  14.745  1.0521  1.9543  0.8077
   29MPD2    H1  449   3.879   2.884  14.476  2.8577  0.2270  0.1230
   29MPD2    H2  450   3.893   2.481  14.351  1.9006  0.5573 -0.8968
   29MPD2    H3  451   3.828   2.701  14.308  0.0504 -0.5447  0.1879
   29MPD2     N  452   3.962   2.851  14.722  0.0739 -0.1805 -0.0661
   29MPD2    H5  453   3.962   2.945  14.684 -1.6697  0.8051  2.3977
   29MPD2    N1  454   3.999   2.381  14.576  0.1881 -0.2200 -0.0982
   29MPD2    H7  455   4.065   2.368  14.653  0.2680 -0.4297 -0.2020
   30TCq2    C1  456   3.976   2.829  14.856 -0.6012 -0.0914 -0.1678
   30TCq2    O2  457   3.976   2.725  14.922  0.0109 -0.2584  0.2919
   30TCq2    C2  458   3.965   2.947  14.941 -0.6454  0.3887 -0.1011
   30TCq2    C3  459   3.997   2.939  15.072 -0.0205 -0.6513  0.1052
   30TCq2    C4  460   4.015   3.058  15.143  0.1491  0.3521 -0.1065
   30TCq2    C5  461   4.015   3.177  15.076  0.2856  0.3528 -0.3936
   30TCq2    C6  462   3.954   3.180  14.954  0.1431 -0.5774  0.8569
   30TCq2    C7  463   3.931   3.063  14.886 -0.6600 -0.7812  0.2647
   30TCq2    C8  464   3.906   3.302  14.895  0.9597  0.8153 -0.3031
   30TCq2    O4  465   3.820   3.303  14.807  0.1851 -0.5284  0.5314
   30TCq2    C9  466   4.068   3.052  15.276 -0.3048  0.0991  0.1770
   30TCq2    O5  467   4.085   3.166  15.331  0.1236 -0.1350 -0.1660
   30TCq2    O6  468   4.058   2.943  15.347 -0.2798  0.1580 -0.4992
   30TCq2    H2  469   4.039   2.849  15.116 -0.0787  0.6309  2.7772
   30TCq2    H3  470   4.012   3.263  15.142  0.8543  0.7325 -0.8580
   30TCq2    H4  471   3.875   3.072  14.795 -0.6970  1.3405  0.4960
   31MPD2     C  472   2.091   2.395  14.930 -0.1797  1.1306 -0.0952
   31MPD2    C1  473   1.974   2.400  14.848  0.3201  0.1610 -0.3150
   31MPD2    C2  474   1.858   2.340  14.890  0.3641 -0.3534 -0.2162
   31MPD2    C3  475   1.856   2.268  15.011 -0.3815  0.3410 -0.5160
   31MPD2    C4  476   1.967   2.270  15.098  0.2758  0.1781 -0.1967
   31MPD2    C5  477   2.087   2.327  15.051 -0.1868 -0.2182 -0.3902
   31MPD2     H  478   1.764   2.333  14.837 -0.1796  0.6431  0.6169
   31MPD2    H1  479   1.973   2.214  15.190  1.1736 -2.2380 -1.7170
   31MPD2    H2  480   2.189   2.434  14.904  1.6602 -1.4335  2.9926
   31MPD2    H3  481   2.171   2.310  15.117  1.0934 -0.6868 -2.1279
   31MPD2     N  482   1.748   2.176  15.046 -0.6350  0.0366  0.1736
   31MPD2    H5  483   1.767   2.116  15.125 -1.3112  2.0180  1.8316
   31MPD2    N1  484   1.987   2.466  14.728  0.2420  0.2468 -0.1591
   31MPD2    H7  485   2.078   2.499  14.698  0.1880  0.3216 -0.2380
   32TCq2    C1  486   1.627   2.168  14.984 -0.3757  0.3335 -0.5085
   32TCq2    O2  487   1.580   2.232  14.889 -0.3586 -0.9529 -0.5118
   32TCq2    C2  488   1.535   2.077  15.043 -0.4385 -1.4112  0.7132
   32TCq2    C3  489   1.417   2.076  14.978 -0.3103  0.3527 -0.3978
   32TCq2    C4  490   1.309   2.055  15.057  0.2902  0.9249 -0.8500
   32TCq2    C5  491   1.318   2.025  15.189 -0.2450 -0.1156 -1.0513
   32TCq2    C6  492   1.442   2.035  15.253  0.3544 -0.3573  0.4853
   32TCq2    C7  493   1.553   2.049  15.174  0.7698 -0.2569  0.1455
   32TCq2    C8  494   1.458   2.000  15.391  0.7323 -0.0218  0.0076
   32TCq2    O4  495   1.570   1.956  15.409  0.3465  0.3121  0.5204
   32TCq2    C9  496   1.178   2.045  14.996 -0.0132 -0.4134  0.0071
   32TCq2    O5  497   1.074   2.034  15.075  0.0474  0.2935 -0.7681
   32TCq2    O6  498   1.175   2.037  14.873  0.0954 -0.4282 -0.0739
   32TCq2    H2  499   1.399   2.097  14.873 -1.3628  2.6282  0.2411
   32TCq2    H3  500   1.228   1.996  15.241  0.5085 -0.6755 -0.0451
   32TCq2    H4  501   1.650   2.055  15.222  1.4114 -1.2905 -1.0269
   33MPD2     C  502   1.620   4.381  11.007  0.2078  0.3120 -0.2624
   33MPD2    C1  503   1.499   4.336  10.969 -0.0539 -0.4696  0.0175
   33MPD2    C2  504   1.457   4.370  10.839 -0.2615  0.0199 -0.0096
   33MPD2    C3  505   1.537   4.449  10.756  0.0910  0.7059 -0.3162
   33MPD2    C4  506   1.663   4.495  10.801 -0.1108 -0.2938 -0.1869
   33MPD2    C5  507   1.705   4.453  10.921 -0.3309 -0.0722 -0.1348
   33MPD2     H  508   1.360   4.342  10.798 -0.7776  1.0485  0.4984
   33MPD2    H1  509   1.725   4.558  10.738 -0.6168  0.4930  0.1017
   33MPD2    H2  510   1.666   4.356  11.102 -1.8539 -1.4022  0.2895
   33MPD2    H3  511   1.809   4.477  10.944 -1.0699  0.4630  2.5867
   33MPD2     N  512   1.496   4.477  10.627  0.4100 -0.0924  0.5368
   33MPD2    H5  513   1.553   4.545  10.577 -0.3652 -0.9100 -1.4632
   33MPD2    N1  514   1.422   4.273  11.071  0.1121 -0.4710 -0.2534
   33MPD2    H7  515   1.469   4.256  11.160 -0.8078 -0.0689  0.3145
   34TCq2    C1  516   1.394   4.416  10.552 -0.4047  0.2089  0.8935
   34TCq2    O2  517   1.328   4.318  10.575  0.4233  0.3268  0.0246
   34TCq2    C2  518   1.378   4.472  10.418 -0.0532  0.4209  0.8268
   34TCq2    C3  519   1.319   4.393  10.316  0.6818  1.5447  0.4926
   34TCq2    C4  520   1.284   4.454  10.194 -0.0477  0.3914  0.0201
   34TCq2    C5  521   1.328   4.580  10.172  0.1419 -0.2653  0.0990
   34TCq2    C6  522   1.363   4.653  10.284  0.0101  0.3882 -0.5129
   34TCq2    C7  523   1.388   4.602  10.405 -0.2442 -0.1150  0.8319
   34TCq2    C8  524   1.419   0.060  10.257 -0.0933 -0.4861 -0.0792
   34TCq2    O4  525   1.512   0.100  10.328 -0.1968  0.3077  0.3164
   34TCq2    C9  526   1.232   4.377  10.083 -0.5973  0.0500 -0.1843
   34TCq2    O5  527   1.223   4.254  10.097  0.2015 -0.1275  0.4834
   34TCq2    O6  528   1.189   4.448   9.984 -0.2291  0.9629 -0.1399
   34TCq2    H2  529   1.278   4.294  10.332  4.7536 -0.2475 -0.0240
   34TCq2    H3  530   1.322   4.622  10.072  2.3732  0.8410  0.4473
   34TCq2    H4  531   1.414   4.667  10.487 -1.2877 -1.9495  2.6433
   35MPD2     C  532   2.954   1.398  12.245 -0.8457  0.4774  0.0781
   35MPD2    C1  533   2.987   1.265  12.242 -0.1398  0.4066 -0.2231
   35MPD2    C2  534   2.996   1.207  12.116 -0.5740 -1.0465 -0.5471
   35MPD2    C3  535   2.976   1.275  11.999 -0.6217  0.1421  0.3503
   35MPD2    C4  536   2.953   1.409  12.004 -0.6518 -0.0862  0.9476
   35MPD2    C5  537   2.941   1.468  12.128  0.3763  0.6983  0.2008
   35MPD2     H  538   3.029   1.104  12.109  0.4394 -0.7010 -0.7328
   35MPD2    H1  539   2.936   1.471  11.917 -1.9046  0.7938  1.8130
   35MPD2    H2  540   2.919   1.444  12.337 -0.7975 -1.1071  0.8804
   35MPD2    H3  541   2.908   1.571  12.138 -0.9126  0.3093 -0.0248
   35MPD2     N  542   2.970   1.197  11.882  0.5802 -0.4988  0.0588
   35MPD2    H5  543   2.971   1.097  11.895  0.1552 -0.2856  1.7056
   35MPD2    N1  544   3.000   1.191  12.364  0.3432 -0.5543 -0.2002
   35MPD2    H7  545   2.971   1.242  12.447  0.0290  0.1773 -0.7640
   36TCq2    C1  546   2.979   1.241  11.752 -0.7338  0.0413 -0.2108
   36TCq2    O2  547   2.990   1.357  11.715 -0.3277 -0.1989  0.1629
   36TCq2    C2  548   2.917   1.143  11.666  0.0933 -0.2039 -0.6659
   36TCq2    C3  549   2.917   1.178  11.531 -0.6124  0.2616  0.0753
   36TCq2    C4  550   2.851   1.086  11.450 -0.8833 -0.3266 -0.1428
   36TCq2    C5  551   2.792   0.971  11.497  0.7140  0.2444 -0.2636
   36TCq2    C6  552   2.782   0.949  11.635 -0.6926 -0.0979  0.5718
   36TCq2    C7  553   2.843   1.036  11.718  0.1498 -0.0025 -0.1659
   36TCq2    C8  554   2.735   0.823  11.690 -0.2090 -0.6445  0.1637
   36TCq2    O4  555   2.642   0.766  11.629  0.2508 -0.0191  0.5400
   36TCq2    C9  556   2.844   1.113  11.314 -0.3488  1.2352  0.2334
   36TCq2    O5  557   2.874   1.228  11.277 -0.1961 -0.2692 -0.4350
   36TCq2    O6  558   2.791   1.021  11.244 -0.0848 -0.6206 -0.2870
   36TCq2    H2  559   2.972   1.266  11.501 -1.3100  0.1242 -1.5601
   36TCq2    H3  560   2.747   0.896  11.433 -1.2564  1.0228  0.1987
   36TCq2    H4  561   2.837   1.022  11.825  1.3836  1.2084  0.0642
   37TMC2    C1  562   0.095   1.305  11.791 -0.1571 -0.2274  0.2566
   37TMC2    C2  563   0.023   1.310  11.672  0.2083  0.4685 -0.5132
   37TMC2    C3  564   0.066   1.393  11.581 -0.0910 -0.4502 -0.0805
   37TMC2    C4  565   0.203   1.385  11.823  0.5921 -0.4430  0.6822
   37TMC2    C5  566   0.248   1.453  11.718  0.3635  0.3353  0.5079
   37TMC2    C6  567   0.183   1.461  11.598  0.1709  0.2154  0.6887
   37TMC2     C  568   0.031   1.229  11.905 -0.5436 -0.0309 -0.4872
   37TMC2     O  569   4.641   1.187  11.884 -0.1601  0.1481  0.4850
   37TMC2     H  570   4.661   1.247  11.654 -1.5888  1.8658  3.1857
   37TMC2    H1  571   0.246   1.383  11.923 -0.1394  2.2726  1.0427
   37TMC2    H2  572   0.234   1.505  11.512  1.6231 -0.4939  1.1838
   37TMC2    C7  573   0.382   1.511  11.740  0.6622  0.2369 -0.0700
   37TMC2    C8  574   0.000   1.376  11.450 -0.4144  0.4132 -0.4092
   37TMC2    O1  575   0.444   1.479  11.835 -0.8184 -0.1325  0.2612
   37TMC2    O2  576   4.658   1.283  11.416  0.0414 -0.0064  0.7936
   37TMC2    O5  577   0.028   1.487  11.381 -0.1447  0.1089 -0.2031
   37TMC2    H5  578   0.068   1.552  11.443 -0.1717  0.8827 -1.0065
   38MPD2     C  579   0.091   0.923  12.312 -0.2028  0.5016  0.0628
   38MPD2    C1  580   0.218   0.962  12.266 -0.3355  0.3882  0.4715
   38MPD2    C2  581   0.226   1.050  12.158  0.5120 -0.2425  0.6568
   38MPD2    C3  582   0.108   1.095  12.096 -0.5222  0.0764 -0.4720
   38MPD2    C4  583   4.710   1.057  12.145  0.5322  0.3072 -0.6600
   38MPD2    C5  584   4.702   0.967  12.251  0.9613  0.5544  0.2091
   38MPD2     H  585   0.323   1.081  12.120 -0.8537  1.0129 -1.7664
   38MPD2    H1  586   4.623   1.110  12.109  0.6355  1.2761  0.5134
   38MPD2    H2  587   0.069   0.860  12.397 -2.8926  0.9874 -0.2793
   38MPD2    H3  588   4.609   0.939  12.300  0.9430  0.5589  0.1764
   38MPD2     N  589   0.123   1.188  11.992  0.0689 -0.3543 -0.1920
   38MPD2    H5  590   0.216   1.224  11.970 -1.8618  3.4933 -2.0593
   38MPD2    N1  591   0.341   0.912  12.320 -0.3559 -0.4159 -0.1948
   38MPD2    H7  592   0.427   0.946  12.280 -0.9924 -1.3581 -2.3799
   39MPD2     C  593   4.030   2.174   1.804  0.2851 -0.5142 -0.1372
   39MPD2    C1  594   3.981   2.220   1.931  0.7073 -0.0520  0.5067
   39MPD2    C2  595   3.846   2.232   1.951 -0.0483  0.0096 -0.5383
   39MPD2    C3  596   3.758   2.201   1.847 -0.4156 -0.4231 -0.0398
   39MPD2    C4  597   3.804   2.145   1.730 -0.5289  0.5815  0.4323
   39MPD2    C5  598   3.939   2.131   1.707 -0.4189  1.0235  0.1842
   39MPD2     H  599   3.801   2.284   2.035  2.6532 -0.3308  1.1227
   39MPD2    H1  600   3.738   2.136   1.645  0.2687 -0.0795 -0.1233
   39MPD2    H2  601   4.137   2.177   1.786  0.9795 -1.2446  3.8222
   39MPD2    H3  602   3.968   2.103   1.606 -0.9896 -0.2043  0.3546
   39MPD2     N  603   3.617   2.225   1.848 -0.4177  0.1942  0.3269
   39MPD2    H5  604   3.573   2.204   1.759  0.4873 -1.4266  0.2502
   39MPD2    N1  605   4.077   2.252   2.027 -0.2232  0.2042  0.4589
   39MPD2    H7  606   4.169   2.278   1.993 -0.2530  0.6338  0.7140
   40TCq2    C1  607   4.052   2.265   2.167 -0.4806 -0.3760 -0.3426
   40TCq2    O2  608   3.953   2.233   2.236 -0.1087 -0.2966  0.2557
   40TCq2    C2  609   4.170   2.292   2.240  0.5351  0.9077  0.5679
   40TCq2    C3  610   4.153   2.373   2.342 -0.4127 -0.0452 -0.4622
   40TCq2    C4  611   4.261   2.448   2.386  0.2722 -0.4258 -0.3977
   40TCq2    C5  612   4.389   2.441   2.338 -0.9589  0.3186  0.2300
   40TCq2    C6  613   4.404   2.355   2.228  0.7945 -0.6914 -0.0386
   40TCq2    C7  614   4.300   2.280   2.182 -0.3732  0.6263  0.1839
   40TCq2    C8  615   4.532   2.335   2.156 -0.3656 -0.6170  0.7082
   40TCq2    O4  616   4.541   2.254   2.063  0.3573  0.5047 -0.2026
   40TCq2    C9  617   4.239   2.530   2.506  0.7331  0.5010  0.1558
   40TCq2    O5  618   4.142   2.497   2.569  0.1327  0.6950  0.0233
   40TCq2    O6  619   4.311   2.631   2.526  0.1833 -0.5916  0.3461
   40TCq2    H2  620   4.053   2.384   2.382 -1.3915  0.5035 -3.0332
   40TCq2    H3  621   4.460   2.514   2.374  1.4597 -1.2012 -1.4505
   40TCq2    H4  622   4.320   2.214   2.098  0.2262 -0.6281  1.3203
   41TMC2    C1  623   2.491   1.391  14.055 -0.9270 -0.7258 -0.2438
   41TMC2    C2  624   2.478   1.517  14.118 -0.3895  0.3417  0.0155
   41TMC2    C3  625   2.422   1.619  14.046  0.4857  1.0335  0.2681
   41TMC2    C4  626   2.443   1.367  13.930  0.4431 -0.1503  0.3434
   41TMC2    C5  627   2.396   1.474  13.857  0.3153 -0.3787 -0.3404
   41TMC2    C6  628   2.383   1.603  13.911 -0.4251 -0.6820  0.4217
   41TMC2     C  629   2.555   1.287  14.131  0.5938  0.1775  0.3724
   41TMC2     O  630   2.626   1.204  14.079  0.3749  0.2831 -0.6767
   41TMC2     H  631   2.515   1.533  14.219  2.8205  1.2143 -1.3089
   41TMC2    H1  632   2.429   1.266  13.894  0.4452  0.1909 -0.6172
   41TMC2    H2  633   2.347   1.685  13.849  2.4300  1.5024  1.6392
   41TMC2    C7  634   2.305   1.447  13.750  0.6779  0.1785 -0.3415
   41TMC2    C8  635   2.475   1.751  14.087 -0.3795 -0.5853 -0.5170
   41TMC2    O1  636   2.199   1.506  13.739  0.1691 -0.2205  0.2257
   41TMC2    O2  637   2.392   1.835  14.099  0.0717  0.1782 -0.4777
   41TMC2    O5  638   2.552   1.762  13.976  0.1566 -0.0228  0.8294
   41TMC2    H5  639   2.608   1.682  13.965  0.2486 -0.1023  1.8613
   42MPD2     C  640   2.673   1.117  14.348  0.4131 -0.7246  0.1531
   42MPD2    C1  641   2.585   1.223  14.371  0.1619  1.2713 -0.1937
   42MPD2    C2  642   2.550   1.255  14.499  0.1741 -0.1335  0.0221
   42MPD2    C3  643   2.582   1.166  14.607  0.7109 -0.2353 -0.0372
   42MPD2    C4  644   2.670   1.059  14.579 -0.3945  0.3130  0.3783
   42MPD2    C5  645   2.711   1.031  14.453  0.3869  0.3949  0.1348
   42MPD2     H  646   2.479   1.334  14.521  1.3603  0.9695 -0.1576
   42MPD2    H1  647   2.696   0.995  14.664 -1.3417  0.8519  1.0649
   42MPD2    H2  648   2.704   1.097  14.246 -1.2889  1.7876 -0.8543
   42MPD2    H3  649   2.771   0.942  14.438  0.9285  0.6353  0.8449
   42MPD2     N  650   2.537   1.179  14.740 -0.4510  0.0904 -0.2969
   42MPD2    H5  651   2.545   1.097  14.800  1.1844 -0.3432 -1.1080
   42MPD2    N1  652   2.530   1.301  14.268 -0.1032  0.3822 -0.2164
   42MPD2    H7  653   2.466   1.368  14.308  0.3745 -0.5668  2.1623
   43MPD2     C  654   4.280   3.793   1.150 -0.3406  0.3592  0.4766
   43MPD2    C1  655   4.362   3.775   1.259 -0.9625 -0.0797 -0.1036
   43MPD2    C2  656   4.349   3.845   1.381  0.3799 -0.3461 -0.2591
   43MPD2    C3  657   4.254   3.949   1.389 -0.7345 -0.2430 -0.4671
   43MPD2    C4  658   4.168   3.966   1.279  0.3805 -0.9490  0.0431
   43MPD2    C5  659   4.182   3.889   1.159  0.3996 -0.3900 -0.1262
   43MPD2     H  660   4.416   3.819   1.462  2.0020  0.2930 -1.3819
   43MPD2    H1  661   4.094   4.045   1.271  0.7949 -0.4961  0.7602
   43MPD2    H2  662   4.290   3.754   1.049  0.3494  0.3245  0.5563
   43MPD2    H3  663   4.122   3.909   1.071  0.9909 -0.0703 -0.4580
   43MPD2     N  664   4.232   4.038   1.497 -0.7587 -0.5461  0.1351
   43MPD2    H5  665   4.162   4.108   1.477 -2.6209 -2.1623  1.0063
   43MPD2    N1  666   4.472   3.688   1.250 -0.4396 -0.1171  0.8976
   43MPD2    H7  667   4.529   3.684   1.334  3.1591 -1.3328 -1.5901
   44TCq2    C1  668   4.339   4.297   2.013 -0.0167  0.3215  0.1360
   44TCq2    O2  669   4.446   4.352   1.983 -0.2625  0.2015  0.2339
   44TCq2    C2  670   4.254   4.235   1.915 -0.1270  1.0392  0.1537
   44TCq2    C3  671   4.124   4.267   1.915  1.1203 -0.2754 -0.1160
   44TCq2    C4  672   4.055   4.236   1.806  0.2282  0.0258  0.4475
   44TCq2    C5  673   4.107   4.169   1.701 -0.2870  0.4165 -0.5346
   44TCq2    C6  674   4.239   4.132   1.704  0.3908  0.4193 -0.3332
   44TCq2    C7  675   4.318   4.189   1.799  0.4487 -0.6761  0.7122
   44TCq2    C8  676   4.285   4.025   1.625 -0.4372 -0.1796  0.1115
   44TCq2    O4  677   4.384   3.959   1.657  0.5111  0.1174  0.1932
   44TCq2    C9  678   3.910   4.252   1.810  0.4657 -0.3482  0.0763
   44TCq2    O5  679   3.863   4.315   1.906 -0.6504 -0.3460  0.2369
   44TCq2    O6  680   3.841   4.191   1.726 -0.1970  0.1202  0.1143
   44TCq2    H2  681   4.075   4.317   1.998 -0.4105 -1.3908 -0.3399
   44TCq2    H3  682   4.040   4.129   1.626  0.7947  0.7962 -1.6990
   44TCq2    H4  683   4.422   4.161   1.809  0.7259  0.5910  1.4328
   45TMC2    C1  684   3.972   1.923   9.966 -0.5777 -0.1541  0.1518
   45TMC2    C2  685   3.864   1.946   9.879 -0.2789 -0.3149 -0.3735
   45TMC2    C3  686   3.875   2.059   9.798 -0.6492  0.1457 -0.0914
   45TMC2    C4  687   4.057   2.014  10.003 -0.1344  0.1614 -0.1070
   45TMC2    C5  688   4.069   2.118   9.918 -0.2521  0.0377  0.7409
   45TMC2    C6  689   3.980   2.143   9.812 -0.1368 -0.4405 -0.0759
   45TMC2     C  690   3.966   1.799  10.042  0.7421  0.4255  0.1603
   45TMC2     O  691   4.023   1.791  10.150 -0.3141 -0.2503  0.0458
   45TMC2     H  692   3.787   1.871   9.864  0.6674 -1.3207 -0.2234
   45TMC2    H1  693   4.132   1.994  10.079 -0.3918 -0.9094 -0.1322
   45TMC2    H2  694   4.002   2.230   9.752  2.0349 -0.6757  0.3847
   45TMC2    C7  695   4.173   2.210   9.947  0.6523 -0.3737 -0.0542
   45TMC2    C8  696   3.749   2.101   9.736  0.0323  0.0010  0.0806
   45TMC2    O1  697   4.237   2.187  10.043 -0.6638 -0.1236  0.2128
   45TMC2    O2  698   3.753   2.178   9.639  0.0744  0.4698  0.2761
   45TMC2    O5  699   3.651   2.100   9.836  0.0612  0.4760  0.2779
   45TMC2    H5  700   3.642   2.030   9.905  0.0125  0.0952 -0.1112
   46MPD2     C  701   4.021   1.508  10.093  0.3465 -0.1704  1.0464
   46MPD2    C1  702   3.925   1.556  10.008 -0.2370  0.1326 -0.1262
   46MPD2    C2  703   3.830   1.472   9.956  0.3001 -0.0960  0.1838
   46MPD2    C3  704   3.844   1.331   9.962  0.2550 -0.7800 -0.3020
   46MPD2    C4  705   3.953   1.287  10.037  0.0011 -0.0292  0.9089
   46MPD2    C5  706   4.033   1.373  10.101 -0.9894  0.5294  0.2643
   46MPD2     H  707   3.753   1.526   9.903  0.9275  2.5893  1.9327
   46MPD2    H1  708   3.964   1.179  10.046 -2.5256 -0.2939  0.8892
   46MPD2    H2  709   4.094   1.570  10.144  0.6271  1.5238 -1.3825
   46MPD2    H3  710   4.105   1.323  10.165 -1.9493 -1.2267 -0.0457
   46MPD2     N  711   3.745   1.246   9.907  0.3678  0.3854  0.7652
   46MPD2    H5  712   3.662   1.292   9.871 -0.7752 -0.5474  2.1989
   46MPD2    N1  713   3.916   1.691   9.970 -0.2716 -0.0835 -0.0738
   46MPD2    H7  714   3.875   1.704   9.878 -0.2399  2.5538  0.2794
   47TMC2    C1  715   1.698   2.178   9.371 -0.9453 -0.0940 -0.4300
   47TMC2    C2  716   1.688   2.211   9.241 -0.4028 -0.1013 -0.4275
   47TMC2    C3  717   1.594   2.146   9.160 -0.9993 -0.0930 -0.8587
   47TMC2    C4  718   1.617   2.081   9.424 -0.1322 -0.1639 -0.6703
   47TMC2    C5  719   1.522   2.020   9.339  0.0302 -0.4482  0.7869
   47TMC2    C6  720   1.504   2.056   9.212 -0.1668  0.0267  0.2162
   47TMC2     C  721   1.805   2.225   9.456  0.5321 -0.8614  0.4017
   47TMC2     O  722   1.821   2.347   9.449  0.1395  0.1530 -0.2539
   47TMC2     H  723   1.753   2.288   9.201  2.0377 -2.3746 -0.8442
   47TMC2    H1  724   1.628   2.066   9.531 -1.3733  1.6454 -0.2906
   47TMC2    H2  725   1.428   2.009   9.152 -1.0029  0.9959  0.5274
   47TMC2    C7  726   1.419   1.942   9.403 -0.3252  0.0547  0.3957
   47TMC2    C8  727   1.561   2.215   9.034  0.0823  0.3982 -0.6645
   47TMC2    O1  728   1.308   1.959   9.358  0.3394  0.0208  0.6728
   47TMC2    O2  729   1.618   2.323   9.011 -0.3633  0.3852  0.0488
   47TMC2    O5  730   1.548   2.116   8.941  0.0339 -0.4862 -0.2113
   47TMC2    H5  731   1.508   2.031   8.967 -1.0402  0.2269  0.4821
   48MPD2     C  732   1.989   2.292   9.682  0.1350 -0.3292 -0.7829
   48MPD2    C1  733   1.961   2.164   9.636 -0.0807 -0.5160 -0.1003
   48MPD2    C2  734   2.037   2.058   9.676 -0.4122 -0.1273  0.8926
   48MPD2    C3  735   2.135   2.071   9.777  0.2160  0.4663  0.1729
   48MPD2    C4  736   2.148   2.194   9.837  0.0894 -0.4275 -0.2510
   48MPD2    C5  737   2.071   2.299   9.790  0.2107  0.1682 -0.0589
   48MPD2     H  738   2.010   1.964   9.630 -1.2007  0.6560 -0.2308
   48MPD2    H1  739   2.217   2.210   9.919  0.8832  2.1884 -1.4445
   48MPD2    H2  740   1.948   2.384   9.642  0.3078  0.8300  1.6845
   48MPD2    H3  741   2.087   2.395   9.838  1.3251  1.1451 -2.4010
   48MPD2     N  742   2.211   1.960   9.798  0.1322  0.7955 -0.4840
   48MPD2    H5  743   2.180   1.882   9.741  0.4054 -0.0096  0.4715
   48MPD2    N1  744   1.859   2.133   9.545  0.1628 -0.2402  0.9904
   48MPD2    H7  745   1.857   2.034   9.521 -3.1298  0.0228  0.0887
   49MPD2     C  746   4.113   3.310  10.300  0.2241  0.7166 -0.5204
   49MPD2    C1  747   4.184   3.299  10.417  0.1565 -0.2999  0.3086
   49MPD2    C2  748   4.215   3.411  10.490 -0.0243 -0.3067  0.1232
   49MPD2    C3  749   4.188   3.539  10.444 -0.2644  0.2467  0.8705
   49MPD2    C4  750   4.124   3.548  10.320 -0.0117  0.2050  0.2569
   49MPD2    C5  751   4.083   3.436  10.250 -0.4171 -0.3655 -0.0119
   49MPD2     H  752   4.275   3.400  10.580 -0.8516  0.1470  0.7353
   49MPD2    H1  753   4.093   3.647  10.290 -0.3774  0.3531  1.1345
   49MPD2    H2  754   4.062   3.228  10.251  3.3838 -1.9455  0.6576
   49MPD2    H3  755   4.027   3.456  10.159  2.6695  1.0808 -1.6024
   49MPD2     N  756   4.230   3.655  10.516 -0.2485  0.4034  0.2504
   49MPD2    H5  757   4.213   3.746  10.475 -0.9536 -0.1874 -0.7607
   49MPD2    N1  758   4.209   3.180  10.481  0.0523  0.0920 -0.2548
   49MPD2    H7  759   4.234   3.189  10.580 -1.8402 -1.4862  0.3650
   50TCq2    C1  760   4.198   3.056  10.427  0.1031 -0.5944  0.6877
   50TCq2    O2  761   4.169   3.028  10.314  0.3281 -0.5055 -0.9268
   50TCq2    C2  762   4.236   2.949  10.522  0.1359 -0.0988 -0.2851
   50TCq2    C3  763   4.198   2.822  10.482  0.2472 -0.1275 -0.4066
   50TCq2    C4  764   4.229   2.719  10.562 -0.5452  0.2543 -0.4030
   50TCq2    C5  765   4.296   2.740  10.679  0.0577 -0.3754  0.2759
   50TCq2    C6  766   4.331   2.872  10.724  0.0195  0.4977  0.0674
   50TCq2    C7  767   4.289   2.976  10.645 -0.4535 -0.0157 -0.3217
   50TCq2    C8  768   4.384   2.883  10.858 -0.3002  0.9878 -0.0823
   50TCq2    O4  769   4.417   2.779  10.911  0.0297  0.5449 -0.1484
   50TCq2    C9  770   4.205   2.586  10.522  0.6856 -0.3784  0.6525
   50TCq2    O5  771   4.125   2.561  10.432 -0.4474  0.0958 -0.0641
   50TCq2    O6  772   4.284   2.495  10.558 -0.2165  0.1003  0.2290
   50TCq2    H2  773   4.151   2.804  10.386 -0.1305  0.2402 -0.2906
   50TCq2    H3  774   4.331   2.659  10.742  1.6470  0.4586  0.4758
   50TCq2    H4  775   4.343   3.069  10.659 -0.6095  0.2071 -1.1977
   51MPD2     C  776   1.259   1.514   2.045  0.3661  0.1572 -0.0452
   51MPD2    C1  777   1.389   1.462   2.030  0.5816 -0.1942  0.4598
   51MPD2    C2  778   1.456   1.428   2.144 -1.1567 -0.4308  0.1054
   51MPD2    C3  779   1.406   1.452   2.267 -0.4475  0.4364  0.2166
   51MPD2    C4  780   1.277   1.499   2.280  0.1768 -0.2409 -0.6302
   51MPD2    C5  781   1.205   1.534   2.168  0.4189  0.1408  0.0845
   51MPD2     H  782   1.552   1.380   2.133 -1.7987 -2.1611  2.0709
   51MPD2    H1  783   1.235   1.531   2.374  1.8465 -0.3066  0.1317
   51MPD2    H2  784   1.205   1.564   1.965  0.7300 -1.8279 -1.5144
   51MPD2    H3  785   1.102   1.565   2.181  0.9420  1.5971  0.7241
   51MPD2     N  786   1.498   1.446   2.378  0.1472  0.4220 -0.6409
   51MPD2    H5  787   1.596   1.428   2.364  0.1568 -0.7737  1.0149
   51MPD2    N1  788   1.441   1.437   1.903  0.3336 -0.3265  0.2322
   51MPD2    H7  789   1.532   1.393   1.893  1.6430  1.9855  2.0993
   52TCq2    C1  790   1.466   1.458   2.517  0.1419 -0.1728  0.5275
   52TCq2    O2  791   1.358   1.453   2.567 -0.3303 -0.4970  0.3334
   52TCq2    C2  792   1.576   1.459   2.605 -0.4872 -0.2120  1.2910
   52TCq2    C3  793   1.550   1.448   2.739 -0.0115 -0.5581  0.2239
   52TCq2    C4  794   1.652   1.461   2.824 -0.5612 -0.4363 -0.5776
   52TCq2    C5  795   1.771   1.512   2.786 -0.1635 -0.2493 -0.6708
   52TCq2    C6  796   1.786   1.547   2.657 -0.0785  0.0774 -0.8512
   52TCq2    C7  797   1.696   1.512   2.561  0.4948  0.3517  0.7633
   52TCq2    C8  798   1.903   1.615   2.605  0.3117  0.0419  0.3771
   52TCq2    O4  799   1.891   1.681   2.501 -0.6841  0.1250  0.1593
   52TCq2    C9  800   1.623   1.422   2.965  0.4553  0.0023  0.5264
   52TCq2    O5  801   1.713   1.365   3.032  0.4927 -1.0851  0.4030
   52TCq2    O6  802   1.503   1.422   3.000 -0.1769 -0.2926 -0.0341
   52TCq2    H2  803   1.458   1.412   2.784  1.2508 -2.3977  1.3347
   52TCq2    H3  804   1.848   1.529   2.860 -1.1675  1.2314  0.0401
   52TCq2    H4  805   1.714   1.544   2.459 -0.8984 -2.0221 -0.2071
   53TMC2    C1  806   0.969   1.816  12.042 -0.0168 -0.4889  0.1204
   53TMC2    C2  807   1.099   1.858  12.063 -0.3580 -0.3602 -0.1856
   53TMC2    C3  808   1.148   1.823  12.188 -0.7081  0.8443  0.4510
   53TMC2    C4  809   0.890   1.742  12.131  0.1531 -0.2853  0.4693
   53TMC2    C5  810   0.959   1.699  12.245 -0.0338 -0.4758 -0.2901
   53TMC2    C6  811   1.083   1.745  12.274  0.2111 -0.3285  0.4090
   53TMC2     C  812   0.912   1.854  11.914  0.0772 -0.0581  0.1800
   53TMC2     O  813   0.959   1.954  11.859 -0.4067  0.1338  0.2558
   53TMC2     H  814   1.163   1.902  11.988 -0.4620 -0.9644 -0.6363
   53TMC2    H1  815   0.783   1.729  12.116 -0.3330  2.9270  1.1038
   53TMC2    H2  816   1.130   1.733  12.371  0.2069  0.7506  0.5357
   53TMC2    C7  817   0.880   1.618  12.332  0.0749  0.0207 -0.3753
   53TMC2    C8  818   1.288   1.848  12.216  0.1209  0.4738 -0.2453
   53TMC2    O1  819   0.759   1.625  12.319  0.0692 -0.2320  0.2944
   53TMC2    O2  820   1.330   1.839  12.328  0.1437 -0.0886 -0.4848
   53TMC2    O5  821   1.350   1.802  12.108  0.0199  0.7397 -0.1872
   53TMC2    H5  822   1.291   1.782  12.033 -0.4624  3.0805 -0.4275
   54MPD2     C  823   0.726   1.884  11.684 -0.1175  0.0918 -0.0021
   54MPD2    C1  824   0.724   1.775  11.771 -0.1741  0.0608 -0.3603
   54MPD2    C2  825   0.616   1.686  11.758 -0.2658  0.1851 -0.2292
   54MPD2    C3  826   0.511   1.707  11.671  0.1083 -0.0710  0.4120
   54MPD2    C4  827   0.502   1.817  11.595  0.7825  0.5711  0.2043
   54MPD2    C5  828   0.614   1.901  11.606 -0.5332  0.3542 -0.5047
   54MPD2     H  829   0.629   1.593  11.812  2.6317  0.9301  0.3255
   54MPD2    H1  830   0.434   1.824  11.511 -0.5949  0.0930  1.2797
   54MPD2    H2  831   0.819   1.936  11.665 -0.8346  1.1822 -0.4934
   54MPD2    H3  832   0.618   1.988  11.540 -0.8632  2.8596  2.7918
   54MPD2     N  833   0.408   1.610  11.651  0.6492 -0.3249 -0.7938
   54MPD2    H5  834   0.339   1.628  11.578 -0.4607 -2.5830 -0.2698
   54MPD2    N1  835   0.810   1.762  11.881  0.6872  0.2947 -0.4883
   54MPD2    H7  836   0.796   1.686  11.947  1.7065  0.7708  0.2821
   55MPD2     C  837   2.325   3.585   0.133 -0.2344 -0.2676 -0.2706
   55MPD2    C1  838   2.271   3.492   0.228  0.1341  0.0956 -0.0254
   55MPD2    C2  839   2.158   3.537   0.299  0.2183  0.0547  0.3248
   55MPD2    C3  840   2.110   3.668   0.289 -0.2619 -0.2440 -0.4545
   55MPD2    C4  841   2.175   3.752   0.202 -0.1624 -0.5147  0.0090
   55MPD2    C5  842   2.281   3.712   0.127  0.0519 -0.4763  0.7886
   55MPD2     H  843   2.108   3.465   0.362 -2.2675  1.0165 -0.5578
   55MPD2    H1  844   2.160   3.858   0.218 -4.4112 -1.5757  2.9372
   55MPD2    H2  845   2.409   3.550   0.074  0.5602  0.1100  0.6405
   55MPD2    H3  846   2.343   3.782   0.072 -0.8792  0.3391  0.7755
   55MPD2     N  847   2.005   3.710   0.373  0.4117  1.0255  0.1911
   55MPD2    H5  848   1.973   3.648   0.446  1.4274 -1.6914 -1.6487
   55MPD2    N1  849   2.327   3.367   0.238 -0.3819 -0.0118  0.5208
   55MPD2    H7  850   2.414   3.355   0.187 -1.7622 -1.8919 -1.3818
   56TCq2    C1  851   2.285   3.264   0.318  0.6358  0.4562 -0.0857
   56TCq2    O2  852   2.185   3.246   0.389  0.3978 -0.6027 -0.4039
   56TCq2    C2  853   2.380   3.147   0.296  0.4961 -1.0849 -0.4256
   56TCq2    C3  854   2.471   3.131   0.190  0.0523  0.4704  0.3219
   56TCq2    C4  855   2.560   3.031   0.202 -0.3118 -0.9370  0.3835
   56TCq2    C5  856   2.551   2.929   0.294  0.9100  0.1968  0.5337
   56TCq2    C6  857   2.450   2.933   0.383  0.7525 -0.9656 -0.8898
   56TCq2    C7  858   2.369   3.041   0.380 -0.7686 -0.0055 -0.1067
   56TCq2    C8  859   2.460   2.832   0.495 -0.5792  0.2546  0.0029
   56TCq2    O4  860   2.558   2.759   0.505 -0.6362 -0.6233  0.2875
   56TCq2    C9  861   2.656   3.013   0.097 -0.1192  0.3396  0.1927
   56TCq2    O5  862   2.676   3.110   0.018  0.0198 -0.1382 -0.1420
   56TCq2    O6  863   2.680   2.891   0.071  0.0582  0.2621  0.8463
   56TCq2    H2  864   2.484   3.189   0.099 -0.0473  2.2902  1.4671
   56TCq2    H3  865   2.631   2.855   0.295 -1.3481 -2.2393  0.6960
   56TCq2    H4  866   2.284   3.034   0.447 -1.4862 -0.4162 -1.0698
   57TMC2    C1  867   1.261   4.340  13.876  0.2085 -0.6792  0.1664
   57TMC2    C2  868   1.396   4.342  13.888 -0.6067 -0.0459  0.4049
   57TMC2    C3  869   1.462   4.235  13.845  0.3141 -0.6463  0.1828
   57TMC2    C4  870   1.189   4.234  13.834  0.2949 -0.0168 -0.2370
   57TMC2    C5  871   1.265   4.138  13.779  0.5210  0.2178 -0.2198
   57TMC2    C6  872   1.398   4.128  13.790  0.6935  0.2956  0.1459
   57TMC2     C  873   1.177   4.453  13.926 -0.5046 -0.3092  0.1859
   57TMC2     O  874   1.074   4.472  13.870 -0.1978 -0.4232 -0.0163
   57TMC2     H  875   1.450   4.426  13.930  0.2365 -1.4711  2.1956
   57TMC2    H1  876   1.081   4.239  13.825  0.3220  1.6393  0.3009
   57TMC2    H2  877   1.454   4.052  13.736 -0.2761  0.5307 -1.1966
   57TMC2    C7  878   1.196   4.008  13.772 -0.2392  0.2844 -0.1544
   57TMC2    C8  879   1.595   4.201  13.893  0.1804  0.3108 -0.9897
   57TMC2    O1  880   1.272   3.920  13.811  0.4936 -0.2948 -0.2076
   57TMC2    O2  881   1.655   4.096  13.862  0.4445 -0.2395 -0.2278
   57TMC2    O5  882   1.621   4.259  14.014  0.3211 -0.2994  0.0039
   57TMC2    H5  883   1.575   4.342  14.041 -0.9141 -0.5049 -1.4381
   58MPD2     C  884   1.070   0.040  14.307  0.8117 -0.0759  0.3181
   58MPD2    C1  885   1.013   0.026  14.184 -0.2366 -0.9152  0.0199
   58MPD2    C2  886   1.057   4.661  14.092  0.2943 -0.3970  0.1506
   58MPD2    C3  887   1.181   4.604  14.120 -0.4490  1.0288 -0.2285
   58MPD2    C4  888   1.246   4.623  14.240 -0.2121  0.5777 -0.0103
   58MPD2    C5  889   1.187   4.704  14.330 -0.6148  0.5270 -0.1590
   58MPD2     H  890   1.008   4.648  13.996 -0.0483 -0.1674  0.2987
   58MPD2    H1  891   1.344   4.580  14.255 -1.0583 -1.1862  0.4532
   58MPD2    H2  892   1.024   0.104  14.381 -0.0473 -1.0686  0.6547
   58MPD2    H3  893   1.243   0.007  14.419  0.0566  0.9955 -0.7229
   58MPD2     N  894   1.243   4.511  14.031  0.3322 -0.7092  0.1036
   58MPD2    H5  895   1.324   4.459  14.062  0.1971  0.0671  1.7591
   58MPD2    N1  896   0.893   0.092  14.147  0.4311 -0.1512 -0.0260
   58MPD2    H7  897   0.858   0.076  14.053 -1.2279  0.9151  0.4105
   59MPD2     C  898   3.110   4.624  13.664 -0.8375  0.1364 -0.3938
   59MPD2    C1  899   3.203   4.617  13.566 -0.2891 -0.0132  0.4142
   59MPD2    C2  900   3.335   4.606  13.595 -0.0351  0.1164  0.3794
   59MPD2    C3  901   3.375   4.628  13.728  0.4913  0.3430 -0.1474
   59MPD2    C4  902   3.278   4.642  13.831  0.0088 -0.0107 -0.2523
   59MPD2    C5  903   3.146   4.639  13.800  0.1610 -0.1933  0.3660
   59MPD2     H  904   3.404   4.602  13.512 -1.0090 -1.3753 -0.3553
   59MPD2    H1  905   3.299   4.675  13.932  1.0867  1.4633 -0.9605
   59MPD2    H2  906   3.005   4.617  13.639 -0.5793  1.0089 -1.6803
   59MPD2    H3  907   3.070   4.632  13.878  1.1122 -0.2044  1.2884
   59MPD2     N  908   3.503   4.631  13.771 -0.4045  0.4508  0.0713
   59MPD2    H5  909   3.510   4.631  13.872 -1.5302  2.4306  0.1617
   59MPD2    N1  910   3.172   4.617  13.432 -0.0772  0.2587  0.4343
   59MPD2    H7  911   3.250   4.635  13.371  1.1235  0.4824  2.0347
   60TCq2    C1  912   3.050   4.602  13.375 -0.0054 -0.1819  0.0734
   60TCq2    O2  913   2.958   4.541  13.425 -0.1802 -0.3877  0.0576
   60TCq2    C2  914   3.041   4.625  13.235  0.5221  0.5211  0.0225
   60TCq2    C3  915   2.916   4.624  13.175  0.0687  0.1540  0.3435
   60TCq2    C4  916   2.900   4.695  13.061 -0.5176  0.6442 -0.2169
   60TCq2    C5  917   3.006   0.034  12.998  0.4291  0.3898  0.3109
   60TCq2    C6  918   3.122   0.037  13.063  0.4416 -0.1192 -0.7137
   60TCq2    C7  919   3.143   4.699  13.183  0.0591  0.0626 -0.3836
   60TCq2    C8  920   3.220   0.138  13.022 -0.2676 -0.2215  0.1720
   60TCq2    O4  921   3.328   0.143  13.079  0.5755 -0.1801 -0.3412
   60TCq2    C9  922   2.765   4.712  13.014  0.3554 -0.1699 -0.4863
   60TCq2    O5  923   2.682   4.634  13.052  0.2684 -0.0736  0.0635
   60TCq2    O6  924   2.741   0.079  12.931  0.0553 -0.8381 -0.4660
   60TCq2    H2  925   2.833   4.577  13.225 -0.0700  0.4545  0.3979
   60TCq2    H3  926   2.986   0.077  12.901 -2.5445 -0.4665  0.5501
   60TCq2    H4  927   3.236   4.716  13.235  0.1617  0.7309 -0.7872
   61MPD2     C  928   2.838   1.542  14.390  0.0201 -0.8986  0.2445
   61MPD2    C1  929   2.756   1.584  14.489 -0.8071  0.5978 -0.2021
   61MPD2    C2  930   2.679   1.701  14.467  0.8570  0.7044  0.4479
   61MPD2    C3  931   2.691   1.773  14.352  0.5273 -0.2609  0.6499
   61MPD2    C4  932   2.782   1.738  14.261  0.7742  0.4268 -0.3095
   61MPD2    C5  933   2.846   1.616  14.274  0.3891  0.2307  0.0148
   61MPD2     H  934   2.606   1.740  14.537  0.6299 -1.2854  1.3165
   61MPD2    H1  935   2.791   1.795  14.170  1.2640  0.3993 -0.2786
   61MPD2    H2  936   2.878   1.441  14.395 -0.3821 -0.9421  2.6254
   61MPD2    H3  937   2.920   1.592  14.199 -0.2291  0.9857 -0.8373
   61MPD2     N  938   2.622   1.894  14.344 -0.0591 -0.1576  0.3578
   61MPD2    H5  939   2.668   1.962  14.285 -1.5446 -0.8391 -1.5898
   61MPD2    N1  940   2.743   1.526  14.622  0.1182  0.5636  0.2588
   61MPD2    H7  941   2.672   1.571  14.679 -0.0661  0.5654  0.0266
   62TCq2    C1  942   2.821   1.422  14.670 -0.7281  0.0636  0.1614
   62TCq2    O2  943   2.903   1.352  14.614 -0.4190 -0.4397 -0.6800
   62TCq2    C2  944   2.800   1.408  14.811  0.5165  0.1758 -0.3144
   62TCq2    C3  945   2.829   1.287  14.868 -0.1863  0.0629  0.2301
   62TCq2    C4  946   2.821   1.281  15.006  0.1111  0.3705 -0.4096
   62TCq2    C5  947   2.801   1.391  15.081 -0.4840 -0.2534 -0.4480
   62TCq2    C6  948   2.759   1.506  15.023 -0.6133 -0.3999  1.0282
   62TCq2    C7  949   2.755   1.518  14.886  0.0146 -0.3319  0.5712
   62TCq2    C8  950   2.766   1.636  15.093 -1.0229 -0.6531 -0.6904
   62TCq2    O4  951   2.788   1.740  15.032 -0.1513  0.1504 -0.1032
   62TCq2    C9  952   2.854   1.152  15.067 -0.3914  0.6157 -0.5338
   62TCq2    O5  953   2.859   1.058  14.985 -0.2427 -0.8919 -0.4977
   62TCq2    O6  954   2.896   1.152  15.183  0.0175  0.1861 -0.5167
   62TCq2    H2  955   2.875   1.210  14.808  0.7484  1.6423 -1.0917
   62TCq2    H3  956   2.816   1.386  15.189  1.6017 -1.0741 -0.7752
   62TCq2    H4  957   2.729   1.615  14.845  0.8298  0.0473  0.9491
   63TMC2    C1  958   1.675   1.725  10.253 -0.1373 -0.7262  0.1545
   63TMC2    C2  959   1.750   1.740  10.365 -0.7301  0.0083  0.7246
   63TMC2    C3  960   1.826   1.850  10.383  0.2485 -0.4030 -0.2356
   63TMC2    C4  961   1.661   1.827  10.164  0.8728 -0.4329  0.4316
   63TMC2    C5  962   1.748   1.935  10.181 -0.1829  1.0910 -0.9896
   63TMC2    C6  963   1.830   1.946  10.286 -0.1974 -0.2336  0.0129
   63TMC2     C  964   1.625   1.595  10.214  0.2562  0.1847  0.2849
   63TMC2     O  965   1.541   1.579  10.128  0.1841  0.3503  1.1277
   63TMC2     H  966   1.761   1.660  10.438  0.4423  0.0173  0.5567
   63TMC2    H1  967   1.598   1.824  10.076  0.5457  0.3553  0.6368
   63TMC2    H2  968   1.889   2.036  10.297  0.2273 -0.4210 -0.7614
   63TMC2    C7  969   1.745   2.049  10.089 -0.4859  0.1947 -0.2751
   63TMC2    C8  970   1.901   1.861  10.511  0.2899 -0.8065  0.3639
   63TMC2    O1  971   1.841   2.124  10.096 -0.2809  0.6646  0.5342
   63TMC2    O2  972   1.917   1.760  10.584 -0.4994  0.0485  0.3973
   63TMC2    O5  973   1.990   1.958  10.501  0.0013 -0.2444 -0.2696
   63TMC2    H5  974   1.949   2.038  10.462  2.0677 -0.3898 -2.7165
   64MPD2     C  975   1.602   1.091  10.289 -0.5901  0.0913  1.0304
   64MPD2    C1  976   1.700   1.139  10.367  0.4466  0.3772 -0.0289
   64MPD2    C2  977   1.736   1.272  10.355  0.4488 -0.3473 -0.6129
   64MPD2    C3  978   1.657   1.359  10.280 -0.3504 -0.4228 -0.0213
   64MPD2    C4  979   1.554   1.308  10.198 -0.0302 -0.0602 -0.0590
   64MPD2    C5  980   1.533   1.173  10.205  1.0298 -0.5823  0.1535
   64MPD2     H  981   1.822   1.311  10.409 -0.2838  0.0648  0.2519
   64MPD2    H1  982   1.490   1.366  10.134  0.7330  1.0232  0.1501
   64MPD2    H2  983   1.574   0.987  10.290  1.8239 -0.5650  1.5348
   64MPD2    H3  984   1.448   1.135  10.150  0.3958  1.5931 -0.3503
   64MPD2     N  985   1.687   1.499  10.283  0.2992 -0.0877 -0.6503
   64MPD2    H5  986   1.770   1.525  10.335  1.9912 -2.1717 -2.3031
   64MPD2    N1  987   1.771   1.057  10.460  0.5038  0.2233 -0.9608
   64MPD2    H7  988   1.843   1.100  10.517  1.9583 -1.6385 -1.4223
   65MPD2     C  989   3.656   0.923  16.115  0.1637  0.1751  0.3148
   65MPD2    C1  990   3.667   0.901  15.979  0.4855  0.2184  0.2038
   65MPD2    C2  991   3.637   0.774  15.932 -0.1029 -0.2683  0.8720
   65MPD2    C3  992   3.585   0.671  16.014 -0.0914  0.3263 -0.2663
   65MPD2    C4  993   3.571   0.698  16.147 -0.0391  0.1100  0.1393
   65MPD2    C5  994   3.605   0.823  16.195 -0.6103 -0.2081 -0.8363
   65MPD2     H  995   3.655   0.763  15.825 -0.1987 -0.3187  0.8611
   65MPD2    H1  996   3.547   0.624  16.222 -1.4178 -0.4208 -0.8259
   65MPD2    H2  997   3.681   1.016  16.165 -1.8011  0.8056  0.1371
   65MPD2    H3  998   3.607   0.841  16.302  0.5676  1.4039 -1.1150
   65MPD2     N  999   3.552   0.547  15.970 -0.1477  0.0202  0.8018
   65MPD2    H5 1000   3.510   0.481  16.034  0.3771 -1.3754 -0.2860
   65MPD2    N1 1001   3.721   0.994  15.889 -0.0535 -0.3323 -0.4823
   65MPD2    H7 1002   3.711   0.967  15.792  1.3558 -0.4043 -0.6135
   66TCq2    C1 1003   3.770   1.119  15.919 -0.6224 -0.5099 -0.2944
   66TCq2    O2 1004   3.796   1.169  16.028 -0.3809 -0.3351  0.1882
   66TCq2    C2 1005   3.806   1.188  15.799  0.4883  0.3552 -0.2078
   66TCq2    C3 1006   3.817   1.130  15.675  0.0413  0.6696  0.1585
   66TCq2    C4 1007   3.846   1.209  15.566 -0.2955  1.0472 -0.0546
   66TCq2    C5 1008   3.849   1.352  15.574  0.0306 -0.1308  0.0789
   66TCq2    C6 1009   3.839   1.408  15.698 -0.5555 -0.2545  1.0196
   66TCq2    C7 1010   3.813   1.325  15.810  0.3058 -0.0405  0.3454
   66TCq2    C8 1011   3.793   1.547  15.698  0.3346  1.0823  0.0584
   66TCq2    O4 1012   3.776   1.593  15.588  0.2183  0.8724  0.2313
   66TCq2    C9 1013   3.834   1.152  15.436 -0.5362 -0.4976  0.3679
   66TCq2    O5 1014   3.814   1.231  15.340  0.2118 -0.1924 -0.3727
   66TCq2    O6 1015   3.786   1.034  15.433  0.3055 -0.3735  0.0922
   66TCq2    H2 1016   3.826   1.022  15.669 -0.2312  0.8145 -3.2183
   66TCq2    H3 1017   3.853   1.409  15.482  0.0388 -0.4401 -0.1114
   66TCq2    H4 1018   3.825   1.364  15.910  0.4261 -1.8306  1.0260
   67MPD2     C 1019   3.188   0.396  14.435  0.1347  0.0036  0.6472
   67MPD2    C1 1020   3.232   0.528  14.414 -0.1780 -0.0876  0.3331
   67MPD2    C2 1021   3.153   0.613  14.337  0.5061 -0.0344 -0.0991
   67MPD2    C3 1022   3.033   0.558  14.283  0.5980 -0.1788 -0.3369
   67MPD2    C4 1023   3.008   0.422  14.288 -0.5520  0.6542 -1.0121
   67MPD2    C5 1024   3.085   0.342  14.366  0.0255  0.5315  0.1742
   67MPD2     H 1025   3.172   0.719  14.326  0.6342 -0.1204 -0.7420
   67MPD2    H1 1026   2.919   0.379  14.243 -1.1192 -0.9703  1.6960
   67MPD2    H2 1027   3.237   0.323  14.498 -1.0684 -1.3558 -0.0088
   67MPD2    H3 1028   3.058   0.237  14.375 -2.1728  1.2913  2.4287
   67MPD2     N 1029   2.926   0.638  14.223 -0.2682 -0.0213 -0.6306
   67MPD2    H5 1030   2.839   0.592  14.199  1.3007 -2.6709 -1.2821
   67MPD2    N1 1031   3.345   0.573  14.491 -0.2472 -0.1616  0.3378
   67MPD2    H7 1032   3.366   0.672  14.499  1.9180 -0.3517 -3.2076
   68TCq2    C1 1033   3.434   0.496  14.562 -0.4651 -0.8454 -0.1894
   68TCq2    O2 1034   3.454   0.375  14.556 -0.1219  0.3344 -0.0189
   68TCq2    C2 1035   3.513   0.564  14.667 -0.2793 -0.2474 -0.0685
   68TCq2    C3 1036   3.464   0.672  14.734 -0.1540  0.0736 -0.3498
   68TCq2    C4 1037   3.515   0.707  14.854  0.0819 -0.5253  0.1282
   68TCq2    C5 1038   3.623   0.644  14.904 -0.3391  0.3386  0.5158
   68TCq2    C6 1039   3.675   0.535  14.836 -0.3284  0.1923 -0.0207
   68TCq2    C7 1040   3.615   0.499  14.722  0.3627  0.5712  0.0772
   68TCq2    C8 1041   3.790   0.462  14.886  0.2213  0.4907 -0.1876
   68TCq2    O4 1042   3.861   0.402  14.804 -0.1571 -0.0438  0.3366
   68TCq2    C9 1043   3.464   0.820  14.925  0.2651 -0.1690 -0.4984
   68TCq2    O5 1044   3.480   0.818  15.051  0.0365  0.0840 -0.2504
   68TCq2    O6 1045   3.388   0.901  14.865 -0.1072 -0.1571 -0.5619
   68TCq2    H2 1046   3.368   0.704  14.695  0.2390  1.8218  0.1369
   68TCq2    H3 1047   3.671   0.678  14.995  0.4943  0.6308 -0.0388
   68TCq2    H4 1048   3.652   0.413  14.668 -0.3880 -0.1207  0.6562
   69TMC2    C1 1049   0.458   1.655  12.638  0.1228 -0.3102 -0.2968
   69TMC2    C2 1050   0.347   1.674  12.559 -0.2808 -0.2016 -0.4016
   69TMC2    C3 1051   0.334   1.783  12.482  0.4732  0.2123  0.1014
   69TMC2    C4 1052   0.573   1.728  12.624  0.2845  0.5290  0.6230
   69TMC2    C5 1053   0.556   1.832  12.537  0.0831 -0.1682 -0.6148
   69TMC2    C6 1054   0.438   1.861  12.466  1.0133  0.2329 -0.0749
   69TMC2     C 1055   0.449   1.540  12.724  0.6556 -0.2381 -0.2452
   69TMC2     O 1056   0.349   1.475  12.716 -0.2126  0.1154 -0.1563
   69TMC2     H 1057   0.260   1.610  12.566  0.8683 -1.6450  0.5624
   69TMC2    H1 1058   0.671   1.700  12.661  1.1321 -0.0323 -2.0551
   69TMC2    H2 1059   0.434   1.950  12.404  0.2445  0.7416  0.6966
   69TMC2    C7 1060   0.678   1.900  12.505  0.0184 -0.0318 -0.1939
   69TMC2    C8 1061   0.195   1.812  12.447  0.2108 -0.5087  0.5752
   69TMC2    O1 1062   0.754   1.928  12.597 -0.4891  0.6321  0.0838
   69TMC2    O2 1063   0.093   1.764  12.504  0.3262 -0.2516 -0.1046
   69TMC2    O5 1064   0.205   1.893  12.342 -0.9605 -0.3668  0.5624
   69TMC2    H5 1065   0.295   1.889  12.304 -1.3779  1.6996 -0.6195
   70MPD2     C 1066   0.672   1.478  12.995  0.4247 -0.2293  0.5422
   70MPD2    C1 1067   0.569   1.444  12.914 -0.1434 -0.2174 -0.1239
   70MPD2    C2 1068   0.498   1.325  12.924  0.1517  0.2304  0.0819
   70MPD2    C3 1069   0.549   1.234  13.015  0.2249  0.0567  0.1788
   70MPD2    C4 1070   0.659   1.262  13.094 -0.1101  0.7043  0.5663
   70MPD2    C5 1071   0.718   1.391  13.087  0.3930 -0.1577 -0.5676
   70MPD2     H 1072   0.423   1.298  12.850 -0.3751 -1.5650  1.2646
   70MPD2    H1 1073   0.709   1.193  13.161  0.7781  1.2022  0.4144
   70MPD2    H2 1074   0.710   1.578  12.981 -1.4250  0.6188  1.5201
   70MPD2    H3 1075   0.803   1.419  13.147 -1.1616  0.3219  1.4250
   70MPD2     N 1076   0.509   1.100  13.025  0.1120 -0.1854  0.2415
   70MPD2    H5 1077   0.576   1.033  13.061 -0.3510 -0.4859  0.5481
   70MPD2    N1 1078   0.545   1.540  12.822  0.1452  0.2342 -0.1049
   70MPD2    H7 1079   0.601   1.624  12.836  1.4616 -1.0363  2.3427
   71TMC2    C1 1080   2.906   1.135   2.083 -0.4376 -0.0395  0.4477
   71TMC2    C2 1081   2.922   0.998   2.088 -0.6168 -0.3731 -0.2962
   71TMC2    C3 1082   2.823   0.934   2.145 -0.3047 -0.0939 -0.5863
   71TMC2    C4 1083   2.801   1.199   2.136  0.0030  0.7782  0.8824
   71TMC2    C5 1084   2.707   1.130   2.199 -0.0617 -0.2933 -0.5494
   71TMC2    C6 1085   2.716   0.993   2.202  0.0036 -0.0297 -0.7663
   71TMC2     C 1086   3.010   1.218   2.031 -0.3062 -0.0341  0.2227
   71TMC2     O 1087   2.975   1.325   1.985 -0.3813 -0.8144 -0.0918
   71TMC2     H 1088   2.995   0.937   2.034 -0.6854 -2.1841  1.6334
   71TMC2    H1 1089   2.796   1.307   2.130 -2.8725  0.6090  0.2553
   71TMC2    H2 1090   2.634   0.945   2.254  1.7369  1.2013  3.1764
   71TMC2    C7 1091   2.586   1.197   2.233 -0.1453 -0.7887  0.0633
   71TMC2    C8 1092   2.820   0.791   2.139 -0.1451 -0.0781  0.4396
   71TMC2    O1 1093   2.513   1.150   2.318  0.0532  0.5311  0.5927
   71TMC2    O2 1094   2.913   0.714   2.120  0.6800  0.7091 -0.2049
   71TMC2    O5 1095   2.692   0.749   2.137 -0.6261 -0.3535 -0.0124
   71TMC2    H5 1096   2.619   0.810   2.112  1.3813  3.2642  2.9335
   72MPD2     C 1097   3.482   1.328   1.861 -0.2168 -0.2928 -0.5624
   72MPD2    C1 1098   3.358   1.359   1.806 -0.0890  0.7054  0.1819
   72MPD2    C2 1099   3.250   1.303   1.867  0.8959 -0.1985 -0.0174
   72MPD2    C3 1100   3.259   1.215   1.979  0.0666  0.3245  0.6163
   72MPD2    C4 1101   3.379   1.182   2.025 -0.0622  0.8423  0.3323
   72MPD2    C5 1102   3.488   1.243   1.968  0.4352 -0.3117 -0.1388
   72MPD2     H 1103   3.154   1.330   1.825  0.9062 -0.0446  0.0585
   72MPD2    H1 1104   3.387   1.119   2.113 -1.3065 -1.0116 -0.8835
   72MPD2    H2 1105   3.581   1.346   1.820  0.5957 -1.2099  1.0158
   72MPD2    H3 1106   3.583   1.212   2.011  1.0206  1.2902 -0.2773
   72MPD2     N 1107   3.140   1.158   2.038 -0.8110 -0.1999  0.3906
   72MPD2    H5 1108   3.151   1.082   2.104  0.4193 -1.0159 -0.7882
   72MPD2    N1 1109   3.339   1.453   1.705 -0.4829  0.1845  1.0205
   72MPD2    H7 1110   3.244   1.467   1.671 -0.0524 -0.6605 -0.5252
   73TMC2    C1 1111   3.883   4.122  14.111  0.2316 -0.3642 -0.2541
   73TMC2    C2 1112   3.907   4.238  14.181 -0.4013  0.1835 -0.5037
   73TMC2    C3 1113   3.950   4.348  14.117  0.0056  0.3578 -0.5346
   73TMC2    C4 1114   3.937   4.111  13.983 -0.1170 -0.3568 -0.6559
   73TMC2    C5 1115   3.974   4.225  13.923 -0.6472  0.6884 -0.1586
   73TMC2    C6 1116   3.980   4.342  13.988  0.6194  0.3396  0.1265
   73TMC2     C 1117   3.753   4.061  14.132 -0.0182 -0.0574 -0.1337
   73TMC2     O 1118   3.689   4.052  14.027 -0.3592  0.1133 -0.0382
   73TMC2     H 1119   3.871   4.248  14.283 -0.3163 -3.1072 -0.1464
   73TMC2    H1 1120   3.905   4.020  13.934  0.9620 -0.2392 -1.5489
   73TMC2    H2 1121   4.003   4.431  13.931  1.0996  0.6162  0.7478
   73TMC2    C7 1122   3.900   4.235  13.794  0.0690 -0.4596 -0.1723
   73TMC2    C8 1123   3.885   4.466  14.155 -0.1021  0.9516 -0.4856
   73TMC2    O1 1124   3.956   4.283  13.698  0.0187  0.1177  1.0132
   73TMC2    O2 1125   3.764   4.467  14.130 -0.1812 -0.5755 -0.6272
   73TMC2    O5 1126   3.935   4.487  14.275  0.1327  0.0233  0.6505
   73TMC2    H5 1127   4.033   4.495  14.275  0.0005  1.5527  1.9394
   74MPD2     C 1128   3.319   4.005  14.400 -0.4213 -0.4165 -0.8070
   74MPD2    C1 1129   3.345   4.043  14.266 -0.5892 -0.5731 -0.3436
   74MPD2    C2 1130   3.475   4.068  14.225  0.0992  0.1923 -0.4331
   74MPD2    C3 1131   3.581   4.050  14.309  0.0620  0.0689 -0.0002
   74MPD2    C4 1132   3.563   4.016  14.442 -0.4101  0.8543 -0.1692
   74MPD2    C5 1133   3.428   3.997  14.479  0.4137 -0.4047  0.0722
   74MPD2     H 1134   3.490   4.072  14.118  2.7326 -0.5212 -0.1051
   74MPD2    H1 1135   3.648   4.015  14.509 -0.7061 -1.5334  0.1865
   74MPD2    H2 1136   3.220   3.998  14.443 -0.0139  0.7020  0.2918
   74MPD2    H3 1137   3.405   3.974  14.582 -0.2827  0.3746  0.0839
   74MPD2     N 1138   3.713   4.057  14.265 -0.0186  0.0767  1.0251
   74MPD2    H5 1139   3.789   4.054  14.331  2.2260 -2.4105 -1.6400
   74MPD2    N1 1140   3.238   4.091  14.190  0.3310 -0.1786 -0.1303
   74MPD2    H7 1141   3.147   4.055  14.219  1.1280 -1.7984  0.3603
   75TCq2    C1 1142   2.923   0.772  14.198  0.0970 -0.1576  0.5550
   75TCq2    O2 1143   3.017   0.854  14.193 -0.6171 -0.0365  0.0605
   75TCq2    C2 1144   2.784   0.820  14.173  0.0955 -0.4412  0.0136
   75TCq2    C3 1145   2.688   0.760  14.248 -0.6991  0.2097 -0.5873
   75TCq2    C4 1146   2.560   0.782  14.201  0.8675 -0.0004 -0.7624
   75TCq2    C5 1147   2.531   0.846  14.083  0.2985 -1.1440  0.0959
   75TCq2    C6 1148   2.634   0.902  14.017  0.1178 -0.4570  1.1142
   75TCq2    C7 1149   2.764   0.888  14.056  0.0071  0.1289  0.3928
   75TCq2    C8 1150   2.604   0.921  13.874 -0.1135 -0.5760 -0.3141
   75TCq2    O4 1151   2.693   0.892  13.791  0.0576  0.0912 -0.3808
   75TCq2    C9 1152   2.448   0.707  14.258  0.4698 -0.2850 -0.1680
   75TCq2    O5 1153   2.465   0.645  14.365  0.1755  0.3145  0.2914
   75TCq2    O6 1154   2.347   0.690  14.180  0.3410  1.1700 -0.3919
   75TCq2    H2 1155   2.714   0.694  14.330 -0.6766  0.5459 -0.3225
   75TCq2    H3 1156   2.428   0.849  14.047  0.0548 -0.1006  0.9101
   75TCq2    H4 1157   2.838   0.943  13.999 -0.1758 -0.5768 -0.5154
   76MPD2     C 1158   1.765   1.757  12.673 -0.2425  0.1620 -0.7002
   76MPD2    C1 1159   1.717   1.759  12.538 -0.1020 -0.0772 -0.3876
   76MPD2    C2 1160   1.747   1.642  12.459 -0.8095  0.1883  0.4646
   76MPD2    C3 1161   1.819   1.535  12.511 -0.2178 -0.7222  0.2624
   76MPD2    C4 1162   1.862   1.534  12.642  0.3585  0.5275 -0.2875
   76MPD2    C5 1163   1.825   1.640  12.719  0.6623 -0.5525 -0.7823
   76MPD2     H 1164   1.727   1.652  12.353  0.6372  1.2601  0.2987
   76MPD2    H1 1165   1.908   1.448  12.689  2.3909  0.8552 -1.6712
   76MPD2    H2 1166   1.742   1.832  12.747 -1.2709 -0.0321 -0.8281
   76MPD2    H3 1167   1.852   1.623  12.823 -1.1577  4.1377  0.4482
   76MPD2     N 1168   1.857   1.428  12.426 -0.6737  0.0587 -0.3897
   76MPD2    H5 1169   1.930   1.367  12.463 -1.5251 -0.5464  0.2788
   76MPD2    N1 1170   1.641   1.863  12.478  0.1623 -0.0090  0.2160
   76MPD2    H7 1171   1.629   1.859  12.378 -1.4023  0.0478  0.3883
   77TCq2    C1 1172   1.799   1.395  12.304 -0.6353 -0.9347 -0.1873
   77TCq2    O2 1173   1.689   1.434  12.261  0.5511  0.3675  0.2288
   77TCq2    C2 1174   1.858   1.282  12.231  0.4942 -1.0865 -0.0052
   77TCq2    C3 1175   1.840   1.287  12.094 -0.3278 -0.1554  0.5114
   77TCq2    C4 1176   1.862   1.177  12.018 -0.3337  0.5202  0.2216
   77TCq2    C5 1177   1.893   1.057  12.073 -0.2999 -0.0685 -0.3050
   77TCq2    C6 1178   1.900   1.052  12.209  0.2947 -0.6519  0.4291
   77TCq2    C7 1179   1.889   1.161  12.290 -0.3799 -0.1891  0.3573
   77TCq2    C8 1180   1.978   0.938  12.262  0.1669 -0.8922 -0.5500
   77TCq2    O4 1181   1.967   0.836  12.199 -0.5974 -0.9873  0.0544
   77TCq2    C9 1182   1.853   1.182  11.874  0.0052 -0.0826  0.2681
   77TCq2    O5 1183   1.805   1.280  11.816  0.8104 -0.1318  0.5110
   77TCq2    O6 1184   1.852   1.063  11.824 -0.9979 -0.3764 -0.0574
   77TCq2    H2 1185   1.806   1.380  12.050  0.3294 -0.2147 -0.1220
   77TCq2    H3 1186   1.899   0.969  12.010 -0.3283  0.5287 -1.1396
   77TCq2    H4 1187   1.906   1.154  12.397 -3.2328  0.6320  0.8422
   78MPD1     C 1188   4.487   2.299   2.682  0.1646  0.0380 -0.2546
   78MPD1    C1 1189   4.604   2.358   2.712 -0.2369  1.2372 -0.1586
   78MPD1    C2 1190   4.708   2.341   2.621  0.1810 -0.4903 -0.2520
   78MPD1    C3 1191   4.705   2.240   2.523 -0.0747 -0.3965 -0.7246
   78MPD1    C4 1192   4.586   2.167   2.504 -0.5818 -0.1770  0.4228
   78MPD1    C5 1193   4.477   2.206   2.582 -0.0094 -0.1425 -0.2086
   78MPD1     H 1194   0.068   2.406   2.643 -1.8895  1.9217  0.5723
   78MPD1    H1 1195   4.568   2.098   2.423 -1.5037  0.7568 -0.1725
   78MPD1    H2 1196   4.393   2.315   2.734  0.0487 -0.7327 -0.2204
   78MPD1    H3 1197   4.378   2.163   2.571  0.8012 -2.0347 -0.0611
   78MPD1     N 1198   0.087   2.215   2.431  0.4472  0.1453 -0.2955
   78MPD1    H5 1199   0.064   2.143   2.363 -0.6982  1.7433 -1.5913
   78MPD1    N1 1200   4.606   2.466   2.804 -0.0606 -0.5365 -0.7544
   78MPD1    H6 1201   4.549   2.448   2.886  1.1231 -1.1237 -0.0565
   78MPD1    H7 1202   4.697   2.480   2.847  0.8168 -0.7448 -2.5207
   79TCq2    C1 1203   0.208   2.291   2.443 -0.0792 -0.2581 -0.3573
   79TCq2    O2 1204   0.244   2.377   2.523  0.3540  0.1542  0.4055
   79TCq2    C2 1205   0.307   2.255   2.334  0.1246 -1.1553  0.1474
   79TCq2    C3 1206   0.424   2.331   2.336 -0.0774 -0.5887  0.3902
   79TCq2    C4 1207   0.532   2.267   2.275  0.4779 -0.2438 -0.3324
   79TCq2    C5 1208   0.518   2.151   2.204  0.0792 -0.2856 -0.3858
   79TCq2    C6 1209   0.400   2.082   2.206  1.3802  0.6205 -0.3306
   79TCq2    C7 1210   0.289   2.133   2.271 -0.2503  0.2154  0.6716
   79TCq2    C8 1211   0.399   1.949   2.140  0.1798 -0.2462  0.0262
   79TCq2    O4 1212   0.486   1.924   2.058 -0.3152  0.4518  0.1258
   79TCq2    C9 1213   0.650   2.338   2.260 -0.4416  0.2082  0.1510
   79TCq2    O5 1214   0.649   2.448   2.323  0.4696  0.5393 -0.0010
   79TCq2    O6 1215   0.745   2.283   2.200 -0.6038 -0.4433  0.6196
   79TCq2    H2 1216   0.425   2.435   2.368 -1.4105 -0.3297 -0.4296
   79TCq2    H3 1217   0.607   2.114   2.155  0.1247 -0.0252 -0.5022
   79TCq2    H4 1218   0.196   2.077   2.273 -1.5045  2.2466 -0.5542
   80MPD2     C 1219   1.303   1.101  12.331  0.8835  0.6350  0.7672
   80MPD2    C1 1220   1.200   1.088  12.240  0.3096 -0.3383  0.6390
   80MPD2    C2 1221   1.081   1.037  12.276  0.3824  0.2804  1.0484
   80MPD2    C3 1222   1.056   0.992  12.406  0.6000 -0.1044  0.2588
   80MPD2    C4 1223   1.156   1.022  12.500 -0.4734 -0.2138 -0.3263
   80MPD2    C5 1224   1.271   1.083  12.459 -0.1758  0.3334 -0.1347
   80MPD2     H 1225   1.004   1.015  12.202  0.4486 -0.5165  1.2145
   80MPD2    H1 1226   1.152   0.985  12.601 -1.1406  0.3094 -0.1616
   80MPD2    H2 1227   1.400   1.138  12.298  0.2060  0.1532 -1.6797
   80MPD2    H3 1228   1.350   1.076  12.534  0.3962  0.7701 -0.7039
   80MPD2     N 1229   0.943   0.919  12.444  0.5595  0.2499 -0.8757
   80MPD2    H5 1230   0.948   0.886  12.539 -0.7167  0.1549 -0.8414
   80MPD2    N1 1231   1.215   1.111  12.106  0.6120 -0.3181 -0.6899
   80MPD2    H7 1232   1.134   1.096  12.045  0.5292  0.1643 -0.6987
   81TCq2    C1 1233   1.330   1.132  12.034  0.2766 -0.1955 -0.4018
   81TCq2    O2 1234   1.446   1.129  12.079  0.1849 -0.3155 -0.1844
   81TCq2    C2 1235   1.306   1.161  11.893 -0.1934 -0.3217 -0.1717
   81TCq2    C3 1236   1.401   1.102  11.810 -0.1680  0.9028  0.3965
   81TCq2    C4 1237   1.365   1.050  11.687  0.3119 -0.4761 -0.0174
   81TCq2    C5 1238   1.231   1.038  11.664  0.8739 -0.2997  0.0971
   81TCq2    C6 1239   1.142   1.098  11.745 -0.0666  0.2502  0.6385
   81TCq2    C7 1240   1.178   1.176  11.851 -0.0699  0.1232 -0.2909
   81TCq2    C8 1241   1.012   1.049  11.755 -0.3462  0.2430 -0.2187
   81TCq2    O4 1242   0.927   1.114  11.822 -0.1129  0.1333  0.4172
   81TCq2    C9 1243   1.467   0.975  11.612 -0.1982 -0.2606  0.5658
   81TCq2    O5 1244   1.421   0.874  11.555  0.1157  0.3331 -0.4045
   81TCq2    O6 1245   1.581   0.971  11.666 -0.0066  0.0712 -0.1398
   81TCq2    H2 1246   1.507   1.094  11.835 -0.7216  0.1863  2.5189
   81TCq2    H3 1247   1.208   0.982  11.574  0.7386  0.7849 -0.5287
   81TCq2    H4 1248   1.099   1.234  11.899 -0.4019  0.7062 -1.5473
   82MPD2     C 1249   3.833   0.373  10.929 -0.7984 -0.6312 -0.2828
   82MPD2    C1 1250   3.759   0.259  10.911 -0.0356  0.9213 -0.6500
   82MPD2    C2 1251   3.772   0.160  11.008 -0.4449  0.4637  0.3588
   82MPD2    C3 1252   3.854   0.175  11.123 -0.0870 -0.2882  0.4086
   82MPD2    C4 1253   3.924   0.295  11.129 -0.0105  0.6488  0.1531
   82MPD2    C5 1254   3.906   0.393  11.036  0.1148 -0.1612 -0.6482
   82MPD2     H 1255   3.707   0.075  10.991 -1.2317  1.0031  0.7057
   82MPD2    H1 1256   3.995   0.323  11.206 -0.7633  0.1742  1.0217
   82MPD2    H2 1257   3.824   0.454  10.858 -1.9115 -1.5897 -1.2215
   82MPD2    H3 1258   3.968   0.482  11.033 -0.1185  0.0030 -0.5913
   82MPD2     N 1259   3.858   0.073  11.216 -0.1436 -0.6458  0.6921
   82MPD2    H5 1260   3.905   0.088  11.304 -0.0634 -1.3158  0.7627
   82MPD2    N1 1261   3.680   0.262  10.791  0.4132 -0.0982 -0.6141
   82MPD2    H7 1262   3.688   0.347  10.736 -0.0452 -0.4005 -1.1411
   83TCq2    C1 1263   3.792   4.674  11.203  0.1767  1.1052 -0.3631
   83TCq2    O2 1264   3.700   4.634  11.127 -0.3247  0.4599  0.7539
   83TCq2    C2 1265   3.829   4.584  11.311  0.1771 -0.9343  0.3286
   83TCq2    C3 1266   3.960   4.568  11.345  0.6015 -0.2201  0.9214
   83TCq2    C4 1267   4.001   4.474  11.430  0.5881  0.1568  0.2352
   83TCq2    C5 1268   3.901   4.386  11.475 -0.3963 -0.6580  0.0495
   83TCq2    C6 1269   3.771   4.395  11.427  0.0818 -0.2225  0.4301
   83TCq2    C7 1270   3.734   4.486  11.336  0.3659  0.3575 -0.7109
   83TCq2    C8 1271   3.675   4.298  11.483  0.4575 -0.0944  1.3012
   83TCq2    O4 1272   3.684   4.267  11.603 -0.0991 -0.1920  0.2888
   83TCq2    C9 1273   4.139   4.449  11.438 -0.1909  0.1373  0.5131
   83TCq2    O5 1274   4.178   4.329  11.436  0.1627 -0.1125  0.3580
   83TCq2    O6 1275   4.212   4.553  11.443 -0.4096 -0.3468 -0.4074
   83TCq2    H2 1276   4.043   4.625  11.305  0.3735 -1.4643 -1.2965
   83TCq2    H3 1277   3.931   4.306  11.542 -0.2718  1.4259  2.4789
   83TCq2    H4 1278   3.627   4.503  11.325  0.4902  2.2207  0.9351
   84TCq2    C1 1279   4.284   3.655  10.640 -0.1451  0.4240  0.6260
   84TCq2    O2 1280   4.280   3.578  10.736  0.0619 -0.1904 -0.1879
   84TCq2    C2 1281   4.319   3.793  10.676 -0.7166  0.0644 -0.0367
   84TCq2    C3 1282   4.352   3.886  10.579 -0.5218 -0.0223 -0.2687
   84TCq2    C4 1283   4.397   4.008  10.622  0.1486 -0.1618  0.3149
   84TCq2    C5 1284   4.410   4.038  10.757  0.4963  0.1793 -0.2774
   84TCq2    C6 1285   4.384   3.947  10.849  0.0335  0.2916 -0.1534
   84TCq2    C7 1286   4.331   3.820  10.805  0.0654  0.5805 -0.4201
   84TCq2    C8 1287   4.420   3.970  10.984 -0.1519 -0.6037 -0.2581
   84TCq2    O4 1288   4.457   4.081  11.019  0.0774  0.3872  0.1911
   84TCq2    C9 1289   4.445   4.106  10.530  0.0515 -0.2831  0.0261
   84TCq2    O5 1290   4.465   4.075  10.407  0.7665  0.0100  0.2810
   84TCq2    O6 1291   4.460   4.220  10.574  0.0742 -0.6426 -0.1938
   84TCq2    H2 1292   4.355   3.868  10.473  0.9377 -0.2404 -0.1965
   84TCq2    H3 1293   4.446   4.133  10.794  0.7460 -0.7622  1.9148
   84TCq2    H4 1294   4.295   3.752  10.882 -0.1401 -0.9005 -1.8384
   85MPD2     C 1295   1.332   2.103  16.503  0.1748  0.6803  0.2469
   85MPD2    C1 1296   1.279   2.108  16.380 -0.4087  0.0267 -0.8048
   85MPD2    C2 1297   1.318   2.215  16.298 -0.0277 -0.0814 -0.0677
   85MPD2    C3 1298   1.399   2.319  16.360  0.1385 -0.2074 -0.2384
   85MPD2    C4 1299   1.436   2.319  16.488  0.0856  0.4319 -0.5167
   85MPD2    C5 1300   1.401   2.204  16.556 -0.4086  0.3613  0.2224
   85MPD2     H 1301   1.288   2.230  16.195 -0.4306 -0.1599  0.0378
   85MPD2    H1 1302   1.506   2.384  16.540 -0.9427  2.8227 -2.1143
   85MPD2    H2 1303   1.306   2.020  16.568 -2.2886  2.3918  1.4787
   85MPD2    H3 1304   1.430   2.199  16.661 -2.1664 -1.3633  0.6197
   85MPD2     N 1305   1.436   2.431  16.277  0.4100  0.2876  0.1002
   85MPD2    H5 1306   1.420   2.430  16.177 -0.3658  0.8576  0.2199
   85MPD2    N1 1307   1.186   2.013  16.335 -0.8029 -0.0185  0.3009
   85MPD2    H7 1308   1.143   2.020  16.243 -0.4162  0.4926  0.1601
   86TCq2    C1 1309   1.488   2.551  16.325 -0.0840  0.3958  0.6431
   86TCq2    O2 1310   1.500   2.597  16.437  0.0446  0.1409  0.4787
   86TCq2    C2 1311   1.523   2.651  16.218 -0.0871  0.1783  0.2688
   86TCq2    C3 1312   1.536   2.778  16.265  0.4547 -1.1775  0.0606
   86TCq2    C4 1313   1.609   2.870  16.193  0.4959  0.2103 -0.1099
   86TCq2    C5 1314   1.682   2.827  16.088  0.2077  0.0148  0.3574
   86TCq2    C6 1315   1.671   2.695  16.053  0.1233 -0.2309  0.3111
   86TCq2    C7 1316   1.598   2.603  16.119 -0.1613 -0.5615 -0.5999
   86TCq2    C8 1317   1.709   2.659  15.921 -0.0998  0.6317 -1.1079
   86TCq2    O4 1318   1.734   2.538  15.909  0.1857 -1.0399  0.9305
   86TCq2    C9 1319   1.606   3.012  16.236  0.3025  0.7625 -0.2962
   86TCq2    O5 1320   1.679   3.089  16.168 -0.1316  0.0665  0.3401
   86TCq2    O6 1321   1.529   3.044  16.330 -0.4243 -0.4644  0.2493
   86TCq2    H2 1322   1.476   2.819  16.346 -0.9794  0.9530 -2.0918
   86TCq2    H3 1323   1.744   2.897  16.034 -1.2509  0.5862 -0.5639
   86TCq2    H4 1324   1.606   2.497  16.098  0.9003 -0.0835 -2.5997
   87MPD2     C 1325   3.580   0.363   2.053 -0.2434 -0.1964 -0.4962
   87MPD2    C1 1326   3.607   0.401   1.920 -0.7508 -0.2089  0.5889
   87MPD2    C2 1327   3.572   0.525   1.875 -0.4354  0.1579 -0.1829
   87MPD2    C3 1328   3.507   0.618   1.955  0.0320 -0.0355  0.2452
   87MPD2    C4 1329   3.468   0.569   2.084 -0.2721 -0.7761  0.1949
   87MPD2    C5 1330   3.504   0.448   2.128  0.0211  0.1475  1.3112
   87MPD2     H 1331   3.581   0.550   1.770  2.9159  0.8154  0.2673
   87MPD2    H1 1332   3.410   0.625   2.157  0.1197  0.4933 -0.4702
   87MPD2    H2 1333   3.608   0.271   2.103  1.0244  1.5211  1.9260
   87MPD2    H3 1334   3.473   0.412   2.226 -1.0797 -3.2209 -0.2889
   87MPD2     N 1335   3.448   0.743   1.912  0.6158 -1.1718  0.1742
   87MPD2    H5 1336   3.381   0.787   1.975  0.3731 -1.0603 -0.1661
   87MPD2    N1 1337   3.670   0.308   1.833 -0.0925 -0.2811 -0.2898
   87MPD2    H7 1338   3.700   0.216   1.862  2.5720  1.3437  2.0621
   88TCq2    C1 1339   3.706   0.340   1.702  0.0591 -0.1308 -0.0602
   88TCq2    O2 1340   3.742   0.449   1.656  0.1117  0.1097  0.2368
   88TCq2    C2 1341   3.738   0.216   1.628  0.3203 -0.1860 -0.4188
   88TCq2    C3 1342   3.681   0.096   1.661  0.1435  0.5746 -0.2355
   88TCq2    C4 1343   3.735   4.708   1.602  0.3827  0.4918  0.0319
   88TCq2    C5 1344   3.840   4.721   1.510  0.6011  0.5882 -0.2033
   88TCq2    C6 1345   3.885   0.119   1.469 -0.0243 -0.4335 -0.1820
   88TCq2    C7 1346   3.834   0.229   1.530  0.1909  0.2214 -0.4974
   88TCq2    C8 1347   4.020   0.128   1.418 -0.4933 -0.0020  1.3500
   88TCq2    O4 1348   4.067   0.241   1.414 -0.6153 -0.4261 -0.4438
   88TCq2    C9 1349   3.698   4.573   1.647  0.2064 -0.1059  0.8437
   88TCq2    O5 1350   3.773   4.484   1.614 -0.1948 -0.1606 -0.1119
   88TCq2    O6 1351   3.597   4.573   1.723 -0.1380 -0.4507 -0.5330
   88TCq2    H2 1352   3.609   0.082   1.741 -1.1573 -1.1957 -1.7162
   88TCq2    H3 1353   3.869   4.626   1.467 -1.1895 -0.1098  0.1480
   88TCq2    H4 1354   3.866   0.322   1.485 -2.2549  1.9433  1.3133
   89MPD2     C 1355   0.092   2.353   2.060 -0.3531  0.6190  0.0773
   89MPD2    C1 1356   0.021   2.456   2.121 -0.2723 -0.2720  0.5458
   89MPD2    C2 1357   0.074   2.588   2.131 -0.0359  0.1716 -0.0052
   89MPD2    C3 1358   0.189   2.621   2.068 -0.0279  0.1511 -0.5270
   89MPD2    C4 1359   0.258   2.521   1.994  0.3394  0.3024  0.7885
   89MPD2    C5 1360   0.210   2.391   1.998 -0.2201  0.5666 -0.2315
   89MPD2     H 1361   0.017   2.668   2.177  2.4435  3.2244 -2.2619
   89MPD2    H1 1362   0.341   2.550   1.931  0.0714  2.4709  1.4343
   89MPD2    H2 1363   0.057   2.250   2.059  0.5336  0.3218  0.0767
   89MPD2    H3 1364   0.271   2.318   1.945 -1.1372  0.5841 -1.3021
   89MPD2     N 1365   0.232   2.754   2.074  0.4184  0.1563  0.1892
   89MPD2    H5 1366   0.176   2.818   2.130 -0.3108 -1.9380  1.8596
   89MPD2    N1 1367   4.621   2.437   2.189 -0.2190 -0.1022  0.3883
   89MPD2    H7 1368   4.589   2.513   2.247  1.7251  0.2120  1.0378
   90TCq2    C1 1369   0.351   2.808   2.019 -0.2166 -0.1582 -0.3254
   90TCq2    O2 1370   0.441   2.743   1.964 -0.2926 -0.1288  0.0589
   90TCq2    C2 1371   0.370   2.950   2.033 -0.6307 -0.0677 -0.9120
   90TCq2    C3 1372   0.493   2.995   2.060  0.4800 -0.2254  0.2240
   90TCq2    C4 1373   0.506   3.133   2.057  0.1170  0.0911 -0.3777
   90TCq2    C5 1374   0.399   3.216   2.030 -0.0491 -0.0453  0.2468
   90TCq2    C6 1375   0.273   3.160   2.012  0.9181 -0.3788  0.2949
   90TCq2    C7 1376   0.255   3.026   2.022  0.2078 -0.2712 -0.1455
   90TCq2    C8 1377   0.160   3.235   1.950 -0.1653 -0.0037  0.5632
   90TCq2    O4 1378   0.055   3.212   2.007 -0.1628  0.4596 -0.3472
   90TCq2    C9 1379   0.627   3.191   2.106 -0.4388  0.2094  0.2101
   90TCq2    O5 1380   0.730   3.116   2.117 -0.0490  0.4775 -0.6317
   90TCq2    O6 1381   0.633   3.314   2.102 -0.4626  0.3720 -0.1697
   90TCq2    H2 1382   0.579   2.930   2.074  0.8324  0.4205  1.0405
   90TCq2    H3 1383   0.402   3.324   2.021  1.2865 -0.0354  0.9428
   90TCq2    H4 1384   0.167   2.984   1.974  0.3115 -0.7454  0.0759
   91TMC2    C1 1385   1.269   3.141  16.840  0.4900  0.2878  0.3408
   91TMC2    C2 1386   1.290   3.219  16.730  0.2709 -0.1160  0.3566
   91TMC2    C3 1387   1.200   3.191  16.625  0.1064 -0.1030  0.5787
   91TMC2    C4 1388   1.177   3.036  16.842  0.2206  0.1307  0.2140
   91TMC2    C5 1389   1.090   3.019  16.738  0.4201  1.0421 -0.4020
   91TMC2    C6 1390   1.102   3.096  16.622 -0.1453 -0.0183 -0.0588
   91TMC2     C 1391   1.347   3.159  16.964  0.2522 -0.3718  0.4068
   91TMC2     O 1392   1.326   3.083  17.059  0.2046 -0.1095 -0.2705
   91TMC2     H 1393   1.342   3.313  16.740  1.5217 -0.8681  0.9145
   91TMC2    H1 1394   1.169   2.974  16.930 -2.4142 -1.7003 -1.3141
   91TMC2    H2 1395   1.037   3.085  16.536 -0.9718  0.9020  0.4473
   91TMC2    C7 1396   0.977   2.938  16.766  0.6161  0.3474  0.1209
   91TMC2    C8 1397   1.204   3.284  16.518 -0.0307 -0.0067 -0.4801
   91TMC2    O1 1398   0.967   2.873  16.871 -0.4834  0.6021 -0.3129
   91TMC2    O2 1399   1.121   3.284  16.425  0.4788 -0.5090 -0.1171
   91TMC2    O5 1400   1.324   3.358  16.510 -0.3375  0.2956  0.0896
   91TMC2    H5 1401   1.380   3.330  16.585 -0.6787 -2.2779 -0.6111
   92MPD2     C 1402   1.606   3.108  17.121  0.4593 -0.9122 -0.1263
   92MPD2    C1 1403   1.592   3.179  17.000  0.5556  0.1007 -0.1046
   92MPD2    C2 1404   1.710   3.236  16.951 -0.0190 -0.0478  0.4528
   92MPD2    C3 1405   1.835   3.217  17.008 -0.2480  0.3459  0.5980
   92MPD2    C4 1406   1.844   3.142  17.120 -0.3698  0.3600  1.3869
   92MPD2    C5 1407   1.724   3.085  17.180 -0.3576  0.5616 -0.1303
   92MPD2     H 1408   1.702   3.296  16.861 -0.3390  0.6852  0.9710
   92MPD2    H1 1409   1.938   3.108  17.161  1.1341  2.6761 -0.0946
   92MPD2    H2 1410   1.527   3.065  17.182 -1.0753  1.1561 -0.6548
   92MPD2    H3 1411   1.726   3.035  17.277 -0.9469  1.9793  0.6148
   92MPD2     N 1412   1.939   3.276  16.944 -0.5898  0.4813 -0.3397
   92MPD2    H5 1413   1.912   3.325  16.860 -0.6729  1.8751  0.5045
   92MPD2    N1 1414   1.470   3.200  16.930  0.7280 -1.0644  0.1977
   92MPD2    H7 1415   1.480   3.237  16.836 -0.8192 -0.2766  0.3438
   93MPD2     C 1416   2.784   3.154  13.572 -0.1217  0.6670 -0.0896
   93MPD2    C1 1417   2.724   3.192  13.697  0.2492  0.7060 -0.4606
   93MPD2    C2 1418   2.590   3.170  13.709 -0.4691  0.1511 -0.4374
   93MPD2    C3 1419   2.514   3.121  13.603 -0.1511  0.6887 -0.1873
   93MPD2    C4 1420   2.576   3.091  13.480 -0.1418  0.4588  0.2995
   93MPD2    C5 1421   2.707   3.106  13.467 -0.3053  0.6577 -0.0984
   93MPD2     H 1422   2.542   3.195  13.803  1.0578 -0.3265  0.4614
   93MPD2    H1 1423   2.520   3.040  13.402 -1.5672 -1.6692  2.7310
   93MPD2    H2 1424   2.891   3.163  13.556  0.0292  0.0058  0.5370
   93MPD2    H3 1425   2.754   3.062  13.380  0.0153  1.5801 -0.3938
   93MPD2     N 1426   2.381   3.083  13.615 -0.7964 -0.0452 -0.5833
   93MPD2    H5 1427   2.332   3.061  13.529 -0.0775 -1.1224 -0.7164
   93MPD2    N1 1428   2.800   3.248  13.803 -0.3221 -0.2271 -0.6233
   93MPD2    H7 1429   2.752   3.265  13.890  0.5673  1.2832 -0.4287
   94TCq2    C1 1430   2.931   3.290  13.788 -0.8833 -0.0087  0.8878
   94TCq2    O2 1431   3.015   3.280  13.699  0.0448 -0.7322 -0.1966
   94TCq2    C2 1432   2.967   3.341  13.917  0.1580 -0.0713 -0.0896
   94TCq2    C3 1433   2.870   3.412  13.981  0.5500  1.3343  0.2083
   94TCq2    C4 1434   2.920   3.511  14.066 -0.3899 -0.1009  0.2563
   94TCq2    C5 1435   3.053   3.532  14.093  0.2335  0.3895 -0.1405
   94TCq2    C6 1436   3.145   3.447  14.040  0.6748  0.5576 -0.4097
   94TCq2    C7 1437   3.101   3.354  13.944 -0.6425  0.3953 -0.0653
   94TCq2    C8 1438   3.289   3.448  14.070  0.1183  0.3336  0.0438
   94TCq2    O4 1439   3.356   3.366  14.002  0.6315  0.4680  0.5295
   94TCq2    C9 1440   2.829   3.597  14.142 -0.3332  0.3601 -0.0572
   94TCq2    O5 1441   2.714   3.550  14.164  0.1914  0.5110 -0.0375
   94TCq2    O6 1442   2.880   3.693  14.206 -0.4085 -0.3543 -0.7432
   94TCq2    H2 1443   2.764   3.419  13.962  0.3105 -1.8449  0.3400
   94TCq2    H3 1444   3.093   3.620  14.141 -0.3360 -0.5127  1.9792
   94TCq2    H4 1445   3.163   3.282  13.892  2.2255  1.3750  1.9603
   95TMC2    C1 1446   3.089   4.439  16.526 -0.1769 -0.3148  0.0601
   95TMC2    C2 1447   3.132   4.312  16.508  0.2108  1.0880  0.4002
   95TMC2    C3 1448   3.126   4.227  16.608 -0.1577 -0.1310 -0.1989
   95TMC2    C4 1449   3.033   4.477  16.647  0.6292 -0.3797 -0.3924
   95TMC2    C5 1450   3.018   4.384  16.743  0.4471 -0.0399  0.3908
   95TMC2    C6 1451   3.067   4.258  16.724  0.4495 -0.2667  0.0186
   95TMC2     C 1452   3.139   4.538  16.437 -0.5499 -0.0527 -0.1067
   95TMC2     O 1453   3.225   4.518  16.350  0.0196 -0.0906  0.2722
   95TMC2     H 1454   3.214   4.291  16.441  2.1702 -0.7364  3.3324
   95TMC2    H1 1455   3.000   4.576  16.677 -3.7488 -0.8158 -3.6256
   95TMC2    H2 1456   3.060   4.179  16.799  1.8533  0.2898  0.7283
   95TMC2    C7 1457   2.954   4.416  16.870  0.5907 -0.6785 -0.2217
   95TMC2    C8 1458   3.164   4.091  16.589 -0.0138  0.0500 -0.1751
   95TMC2    O1 1459   2.868   4.504  16.857 -0.7140  0.2250 -0.0980
   95TMC2    O2 1460   3.186   4.021  16.689  0.6086 -0.3490 -0.3249
   95TMC2    O5 1461   3.112   4.040  16.478 -0.8272 -0.0900  0.2776
   95TMC2    H5 1462   3.074   4.113  16.424 -1.2586  0.5137  1.4070
   96MPD2     C 1463   3.040   0.267  16.210 -0.4480  0.6731  0.3063
   96MPD2    C1 1464   3.139   0.177  16.186 -0.4675 -0.4423  0.0610
   96MPD2    C2 1465   3.152   0.063  16.258 -0.0584 -0.3814  0.4756
   96MPD2    C3 1466   3.062   0.042  16.367  0.1633 -0.0433  0.0554
   96MPD2    C4 1467   2.982   0.147  16.407  0.5126  0.3734  0.5299
   96MPD2    C5 1468   2.973   0.260  16.330  0.0575  0.4285 -0.3431
   96MPD2     H 1469   3.227   4.712  16.238 -0.5857 -0.0776 -2.6152
   96MPD2    H1 1470   2.921   0.151  16.496  1.2164  0.8050  0.9979
   96MPD2    H2 1471   3.026   0.349  16.141  2.6874 -1.5641 -2.9874
   96MPD2    H3 1472   2.897   0.337  16.343 -1.1536 -0.3946 -2.4992
   96MPD2     N 1473   3.059   4.651  16.450 -0.1194 -0.5929  0.1483
   96MPD2    H5 1474   2.992   4.642  16.525  0.5061  0.1922  0.8097
   96MPD2    N1 1475   3.225   0.208  16.080 -0.0336 -0.6032  0.1410
   96MPD2    H7 1476   3.214   0.302  16.043  1.5897 -1.3264 -2.2166
   97MPD2     C 1477   1.020   1.581   1.253 -0.1854 -0.2118 -0.3750
   97MPD2    C1 1478   0.944   1.701   1.247 -0.2269 -0.5128 -0.7047
   97MPD2    C2 1479   0.922   1.766   1.126 -0.4098 -0.4925 -0.4088
   97MPD2    C3 1480   0.958   1.704   1.007  0.5051  0.4359 -0.4764
   97MPD2    C4 1481   1.029   1.583   1.014  0.6656  0.2304 -0.4934
   97MPD2    C5 1482   1.062   1.524   1.134  0.1325  0.6692 -0.4692
   97MPD2     H 1483   0.869   1.860   1.118 -0.5272 -0.5954 -0.8657
   97MPD2    H1 1484   1.059   1.546   0.916 -2.3861 -1.2440 -0.8773
   97MPD2    H2 1485   1.037   1.528   1.346 -1.5249  0.2783  0.1524
   97MPD2    H3 1486   1.118   1.431   1.126 -0.2104  0.6496 -2.6213
   97MPD2     N 1487   0.929   1.762   0.881 -0.2765  0.1781 -0.1247
   97MPD2    H5 1488   0.977   1.719   0.802  0.7524 -0.5902  0.9138
   97MPD2    N1 1489   0.887   1.748   1.368  0.5509 -0.5499 -0.3027
   97MPD2    H7 1490   0.904   1.696   1.453  0.4114  1.5592  1.0405
   98TCq2    C1 1491   0.905   1.888   0.852  0.5265 -0.3108 -0.0670
   98TCq2    O2 1492   0.888   1.983   0.932  0.0487  0.3087 -0.0579
   98TCq2    C2 1493   0.908   1.924   0.714  0.5664 -0.3633  0.7997
   98TCq2    C3 1494   0.883   1.825   0.614  0.3341 -0.2985 -0.4513
   98TCq2    C4 1495   0.870   1.871   0.487 -0.1213 -0.7020 -0.9598
   98TCq2    C5 1496   0.888   2.001   0.450  0.3486 -0.3353 -0.0814
   98TCq2    C6 1497   0.922   2.090   0.546  0.0721  0.1792  0.5266
   98TCq2    C7 1498   0.936   2.052   0.675  0.8269 -0.0230 -0.3783
   98TCq2    C8 1499   0.988   2.217   0.519 -0.6931  0.1920  0.2105
   98TCq2    O4 1500   1.060   2.258   0.612 -0.2152 -0.1091  0.4030
   98TCq2    C9 1501   0.841   1.778   0.378  0.7489  0.0550 -0.4562
   98TCq2    O5 1502   0.861   1.827   0.261 -0.7268 -0.5504 -0.1123
   98TCq2    O6 1503   0.803   1.659   0.411 -0.9202 -0.2445 -0.0468
   98TCq2    H2 1504   0.862   1.722   0.642  0.1416 -0.3096 -0.6445
   98TCq2    H3 1505   0.863   2.035   0.350 -1.1236 -0.1949  0.3484
   98TCq2    H4 1506   0.952   2.129   0.750 -3.0457  2.2720 -1.8535
   99MPD2     C 1507   4.502   4.369   2.493 -0.7103  0.5159 -0.6026
   99MPD2    C1 1508   4.380   4.304   2.493  0.5995  0.1609  0.5448
   99MPD2    C2 1509   4.318   4.282   2.377 -0.8526 -0.9292 -0.8573
   99MPD2    C3 1510   4.376   4.318   2.258 -0.2763  0.3192 -0.1841
   99MPD2    C4 1511   4.502   4.375   2.259  0.1003 -0.1435  1.1828
   99MPD2    C5 1512   4.562   4.401   2.377  0.3577  0.4781 -0.8031
   99MPD2     H 1513   4.231   4.217   2.381 -0.7406 -1.0571 -0.4093
   99MPD2    H1 1514   4.552   4.400   2.166 -0.2999 -0.6864  0.8169
   99MPD2    H2 1515   4.542   4.398   2.590 -1.1113  0.8853 -0.5458
   99MPD2    H3 1516   4.663   4.441   2.377 -0.5328  2.6501  2.8732
   99MPD2     N 1517   4.298   4.277   2.141 -0.2600 -0.4717 -0.1607
   99MPD2    H5 1518   4.210   4.230   2.160 -1.6674  0.5955 -3.9161
   99MPD2    N1 1519   4.309   4.278   2.615  0.0946 -0.0271 -0.8419
   99MPD2    H7 1520   4.215   4.242   2.600  0.2400 -0.5546 -0.5173
  100TCq2    C1 1521   4.361   4.270   2.741 -0.1164 -0.0189  0.3975
  100TCq2    O2 1522   4.477   4.279   2.773 -0.3840  0.3368  0.0312
  100TCq2    C2 1523   4.263   4.221   2.840 -0.3868  0.6515  0.4790
  100TCq2    C3 1524   4.311   4.175   2.956 -0.2990  0.2933  0.0100
  100TCq2    C4 1525   4.229   4.124   3.051  0.3797  0.1222 -0.1397
  100TCq2    C5 1526   4.100   4.104   3.018  1.0610 -0.3669 -0.5375
  100TCq2    C6 1527   4.057   4.138   2.893  0.1243  0.6975  0.7817
  100TCq2    C7 1528   4.134   4.205   2.805 -0.3405  0.1935 -0.5208
  100TCq2    C8 1529   3.909   4.151   2.879 -0.5127  0.0797  0.5838
  100TCq2    O4 1530   3.854   4.187   2.978  0.0260 -0.3440 -0.0826
  100TCq2    C9 1531   4.284   4.074   3.178  0.3993  0.7665 -0.4042
  100TCq2    O5 1532   4.403   4.037   3.170  0.4571  0.3045  0.6956
  100TCq2    O6 1533   4.224   4.107   3.284  0.7057  0.0678  0.4220
  100TCq2    H2 1534   4.414   4.197   2.983 -0.0004 -0.8043 -0.2620
  100TCq2    H3 1535   4.032   4.060   3.091  0.5561 -2.1191 -2.0414
  100TCq2    H4 1536   4.081   4.247   2.720 -1.5192  0.2950  0.2602
  101MPD2     C 1537   4.361   0.237  13.326  0.2278  0.1937 -0.9769
  101MPD2    C1 1538   4.305   0.332  13.408  0.1363 -0.4383 -0.6961
  101MPD2    C2 1539   4.226   0.291  13.519  0.0504 -0.2464  0.3965
  101MPD2    C3 1540   4.210   0.157  13.535 -0.0856 -0.7643 -0.0965
  101MPD2    C4 1541   4.268   0.068  13.444  0.2005  0.2539 -0.0160
  101MPD2    C5 1542   4.349   0.105  13.343  0.3480  0.1947 -0.4219
  101MPD2     H 1543   4.186   0.362  13.591 -1.1021 -0.0640 -0.4259
  101MPD2    H1 1544   4.261   4.685  13.455 -0.5459  0.1041 -2.0385
  101MPD2    H2 1545   4.431   0.268  13.249 -0.3819 -0.0850 -1.6447
  101MPD2    H3 1546   4.396   0.036  13.274 -1.6148  1.6421 -3.1785
  101MPD2     N 1547   4.121   0.113  13.631 -0.1144 -0.0370 -0.2213
  101MPD2    H5 1548   4.086   0.186  13.693 -0.0559  0.0274 -0.2645
  101MPD2    N1 1549   4.315   0.472  13.374 -0.4464 -0.1562 -0.9176
  101MPD2    H7 1550   4.371   0.487  13.290  0.3631  2.1737  0.0373
  102TCq2    C1 1551   4.509   0.819  13.106  0.2842  0.0822 -0.3694
  102TCq2    O2 1552   4.517   0.929  13.055  0.2415 -0.0597  0.3393
  102TCq2    C2 1553   4.424   0.830  13.232  0.9237 -0.3448 -0.2683
  102TCq2    C3 1554   4.395   0.953  13.294  0.0915  0.2965 -0.6053
  102TCq2    C4 1555   4.333   0.940  13.415 -0.1994  0.3705  0.6578
  102TCq2    C5 1556   4.292   0.817  13.463 -0.1306  0.4890 -0.0834
  102TCq2    C6 1557   4.320   0.701  13.396 -0.5209  0.8996  0.1244
  102TCq2    C7 1558   4.384   0.709  13.276 -1.3968  0.3852  0.1374
  102TCq2    C8 1559   4.278   0.579  13.455  0.0969  0.5348 -0.0846
  102TCq2    O4 1560   4.209   0.579  13.558 -0.2930  0.5945 -1.2012
  102TCq2    C9 1561   4.301   1.058  13.490 -0.6958 -0.2015  0.6852
  102TCq2    O5 1562   4.217   1.051  13.579 -0.2386  0.2726 -0.5624
  102TCq2    O6 1563   4.383   1.150  13.471 -0.0076  0.4389  0.0327
  102TCq2    H2 1564   4.434   1.048  13.259 -2.5749  1.4682 -0.4011
  102TCq2    H3 1565   4.242   0.817  13.559  0.2380  0.4922  0.1084
  102TCq2    H4 1566   4.397   0.625  13.209  2.7935  0.4976  0.7893
  103TMC2    C1 1567   2.513   0.983  12.868 -0.4103 -0.2852 -0.0261
  103TMC2    C2 1568   2.595   0.876  12.885  0.0196 -0.7182  0.2703
  103TMC2    C3 1569   2.666   0.858  13.004 -0.5852  0.0544  0.5019
  103TMC2    C4 1570   2.497   1.083  12.971  0.1211  0.2464 -0.8060
  103TMC2    C5 1571   2.562   1.058  13.089 -0.2519 -0.3992 -0.3915
  103TMC2    C6 1572   2.646   0.950  13.105 -0.7437  0.3863 -0.3394
  103TMC2     C 1573   2.429   0.995  12.748  0.3178  0.0127 -0.2972
  103TMC2     O 1574   2.389   1.102  12.710  0.2160  0.0083 -0.2048
  103TMC2     H 1575   2.623   0.820  12.797 -0.5573  2.1043 -1.7296
  103TMC2    H1 1576   2.435   1.171  12.960  0.8835  0.9337  0.5739
  103TMC2    H2 1577   2.708   0.943  13.194 -0.5442 -0.1900 -0.5225
  103TMC2    C7 1578   2.537   1.132  13.208  0.5034  0.9245  0.9863
  103TMC2    C8 1579   2.768   0.768  13.010  0.2938 -0.2831  1.3742
  103TMC2    O1 1580   2.628   1.167  13.281  0.2525  0.0978 -0.1930
  103TMC2    O2 1581   2.750   0.653  13.048  0.0558  0.1909 -0.2824
  103TMC2    O5 1582   2.856   0.809  12.917  0.3198 -0.1711  0.2512
  103TMC2    H5 1583   2.844   0.901  12.885 -1.5298 -0.7101 -0.5867
  104MPD2     C 1584   2.302   0.700  12.563  0.2642  0.5417 -0.7167
  104MPD2    C1 1585   2.312   0.831  12.593 -0.6441  0.1198 -0.1353
  104MPD2    C2 1586   2.242   0.924  12.516 -0.3587  0.2254 -0.4553
  104MPD2    C3 1587   2.159   0.881  12.416  0.5819 -0.5786  0.0308
  104MPD2    C4 1588   2.143   0.744  12.387  0.1243 -0.2693  0.0493
  104MPD2    C5 1589   2.217   0.658  12.463  0.1337 -0.8688  0.0280
  104MPD2     H 1590   2.249   1.032  12.530  1.4164 -0.0212  0.5499
  104MPD2    H1 1591   2.083   0.700  12.308 -1.9569  0.7833  1.0654
  104MPD2    H2 1592   2.350   0.627  12.628  0.2325  0.3174 -0.9427
  104MPD2    H3 1593   2.211   0.551  12.444 -1.2450 -1.2381  2.3838
  104MPD2     N 1594   2.074   0.976  12.353 -0.3341  0.2512  0.0155
  104MPD2    H5 1595   2.074   1.068  12.396 -0.9271 -0.3188  1.2416
  104MPD2    N1 1596   2.401   0.864  12.701  0.2521 -0.5476 -0.6076
  104MPD2    H7 1597   2.444   0.785  12.749  0.8368  0.8331  1.1084
  105MPD2     C 1598   4.712   0.230   0.119 -0.1500  0.7142  0.0557
  105MPD2    C1 1599   4.583   0.282   0.153  0.1213 -0.1917 -0.2228
  105MPD2    C2 1600   4.550   0.319   0.278 -0.6197 -0.3112 -0.0190
  105MPD2    C3 1601   4.647   0.306   0.379  0.6908  0.3135 -0.1761
  105MPD2    C4 1602   0.052   0.258   0.353  0.3502  0.1994  0.0376
  105MPD2    C5 1603   0.081   0.230   0.220 -0.1694 -0.3383  0.5261
  105MPD2     H 1604   4.446   0.344   0.297 -0.5568 -0.4030  0.4652
  105MPD2    H1 1605   0.122   0.232   0.431  1.2542  2.3031 -0.0730
  105MPD2    H2 1606   0.018   0.223   0.016 -1.3125 -0.4003 -0.2078
  105MPD2    H3 1607   0.177   0.190   0.192  0.0715 -0.7145  1.8464
  105MPD2     N 1608   4.601   0.324   0.512  0.3799 -0.2934 -0.2255
  105MPD2    H5 1609   4.501   0.343   0.523  0.0919 -1.7502 -0.3600
  105MPD2    N1 1610   4.490   0.309   0.052 -0.1871 -0.0206 -0.4918
  105MPD2    H7 1611   4.412   0.365   0.084 -0.1224 -0.3098  0.1684
  106TCq2    C1 1612   4.677   0.308   0.626 -0.1678  0.3678  0.1157
  106TCq2    O2 1613   0.061   0.254   0.642  0.1581  0.1094  0.5248
  106TCq2    C2 1614   4.598   0.326   0.750 -0.4160  0.4515  0.2402
  106TCq2    C3 1615   4.512   0.427   0.759 -0.3285 -0.7365 -0.1470
  106TCq2    C4 1616   4.457   0.457   0.878 -0.4611  0.5515 -0.1780
  106TCq2    C5 1617   4.472   0.368   0.983 -0.2071  0.0136 -0.2185
  106TCq2    C6 1618   4.572   0.279   0.984  0.8043  0.1748  0.6030
  106TCq2    C7 1619   4.635   0.255   0.861 -0.1664 -0.4535 -0.4433
  106TCq2    C8 1620   4.552   0.156   1.062 -0.6104 -0.0851  0.5941
  106TCq2    O4 1621   4.608   0.056   1.019 -0.1780  0.2896 -0.2115
  106TCq2    C9 1622   4.382   0.581   0.890 -0.1828  0.7500 -0.1819
  106TCq2    O5 1623   4.346   0.609   1.007  0.2912  0.0318  0.5310
  106TCq2    O6 1624   4.366   0.655   0.786 -0.3573  0.1357 -0.5597
  106TCq2    H2 1625   4.480   0.490   0.676  1.1067  0.5422  0.2844
  106TCq2    H3 1626   4.406   0.380   1.068  0.7242 -0.6056  0.5852
  106TCq2    H4 1627   0.000   0.193   0.860 -0.5528 -0.9975 -0.9332
  107TMC2    C1 1628   4.380   4.413  11.733  0.2019 -0.0862 -0.3779
  107TMC2    C2 1629   4.425   4.489  11.635  0.2056  0.1019  0.5974
  107TMC2    C3 1630   4.504   4.430  11.537  0.3384 -1.1600 -0.4378
  107TMC2    C4 1631   4.397   4.274  11.733  0.2061 -0.4314 -0.6022
  107TMC2    C5 1632   4.477   4.221  11.637  0.4394  0.8224 -0.0438
  107TMC2    C6 1633   4.531   4.299  11.543  0.1015 -0.1076  0.1504
  107TMC2     C 1634   4.299   4.459  11.842  0.1088 -0.0546  0.2122
  107TMC2     O 1635   4.288   4.386  11.936 -0.5231 -0.6247 -0.8642
  107TMC2     H 1636   4.438   4.597  11.632  2.3661 -0.1719  0.3850
  107TMC2    H1 1637   4.339   4.207  11.795  0.1730  0.5715  0.4542
  107TMC2    H2 1638   4.591   4.253  11.466  2.2106 -0.5021  2.0282
  107TMC2    C7 1639   4.458   4.079  11.618 -0.1413 -0.0824 -0.7234
  107TMC2    C8 1640   4.561   4.504  11.438  0.7601  1.1942  0.6523
  107TMC2    O1 1641   4.446   4.005  11.712 -0.4309 -0.2148 -0.4625
  107TMC2    O2 1642   4.661   4.473  11.369 -0.3285  0.0947 -0.7020
  107TMC2    O5 1643   4.465   4.577  11.380  0.2192  0.0767  0.5111
  107TMC2    H5 1644   4.380   4.565  11.427 -0.7369 -1.2812 -1.5718
  108MPD2     C 1645   4.072   0.012  11.850 -0.1239  0.0529 -0.1648
  108MPD2    C1 1646   4.143   4.641  11.911  0.5459 -0.3032  0.3714
  108MPD2    C2 1647   4.119   4.592  12.042  0.1625 -0.4104  0.0897
  108MPD2    C3 1648   4.013   4.651  12.110 -0.4486 -0.1416  0.5339
  108MPD2    C4 1649   3.946   0.035  12.052 -0.2299 -0.1057  0.3733
  108MPD2    C5 1650   3.971   0.070  11.923 -0.9150  0.5218  0.1178
  108MPD2     H 1651   4.184   4.521  12.093  0.0498 -1.6548 -1.4831
  108MPD2    H1 1652   3.858   0.080  12.098 -0.1116 -0.0670  0.5642
  108MPD2    H2 1653   4.073   0.029  11.743  0.3420 -0.7598 -0.2956
  108MPD2    H3 1654   3.908   0.139  11.868  1.5555  1.8590 -0.9935
  108MPD2     N 1655   3.963   4.607  12.235  0.6520 -0.8055 -0.6042
  108MPD2    H5 1656   3.877   4.654  12.263 -0.7723 -2.6573 -1.8524
  108MPD2    N1 1657   4.231   4.576  11.821  0.0439  0.6719  0.2183
  108MPD2    H7 1658   4.257   4.623  11.734  1.7976 -3.1353 -1.3266
  109MPD2     C 1659   0.999   1.224   1.356 -0.2036 -0.1288 -0.0338
  109MPD2    C1 1660   0.929   1.292   1.454 -1.0537 -0.7990 -0.6697
  109MPD2    C2 1661   0.990   1.291   1.582  0.5402  0.4807 -0.3917
  109MPD2    C3 1662   1.097   1.212   1.618  0.5225 -1.0689  0.3502
  109MPD2    C4 1663   1.154   1.135   1.519 -0.4191  0.4611 -0.1310
  109MPD2    C5 1664   1.102   1.140   1.395  0.7897  0.4917 -0.1234
  109MPD2     H 1665   0.933   1.335   1.663  0.8623 -2.3677  1.3724
  109MPD2    H1 1666   1.248   1.082   1.531 -0.1222  1.4672  1.9384
  109MPD2    H2 1667   0.966   1.217   1.253 -0.0402  0.3784 -0.1186
  109MPD2    H3 1668   1.159   1.100   1.312  2.2647 -1.0046  1.6242
  109MPD2     N 1669   1.130   1.203   1.753 -0.2064  0.9777 -0.2568
  109MPD2    H5 1670   1.089   1.273   1.814 -2.3319  0.1943 -0.7840
  109MPD2    N1 1671   0.806   1.358   1.423 -0.8202  0.1209 -0.3973
  109MPD2    H7 1672   0.770   1.339   1.330 -0.9581  1.0076 -0.5235
  110TCq2    C1 1673   1.222   1.124   1.817 -0.4538 -0.3318  0.0398
  110TCq2    O2 1674   1.318   1.068   1.757 -0.3069  0.5661 -0.7375
  110TCq2    C2 1675   1.200   1.132   1.956 -0.3231 -0.4390  0.3444
  110TCq2    C3 1676   1.308   1.090   2.035  0.2598  0.1873  0.0131
  110TCq2    C4 1677   1.285   1.094   2.170 -0.3154 -0.1361  0.3445
  110TCq2    C5 1678   1.165   1.135   2.223 -0.6086 -0.2017  0.8931
  110TCq2    C6 1679   1.066   1.181   2.140 -0.4238 -0.1136  0.2453
  110TCq2    C7 1680   1.080   1.182   2.005 -0.8023  0.1415 -0.2372
  110TCq2    C8 1681   0.963   1.268   2.198  0.2507  0.6236 -0.8705
  110TCq2    O4 1682   0.951   1.255   2.319 -0.5058  0.0654  0.0694
  110TCq2    C9 1683   1.388   1.049   2.268  0.1446  0.0660  0.5748
  110TCq2    O5 1684   1.349   1.055   2.387  0.0619  0.5001  0.6130
  110TCq2    O6 1685   1.501   1.008   2.228 -0.8257  0.1055 -0.5076
  110TCq2    H2 1686   1.402   1.042   2.009  0.2991 -1.3363  2.9997
  110TCq2    H3 1687   1.144   1.137   2.329  0.0156  2.4478  0.9569
  110TCq2    H4 1688   0.994   1.218   1.950 -1.6352 -1.7872 -0.1903
  111TMC2    C1 1689   4.181   1.571  11.897 -0.5913  0.3522  0.0791
  111TMC2    C2 1690   4.074   1.534  11.981 -0.4804  0.2504 -0.3736
  111TMC2    C3 1691   4.099   1.447  12.081 -0.3167  0.2393  0.3127
  111TMC2    C4 1692   4.308   1.524  11.917  0.1090 -0.3946 -0.2433
  111TMC2    C5 1693   4.333   1.446  12.027 -0.2748 -0.1662 -0.3186
  111TMC2    C6 1694   4.228   1.407  12.111  0.1304  0.0280 -0.1008
  111TMC2     C 1695   4.161   1.659  11.784 -0.6515  0.4665 -0.6214
  111TMC2     O 1696   4.229   1.642  11.678 -0.2281  0.0516  0.4887
  111TMC2     H 1697   3.972   1.568  11.978 -1.5490 -2.9108 -0.1182
  111TMC2    H1 1698   4.382   1.549  11.842 -0.8891 -2.0963 -1.8014
  111TMC2    H2 1699   4.262   1.334  12.183  0.1767 -1.1898 -1.3609
  111TMC2    C7 1700   4.465   1.418  12.070 -0.5474  0.3075 -0.2574
  111TMC2    C8 1701   4.007   1.441  12.186  0.2817  0.3414 -0.1601
  111TMC2    O1 1702   4.483   1.331  12.155 -0.0861  0.4147  0.4946
  111TMC2    O2 1703   3.892   1.403  12.171  0.0742 -0.3056 -0.6917
  111TMC2    O5 1704   4.079   1.462  12.299  0.3098  0.1761 -0.8270
  111TMC2    H5 1705   4.171   1.490  12.278  0.5669  0.6452  0.9284
  112MPD2     C 1706   3.931   2.052  11.532  0.0451  0.2131 -0.4527
  112MPD2    C1 1707   3.989   1.941  11.472 -0.0060 -0.0123 -0.6201
  112MPD2    C2 1708   4.040   1.838  11.557  0.4676 -0.5535  0.6675
  112MPD2    C3 1709   4.010   1.839  11.695  0.1575 -0.6554 -0.6909
  112MPD2    C4 1710   3.943   1.948  11.743 -0.3553  0.4905 -0.4582
  112MPD2    C5 1711   3.905   2.050  11.661 -0.4944  0.2228 -0.0393
  112MPD2     H 1712   4.099   1.759  11.512 -1.7625 -2.2462  0.7439
  112MPD2    H1 1713   3.927   1.958  11.850  1.3326  0.8286 -0.2415
  112MPD2    H2 1714   3.910   2.136  11.466  0.7849  0.9354  0.2391
  112MPD2    H3 1715   3.863   2.140  11.703  0.0667  0.9987 -1.1455
  112MPD2     N 1716   4.063   1.748  11.796 -0.1115 -0.0206  0.2897
  112MPD2    H5 1717   4.021   1.749  11.888  1.2088 -1.1590  0.8938
  112MPD2    N1 1718   4.016   1.933  11.338  0.1221  0.2480  0.0622
  112MPD2    H7 1719   4.093   1.879  11.303  0.4687 -0.3456  1.7462
  113MPD2     C 1720   3.489   4.035   1.877 -0.3835 -0.1279 -0.1058
  113MPD2    C1 1721   3.378   4.111   1.897  0.5268 -0.3798 -0.0490
  113MPD2    C2 1722   3.288   4.127   1.799  1.4183  0.4794 -0.0927
  113MPD2    C3 1723   3.295   4.045   1.684 -1.1338 -0.9688  0.5329
  113MPD2    C4 1724   3.407   3.971   1.667 -0.0869 -1.0379 -0.8619
  113MPD2    C5 1725   3.508   3.966   1.762  0.4912 -0.3065 -0.0975
  113MPD2     H 1726   3.209   4.201   1.812 -0.0828 -1.0585 -0.3994
  113MPD2    H1 1727   3.422   3.905   1.582  0.3069 -0.2353 -1.4141
  113MPD2    H2 1728   3.570   4.042   1.949 -0.2888 -0.0397 -0.2210
  113MPD2    H3 1729   3.598   3.911   1.737 -0.1694 -1.0439 -0.8571
  113MPD2     N 1730   3.187   4.035   1.593 -0.0448 -0.0272 -0.1746
  113MPD2    H5 1731   3.206   3.998   1.500  0.1638 -0.3181 -0.0150
  113MPD2    N1 1732   3.361   4.188   2.013 -0.0812  0.3101  0.4579
  113MPD2    H7 1733   3.284   4.254   2.018  0.6856  1.3163 -0.9621
  114TCq2    C1 1734   3.055   4.066   1.624  0.0090  0.1795  0.5245
  114TCq2    O2 1735   3.003   4.095   1.728  0.2890 -0.5477 -0.6096
  114TCq2    C2 1736   2.967   4.031   1.511  0.3209  0.3819  0.8840
  114TCq2    C3 1737   3.019   4.042   1.385  0.5894  0.0750 -0.0821
  114TCq2    C4 1738   2.969   3.963   1.281  0.1735 -0.8753 -0.0382
  114TCq2    C5 1739   2.858   3.882   1.311  0.5885  0.1170  0.6113
  114TCq2    C6 1740   2.816   3.869   1.440  0.6837  0.4732 -0.7520
  114TCq2    C7 1741   2.867   3.949   1.541 -0.0774 -0.1971  0.5546
  114TCq2    C8 1742   2.713   3.770   1.453  0.0737  0.3960  0.1699
  114TCq2    O4 1743   2.637   3.763   1.360 -0.5767 -0.1241 -0.3089
  114TCq2    C9 1744   3.024   3.972   1.147  0.4782  0.3355  0.0890
  114TCq2    O5 1745   2.953   3.925   1.050 -0.2387 -0.3422  0.5648
  114TCq2    O6 1746   3.141   4.013   1.145 -0.7725 -0.1506  0.6174
  114TCq2    H2 1747   3.098   4.114   1.367  1.6153 -0.9402  0.3754
  114TCq2    H3 1748   2.819   3.822   1.230 -1.8910  3.7754 -0.9092
  114TCq2    H4 1749   2.858   3.920   1.645 -1.7948 -2.3367 -0.2157
  115TMC2    C1 1750   3.496   1.919   0.387 -0.6041 -0.1549 -1.1940
  115TMC2    C2 1751   3.629   1.888   0.398 -0.4156 -0.6957  0.5995
  115TMC2    C3 1752   3.720   1.993   0.397 -0.2001  0.6176  0.3280
  115TMC2    C4 1753   3.450   2.044   0.350 -0.4682  0.1685 -0.2546
  115TMC2    C5 1754   3.555   2.141   0.335  0.0344 -0.1564 -0.6899
  115TMC2    C6 1755   3.685   2.119   0.365 -0.1926 -0.0661  0.2952
  115TMC2     C 1756   3.409   1.807   0.350 -0.3638  0.4125  0.9373
  115TMC2     O 1757   3.448   1.724   0.270 -0.2885 -0.3475 -0.3306
  115TMC2     H 1758   3.664   1.786   0.409  0.0476 -0.6039 -0.0231
  115TMC2    H1 1759   3.349   2.055   0.311 -0.0896 -2.0950 -1.8630
  115TMC2    H2 1760   3.762   2.194   0.374 -2.4449  2.0790  1.7200
  115TMC2    C7 1761   3.502   2.277   0.317 -0.1408  0.0845  0.2166
  115TMC2    C8 1762   3.861   1.962   0.390 -0.0695  0.9782  0.0361
  115TMC2    O1 1763   3.383   2.284   0.299 -0.2336  0.5522 -0.2614
  115TMC2    O2 1764   3.946   2.035   0.348 -0.3658  0.0963  0.4289
  115TMC2    O5 1765   3.881   1.862   0.477  0.1649  0.3238  0.3789
  115TMC2    H5 1766   3.803   1.833   0.530 -0.6802  1.5229 -0.2080
  116MPD2     C 1767   2.916   1.651   0.330  0.8187  0.4750  0.0127
  116MPD2    C1 1768   3.027   1.610   0.260  0.3466  0.2569  0.1039
  116MPD2    C2 1769   3.152   1.660   0.276 -0.3456 -0.2060  0.0338
  116MPD2    C3 1770   3.167   1.763   0.375 -0.3044  0.0705 -0.4463
  116MPD2    C4 1771   3.056   1.805   0.444 -0.3436  0.4610  0.1282
  116MPD2    C5 1772   2.935   1.750   0.421 -0.6235  0.3579  0.1024
  116MPD2     H 1773   3.235   1.634   0.211 -1.1089  0.7261 -1.3209
  116MPD2    H1 1774   3.058   1.884   0.518 -1.1754 -0.5145  1.1980
  116MPD2    H2 1775   2.818   1.607   0.318  1.5176 -1.4435  1.2544
  116MPD2    H3 1776   2.859   1.800   0.479 -1.0525 -0.9215  0.6447
  116MPD2     N 1777   3.291   1.825   0.412  0.0143  0.0203  0.1741
  116MPD2    H5 1778   3.292   1.893   0.487 -0.9551  0.5099 -0.2576
  116MPD2    N1 1779   3.006   1.507   0.166  0.2978  0.0106 -0.0528
  116MPD2    H7 1780   2.910   1.493   0.136  0.4384 -1.4655  0.2191
  117TMC2    C1 1781   2.008   3.336  13.955  0.1649 -0.0731  0.6418
  117TMC2    C2 1782   2.066   3.278  14.054 -0.0517  0.0141 -0.4625
  117TMC2    C3 1783   2.198   3.264  14.055 -0.2775 -0.7355 -0.7570
  117TMC2    C4 1784   2.075   3.378  13.842 -0.4290  0.0624  0.3766
  117TMC2    C5 1785   2.213   3.374  13.853 -0.2609 -0.1933  0.2374
  117TMC2    C6 1786   2.276   3.320  13.961  0.3936  0.7231  0.5070
  117TMC2     C 1787   1.890   3.407  13.997 -0.7312  0.6624  0.6449
  117TMC2     O 1788   1.901   3.482  14.092 -0.2834 -0.1493 -0.2871
  117TMC2     H 1789   2.009   3.255  14.143  0.7507 -0.4385 -0.0645
  117TMC2    H1 1790   2.015   3.424  13.765 -0.4577  0.9924  0.9555
  117TMC2    H2 1791   2.380   3.294  13.943  0.3939 -1.1879  3.4079
  117TMC2    C7 1792   2.296   3.433  13.748  0.2564  0.2970 -0.2758
  117TMC2    C8 1793   2.270   3.212  14.167  0.2548 -0.5774 -0.0664
  117TMC2    O1 1794   2.235   3.458  13.642 -0.0746  0.2293 -0.0708
  117TMC2    O2 1795   2.374   3.260  14.207  0.0581 -0.3695 -0.0785
  117TMC2    O5 1796   2.192   3.110  14.218 -0.3991 -0.3129  0.4357
  117TMC2    H5 1797   2.122   3.079  14.157 -1.0309 -0.0476  1.0113
  118MPD2     C 1798   2.448   3.654  13.618 -0.3757  0.9378 -0.8459
  118MPD2    C1 1799   2.476   3.603  13.742  0.9849 -0.4799 -0.4732
  118MPD2    C2 1800   2.558   3.680  13.820 -0.2136 -0.7700 -0.1114
  118MPD2    C3 1801   2.593   3.810  13.793  0.1951  0.1479  0.2474
  118MPD2    C4 1802   2.556   3.856  13.666  0.4211  0.6109 -0.3025
  118MPD2    C5 1803   2.498   3.771  13.577  0.7378  0.3885  0.1527
  118MPD2     H 1804   2.566   3.643  13.922 -1.1250  0.7860  0.5192
  118MPD2    H1 1805   2.601   3.953  13.645  0.8907  0.5581  0.4707
  118MPD2    H2 1806   2.378   3.614  13.545  1.5699  0.1942 -2.2832
  118MPD2    H3 1807   2.503   3.786  13.470  0.2629 -3.0709 -0.3755
  118MPD2     N 1808   2.651   3.881  13.899 -0.1192  0.3385  0.8991
  118MPD2    H5 1809   2.654   3.832  13.987 -0.7560 -0.4179  0.5005
  118MPD2    N1 1810   2.420   3.482  13.789 -0.1288  0.1126 -0.1758
  118MPD2    H7 1811   2.454   3.463  13.882  2.1348 -1.7989 -1.3856
  119MPD2     C 1812   0.433   0.136  13.607 -0.0399  0.3585 -0.7303
  119MPD2    C1 1813   0.393   0.130  13.743 -0.3052 -0.0434  0.1765
  119MPD2    C2 1814   0.280   0.047  13.765  1.0298 -0.6696  0.1471
  119MPD2    C3 1815   0.206   4.720  13.667 -0.1004  0.2825  0.1336
  119MPD2    C4 1816   0.242   0.010  13.532  0.3051  0.6770  0.4799
  119MPD2    C5 1817   0.359   0.074  13.504 -0.4123 -0.5432 -0.0966
  119MPD2     H 1818   0.245   0.037  13.867  0.1618 -1.6113 -0.2393
  119MPD2    H1 1819   0.196   4.686  13.447 -2.1418 -1.4286  2.9673
  119MPD2    H2 1820   0.525   0.188  13.583  1.6700 -2.0705  0.5630
  119MPD2    H3 1821   0.401   0.072  13.405  0.4410 -1.4734  0.2935
  119MPD2     N 1822   0.096   4.641  13.710  0.4732  0.4435 -0.3156
  119MPD2    H5 1823   0.093   4.638  13.812  0.0237 -1.0267 -0.3716
  119MPD2    N1 1824   0.449   0.192  13.851 -0.4646  0.0241  0.1140
  119MPD2    H7 1825   0.405   0.173  13.941 -0.3420 -0.3601  0.0918
  120TCq2    C1 1826   4.722   4.569  13.650  0.0032  0.1228  0.0439
  120TCq2    O2 1827   4.710   4.544  13.528 -0.7301 -0.2246 -0.2187
  120TCq2    C2 1828   4.656   4.490  13.751  0.8926  0.4842  0.2211
  120TCq2    C3 1829   4.663   4.352  13.746  1.3502  0.0971 -0.6140
  120TCq2    C4 1830   4.657   4.287  13.862 -1.1678 -0.0862 -1.0237
  120TCq2    C5 1831   4.631   4.347  13.984 -0.3759  0.5216 -0.0657
  120TCq2    C6 1832   4.625   4.484  13.987  0.0349 -0.0933  0.2909
  120TCq2    C7 1833   4.643   4.558  13.873 -0.0132 -0.5551 -0.1128
  120TCq2    C8 1834   4.639   4.554  14.113 -0.7391  0.1450  0.1817
  120TCq2    O4 1835   4.682   4.671  14.112  0.0690  0.2505 -0.4127
  120TCq2    C9 1836   4.694   4.145  13.849  0.0976 -0.2145  0.0674
  120TCq2    O5 1837   4.680   4.086  13.959  0.2146  0.1807  0.2694
  120TCq2    O6 1838   0.031   4.100  13.752  0.6170  0.2080  0.1854
  120TCq2    H2 1839   4.681   4.296  13.655 -0.5435 -1.6664  0.1159
  120TCq2    H3 1840   4.644   4.291  14.076  0.8490  1.5278  0.3661
  120TCq2    H4 1841   4.644   4.667  13.881  0.5802 -0.6730  1.4148
  121TMC2    C1 1842   2.085   1.984  14.316 -0.2832 -0.1397  0.2312
  121TMC2    C2 1843   2.127   1.877  14.390 -0.2605  0.2457  0.3465
  121TMC2    C3 1844   2.163   1.760  14.321  0.4719  0.0197  0.4673
  121TMC2    C4 1845   2.049   1.967  14.180  0.1380  0.3389 -0.3926
  121TMC2    C5 1846   2.067   1.842  14.123 -0.3048  0.3789 -0.1897
  121TMC2    C6 1847   2.126   1.743  14.193  0.7229  0.1363  0.3060
  121TMC2     C 1848   2.154   2.110  14.352  0.5040 -0.0788  0.2203
  121TMC2     O 1849   2.124   2.160  14.457  0.7614  0.3261  0.0377
  121TMC2     H 1850   2.166   1.904  14.487  3.3193  1.5097 -1.4384
  121TMC2    H1 1851   2.015   2.052  14.122  1.7532  0.1711 -1.5907
  121TMC2    H2 1852   2.143   1.644  14.153  2.6885  0.2283  0.9243
  121TMC2    C7 1853   2.054   1.825  13.975  0.4366 -0.1770 -0.5382
  121TMC2    C8 1854   2.216   1.652  14.393  0.0122 -0.2588 -0.7839
  121TMC2    O1 1855   2.092   1.717  13.929 -0.3181 -0.5748 -0.1132
  121TMC2    O2 1856   2.270   1.554  14.341 -0.1786 -0.0193 -0.1090
  121TMC2    O5 1857   2.165   1.650  14.520 -0.5970  0.0669 -0.0631
  121TMC2    H5 1858   2.126   1.733  14.554 -0.9100  0.4109 -1.2482
  122MPD2     C 1859   2.317   2.357  14.364 -0.3823 -0.2894 -0.5920
  122MPD2    C1 1860   2.327   2.265  14.264 -0.3785 -0.1022  0.4504
  122MPD2    C2 1861   2.409   2.288  14.159 -0.3023  0.2769  0.4572
  122MPD2    C3 1862   2.488   2.401  14.160 -0.0896  0.6244 -0.5704
  122MPD2    C4 1863   2.468   2.494  14.252 -0.2818  0.4841 -0.0136
  122MPD2    C5 1864   2.400   2.469  14.369  0.7254 -0.3685  0.6847
  122MPD2     H 1865   2.419   2.211  14.085  0.6378  0.5681  0.2798
  122MPD2    H1 1866   2.532   2.580  14.237 -0.4505  0.5560 -0.3089
  122MPD2    H2 1867   2.249   2.347  14.448 -0.0475  2.9140  0.0499
  122MPD2    H3 1868   2.397   2.537  14.453 -0.8601  0.9017 -0.3861
  122MPD2     N 1869   2.582   2.418  14.055 -0.4004  0.0618 -0.1260
  122MPD2    H5 1870   2.624   2.509  14.065  1.1931 -0.5488 -1.3820
  122MPD2    N1 1871   2.253   2.145  14.255 -0.1222 -0.1921 -0.8215
  122MPD2    H7 1872   2.247   2.101  14.164 -0.1970 -1.2685 -0.2995
  123MPD2     C 1873   3.666   0.797  10.078  0.9443  0.3772 -0.7808
  123MPD2    C1 1874   3.744   0.703  10.008  0.6684  0.1288  0.5004
  123MPD2    C2 1875   3.679   0.601   9.938 -0.4049  0.3901  0.6189
  123MPD2    C3 1876   3.543   0.589   9.943  0.2580 -0.5000  0.0810
  123MPD2    C4 1877   3.466   0.684  10.008 -0.4000  0.2715  0.1083
  123MPD2    C5 1878   3.527   0.788  10.072  0.2074 -0.2157  0.4167
  123MPD2     H 1879   3.726   0.519   9.886 -0.6704  0.2252  0.6383
  123MPD2    H1 1880   3.359   0.672  10.026 -0.1517 -0.8489  0.8330
  123MPD2    H2 1881   3.723   0.878  10.122 -1.1896  0.1053  2.4939
  123MPD2    H3 1882   3.471   0.856  10.136 -0.2254 -0.5481  0.3885
  123MPD2     N 1883   3.493   0.481   9.867 -0.5853  0.4881  0.4169
  123MPD2    H5 1884   3.559   0.434   9.806 -0.0903  2.9866 -0.9709
  123MPD2    N1 1885   3.884   0.715  10.012 -0.0719 -0.2782 -0.2161
  123MPD2    H7 1886   3.924   0.791  10.067  3.2854 -1.8586 -0.4474
  124TCq2    C1 1887   3.364   0.449   9.856 -0.3547 -0.0145 -0.4692
  124TCq2    O2 1888   3.262   0.506   9.896 -0.0041  0.0620  0.6270
  124TCq2    C2 1889   3.344   0.314   9.821 -0.3121 -0.9817  0.2979
  124TCq2    C3 1890   3.221   0.275   9.779  0.3838 -0.5165 -0.2481
  124TCq2    C4 1891   3.192   0.143   9.773  0.5379 -0.2814  0.0397
  124TCq2    C5 1892   3.288   0.053   9.810 -0.5893  0.0695 -0.1225
  124TCq2    C6 1893   3.403   0.093   9.862 -0.0815  0.6781 -0.4977
  124TCq2    C7 1894   3.434   0.228   9.879  0.3693  0.0931 -0.3710
  124TCq2    C8 1895   3.509   4.719   9.901  0.0217 -0.1416 -0.1744
  124TCq2    O4 1896   3.604   0.045   9.961 -0.1489  0.2652 -0.2981
  124TCq2    C9 1897   3.071   0.098   9.711  0.0700 -0.5221  0.6065
  124TCq2    O5 1898   2.988   0.187   9.671  0.2365  0.6342 -0.4896
  124TCq2    O6 1899   3.045   4.698   9.714  0.2127  0.4194 -0.3051
  124TCq2    H2 1900   3.145   0.347   9.751  0.4501 -1.0428 -1.8346
  124TCq2    H3 1901   3.265   4.676   9.776 -1.8718  0.2688  0.1348
  124TCq2    H4 1902   3.533   0.251   9.915  1.0949 -0.5231 -1.9644
  125TMC2    C1 1903   0.662   1.902   9.746  0.2273 -0.8002  0.3642
  125TMC2    C2 1904   0.556   1.836   9.808  0.3228  0.0280  0.5740
  125TMC2    C3 1905   0.587   1.710   9.852 -0.4521  0.5523 -0.1268
  125TMC2    C4 1906   0.790   1.855   9.727  0.4975  0.7436 -0.3689
  125TMC2    C5 1907   0.813   1.734   9.774 -0.3417  0.7358  0.0670
  125TMC2    C6 1908   0.715   1.666   9.831 -0.8155 -0.8862  0.1554
  125TMC2     C 1909   0.638   2.036   9.696  0.7053  0.2125  0.6558
  125TMC2     O 1910   0.537   2.092   9.741  0.3103  0.1511 -0.0615
  125TMC2     H 1911   0.458   1.884   9.815 -0.6370 -1.5793 -1.8712
  125TMC2    H1 1912   0.869   1.922   9.695  1.0909 -0.6104 -1.7005
  125TMC2    H2 1913   0.734   1.560   9.846  1.0488 -0.8880 -2.1851
  125TMC2    C7 1914   0.953   1.686   9.789  0.4157 -0.0779 -0.2296
  125TMC2    C8 1915   0.486   1.608   9.881  0.0435  0.7522  0.7414
  125TMC2    O1 1916   0.979   1.603   9.875  0.3906 -0.1629  0.3562
  125TMC2    O2 1917   0.497   1.495   9.842  0.2308  0.7602 -1.1072
  125TMC2    O5 1918   0.363   1.669   9.888  0.2966 -0.0972  0.1626
  125TMC2    H5 1919   0.361   1.761   9.921  1.4296  0.0496 -0.1785
  126MPD1     C 1920   0.771   2.472   9.450 -0.2344 -0.1230  0.9347
  126MPD1    C1 1921   0.840   2.370   9.394  0.0960 -0.9058  0.6937
  126MPD1    C2 1922   0.822   2.240   9.447  0.0000 -0.1832 -0.1035
  126MPD1    C3 1923   0.743   2.217   9.565  0.0668 -0.5222 -0.3672
  126MPD1    C4 1924   0.678   2.325   9.622  0.0255 -0.1230  0.4686
  126MPD1    C5 1925   0.700   2.448   9.569 -0.1709  0.1731 -0.2670
  126MPD1     H 1926   0.854   2.159   9.382 -0.5363 -0.9916  0.6354
  126MPD1    H1 1927   0.616   2.311   9.710  0.0312 -0.8686  0.3533
  126MPD1    H2 1928   0.782   2.573   9.413  0.2287  0.0121  1.4336
  126MPD1    H3 1929   0.654   2.535   9.615  1.3311  1.1261 -0.5533
  126MPD1     N 1930   0.732   2.085   9.610 -0.0446 -0.0475  1.1399
  126MPD1    H5 1931   0.792   2.023   9.556  1.9757  0.1783  3.1300
  126MPD1    N1 1932   0.907   2.393   9.271 -0.8636  0.2194  0.5971
  126MPD1    H6 1933   0.993   2.339   9.261 -1.2484 -0.0613 -1.2609
  126MPD1    H7 1934   0.917   2.490   9.241  3.0396 -0.4182 -0.1776
  127MPD2     C 1935   1.894   1.110   9.785  0.4154  0.2678 -0.7546
  127MPD2    C1 1936   1.952   1.120   9.907  0.3014 -0.3434 -0.5680
  127MPD2    C2 1937   2.047   1.220   9.931  0.1771  0.5990 -0.3824
  127MPD2    C3 1938   2.079   1.314   9.831 -0.2121 -0.4678 -0.2136
  127MPD2    C4 1939   2.023   1.300   9.708  0.1806 -0.6237  0.3204
  127MPD2    C5 1940   1.926   1.212   9.693  0.5206  0.2866  0.3970
  127MPD2     H 1941   2.094   1.231  10.028  0.1734 -0.3124 -0.2747
  127MPD2    H1 1942   2.041   1.361   9.620  0.2177 -0.2405  0.5958
  127MPD2    H2 1943   1.821   1.036   9.754 -0.9623  0.9259  0.9222
  127MPD2    H3 1944   1.881   1.194   9.597  0.0399  0.7919  0.5301
  127MPD2     N 1945   2.180   1.408   9.862  0.2590  1.0062 -0.0916
  127MPD2    H5 1946   2.207   1.410   9.960  1.0597  1.5759 -0.3277
  127MPD2    N1 1947   1.913   1.021  10.003  0.2096 -0.2865  0.7448
  127MPD2    H7 1948   1.847   0.951   9.969 -0.1023 -0.1069  0.9812
  128TCq2    C1 1949   1.971   0.998  10.127 -0.6739  0.0352 -0.4504
  128TCq2    O2 1950   2.067   1.053  10.179  0.3019  0.0540  0.7293
  128TCq2    C2 1951   1.905   0.879  10.180 -0.4880  0.0574  0.0710
  128TCq2    C3 1952   1.959   0.814  10.288  0.6360  0.5752  0.1303
  128TCq2    C4 1953   1.901   0.700  10.344 -0.1032  1.5124 -0.0771
  128TCq2    C5 1954   1.785   0.657  10.295  0.2580  0.2315 -0.7775
  128TCq2    C6 1955   1.716   0.728  10.201  0.0079  0.3418 -0.1052
  128TCq2    C7 1956   1.779   0.839  10.141 -0.1618 -0.6332  0.5845
  128TCq2    C8 1957   1.588   0.689  10.153  0.0112 -0.6437 -0.6184
  128TCq2    O4 1958   1.526   0.769  10.086  0.8926 -0.2825  0.3058
  128TCq2    C9 1959   1.980   0.621  10.435  0.8840  0.3315 -0.6036
  128TCq2    O5 1960   2.100   0.656  10.458 -0.2735 -0.3990  0.1496
  128TCq2    O6 1961   1.925   0.521  10.483 -0.1704  0.2370 -0.0308
  128TCq2    H2 1962   2.060   0.845  10.313  0.3200  1.4757  0.2741
  128TCq2    H3 1963   1.740   0.571  10.344 -1.0038  1.0108 -0.5633
  128TCq2    H4 1964   1.724   0.889  10.061 -0.4115 -0.1248  1.0729
  129MPD2     C 1965   1.773   0.700   1.776  0.0022 -0.4158 -0.9800
  129MPD2    C1 1966   1.642   0.730   1.809  0.7080  0.2871 -0.5612
  129MPD2    C2 1967   1.594   0.851   1.756  0.1667  0.5214 -0.5059
  129MPD2    C3 1968   1.671   0.930   1.679  0.3303  0.7027  0.2014
  129MPD2    C4 1969   1.800   0.893   1.643 -0.3631  0.1620 -0.6024
  129MPD2    C5 1970   1.844   0.778   1.694  0.1355  0.0289 -0.4586
  129MPD2     H 1971   1.501   0.891   1.794  0.9637  1.4262  0.5129
  129MPD2    H1 1972   1.858   0.951   1.572  0.3102  0.9962  0.6460
  129MPD2    H2 1973   1.824   0.614   1.815 -2.6831 -1.3635  0.4791
  129MPD2    H3 1974   1.944   0.743   1.667  0.8955  2.0207 -0.2068
  129MPD2     N 1975   1.617   1.054   1.640  0.4186  0.2985  0.3540
  129MPD2    H5 1976   1.533   1.079   1.691  0.3926 -0.4949  0.7027
  129MPD2    N1 1977   1.560   0.650   1.892 -0.2514  0.7757  0.2760
  129MPD2    H7 1978   1.461   0.674   1.892 -0.4330  0.0259  2.5164
  130TCq2    C1 1979   1.604   0.548   1.971 -0.2287  0.0354  0.2095
  130TCq2    O2 1980   1.719   0.502   1.985 -0.1755  0.5151 -0.1313
  130TCq2    C2 1981   1.497   0.462   2.027 -0.3162 -0.3956  0.7844
  130TCq2    C3 1982   1.548   0.387   2.134 -0.5797 -0.5024 -0.1926
  130TCq2    C4 1983   1.465   0.318   2.222  0.3722  0.0766  0.6162
  130TCq2    C5 1984   1.330   0.340   2.205 -0.5053  0.5287  0.3647
  130TCq2    C6 1985   1.282   0.421   2.107 -0.5753 -0.3193  0.3766
  130TCq2    C7 1986   1.365   0.483   2.019  0.1322  0.5693 -0.1039
  130TCq2    C8 1987   1.145   0.464   2.124  0.1416 -0.0523 -0.0647
  130TCq2    O4 1988   1.094   0.463   2.236 -0.0573  0.1947  0.0376
  130TCq2    C9 1989   1.518   0.230   2.322  0.0432  0.1487  0.1679
  130TCq2    O5 1990   1.643   0.203   2.320  0.4978  0.3682 -0.0227
  130TCq2    O6 1991   1.438   0.179   2.403 -0.4335 -0.1208 -0.7879
  130TCq2    H2 1992   1.654   0.381   2.157 -0.8728 -0.3507  1.1905
  130TCq2    H3 1993   1.262   0.281   2.266 -1.4891 -0.7495 -1.9618
  130TCq2    H4 1994   1.327   0.542   1.936 -0.3829 -0.7530 -0.8117
  131MPD2     C 1995   4.422   1.178  10.503  0.1142  0.2803 -0.0146
  131MPD2    C1 1996   4.401   1.206  10.366 -0.3005 -0.1166 -0.2368
  131MPD2    C2 1997   4.366   1.100  10.284  0.4875  0.0209  0.3932
  131MPD2    C3 1998   4.348   0.972  10.331 -0.6714 -0.5192 -0.4619
  131MPD2    C4 1999   4.374   0.947  10.466 -0.3026  0.0499 -0.4279
  131MPD2    C5 2000   4.403   1.051  10.553 -0.1293  0.0480 -0.1246
  131MPD2     H 2001   4.361   1.110  10.176  2.4582  0.4272  0.3442
  131MPD2    H1 2002   4.355   0.851  10.514  0.5058  0.5194  0.8297
  131MPD2    H2 2003   4.463   1.260  10.561  1.4994 -0.1204 -0.4417
  131MPD2    H3 2004   4.411   1.045  10.661 -4.5305 -2.0950  0.0885
  131MPD2     N 2005   4.300   0.874  10.248 -0.1051  0.0418  0.0357
  131MPD2    H5 2006   4.265   0.899  10.156 -1.6298 -2.0338  0.0349
  131MPD2    N1 2007   4.425   1.332  10.315 -0.2299 -0.1246 -0.0823
  131MPD2    H7 2008   4.466   1.395  10.384 -1.9285  0.7660  0.1024
  132TCq2    C1 2009   4.346   1.763   9.914 -0.1062  0.1397 -0.1440
  132TCq2    O2 2010   4.265   1.697   9.850  0.4160 -0.0545  0.0877
  132TCq2    C2 2011   4.398   1.704  10.033 -0.0412 -0.1646  0.1940
  132TCq2    C3 2012   4.478   1.780  10.123 -0.7172 -0.0375 -0.4848
  132TCq2    C4 2013   4.537   1.708  10.221 -0.0417  0.6883  0.7302
  132TCq2    C5 2014   4.523   1.574  10.235 -0.1752 -0.7163 -0.1945
  132TCq2    C6 2015   4.428   1.506  10.163 -0.3719  0.0268  0.4298
  132TCq2    C7 2016   4.369   1.567  10.051  0.3198 -0.4553 -0.1471
  132TCq2    C8 2017   4.401   1.371  10.186  0.8089  0.0504  0.2114
  132TCq2    O4 2018   4.347   1.318  10.092  0.0766  0.0391  0.5494
  132TCq2    C9 2019   4.619   1.779  10.316 -0.1128 -0.0311  0.7530
  132TCq2    O5 2020   4.656   1.715  10.423  0.5590  0.0585 -0.1195
  132TCq2    O6 2021   4.662   1.892  10.282 -0.5832  0.3696 -0.4794
  132TCq2    H2 2022   4.484   1.888  10.116 -2.0061  0.3444  4.0132
  132TCq2    H3 2023   4.586   1.514  10.300 -0.2139 -1.8767 -1.2317
  132TCq2    H4 2024   4.320   1.513   9.971  1.2778 -1.6361  0.0572
  133MPD2     C 2025   3.268   0.388   9.441  0.3457  0.0362  0.3948
  133MPD2    C1 2026   3.397   0.393   9.493 -0.1544  0.3277 -0.1268
  133MPD2    C2 2027   3.455   0.523   9.520  0.0225  0.0806  0.3597
  133MPD2    C3 2028   3.385   0.638   9.495 -0.5689 -0.2231  0.6484
  133MPD2    C4 2029   3.255   0.627   9.450 -0.2608 -0.5149  0.0655
  133MPD2    C5 2030   3.202   0.507   9.416  0.8143 -0.5152 -0.2132
  133MPD2     H 2031   3.551   0.522   9.569  1.2140  0.2935 -1.9372
  133MPD2    H1 2032   3.201   0.720   9.442  1.8006  0.6063 -0.7548
  133MPD2    H2 2033   3.208   0.302   9.413  0.4257 -0.0853  0.6077
  133MPD2    H3 2034   3.096   0.505   9.393  0.1286  2.2929  2.7396
  133MPD2     N 2035   3.421   0.770   9.546  0.0793  0.2231 -0.6677
  133MPD2    H5 2036   3.349   0.841   9.533  0.6034  0.7564 -0.6711
  133MPD2    N1 2037   3.452   0.264   9.511 -0.2730 -0.2052  0.2103
  133MPD2    H7 2038   3.398   0.183   9.484 -0.9755 -0.8065  3.4536
  134TCq2    C1 2039   3.574   0.242   9.584 -0.1392  0.3492  0.1412
  134TCq2    O2 2040   3.638   0.324   9.643 -0.0621 -0.0734  0.7334
  134TCq2    C2 2041   3.627   0.108   9.575 -0.0277  0.2588 -0.8852
  134TCq2    C3 2042   3.569   0.007   9.508 -0.0074 -0.1065 -0.2882
  134TCq2    C4 2043   3.621   4.608   9.508 -0.4946 -0.2091  0.1777
  134TCq2    C5 2044   3.727   4.582   9.589 -0.1511 -0.5938  0.5432
  134TCq2    C6 2045   3.786   4.679   9.664 -0.4392 -0.0003  0.0420
  134TCq2    C7 2046   3.736   0.080   9.651  0.6834 -0.0406  0.4053
  134TCq2    C8 2047   3.896   4.661   9.761 -0.5304 -0.2570  0.5887
  134TCq2    O4 2048   3.935   0.031   9.829 -0.3452 -0.0547  0.0094
  134TCq2    C9 2049   3.556   4.501   9.445 -0.2507  0.0470  0.6464
  134TCq2    O5 2050   3.451   4.532   9.373 -0.1746  0.7923 -0.0186
  134TCq2    O6 2051   3.606   4.382   9.456  0.7656  0.1110 -0.3178
  134TCq2    H2 2052   3.482   0.017   9.445 -1.2036 -0.4378  1.2996
  134TCq2    H3 2053   3.752   4.476   9.596  1.2396 -0.3039 -0.1236
  134TCq2    H4 2054   3.785   0.160   9.706  0.9996  0.8537 -1.1731
  135MPD2     C 2055   2.232   2.978   9.797 -0.2636 -0.1660  0.8881
  135MPD2    C1 2056   2.187   2.967   9.664  0.7041 -1.1313 -0.6576
  135MPD2    C2 2057   2.200   2.847   9.601  0.4429 -0.3827  0.1132
  135MPD2    C3 2058   2.239   2.729   9.665 -0.1160 -0.3709  0.3747
  135MPD2    C4 2059   2.275   2.740   9.796  0.4351  0.0934 -0.5129
  135MPD2    C5 2060   2.279   2.863   9.857 -0.0656  0.4580  0.3528
  135MPD2     H 2061   2.176   2.856   9.495  0.8121 -0.6699  0.0031
  135MPD2    H1 2062   2.313   2.653   9.847 -0.1612 -1.3235 -2.5007
  135MPD2    H2 2063   2.244   3.076   9.843  0.7541  0.3034 -0.3664
  135MPD2    H3 2064   2.314   2.870   9.959  0.1615  2.1100  0.1613
  135MPD2     N 2065   2.242   2.599   9.611  0.4253  0.4201  0.0225
  135MPD2    H5 2066   2.279   2.528   9.674 -0.9532 -0.9808 -0.7581
  135MPD2    N1 2067   2.139   3.077   9.595 -0.0925  1.0072 -0.0892
  135MPD2    H7 2068   2.134   3.072   9.494  0.4126 -1.0384 -0.0145
  136TCq2    C1 2069   2.076   3.185   9.659 -0.3815 -0.7356 -0.1292
  136TCq2    O2 2070   2.057   3.201   9.778 -0.0370 -0.1570 -0.0839
  136TCq2    C2 2071   2.007   3.273   9.566 -0.5758  0.5856 -0.2296
  136TCq2    C3 2072   2.073   3.312   9.455 -0.3292  0.2013 -0.0392
  136TCq2    C4 2073   2.006   3.389   9.361 -0.1875 -0.0643  0.4908
  136TCq2    C5 2074   1.882   3.437   9.385  0.5066  0.4765 -0.1836
  136TCq2    C6 2075   1.818   3.387   9.501 -0.2479 -0.5094  0.1287
  136TCq2    C7 2076   1.882   3.320   9.601 -0.7282 -0.2369 -0.1020
  136TCq2    C8 2077   1.685   3.442   9.523  0.1764 -0.3902 -0.0486
  136TCq2    O4 2078   1.657   3.526   9.446  1.0551 -0.3670  0.4031
  136TCq2    C9 2079   2.078   3.416   9.240  0.5246 -0.7326 -0.2582
  136TCq2    O5 2080   2.011   3.467   9.150 -0.2161 -0.2633 -0.2479
  136TCq2    O6 2081   2.206   3.399   9.234 -0.2353  0.4188 -0.1377
  136TCq2    H2 2082   2.175   3.281   9.435  0.6137  2.9920  0.5297
  136TCq2    H3 2083   1.830   3.492   9.308  2.5389  2.2594 -0.2736
  136TCq2    H4 2084   1.824   3.275   9.681 -2.4782 -0.8835 -1.7259
  137MPD2     C 2085   0.895   2.404   8.304  0.7789  0.3256 -0.0260
  137MPD2    C1 2086   0.834   2.438   8.423  0.4140 -0.0375  0.7528
  137MPD2    C2 2087   0.905   2.456   8.537 -0.3160 -0.5720  0.0579
  137MPD2    C3 2088   1.041   2.446   8.534 -0.1781  0.2838 -0.2607
  137MPD2    C4 2089   1.107   2.428   8.414  0.5109 -0.4428  0.3331
  137MPD2    C5 2090   1.031   2.398   8.301 -0.5109 -0.0024  1.0887
  137MPD2     H 2091   0.859   2.471   8.634  1.6802  0.7492  0.7900
  137MPD2    H1 2092   1.212   2.401   8.407  0.1235 -2.1385  1.1368
  137MPD2    H2 2093   0.830   2.386   8.219  0.4695 -0.5087  0.3819
  137MPD2    H3 2094   1.082   2.378   8.207 -0.1353 -0.3626  1.3716
  137MPD2     N 2095   1.116   2.461   8.652  0.3226 -0.6681 -0.3951
  137MPD2    H5 2096   1.062   2.452   8.737  0.4462  2.8260  0.0478
  137MPD2    N1 2097   0.696   2.453   8.412 -0.0586 -0.1615  0.6851
  137MPD2    H7 2098   0.651   2.437   8.322  1.2800  0.8120 -0.1535
  138TCq2    C1 2099   0.605   2.474   8.516  0.3263 -0.2091  0.4067
  138TCq2    O2 2100   0.620   2.480   8.637 -0.0304 -0.9342  0.2283
  138TCq2    C2 2101   0.477   2.512   8.464 -0.0819 -0.0162  0.3539
  138TCq2    C3 2102   0.456   2.513   8.329 -0.1542 -0.0224  0.0003
  138TCq2    C4 2103   0.336   2.484   8.280  0.1799 -0.0382 -0.8377
  138TCq2    C5 2104   0.231   2.454   8.356  0.0422 -0.1314  0.0379
  138TCq2    C6 2105   0.247   2.467   8.495 -0.0218  0.2696  0.3335
  138TCq2    C7 2106   0.371   2.492   8.549 -0.6225 -0.6564  0.4292
  138TCq2    C8 2107   0.125   2.460   8.581  0.9787 -0.6299  0.1892
  138TCq2    O4 2108   0.025   2.434   8.519 -0.0269 -0.4232 -0.0252
  138TCq2    C9 2109   0.312   2.487   8.139 -0.8869  0.1131 -0.9790
  138TCq2    O5 2110   0.406   2.526   8.063 -0.0498  0.3871 -0.0463
  138TCq2    O6 2111   0.205   2.453   8.095  0.8374 -0.5880 -0.1999
  138TCq2    H2 2112   0.533   2.543   8.258  0.8675 -1.0479  0.6723
  138TCq2    H3 2113   0.136   2.423   8.315 -0.4203  1.1911  0.0947
  138TCq2    H4 2114   0.398   2.492   8.653  0.6467  1.1980  0.0926
  139TMC2    C1 2115   1.134   4.678  13.635  0.1875  0.0280 -0.0792
  139TMC2    C2 2116   1.022   4.699  13.565  0.2459 -0.0190 -0.4723
  139TMC2    C3 2117   0.938   0.075  13.611  0.4651  0.5164  0.0990
  139TMC2    C4 2118   1.160   0.025  13.751  0.0056  0.4584  0.3028
  139TMC2    C5 2119   1.077   0.128  13.785 -0.5646 -0.0877 -0.1366
  139TMC2    C6 2120   0.957   0.142  13.726 -0.7769 -0.2810 -0.1654
  139TMC2     C 2121   1.220   4.575  13.584  0.0071 -0.0686 -0.4289
  139TMC2     O 2122   1.163   4.499  13.508 -0.2899  0.1470 -0.6226
  139TMC2     H 2123   0.989   4.632  13.486 -5.5378  1.4920  0.6177
  139TMC2    H1 2124   1.248   0.003  13.810  0.1416  0.0004 -0.0678
  139TMC2    H2 2125   0.902   0.233  13.749 -2.2662 -1.7016  1.9504
  139TMC2    C7 2126   1.099   0.223  13.899 -0.2013  0.3291  0.4792
  139TMC2    C8 2127   0.808   0.078  13.540  0.7300  0.7649 -0.1322
  139TMC2    O1 2128   1.009   0.303  13.927  0.0284 -0.0063  0.4067
  139TMC2    O2 2129   0.796   0.039  13.424 -0.6585  0.0666 -0.3846
  139TMC2    O5 2130   0.730   0.043  13.642 -0.3321  0.1422  0.3648
  139TMC2    H5 2131   0.785   0.047  13.723  1.4448 -2.1125 -0.7224
  140MPD2     C 2132   1.578   4.511  13.658  0.4477 -0.0299 -0.2822
  140MPD2    C1 2133   1.448   4.491  13.605 -0.2731 -0.1022  0.0489
  140MPD2    C2 2134   1.423   4.370  13.543  0.6596  0.3454 -0.4143
  140MPD2    C3 2135   1.531   4.278  13.516 -0.4602 -0.6820  0.2313
  140MPD2    C4 2136   1.658   4.311  13.555 -1.0253 -0.4024 -0.0476
  140MPD2    C5 2137   1.679   4.419  13.631  0.3622  0.1681 -0.0072
  140MPD2     H 2138   1.323   4.349  13.506  1.0155  0.4505 -1.4433
  140MPD2    H1 2139   1.744   4.254  13.522  0.1065  0.3436  1.6392
  140MPD2    H2 2140   1.599   4.602  13.712 -1.2923  0.1403  0.1018
  140MPD2    H3 2141   1.783   4.446  13.651 -0.7747  2.0073  3.4875
  140MPD2     N 2142   1.492   4.157  13.451  0.0751  0.4019  0.2408
  140MPD2    H5 2143   1.395   4.149  13.424  0.3777  0.1546 -0.7533
  140MPD2    N1 2144   1.349   4.582  13.633  0.3763  0.3864 -1.0069
  140MPD2    H7 2145   1.371   4.667  13.684 -2.5676  0.0431  0.8767
  141TCq2    C1 2146   2.451   1.280  14.779 -0.2376 -0.5769 -0.2955
  141TCq2    O2 2147   2.410   1.376  14.717  0.1768 -0.3918  0.4592
  141TCq2    C2 2148   2.402   1.265  14.915  0.7769 -0.0696 -0.2625
  141TCq2    C3 2149   2.467   1.192  15.004 -0.5839 -0.8619  0.1453
  141TCq2    C4 2150   2.449   1.202  15.142  0.3024  0.4704  0.1765
  141TCq2    C5 2151   2.381   1.308  15.191  0.2039 -0.6486  0.0351
  141TCq2    C6 2152   2.325   1.390  15.099 -0.5480 -0.5913  0.4542
  141TCq2    C7 2153   2.328   1.366  14.961 -0.6055 -0.4969  0.2856
  141TCq2    C8 2154   2.323   1.533  15.144  1.1829 -0.5559 -0.0690
  141TCq2    O4 2155   2.296   1.552  15.259 -0.0248 -0.4069  0.0094
  141TCq2    C9 2156   2.534   1.112  15.226  0.1611 -0.6471  0.4228
  141TCq2    O5 2157   2.590   1.156  15.328  0.9853 -0.3253 -0.2458
  141TCq2    O6 2158   2.576   1.005  15.167 -0.1918  0.4367  0.1767
  141TCq2    H2 2159   2.538   1.116  14.971  0.0338  0.2770 -1.2023
  141TCq2    H3 2160   2.378   1.326  15.298  0.7529 -0.3801  0.0104
  141TCq2    H4 2161   2.275   1.427  14.889 -1.2523 -0.5807  0.6949
  142MPD2     C 2162   3.958   3.805  10.846  1.7574  0.6628 -0.5410
  142MPD2    C1 2163   3.924   3.807  10.720 -0.7638 -0.0701 -0.5694
  142MPD2    C2 2164   3.940   3.922  10.641  0.2548 -0.2129 -0.0859
  142MPD2    C3 2165   3.995   4.039  10.695  0.6826  0.0275  0.6670
  142MPD2    C4 2166   4.041   4.035  10.820  0.1411 -0.2341 -1.1199
  142MPD2    C5 2167   4.013   3.924  10.899  0.3119  0.2078 -0.1788
  142MPD2     H 2168   3.943   3.903  10.534 -3.2175  2.3221 -0.6406
  142MPD2    H1 2169   4.081   4.124  10.867  2.1197 -1.3345 -0.7398
  142MPD2    H2 2170   3.945   3.720  10.912  1.6568 -0.3675 -1.8935
  142MPD2    H3 2171   4.051   3.926  11.001  0.9413 -1.8211 -0.3696
  142MPD2     N 2172   4.029   4.153  10.611 -0.0128  0.4890  0.0614
  142MPD2    H5 2173   4.093   4.222  10.650 -0.4850  0.2066  1.3179
  142MPD2    N1 2174   3.883   3.684  10.661 -0.1704 -0.6135  0.1335
  142MPD2    H7 2175   3.883   3.600  10.718  2.4035 -0.6243  0.1272
  143TCq2    C1 2176   3.988   4.166  10.482  0.2134 -0.0133 -0.4254
  143TCq2    O2 2177   3.903   4.100  10.425 -0.7416  0.6536  0.2969
  143TCq2    C2 2178   4.027   4.285  10.410 -0.4004  1.1777 -0.1367
  143TCq2    C3 2179   4.135   4.358  10.447 -0.6601 -0.5864 -0.0080
  143TCq2    C4 2180   4.159   4.483  10.400 -0.2821  1.0236 -0.2985
  143TCq2    C5 2181   4.076   4.532  10.299 -0.1390  0.3677 -0.2723
  143TCq2    C6 2182   3.989   4.449  10.241 -0.0816 -0.4973 -0.5576
  143TCq2    C7 2183   3.959   4.331  10.301 -1.2643  0.3354  0.3376
  143TCq2    C8 2184   3.908   4.484  10.123  0.7882  0.2522  0.8000
  143TCq2    O4 2185   3.884   4.605  10.118  0.6815 -0.5687 -0.1026
  143TCq2    C9 2186   4.284   4.545  10.428 -0.0863 -0.2930  1.0335
  143TCq2    O5 2187   4.291   4.669  10.405  0.1230 -0.1739  0.1825
  143TCq2    O6 2188   4.374   4.470  10.471 -0.3801 -0.0939  0.0118
  143TCq2    H2 2189   4.198   4.330  10.530 -0.6173 -0.6784 -0.0715
  143TCq2    H3 2190   4.105   4.621  10.245 -0.4003 -0.2183 -1.3664
  143TCq2    H4 2191   3.882   4.264  10.265 -1.6302  0.3141  1.1753
  144MPD2     C 2192   3.052   2.906   1.323 -0.1196 -0.5561  0.6153
  144MPD2    C1 2193   3.092   2.977   1.207 -0.1073  0.4282 -0.4433
  144MPD2    C2 2194   3.223   3.028   1.200  0.0496 -0.4089  0.6230
  144MPD2    C3 2195   3.296   3.040   1.315 -0.8751  0.0407 -0.3402
  144MPD2    C4 2196   3.247   2.989   1.435 -0.7383 -0.5449 -0.3558
  144MPD2    C5 2197   3.131   2.922   1.436 -0.0146 -0.0515 -0.5794
  144MPD2     H 2198   3.246   3.079   1.107  1.2982 -1.7043  0.2165
  144MPD2    H1 2199   3.305   2.993   1.527 -0.1990 -0.0312 -0.7111
  144MPD2    H2 2200   2.962   2.846   1.324 -0.0852 -0.6026  0.9102
  144MPD2    H3 2201   3.102   2.867   1.524 -0.5194  0.4283 -0.4446
  144MPD2     N 2202   3.418   3.098   1.325 -0.8352 -0.2885 -0.6082
  144MPD2    H5 2203   3.470   3.105   1.412 -0.4690  1.6675 -0.9860
  144MPD2    N1 2204   3.007   2.991   1.092 -0.3274 -0.1305 -0.3130
  144MPD2    H7 2205   3.048   3.037   1.013  1.8444 -2.6336 -0.6473
  145TCq2    C1 2206   3.474   3.175   1.223  0.6531  0.2988 -0.5383
  145TCq2    O2 2207   3.428   3.214   1.119  0.4682 -0.1052  0.0508
  145TCq2    C2 2208   3.620   3.205   1.241  0.7607  0.1263 -0.2198
  145TCq2    C3 2209   3.699   3.227   1.128 -0.1403 -0.4025 -0.0402
  145TCq2    C4 2210   3.833   3.241   1.141 -0.1325 -0.0376 -0.3698
  145TCq2    C5 2211   3.888   3.253   1.264  0.0427  0.5395  0.4994
  145TCq2    C6 2212   3.809   3.231   1.377  0.6002 -0.6442  0.1664
  145TCq2    C7 2213   3.678   3.206   1.366 -0.7588  0.8601 -0.3204
  145TCq2    C8 2214   3.869   3.242   1.510 -0.6154  0.0610 -0.3288
  145TCq2    O4 2215   3.989   3.230   1.519  0.2208  0.0856 -0.1116
  145TCq2    C9 2216   3.910   3.231   1.022 -0.0876 -0.1187  0.4206
  145TCq2    O5 2217   3.854   3.198   0.914  0.3297  0.2946  0.0758
  145TCq2    O6 2218   4.035   3.240   1.038 -0.5537 -0.3566 -0.6887
  145TCq2    H2 2219   3.655   3.219   1.029 -0.2155 -0.0864 -0.0328
  145TCq2    H3 2220   3.996   3.253   1.272  0.0840  0.3499 -0.0532
  145TCq2    H4 2221   3.614   3.182   1.450 -0.3311  0.4192 -0.1233
  146TMC2    C1 2222   3.877   1.741  12.582  0.3374  0.0205 -0.1506
  146TMC2    C2 2223   3.773   1.700  12.508 -0.2459  0.4542  0.6433
  146TMC2    C3 2224   3.749   1.567  12.478  0.1790  0.0035 -0.6266
  146TMC2    C4 2225   3.971   1.652  12.630 -0.2238 -0.2160  0.9453
  146TMC2    C5 2226   3.941   1.517  12.601 -0.2098 -0.4990 -0.2877
  146TMC2    C6 2227   3.844   1.465  12.514 -0.3798 -0.0539 -0.0778
  146TMC2     C 2228   3.905   1.881  12.578 -0.1259  0.4118  0.4189
  146TMC2     O 2229   3.818   1.959  12.537 -0.2079  0.0178  0.0685
  146TMC2     H 2230   3.704   1.775  12.472 -0.0820  0.1163 -0.3749
  146TMC2    H1 2231   4.056   1.691  12.685 -0.2920  2.2263 -0.7051
  146TMC2    H2 2232   3.843   1.365  12.471 -0.4753  0.1927 -0.6526
  146TMC2    C7 2233   4.016   1.414  12.668  0.1463 -0.9996  0.1219
  146TMC2    C8 2234   3.678   1.555  12.355 -0.1734  0.1258 -0.2251
  146TMC2    O1 2235   3.979   1.299  12.659 -0.1316  0.7385 -0.0942
  146TMC2    O2 2236   3.691   1.626  12.257 -0.1936 -0.7859 -0.8276
  146TMC2    O5 2237   3.599   1.445  12.361 -0.1569 -0.3148  0.3457
  146TMC2    H5 2238   3.589   1.418  12.454 -2.0660  0.7285  0.4586
  147MPD2     C 2239   4.461   1.246  12.871 -0.0937  0.6810 -0.3553
  147MPD2    C1 2240   4.477   1.373  12.826 -0.1431  0.1184 -0.1587
  147MPD2    C2 2241   4.371   1.432  12.758 -0.2322  0.2487 -0.3727
  147MPD2    C3 2242   4.249   1.370  12.738 -0.3493 -0.3397  0.6466
  147MPD2    C4 2243   4.238   1.239  12.787 -1.1397  0.0807 -0.6368
  147MPD2    C5 2244   4.344   1.180  12.852 -0.4357 -0.1522  0.2154
  147MPD2     H 2245   4.378   1.536  12.728 -2.4449  0.1206 -1.2980
  147MPD2    H1 2246   4.145   1.184  12.782 -1.2213  0.3970 -2.5237
  147MPD2    H2 2247   4.544   1.194  12.918  0.7917 -0.6347 -3.3201
  147MPD2    H3 2248   4.326   1.080  12.891  1.2279 -0.5094  0.0605
  147MPD2     N 2249   4.150   1.452  12.688 -0.1471  0.0975 -0.1620
  147MPD2    H5 2250   4.180   1.538  12.643 -2.5442  0.9090 -0.2060
  147MPD2    N1 2251   4.594   1.441  12.864 -0.1775  0.7505 -0.2295
  147MPD2    H7 2252   4.668   1.388  12.909  0.3320  0.7863 -1.0294
  148MPD2     C 2253   3.587   1.248  10.671 -0.5975  0.0252 -0.5177
  148MPD2    C1 2254   3.661   1.132  10.699 -0.4186 -0.1885  0.0485
  148MPD2    C2 2255   3.632   1.014  10.629 -0.0314 -0.2606 -0.1808
  148MPD2    C3 2256   3.529   1.013  10.531  0.2172 -0.0427  0.8089
  148MPD2    C4 2257   3.458   1.128  10.506  0.7457  0.7403  0.2488
  148MPD2    C5 2258   3.496   1.237  10.573  0.0689 -0.5595 -0.1371
  148MPD2     H 2259   3.702   0.932  10.637  1.2264  0.5877 -2.3759
  148MPD2    H1 2260   3.380   1.142  10.432  1.4382 -0.2515 -0.6726
  148MPD2    H2 2261   3.609   1.341  10.722 -1.5239  0.2984 -0.6226
  148MPD2    H3 2262   3.436   1.326  10.559  0.5709 -0.1137  0.4963
  148MPD2     N 2263   3.487   0.899  10.455  0.4273 -0.3553  0.5067
  148MPD2    H5 2264   3.413   0.917  10.388  0.4505 -2.3630 -0.0739
  148MPD2    N1 2265   3.772   1.132  10.790  0.2218  0.3313 -0.3154
  148MPD2    H7 2266   3.816   1.041  10.798 -0.4082  0.0100 -0.4917
  149TCq2    C1 2267   3.826   1.248  10.853 -0.4301 -0.0361  0.3427
  149TCq2    O2 2268   3.794   1.367  10.840 -0.6288 -0.2044  0.2929
  149TCq2    C2 2269   3.930   1.214  10.954 -0.5048  0.1639 -0.4743
  149TCq2    C3 2270   4.000   1.325  11.014 -0.5958  0.2347  0.0078
  149TCq2    C4 2271   4.071   1.300  11.127  1.2525  0.1932  0.4653
  149TCq2    C5 2272   4.105   1.174  11.158  0.0182  0.4883 -0.7167
  149TCq2    C6 2273   4.039   1.070  11.099 -0.1879 -0.4590 -0.4511
  149TCq2    C7 2274   3.953   1.084  10.992  0.1066  0.2939  0.4188
  149TCq2    C8 2275   4.068   0.928  11.125 -0.2895 -0.2423  0.2592
  149TCq2    O4 2276   4.046   0.844  11.039 -0.2955 -0.6412 -0.2102
  149TCq2    C9 2277   4.164   1.403  11.167  0.0182 -0.2756 -0.5027
  149TCq2    O5 2278   4.286   1.380  11.159 -0.1695  0.3216 -0.3406
  149TCq2    O6 2279   4.114   1.516  11.160 -0.1418 -0.0123 -0.0144
  149TCq2    H2 2280   3.983   1.427  10.982  0.1141  0.5565  0.6507
  149TCq2    H3 2281   4.183   1.146  11.228  1.3619  1.5390 -1.8007
  149TCq2    H4 2282   3.900   1.000  10.949 -0.2794  0.1515  1.1592
  150MPD2     C 2283   1.111   0.096  11.356  0.9417 -0.3387 -0.1210
  150MPD2    C1 2284   1.108   0.230  11.384  0.2322 -0.9897 -0.4281
  150MPD2    C2 2285   1.205   0.281  11.464  0.2074  0.1049 -0.2971
  150MPD2    C3 2286   1.309   0.198  11.515  0.2305  0.4684 -0.5820
  150MPD2    C4 2287   1.311   0.065  11.489  0.4060 -0.0287 -1.2284
  150MPD2    C5 2288   1.210   0.021  11.413 -0.8642 -0.9998  0.3916
  150MPD2     H 2289   1.211   0.387  11.487 -1.4482  0.0562  0.3403
  150MPD2    H1 2290   1.374   4.718  11.541  2.5841  2.9761  0.2501
  150MPD2    H2 2291   1.025   0.055  11.305  0.1552 -0.1046  1.0129
  150MPD2    H3 2292   1.204   4.637  11.411 -0.3709 -0.9793 -1.3852
  150MPD2     N 2293   1.411   0.260  11.588 -0.9108  0.0974 -0.1110
  150MPD2    H5 2294   1.400   0.359  11.605  0.6290 -0.2857  3.0938
  150MPD2    N1 2295   0.999   0.304  11.334 -0.0212 -0.5085  0.6389
  150MPD2    H7 2296   0.925   0.256  11.283  0.7658 -0.9235 -0.1044
  151TCq2    C1 2297   1.509   0.188  11.659 -0.1405  0.1858  0.2912
  151TCq2    O2 2298   1.550   0.073  11.644  0.5677 -0.4740  0.0395
  151TCq2    C2 2299   1.584   0.273  11.754 -0.5979  0.1790 -0.4962
  151TCq2    C3 2300   1.576   0.410  11.750  0.4927  0.3675 -0.3894
  151TCq2    C4 2301   1.641   0.481  11.844 -0.4440 -0.1914 -0.1731
  151TCq2    C5 2302   1.716   0.420  11.934  0.1772 -0.3255  0.0621
  151TCq2    C6 2303   1.727   0.286  11.930  0.3358 -0.3872  0.4924
  151TCq2    C7 2304   1.661   0.207  11.847 -0.8533  0.3355  0.4928
  151TCq2    C8 2305   1.823   0.228  12.024  0.1890 -0.3805 -0.3695
  151TCq2    O4 2306   1.813   0.111  12.053 -0.2252  0.2457 -0.1535
  151TCq2    C9 2307   1.648   0.627  11.825  0.1302  0.5451 -0.2576
  151TCq2    O5 2308   1.570   0.674  11.740  0.1592 -0.1298  0.7397
  151TCq2    O6 2309   1.736   0.692  11.885 -0.3506  0.2997  0.2070
  151TCq2    H2 2310   1.528   0.461  11.667  0.8151 -1.7869 -1.9351
  151TCq2    H3 2311   1.757   0.491  12.006 -0.4633 -0.5059  0.6068
  151TCq2    H4 2312   1.677   0.100  11.844  0.6024  0.5895 -0.8194
  152MPD2     C 2313   1.517   4.567  11.948 -0.0071 -0.2187  0.2018
  152MPD2    C1 2314   1.461   4.680  12.010  0.2109 -0.0132  0.1108
  152MPD2    C2 2315   1.347   0.015  11.954 -0.3488  0.4981  0.8861
  152MPD2    C3 2316   1.275   4.675  11.859 -0.5373  0.1136 -0.5858
  152MPD2    C4 2317   1.329   4.567  11.805  1.0066  0.5699  0.7923
  152MPD2    C5 2318   1.448   4.527  11.842  0.7421  0.2430 -0.4068
  152MPD2     H 2319   1.309   0.105  12.001 -0.2045  0.2191  1.5261
  152MPD2    H1 2320   1.274   4.524  11.722 -0.5393  2.4419  0.8291
  152MPD2    H2 2321   1.598   4.512  11.994  0.1273 -1.7119 -1.8768
  152MPD2    H3 2322   1.489   4.442  11.789 -2.5772 -1.9882  0.6014
  152MPD2     N 2323   1.146   0.002  11.829  0.5660 -0.2363  0.2220
  152MPD2    H5 2324   1.119   0.091  11.870 -2.8491 -0.6878 -1.0917
  152MPD2    N1 2325   1.517   0.001  12.128  0.4661 -0.5015 -0.0141
  152MPD2    H7 2326   1.603   4.684  12.163  0.6517  0.7148  0.9470
  153TCq2    C1 2327   1.476   0.111  12.198 -0.3133 -0.0240  1.0711
  153TCq2    O2 2328   1.396   0.196  12.171 -0.2355 -0.6044  0.0817
  153TCq2    C2 2329   1.563   0.136  12.310  0.1150 -0.2405  0.6855
  153TCq2    C3 2330   1.628   0.034  12.370  0.3519 -0.1348  1.1261
  153TCq2    C4 2331   1.735   0.053  12.454  0.2876 -0.3428  0.5323
  153TCq2    C5 2332   1.778   0.182  12.474  0.0377 -0.4410 -0.5847
  153TCq2    C6 2333   1.710   0.283  12.416  0.6580  0.0379 -0.1896
  153TCq2    C7 2334   1.602   0.268  12.330  0.1001 -0.2637 -0.6189
  153TCq2    C8 2335   1.740   0.424  12.471 -0.1548  0.5499 -0.5687
  153TCq2    O4 2336   1.647   0.505  12.459  0.4462 -0.0109  0.5380
  153TCq2    C9 2337   1.788   4.671  12.536 -0.0065 -0.4195  0.5751
  153TCq2    O5 2338   1.870   4.686  12.623  0.0552 -0.3979 -0.0745
  153TCq2    O6 2339   1.712   4.571  12.538  0.1231  0.0334 -0.1420
  153TCq2    H2 2340   1.590   4.657  12.359  1.5475 -0.3650 -0.8986
  153TCq2    H3 2341   1.860   0.189  12.546  0.5522  0.1709 -1.2306
  153TCq2    H4 2342   1.560   0.353  12.278  1.4038  1.7749  1.6732
  154MPD2     C 2343   3.277   0.124   1.055  0.3582 -0.6571  0.3180
  154MPD2    C1 2344   3.300   0.050   1.170  0.5675 -1.2978  0.3587
  154MPD2    C2 2345   3.203   0.043   1.269 -0.3215 -0.1730  0.1255
  154MPD2    C3 2346   3.077   0.101   1.250 -0.4991 -0.4638 -0.5610
  154MPD2    C4 2347   3.055   0.171   1.133 -0.1532  0.5742 -0.4552
  154MPD2    C5 2348   3.156   0.190   1.038  0.1951 -0.5857 -0.1792
  154MPD2     H 2349   3.221   4.700   1.352  1.2123 -1.0839 -0.9263
  154MPD2    H1 2350   2.957   0.209   1.105 -1.3943 -2.6747 -0.6066
  154MPD2    H2 2351   3.342   0.135   0.969 -0.0438 -0.1459  0.0847
  154MPD2    H3 2352   3.130   0.229   0.940 -1.9336 -0.1410  0.5717
  154MPD2     N 2353   2.983   0.088   1.350  0.5871 -0.2439 -0.0341
  154MPD2    H5 2354   3.007   0.035   1.433  1.4716 -0.6737 -0.5564
  154MPD2    N1 2355   3.421   4.712   1.188 -0.3751  0.3057 -0.1081
  154MPD2    H7 2356   3.484   4.699   1.109 -0.2109  1.4013 -0.1565
  155TCq2    C1 2357   3.471   4.653   1.300  0.2562 -0.3929 -0.7567
  155TCq2    O2 2358   3.434   4.661   1.416 -0.3246  0.4720  0.1745
  155TCq2    C2 2359   3.602   4.596   1.284 -0.1159 -0.3984 -0.4264
  155TCq2    C3 2360   3.621   4.471   1.335  0.5755  0.1574  0.1329
  155TCq2    C4 2361   3.735   4.410   1.300 -0.6590 -0.1297  0.6943
  155TCq2    C5 2362   3.829   4.472   1.223  0.3841 -0.2193  0.1316
  155TCq2    C6 2363   3.804   4.606   1.188  0.1105 -0.5352 -0.3898
  155TCq2    C7 2364   3.693   4.673   1.215  0.5541 -0.1518  0.4065
  155TCq2    C8 2365   3.922   4.671   1.128  0.6370  0.0443 -0.1153
  155TCq2    O4 2366   4.025   4.606   1.112 -0.3290 -0.3989 -0.0804
  155TCq2    C9 2367   3.751   4.277   1.342  1.1090 -0.0398  0.5233
  155TCq2    O5 2368   3.667   4.220   1.415 -0.1643  0.1391  0.0098
  155TCq2    O6 2369   3.843   4.209   1.295  0.1159 -0.3469  0.1609
  155TCq2    H2 2370   3.538   4.422   1.384  0.8355 -1.3681 -0.9596
  155TCq2    H3 2371   3.922   4.417   1.216  1.6254  1.7083  1.3619
  155TCq2    H4 2372   3.675   0.054   1.200 -0.8237 -0.4943 -0.3621
  156MPD2     C 2373   1.384   2.277  11.007  0.0188  1.1512  0.7417
  156MPD2    C1 2374   1.331   2.398  10.977  0.7757 -0.4481 -0.0605
  156MPD2    C2 2375   1.272   2.465  11.084 -0.1815  0.0803  0.1446
  156MPD2    C3 2376   1.271   2.419  11.215 -0.4981 -0.3892 -0.1530
  156MPD2    C4 2377   1.334   2.303  11.237  0.6159 -0.4472  0.1242
  156MPD2    C5 2378   1.386   2.237  11.133  0.2102  0.3501 -0.3545
  156MPD2     H 2379   1.248   2.570  11.073  1.1666  0.2694 -0.9166
  156MPD2    H1 2380   1.343   2.255  11.334  0.1849 -0.1627  0.3044
  156MPD2    H2 2381   1.408   2.200  10.934 -1.6866  0.8755  0.4776
  156MPD2    H3 2382   1.421   2.138  11.160  2.0259  0.6154 -1.7395
  156MPD2     N 2383   1.217   2.495  11.318  0.0619 -0.2298 -0.4123
  156MPD2    H5 2384   1.161   2.576  11.293 -2.5808 -1.9272  0.0087
  156MPD2    N1 2385   1.345   2.464  10.846  0.1893  0.1204 -0.5476
  156MPD2    H7 2386   1.397   2.420  10.771 -0.0370  1.5275 -1.5287
  157TCq2    C1 2387   1.264   2.557  10.800 -0.7758  0.1814 -0.0860
  157TCq2    O2 2388   1.172   2.614  10.862 -0.1364 -0.1403  0.1626
  157TCq2    C2 2389   1.313   2.623  10.676  0.4427  0.0613  0.2054
  157TCq2    C3 2390   1.444   2.648  10.666 -0.3879  0.2237 -0.5164
  157TCq2    C4 2391   1.481   2.771  10.627 -0.5321  0.7281 -0.1537
  157TCq2    C5 2392   1.390   2.859  10.578 -0.2160  0.3980 -0.0979
  157TCq2    C6 2393   1.260   2.827  10.573  0.2193 -0.1488 -0.2687
  157TCq2    C7 2394   1.221   2.706  10.627 -0.1958  0.2296 -0.1717
  157TCq2    C8 2395   1.169   2.945  10.579  0.1519  0.4802 -0.1407
  157TCq2    O4 2396   1.216   3.058  10.584  0.3662  0.0389  0.5426
  157TCq2    C9 2397   1.611   2.820  10.649 -0.6269 -0.0411 -0.1712
  157TCq2    O5 2398   1.627   2.946  10.651  0.0670  0.1837  0.3331
  157TCq2    O6 2399   1.691   2.744  10.715 -0.6762 -0.4262 -0.4027
  157TCq2    H2 2400   1.517   2.578  10.705 -0.6336  1.6238  2.5130
  157TCq2    H3 2401   1.421   2.962  10.563 -2.3664  0.9231 -0.9500
  157TCq2    H4 2402   1.117   2.675  10.632 -0.2433  0.6267  1.3911
  158TMC2    C1 2403   0.906   0.837  13.550 -0.0797  0.2322 -0.4803
  158TMC2    C2 2404   0.841   0.867  13.427 -0.2964 -0.5917 -0.0810
  158TMC2    C3 2405   0.710   0.856  13.428 -0.2388 -0.3286 -0.5711
  158TMC2    C4 2406   0.841   0.790  13.665 -0.8635  1.1065 -0.1716
  158TMC2    C5 2407   0.703   0.786  13.657 -1.0750 -0.7522 -0.4027
  158TMC2    C6 2408   0.638   0.823  13.541  0.0952 -0.1822  0.9733
  158TMC2     C 2409   1.046   0.868  13.546  0.1396 -0.8375  0.4325
  158TMC2     O 2410   1.098   0.913  13.445 -0.1257  0.7379  0.6360
  158TMC2     H 2411   0.888   0.925  13.349  0.7811 -1.8600 -0.3796
  158TMC2    H1 2412   0.895   0.753  13.752  1.2986  1.4978 -1.3548
  158TMC2    H2 2413   0.530   0.818  13.538 -0.0257  2.1532  1.1163
  158TMC2    C7 2414   0.619   0.746  13.767  0.0975 -0.0518 -0.2002
  158TMC2    C8 2415   0.642   0.921  13.327 -0.7575 -0.8148 -0.1136
  158TMC2    O1 2416   0.500   0.736  13.734 -0.4056  0.0329  0.3247
  158TMC2    O2 2417   0.689   0.939  13.215 -0.1990  0.2420  0.4502
  158TMC2    O5 2418   0.585   1.019  13.397 -0.1523 -0.4547 -0.0257
  158TMC2    H5 2419   0.596   1.014  13.494 -0.4048  1.4816  0.1105
  159MPD2     C 2420   1.499   0.919  13.747  0.4004 -0.0440  0.3802
  159MPD2    C1 2421   1.412   1.007  13.815 -0.4316 -0.0473 -0.2540
  159MPD2    C2 2422   1.274   0.994  13.790 -0.3550 -0.1381 -0.2111
  159MPD2    C3 2423   1.230   0.904  13.694  0.1387  0.0650 -0.2613
  159MPD2    C4 2424   1.323   0.830  13.614 -0.3091  0.9762 -0.4593
  159MPD2    C5 2425   1.459   0.835  13.651 -0.8522 -0.0833 -0.0109
  159MPD2     H 2426   1.212   1.059  13.852  1.0841  0.6601  0.3789
  159MPD2    H1 2427   1.299   0.764  13.531  1.2908  0.4779 -0.5264
  159MPD2    H2 2428   1.601   0.909  13.782 -0.6016 -0.1635  3.2474
  159MPD2    H3 2429   1.532   0.778  13.596 -0.6447  1.1608 -1.0077
  159MPD2     N 2430   1.090   0.881  13.672 -0.2522  0.4842  0.5832
  159MPD2    H5 2431   1.018   0.898  13.741 -0.8571 -2.1630  0.5968
  159MPD2    N1 2432   1.479   1.089  13.910  0.2035  0.0531  0.1004
  159MPD2    H7 2433   1.579   1.076  13.917  0.0028 -1.7804 -0.2989
  160TMC2    C1 2434   1.805   3.272   1.563  0.7021 -0.5730  0.0225
  160TMC2    C2 2435   1.918   3.201   1.573  0.2775  0.1956 -0.4381
  160TMC2    C3 2436   2.029   3.268   1.612 -0.5903 -0.2525 -0.8222
  160TMC2    C4 2437   1.794   3.401   1.616  0.5428 -0.6705 -0.0819
  160TMC2    C5 2438   1.908   3.470   1.659 -0.0465  0.1339 -0.0641
  160TMC2    C6 2439   2.029   3.401   1.657 -0.6037  0.0269 -0.1028
  160TMC2     C 2440   1.715   3.238   1.466  0.5121 -0.6063 -0.3269
  160TMC2     O 2441   1.679   3.119   1.473  0.0016  0.4198  0.7388
  160TMC2     H 2442   1.919   3.097   1.543  0.8988  0.0542  0.0789
  160TMC2    H1 2443   1.704   3.460   1.611  1.3592  0.6749  0.9465
  160TMC2    H2 2444   2.122   3.448   1.688  0.7125 -1.4674 -1.8030
  160TMC2    C7 2445   1.917   3.589   1.573 -0.6818 -0.1264  0.4761
  160TMC2    C8 2446   2.157   3.202   1.630 -0.0447  0.6283 -0.3627
  160TMC2    O1 2447   1.846   3.589   1.472  0.6150  0.3578 -0.0780
  160TMC2    O2 2448   2.254   3.270   1.649 -0.0732 -0.2291  0.2416
  160TMC2    O5 2449   2.146   3.081   1.658 -0.8084 -0.7487 -0.1841
  160TMC2    H5 2450   2.057   3.047   1.684 -1.5348  0.2997 -1.2729
  161MPD2     C 2451   1.513   3.244   1.244  0.7336 -0.1977 -0.4489
  161MPD2    C1 2452   1.596   3.350   1.273 -0.3011 -0.6856  0.2482
  161MPD2    C2 2453   1.568   3.472   1.212  0.0222 -0.7791 -0.3023
  161MPD2    C3 2454   1.460   3.492   1.128  0.1453  0.0556  0.8637
  161MPD2    C4 2455   1.372   3.385   1.111  0.5330 -0.2392  0.0512
  161MPD2    C5 2456   1.395   3.265   1.172  0.4167  0.1892 -0.3338
  161MPD2     H 2457   1.637   3.552   1.237  0.2459 -0.9943 -0.2260
  161MPD2    H1 2458   1.283   3.400   1.051  0.4256  0.0930  0.2896
  161MPD2    H2 2459   1.518   3.148   1.294  0.2564  0.3978  0.7481
  161MPD2    H3 2460   1.320   3.186   1.169 -0.1167  0.6852 -0.0634
  161MPD2     N 2461   1.433   3.616   1.060  0.6104  0.9898 -0.0507
  161MPD2    H5 2462   1.345   3.633   1.013  0.6614  0.4278 -0.3522
  161MPD2    N1 2463   1.703   3.343   1.368 -0.2249  0.4737 -0.0844
  161MPD2    H7 2464   1.766   3.423   1.369  0.1088  0.2181 -0.6241
  162TMC2    C1 2465   4.701   1.614   1.639  0.0387 -0.6194  0.3800
  162TMC2    C2 2466   4.602   1.707   1.597 -0.8926  0.0925 -0.1691
  162TMC2    C3 2467   4.488   1.724   1.677 -0.1293  0.3496 -0.3390
  162TMC2    C4 2468   4.675   1.533   1.748 -0.4146 -0.1424 -0.2331
  162TMC2    C5 2469   4.555   1.542   1.812 -0.2761  0.5097  0.2662
  162TMC2    C6 2470   4.465   1.644   1.788  0.0406 -0.4331 -1.1971
  162TMC2     C 2471   0.096   1.585   1.562 -0.4253 -0.6764 -0.0263
  162TMC2     O 2472   0.139   1.473   1.570 -0.3907 -0.2426  0.0692
  162TMC2     H 2473   4.602   1.757   1.501 -1.9773 -1.5351 -1.0274
  162TMC2    H1 2474   0.031   1.472   1.790  1.3405  1.7560 -0.8301
  162TMC2    H2 2475   4.362   1.640   1.824  0.8198 -1.1606  0.9504
  162TMC2    C7 2476   4.544   1.499   1.951  0.1958 -0.4286 -0.2128
  162TMC2    C8 2477   4.380   1.811   1.628  0.3621  0.0983 -0.0412
  162TMC2    O1 2478   4.485   1.578   2.024 -0.1557  0.2529 -0.3042
  162TMC2    O2 2479   4.370   1.841   1.512  0.0668  0.8586  0.0240
  162TMC2    O5 2480   4.308   1.858   1.728 -0.3488 -0.4027  0.5343
  162TMC2    H5 2481   4.350   1.842   1.815 -0.1985  0.7497  0.6747
  163MPD2     C 2482   0.428   1.693   1.188 -0.5125 -0.0312 -1.1888
  163MPD2    C1 2483   0.363   1.578   1.217 -0.4107 -0.2723  0.7449
  163MPD2    C2 2484   0.264   1.573   1.321  0.4784 -0.4203 -0.5040
  163MPD2    C3 2485   0.236   1.694   1.393  0.9470 -0.1814  0.3877
  163MPD2    C4 2486   0.294   1.815   1.352  0.1295 -0.8038  0.6648
  163MPD2    C5 2487   0.393   1.803   1.258  0.5679 -0.5330 -0.0734
  163MPD2     H 2488   0.210   1.481   1.339 -0.8530  0.1841 -1.4044
  163MPD2    H1 2489   0.269   1.908   1.402 -1.3572 -0.1353 -1.2729
  163MPD2    H2 2490   0.507   1.705   1.115  2.6648  1.3632  2.4558
  163MPD2    H3 2491   0.449   1.889   1.222  2.3462 -2.0084 -0.8675
  163MPD2     N 2492   0.129   1.701   1.485 -0.3414  0.3130 -0.4018
  163MPD2    H5 2493   0.093   1.794   1.502 -1.0295  0.1338 -0.8544
  163MPD2    N1 2494   0.399   1.465   1.137  0.4003  0.4438 -0.8205
  163MPD2    H7 2495   0.468   1.478   1.065  0.7316  1.5328 -0.3035
  164TCq2    C1 2496   4.582   0.606  11.361 -0.0090  0.1081 -0.0096
  164TCq2    O2 2497   4.563   0.573  11.480  0.2907  0.0061 -1.0738
  164TCq2    C2 2498   4.585   0.751  11.323  0.7381  0.0321  0.6124
  164TCq2    C3 2499   4.634   0.791  11.202  0.1695 -0.2674 -0.7105
  164TCq2    C4 2500   4.617   0.918  11.158  0.1198  0.0456  0.3303
  164TCq2    C5 2501   4.556   1.006  11.243  0.2784  0.5068 -0.2340
  164TCq2    C6 2502   4.507   0.960  11.365  0.2634 -0.2474  0.3500
  164TCq2    C7 2503   4.532   0.834  11.409  0.2025 -0.7615 -0.6452
  164TCq2    C8 2504   4.409   1.046  11.433 -0.0429 -0.9902  0.3716
  164TCq2    O4 2505   4.356   1.137  11.365  0.1084 -0.1744 -0.0948
  164TCq2    C9 2506   4.653   0.954  11.024 -0.6196 -0.2843 -0.0759
  164TCq2    O5 2507   4.653   1.072  10.993 -0.0869  0.4092 -0.2813
  164TCq2    O6 2508   4.670   0.858  10.950  0.1261  0.5850  0.7003
  164TCq2    H2 2509   4.677   0.721  11.132  1.7985  0.8630 -0.8418
  164TCq2    H3 2510   4.553   1.110  11.210  3.1892  1.0759  1.2814
  164TCq2    H4 2511   4.477   0.799  11.496  3.2935  0.2723  1.7246
  165MPD2     C 2512   2.253   1.543   2.723 -0.1635  0.4357  0.2841
  165MPD2    C1 2513   2.154   1.615   2.655 -0.3441 -0.3712 -0.6359
  165MPD2    C2 2514   2.190   1.723   2.567  0.3615  0.2942 -0.3220
  165MPD2    C3 2515   2.326   1.735   2.537 -0.5406  0.5797 -0.7219
  165MPD2    C4 2516   2.414   1.652   2.592 -0.4797 -0.6220 -0.5103
  165MPD2    C5 2517   2.383   1.552   2.683 -0.1238 -0.5034  0.8134
  165MPD2     H 2518   2.118   1.790   2.520 -0.0886  0.1763  0.1982
  165MPD2    H1 2519   2.522   1.657   2.580 -0.3341  2.3188  2.2966
  165MPD2    H2 2520   2.231   1.472   2.802  1.5555 -1.0737 -0.5916
  165MPD2    H3 2521   2.455   1.493   2.738  0.8789  2.3838  2.5556
  165MPD2     N 2522   2.368   1.829   2.442  0.0671  0.2069  0.1998
  165MPD2    H5 2523   2.468   1.830   2.424  0.2196 -2.5344  0.9041
  165MPD2    N1 2524   2.015   1.576   2.674  0.2261  0.7980 -0.0594
  165MPD2    H7 2525   1.999   1.508   2.748 -2.1813 -0.8919 -2.1121
  166TCq2    C1 2526   2.302   1.942   2.398 -0.3469 -0.0108  0.0864
  166TCq2    O2 2527   2.204   1.994   2.450 -0.1234 -0.7229  0.4008
  166TCq2    C2 2528   2.386   2.013   2.303 -0.0713 -0.8085 -0.7323
  166TCq2    C3 2529   2.484   1.944   2.234 -0.3164  0.2308  0.6842
  166TCq2    C4 2530   2.582   2.023   2.176  0.6485 -0.0448 -0.2096
  166TCq2    C5 2531   2.588   2.161   2.189  0.9894 -0.4822  0.4395
  166TCq2    C6 2532   2.490   2.218   2.259  1.0253 -0.0950 -0.0354
  166TCq2    C7 2533   2.378   2.153   2.304  0.6255  0.0676  0.5433
  166TCq2    C8 2534   2.503   2.365   2.282 -0.2011 -0.2296  0.3075
  166TCq2    O4 2535   2.603   2.416   2.234 -0.5100  0.6182  0.5904
  166TCq2    C9 2536   2.685   1.955   2.107 -0.0254 -0.0290  0.6139
  166TCq2    O5 2537   2.709   1.840   2.144 -0.1833  0.2318 -0.0586
  166TCq2    O6 2538   2.760   2.031   2.047 -0.7027  0.2185  0.3267
  166TCq2    H2 2539   2.491   1.836   2.234 -0.9582  0.1858 -1.1047
  166TCq2    H3 2540   2.675   2.211   2.147  0.9300 -1.4335 -0.7871
  166TCq2    H4 2541   2.307   2.192   2.376  1.3894 -0.7671  1.7423
  167TMC2    C1 2542   3.905   0.537  13.420  0.1590  0.0889 -0.0967
  167TMC2    C2 2543   3.807   0.543  13.512  0.8804  0.1777  0.1013
  167TMC2    C3 2544   3.760   0.423  13.557  0.1405 -0.0629 -0.2316
  167TMC2    C4 2545   3.940   0.422  13.359 -0.1306  0.5584 -0.0219
  167TMC2    C5 2546   3.883   0.307  13.406  0.0306  0.0165  0.5100
  167TMC2    C6 2547   3.796   0.303  13.507 -0.1596  0.2967  0.0000
  167TMC2     C 2548   3.943   0.670  13.365  0.3156 -0.3685 -0.4993
  167TMC2     O 2549   3.920   0.775  13.427  1.0143 -0.2447  0.1814
  167TMC2     H 2550   3.782   0.644  13.542  0.4980  0.7560 -2.1526
  167TMC2    H1 2551   4.022   0.421  13.289 -0.2872 -1.0941 -0.1891
  167TMC2    H2 2552   3.759   0.214  13.557  0.2144 -0.1964 -0.6020
  167TMC2    C7 2553   3.899   0.179  13.340  0.3080 -0.0034  0.0509
  167TMC2    C8 2554   3.628   0.427  13.616  0.5818 -0.1830  0.1411
  167TMC2    O1 2555   3.849   0.078  13.383  0.3331 -0.1069 -0.0372
  167TMC2    O2 2556   3.545   0.334  13.604  0.5533 -0.0215  0.4493
  167TMC2    O5 2557   3.609   0.545  13.670 -0.1223  0.1542  0.1162
  167TMC2    H5 2558   3.698   0.582  13.692 -0.0386 -0.8805  1.5086
  168MPD2     C 2559   4.054   0.886  13.183 -0.0027 -0.2847 -0.0917
  168MPD2    C1 2560   4.022   0.760  13.148 -0.5289  0.0987 -0.7599
  168MPD2    C2 2561   4.015   0.718  13.015  0.4442  0.1528 -0.1887
  168MPD2    C3 2562   4.045   0.807  12.913  0.3716  0.2825  0.0985
  168MPD2    C4 2563   4.078   0.933  12.944  0.1209 -0.1471  0.6104
  168MPD2    C5 2564   4.079   0.969  13.079 -0.2436  0.3968  0.1976
  168MPD2     H 2565   3.983   0.615  13.005  1.8299 -0.4103  1.1492
  168MPD2    H1 2566   4.097   1.011  12.871  0.0082 -0.4262  0.2821
  168MPD2    H2 2567   4.063   0.909  13.288 -3.1904 -0.9711  0.3566
  168MPD2    H3 2568   4.105   1.070  13.110 -2.0080 -0.2060  3.5762
  168MPD2     N 2569   4.055   0.765  12.776  0.5256 -0.2984 -0.3807
  168MPD2    H5 2570   4.094   0.831  12.709 -1.6953  0.0704 -1.2951
  168MPD2    N1 2571   3.973   0.659  13.236 -0.0947  0.1719 -0.2386
  168MPD2    H7 2572   3.974   0.570  13.189 -1.1182 -0.9184  1.8050
  169MPD1     C 2573   1.105   1.164   9.366 -0.4834 -0.3195  0.6849
  169MPD1    C1 2574   1.232   1.132   9.329  0.6661  0.0741  0.2539
  169MPD1    C2 2575   1.280   1.026   9.409  0.2956 -0.4267  0.6651
  169MPD1    C3 2576   1.230   0.977   9.526  0.0501  0.4222  0.1458
  169MPD1    C4 2577   1.108   1.022   9.561 -0.0471 -0.0434  0.4109
  169MPD1    C5 2578   1.051   1.112   9.480 -0.0177  0.0539  0.2961
  169MPD1     H 2579   1.378   0.990   9.382  0.9477  1.9198 -0.0821
  169MPD1    H1 2580   1.057   0.989   9.652  0.4813 -0.3228  0.6052
  169MPD1    H2 2581   1.049   1.234   9.305 -0.6323 -2.1619 -1.3002
  169MPD1    H3 2582   0.950   1.120   9.519 -0.5825 -3.3757 -0.5289
  169MPD1     N 2583   1.300   0.882   9.595 -0.3842  0.0816  0.0883
  169MPD1    H5 2584   1.391   0.855   9.557 -0.6990  0.8459 -1.2028
  169MPD1    N1 2585   1.283   1.152   9.200 -0.1314 -0.2354  0.3125
  169MPD1    H6 2586   1.249   1.245   9.174  2.6445  0.4183 -0.8834
  169MPD1    H7 2587   1.384   1.145   9.192 -0.0554  3.1027 -1.6656
  170MPD1     C 2588   0.488   2.479  12.856  0.2614  0.3055  1.3347
  170MPD1    C1 2589   0.358   2.505  12.890 -0.2303  0.1266 -0.1530
  170MPD1    C2 2590   0.335   2.573  13.005 -0.0134  0.6335 -0.4112
  170MPD1    C3 2591   0.438   2.610  13.088  0.4774  0.4407 -0.3290
  170MPD1    C4 2592   0.564   2.565  13.074  0.0033  0.2751  0.0749
  170MPD1    C5 2593   0.582   2.499  12.955 -0.4273  0.1557 -0.3144
  170MPD1     H 2594   0.240   2.623  13.021 -0.2487 -0.3657  1.3479
  170MPD1    H1 2595   0.645   2.590  13.142 -1.5807 -3.0473  3.2168
  170MPD1    H2 2596   0.516   2.435  12.761 -0.7674 -0.3242  1.3223
  170MPD1    H3 2597   0.686   2.474  12.934 -0.1799  1.3321 -0.4959
  170MPD1     N 2598   0.398   2.697  13.194 -0.2609 -0.4108 -1.2368
  170MPD1    H5 2599   0.299   2.696  13.218  0.3773 -3.9916  1.2528
  170MPD1    N1 2600   0.254   2.499  12.792 -0.2437  0.1971  0.1864
  170MPD1    H6 2601   0.163   2.490  12.837  0.2776  0.1587  1.2321
  170MPD1    H7 2602   0.251   2.418  12.731  1.2138 -0.6372  1.2408
  171MPD1     C 2603   4.012   3.629  15.757 -0.5196  0.6922  0.2870
  171MPD1    C1 2604   3.993   3.680  15.881  0.4103  0.3362  0.2613
  171MPD1    C2 2605   4.058   3.617  15.990  0.1338  0.4987 -0.0684
  171MPD1    C3 2606   4.157   3.517  15.962 -0.2041  0.4314 -0.0097
  171MPD1    C4 2607   4.183   3.471  15.836  0.1929  1.0776  0.1277
  171MPD1    C5 2608   4.105   3.526  15.733 -0.2804  0.6400 -0.0619
  171MPD1     H 2609   4.034   3.646  16.092 -1.2748 -1.7121  0.2196
  171MPD1    H1 2610   4.248   3.388  15.812 -1.3293 -0.0642 -0.0578
  171MPD1    H2 2611   3.967   3.674  15.670  0.3145  1.6766  0.3740
  171MPD1    H3 2612   4.124   3.484  15.635 -0.3792  0.2231  0.0971
  171MPD1     N 2613   4.227   3.456  16.063 -0.3036  0.5996 -0.3554
  171MPD1    H5 2614   4.277   3.376  16.023  1.7801  1.0816  1.2868
  171MPD1    N1 2615   3.897   3.773  15.915  0.1049  0.5566 -0.3988
  171MPD1    H6 2616   3.906   3.850  15.849 -5.3329  0.6919 -0.9550
  171MPD1    H7 2617   3.921   3.826  15.998 -0.7733  1.0537 -0.4649
  172MPD1     C 2618   3.951   2.628   1.033  0.4916  0.5232 -0.3738
  172MPD1    C1 2619   3.813   2.608   1.020 -0.2479  0.3950  0.6341
  172MPD1    C2 2620   3.728   2.714   0.973  0.3180  0.1421 -1.1814
  172MPD1    C3 2621   3.791   2.834   0.937  0.1511 -0.2485  0.1867
  172MPD1    C4 2622   3.925   2.855   0.956  0.5439 -0.6838 -0.4068
  172MPD1    C5 2623   3.999   2.754   1.012  0.2104  0.3041 -0.2678
  172MPD1     H 2624   3.622   2.696   0.971  0.2291  0.5136 -0.1886
  172MPD1    H1 2625   3.973   2.952   0.941 -2.1297  0.2590 -2.7855
  172MPD1    H2 2626   4.016   2.548   1.065  0.9246  0.6737 -0.8841
  172MPD1    H3 2627   4.106   2.757   1.027  0.0573  3.2578  0.1955
  172MPD1     N 2628   3.714   2.943   0.892  0.0699 -0.5383  0.1717
  172MPD1    H5 2629   3.757   3.035   0.888  1.7700 -1.3590 -0.5878
  172MPD1    N1 2630   3.750   2.485   1.058  0.1037 -0.0844 -0.4427
  172MPD1    H6 2631   3.660   2.471   1.011 -0.0302 -1.3852  0.1853
  172MPD1    H7 2632   3.798   2.397   1.042  1.2838  0.4424  0.2580
  173MPD1     C 2633   4.628   3.514  14.934  0.1046 -0.4357  0.2110
  173MPD1    C1 2634   4.615   3.449  15.056  0.5498 -0.3326 -0.0246
  173MPD1    C2 2635   4.542   3.327  15.050  0.0362  0.4118  0.1201
  173MPD1    C3 2636   4.500   3.264  14.935  0.0691  0.4556  0.4174
  173MPD1    C4 2637   4.515   3.339  14.825  0.2903  0.1605 -0.4546
  173MPD1    C5 2638   4.580   3.458  14.819  0.0567  0.2780  0.3250
  173MPD1     H 2639   4.544   3.263  15.137  1.8223  1.7587  1.0576
  173MPD1    H1 2640   4.501   3.289  14.730  0.0619 -0.6362 -0.0059
  173MPD1    H2 2641   4.685   3.604  14.914  0.5639 -0.4598  1.4437
  173MPD1    H3 2642   4.598   3.504  14.723 -0.1971 -3.1847 -1.3896
  173MPD1     N 2643   4.450   3.135  14.933 -0.3313 -0.0709  0.0508
  173MPD1    H5 2644   4.450   3.084  15.021 -1.2589  1.9463  1.2204
  173MPD1    N1 2645   4.696   3.493  15.160 -0.5987  0.2708  0.0215
  173MPD1    H6 2646   4.705   3.595  15.162  0.5914  0.1736 -1.2022
  173MPD1    H7 2647   4.667   3.473  15.256  0.7554 -1.9174 -0.0386
  174MPD1     C 2648   4.246   2.546  14.150 -0.4921 -0.5291  0.2804
  174MPD1    C1 2649   4.274   2.457  14.252  0.4173 -0.4728 -0.2573
  174MPD1    C2 2650   4.270   2.504  14.381  0.2101  0.9691 -0.7415
  174MPD1    C3 2651   4.255   2.636  14.408 -0.1318  0.0860 -0.3064
  174MPD1    C4 2652   4.229   2.724  14.304  0.0899 -0.0433  0.7156
  174MPD1    C5 2653   4.225   2.680  14.175  0.1557 -0.0648 -0.1267
  174MPD1     H 2654   4.292   2.437  14.463  0.3477  1.8225 -0.0721
  174MPD1    H1 2655   4.214   2.830  14.323 -0.9545  0.2286 -1.6205
  174MPD1    H2 2656   4.239   2.506  14.050 -2.0677  2.2836 -0.7227
  174MPD1    H3 2657   4.196   2.753  14.101  0.0318 -0.4767 -0.4876
  174MPD1     N 2658   4.277   2.695  14.536  0.2112  0.2672  0.4026
  174MPD1    H5 2659   4.254   2.794  14.535  0.1063  0.2471  0.6210
  174MPD1    N1 2660   4.279   2.321  14.225  0.0563 -0.1440  0.1878
  174MPD1    H6 2661   4.322   2.312  14.133 -2.1167 -2.5255 -0.5843
  174MPD1    H7 2662   4.344   2.280  14.292  2.1752  1.2989 -0.9815
  175MPD1     C 2663   3.322   3.905  15.814 -0.2485  0.2237 -0.2833
  175MPD1    C1 2664   3.194   3.881  15.855 -0.1787  0.4024  0.1069
  175MPD1    C2 2665   3.176   3.855  15.992 -0.4447 -0.7847  0.5997
  175MPD1    C3 2666   3.280   3.854  16.084  0.3162  0.3982  0.0129
  175MPD1    C4 2667   3.400   3.893  16.034 -0.1531 -0.1928 -1.0503
  175MPD1    C5 2668   3.418   3.914  15.902 -0.1255 -0.2560  0.2184
  175MPD1     H 2669   3.071   3.850  16.021 -1.0962 -0.4348 -1.6581
  175MPD1    H1 2670   3.487   3.912  16.096 -0.8979  0.7287 -0.3104
  175MPD1    H2 2671   3.332   3.939  15.711  0.9887  1.0419  0.1111
  175MPD1    H3 2672   3.511   3.955  15.864 -0.2263  1.9685  2.3237
  175MPD1     N 2673   3.262   3.817  16.217  0.2415  1.0155  0.1307
  175MPD1    H5 2674   3.349   3.823  16.269  0.6964  0.7444 -0.5935
  175MPD1    N1 2675   3.086   3.896  15.764 -0.0610 -0.1283 -0.4266
  175MPD1    H6 2676   3.012   3.828  15.783  0.0180  0.0975  0.7253
  175MPD1    H7 2677   3.122   3.890  15.669  1.4427  0.3208  0.1191
  176MPD1     C 2678   0.095   0.966  17.531  0.3676 -0.1056  0.3385
  176MPD1    C1 2679   0.126   1.061  17.442  0.1652 -0.3707  0.5513
  176MPD1    C2 2680   0.102   1.190  17.480 -0.0227  0.1293 -0.2867
  176MPD1    C3 2681   0.084   1.228  17.615 -1.4123  0.4958  0.2484
  176MPD1    C4 2682   0.063   1.129   0.009  0.1008  0.0350 -0.1691
  176MPD1    C5 2683   0.067   0.997  17.660 -0.1085  0.3298 -0.3709
  176MPD1     H 2684   0.123   1.267  17.407  1.6494  0.1408  0.1862
  176MPD1    H1 2685   0.033   1.139   0.113  0.5424 -2.4757  0.1979
  176MPD1    H2 2686   0.103   0.862  17.502 -0.3813 -0.5493  1.7529
  176MPD1    H3 2687   0.061   0.910   0.027  0.5494 -1.0713 -2.2108
  176MPD1     N 2688   0.078   1.366  17.654 -0.2310 -1.0965  0.0874
  176MPD1    H5 2689   0.108   1.427  17.579  0.0361 -0.6225  0.5717
  176MPD1    N1 2690   0.144   1.029  17.308  0.3574 -0.0179 -0.2139
  176MPD1    H6 2691   0.197   0.944  17.289  0.4203  0.4504 -2.2120
  176MPD1    H7 2692   0.208   1.094  17.261 -1.3962 -0.3716 -3.1004
  177MPD1     C 2693   2.792   1.292  10.431 -0.0575  0.7907 -0.0766
  177MPD1    C1 2694   2.785   1.237  10.302 -0.5447 -0.8444 -0.4043
  177MPD1    C2 2695   2.705   1.302  10.214  0.3049 -1.1626  0.1533
  177MPD1    C3 2696   2.655   1.427  10.238 -0.0048  0.0333  0.2225
  177MPD1    C4 2697   2.684   1.489  10.366 -0.0439  0.0297 -0.4903
  177MPD1    C5 2698   2.743   1.414  10.463  0.2104 -0.6813  0.0605
  177MPD1     H 2699   2.676   1.246  10.126 -0.3922 -2.3491  1.1427
  177MPD1    H1 2700   2.632   1.582  10.387 -0.7333 -0.5530  0.3841
  177MPD1    H2 2701   2.825   1.230  10.513  2.9701  1.0048 -1.0974
  177MPD1    H3 2702   2.750   1.453  10.564  2.7819 -0.3156 -0.2585
  177MPD1     N 2703   2.574   1.489  10.137  0.2601  0.2613 -0.2803
  177MPD1    H5 2704   2.562   1.436  10.051  0.1872  2.4939 -1.6318
  177MPD1    N1 2705   2.819   1.101  10.290 -0.2006 -0.6541 -0.3578
  177MPD1    H6 2706   2.832   1.063  10.196  0.3625  1.2893 -1.0684
  177MPD1    H7 2707   2.908   1.093  10.338 -0.7366 -1.7657  0.4499
  178MPD1     C 2708   1.291   1.890   0.900 -0.3057 -0.5135  0.8858
  178MPD1    C1 2709   1.332   1.794   0.808 -0.3778 -0.1398 -0.4315
  178MPD1    C2 2710   1.313   1.835   0.678  0.6538  0.1049  0.0361
  178MPD1    C3 2711   1.289   1.970   0.639  0.2153  0.0645 -0.7711
  178MPD1    C4 2712   1.278   2.064   0.737 -0.2052 -0.2562 -0.0095
  178MPD1    C5 2713   1.267   2.017   0.866  0.1282 -0.1021 -0.2142
  178MPD1     H 2714   1.337   1.769   0.596 -2.3371 -0.2486 -0.5555
  178MPD1    H1 2715   1.252   2.168   0.722 -3.7768 -1.0755  0.2693
  178MPD1    H2 2716   1.257   1.865   1.000  0.4247  1.3526  1.5917
  178MPD1    H3 2717   1.247   2.087   0.947  2.1318 -1.5282  1.5034
  178MPD1     N 2718   1.280   2.007   0.506  0.1055  0.2714  0.4718
  178MPD1    H5 2719   1.293   2.106   0.491 -0.9122  0.3653  0.1721
  178MPD1    N1 2720   1.348   1.658   0.845  0.2535 -0.1777  0.0100
  178MPD1    H6 2721   1.409   1.616   0.775 -0.2204 -1.0721  0.1417
  178MPD1    H7 2722   1.400   1.648   0.932 -2.6338  1.4070  1.8857
  179MPD1     C 2723   0.817   4.647  15.798 -0.2495  0.1886 -0.2697
  179MPD1    C1 2724   0.685   4.613  15.774 -0.2431  0.0017 -0.1194
  179MPD1    C2 2725   0.584   4.685  15.833  0.0041 -0.8601 -0.1707
  179MPD1    C3 2726   0.618   0.073  15.914  0.3484 -0.5709 -0.6532
  179MPD1    C4 2727   0.755   0.104  15.941  0.0694 -0.2375  0.2701
  179MPD1    C5 2728   0.853   0.028  15.884 -0.2276 -0.1019 -0.4027
  179MPD1     H 2729   0.479   4.663  15.818 -0.2196 -0.1139  0.2922
  179MPD1    H1 2730   0.792   0.185  16.002 -0.8400 -0.5376  1.2284
  179MPD1    H2 2731   0.896   4.600  15.741 -1.1374 -5.1291  2.8725
  179MPD1    H3 2732   0.958   0.052  15.896 -0.5219  0.9884 -0.0850
  179MPD1     N 2733   0.518   0.140  15.985  0.4066  0.6677 -0.5232
  179MPD1    H5 2734   0.564   0.197  16.055 -0.2857  0.0538  0.4196
  179MPD1    N1 2735   0.655   4.514  15.678  0.0585 -0.1860  0.5819
  179MPD1    H6 2736   0.717   4.436  15.699  0.2156 -0.4655 -0.9295
  179MPD1    H7 2737   0.560   4.480  15.679 -0.4071  1.1131  1.3697
  180MPD1     C 2738   0.631   2.113  15.668 -0.5483  0.1581  0.5523
  180MPD1    C1 2739   0.699   2.117  15.549  0.0124 -0.1007 -0.3690
  180MPD1    C2 2740   0.626   2.096  15.433  0.0957 -0.5555  0.0186
  180MPD1    C3 2741   0.494   2.060  15.443  0.0111  0.1652  0.3772
  180MPD1    C4 2742   0.427   2.065  15.561 -1.0201  0.1439  0.1563
  180MPD1    C5 2743   0.496   2.092  15.677  0.4198 -0.0318  0.5999
  180MPD1     H 2744   0.676   2.096  15.336 -2.7206 -0.3748 -1.4338
  180MPD1    H1 2745   0.324   2.035  15.581 -1.5403  2.3905  0.7931
  180MPD1    H2 2746   0.694   2.111  15.756  1.2572  1.8825 -0.7238
  180MPD1    H3 2747   0.447   2.090  15.774 -0.9517 -0.2008 -0.0936
  180MPD1     N 2748   0.426   2.016  15.328 -0.0053 -0.0607 -0.4969
  180MPD1    H5 2749   0.493   1.999  15.253  2.9712 -0.1590  2.1584
  180MPD1    N1 2750   0.842   2.122  15.546  0.2536  0.6814 -0.1054
  180MPD1    H6 2751   0.869   2.126  15.448 -0.4416  0.5626 -0.3040
  180MPD1    H7 2752   0.874   2.198  15.606  1.7397 -1.1031  1.3174
  181MPD1     C 2753   1.543   3.094  10.344  0.7308 -0.1772 -0.0763
  181MPD1    C1 2754   1.508   3.218  10.404  0.0091 -0.4541 -0.8632
  181MPD1    C2 2755   1.580   3.329  10.370  0.2552  0.3328  0.9198
  181MPD1    C3 2756   1.676   3.336  10.270  0.4409  0.3825 -0.3560
  181MPD1    C4 2757   1.701   3.209  10.207  0.0237  0.0677 -0.0090
  181MPD1    C5 2758   1.635   3.094  10.249 -0.0038  0.1393 -0.6933
  181MPD1     H 2759   1.571   3.424  10.420  1.2844  0.3386  1.1076
  181MPD1    H1 2760   1.776   3.206  10.129  0.8303 -1.0550  0.7951
  181MPD1    H2 2761   1.500   3.000  10.379  0.2198 -0.5538 -1.7131
  181MPD1    H3 2762   1.666   3.005  10.195 -1.4641  0.0681 -1.4002
  181MPD1     N 2763   1.775   3.438  10.244 -0.2015 -0.0254 -0.2862
  181MPD1    H5 2764   1.843   3.417  10.172 -0.2197  2.9593 -1.1473
  181MPD1    N1 2765   1.427   3.228  10.518 -0.5215  0.3427  0.4227
  181MPD1    H6 2766   1.353   3.158  10.521  1.1505 -1.5254 -2.1815
  181MPD1    H7 2767   1.383   3.320  10.527 -1.5376 -0.2699  1.6693
  182MPD1     C 2768   2.811   1.770   1.701 -0.1628  0.2680  0.1795
  182MPD1    C1 2769   2.864   1.879   1.760 -0.1548  0.9888 -0.5724
  182MPD1    C2 2770   2.859   1.997   1.688 -0.0663 -0.1832 -0.3808
  182MPD1    C3 2771   2.787   2.011   1.570  0.0058 -0.2201  0.1999
  182MPD1    C4 2772   2.735   1.896   1.510 -0.6123 -0.3228 -0.6563
  182MPD1    C5 2773   2.748   1.781   1.583  0.3850  0.0186  0.5751
  182MPD1     H 2774   2.895   2.083   1.743 -0.3017  0.3669 -1.0969
  182MPD1    H1 2775   2.670   1.896   1.423 -2.2840 -1.4458  0.5918
  182MPD1    H2 2776   2.814   1.670   1.743  1.5662 -0.1724 -0.9848
  182MPD1    H3 2777   2.710   1.691   1.535 -1.8639  0.6287  1.2299
  182MPD1     N 2778   2.767   2.138   1.509 -0.4247  0.1414 -0.1893
  182MPD1    H5 2779   2.707   2.142   1.427  1.7602  2.2664 -1.6774
  182MPD1    N1 2780   2.928   1.877   1.885  0.0995 -0.3590 -0.1302
  182MPD1    H6 2781   2.902   1.795   1.940  0.7545  0.1835  0.9942
  182MPD1    H7 2782   2.900   1.958   1.940 -2.9011 -1.6428  0.2614
  183MPD1     C 2783   3.058   4.081   9.204 -0.1656 -0.2782 -0.7271
  183MPD1    C1 2784   2.928   4.056   9.167  0.5945 -0.5096 -0.2229
  183MPD1    C2 2785   2.851   3.983   9.258  0.3608 -1.2602  0.1633
  183MPD1    C3 2786   2.902   3.929   9.367 -0.0104 -0.1761  0.4706
  183MPD1    C4 2787   3.032   3.956   9.407  0.3381  0.3167  0.4533
  183MPD1    C5 2788   3.107   4.027   9.320 -0.0497 -0.0908  0.0307
  183MPD1     H 2789   2.745   3.963   9.246 -0.2284  2.0081  0.0760
  183MPD1    H1 2790   3.063   3.936   9.509  0.5465 -0.5652  0.2131
  183MPD1    H2 2791   3.120   4.148   9.146  2.2842 -0.6323  1.4632
  183MPD1    H3 2792   3.193   4.066   9.373 -0.4247 -1.8614  1.9465
  183MPD1     N 2793   2.811   3.846   9.449  0.2584  0.3898  0.2089
  183MPD1    H5 2794   2.714   3.831   9.427  0.4095  1.7162 -1.3415
  183MPD1    N1 2795   2.863   4.111   9.053 -0.5960 -0.2309  0.6407
  183MPD1    H6 2796   2.913   4.099   8.966  0.1850  0.4502  0.9995
  183MPD1    H7 2797   2.777   4.062   9.028  0.8480 -1.6269 -1.5751
  184MPD1     C 2798   1.059   0.896  10.076  0.3328 -0.4366  0.3415
  184MPD1    C1 2799   1.198   0.891  10.083  0.1736 -0.6568  0.2951
  184MPD1    C2 2800   1.268   0.984  10.011 -0.4867 -0.2969 -0.0838
  184MPD1    C3 2801   1.210   1.079   9.922 -0.5729  0.6441  0.5515
  184MPD1    C4 2802   1.071   1.076   9.918  0.0084  0.6969  0.5295
  184MPD1    C5 2803   0.997   0.993   9.994 -0.0471 -0.2359  0.3256
  184MPD1     H 2804   1.372   0.990  10.041 -0.5946  1.4515 -0.0467
  184MPD1    H1 2805   1.012   1.145   9.858  0.9186 -1.1246 -2.4278
  184MPD1    H2 2806   0.996   0.832  10.138  0.6148  1.4247  2.5517
  184MPD1    H3 2807   0.890   1.008   9.987  0.4623  1.8730 -3.0072
  184MPD1     N 2808   1.277   1.186   9.856  0.3557  0.3222  0.0222
  184MPD1    H5 2809   1.217   1.256   9.812 -0.9762 -2.3418 -2.4209
  184MPD1    N1 2810   1.260   0.818  10.190  0.0752 -0.2185  0.0533
  184MPD1    H6 2811   1.360   0.803  10.176  0.7420  1.3839  3.1575
  184MPD1    H7 2812   1.221   0.724  10.200  1.5086 -0.9852 -1.4015
  185MPD1     C 2813   0.981   1.624   9.209  0.3203 -0.3832 -0.2290
  185MPD1    C1 2814   1.115   1.634   9.178 -0.4527  0.4539 -0.1460
  185MPD1    C2 2815   1.215   1.591   9.267 -0.4777 -0.4118 -0.2702
  185MPD1    C3 2816   1.176   1.534   9.391  0.2854 -0.9545 -0.2894
  185MPD1    C4 2817   1.040   1.517   9.413 -0.0925  0.1902  0.1052
  185MPD1    C5 2818   0.941   1.563   9.324  0.0719  0.0196  0.0843
  185MPD1     H 2819   1.318   1.605   9.234 -0.0734 -0.1500  1.1085
  185MPD1    H1 2820   1.009   1.470   9.506  0.4331  0.0665  0.2195
  185MPD1    H2 2821   0.904   1.653   9.139 -0.7399  0.1142  1.1562
  185MPD1    H3 2822   0.834   1.558   9.342  0.1528  1.7119  1.0272
  185MPD1     N 2823   1.265   1.477   9.489  0.0691 -0.7256  0.0232
  185MPD1    H5 2824   1.222   1.451   9.578  1.5517  0.7578  1.1712
  185MPD1    N1 2825   1.151   1.706   9.061 -0.2624 -0.1984 -0.1455
  185MPD1    H6 2826   1.244   1.669   9.045 -0.1810  0.6490 -1.5803
  185MPD1    H7 2827   1.088   1.692   8.983 -0.4715  2.7538 -0.5055
  186MPD1     C 2828   0.489   1.779  16.215 -0.4328  0.0118 -0.2494
  186MPD1    C1 2829   0.461   1.742  16.343  0.2001  0.5932 -0.0015
  186MPD1    C2 2830   0.508   1.619  16.388  0.4358  0.1245 -0.4464
  186MPD1    C3 2831   0.533   1.517  16.296  0.3071 -0.3834  0.1867
  186MPD1    C4 2832   0.537   1.549  16.168 -0.4524  0.3851  0.2743
  186MPD1    C5 2833   0.528   1.676  16.131  0.0064  0.1414 -0.8297
  186MPD1     H 2834   0.512   1.601  16.495 -0.0751  0.5812 -0.3539
  186MPD1    H1 2835   0.564   1.478  16.090 -1.7741 -0.0843  0.2497
  186MPD1    H2 2836   0.476   1.878  16.173  1.1585  0.0978 -0.5032
  186MPD1    H3 2837   0.555   1.700  16.029  0.6650  1.4601 -0.3474
  186MPD1     N 2838   0.573   1.389  16.333 -0.5142 -0.2312 -0.1579
  186MPD1    H5 2839   0.634   1.336  16.272 -2.0544 -0.1086 -1.8047
  186MPD1    N1 2840   0.435   1.835  16.449 -0.2093  0.6008 -0.6070
  186MPD1    H6 2841   0.405   1.927  16.417 -1.6755  0.6041  0.8088
  186MPD1    H7 2842   0.376   1.804  16.525  0.4149 -0.6189 -0.6283
  187MPD1     C 2843   0.426   1.975   0.252 -0.1363  0.3521 -0.1591
  187MPD1    C1 2844   0.498   2.009   0.131  0.1499  0.2456 -0.0147
  187MPD1    C2 2845   0.426   2.087   0.040  1.0560  0.5849 -0.0371
  187MPD1    C3 2846   0.284   2.103   0.048 -0.6362  0.1827  0.0876
  187MPD1    C4 2847   0.222   2.055   0.156 -0.2945 -0.3679 -0.1653
  187MPD1    C5 2848   0.295   1.992   0.255 -0.2745  0.0705 -0.8012
  187MPD1     H 2849   0.471   2.108  17.641  0.3369 -2.6688 -1.0706
  187MPD1    H1 2850   0.117   2.078   0.175 -0.1797  2.8918 -3.3998
  187MPD1    H2 2851   0.476   1.916   0.328 -2.4588 -0.5953  0.6108
  187MPD1    H3 2852   0.243   1.939   0.334  1.0639  1.9695  1.3545
  187MPD1     N 2853   0.205   2.191  17.668  0.4075  0.0626 -0.8132
  187MPD1    H5 2854   0.106   2.183  17.685  0.2834 -0.4312 -1.7765
  187MPD1    N1 2855   0.637   1.988   0.123  0.4923 -0.0771  0.2282
  187MPD1    H6 2856   0.665   1.899   0.162  0.1544 -1.4210 -2.6159
  187MPD1    H7 2857   0.662   2.010   0.027 -0.8498  2.7098  0.5116
  188MPD1     C 2858   3.844   2.677   9.759  0.2315  0.3109  0.2760
  188MPD1    C1 2859   3.722   2.635   9.801 -0.0131 -0.7127 -0.1408
  188MPD1    C2 2860   3.708   2.556   9.915 -0.0148  0.0077  0.1639
  188MPD1    C3 2861   3.824   2.504   9.971  0.0313 -0.5103 -0.4050
  188MPD1    C4 2862   3.946   2.548   9.923  0.3089  0.1901 -1.0760
  188MPD1    C5 2863   3.954   2.632   9.813  0.0681 -0.3916 -0.8636
  188MPD1     H 2864   3.613   2.533   9.960  0.1304  0.3865  0.6612
  188MPD1    H1 2865   4.034   2.505   9.968 -0.0497 -0.5676 -1.0835
  188MPD1    H2 2866   3.850   2.728   9.663 -2.5781 -2.0153 -1.1367
  188MPD1    H3 2867   4.046   2.674   9.772  0.4471  1.3483  1.7390
  188MPD1     N 2868   3.813   2.408  10.071 -0.4385  0.3965  0.5770
  188MPD1    H5 2869   3.718   2.375  10.087 -0.3189 -0.6641 -0.8534
  188MPD1    N1 2870   3.611   2.675   9.730 -0.1104  0.2138  0.7941
  188MPD1    H6 2871   3.524   2.701   9.776 -0.8434 -0.1885 -0.3408
  188MPD1    H7 2872   3.621   2.748   9.659 -0.1192  0.4894  1.0783
  189MPD1     C 2873   2.113   2.392   0.975  0.1362  0.6243 -0.0441
  189MPD1    C1 2874   1.986   2.390   1.027  0.1795  0.1419 -0.4864
  189MPD1    C2 2875   1.885   2.463   0.955 -0.3212 -0.2349 -0.3886
  189MPD1    C3 2876   1.919   2.533   0.842 -0.3705 -0.1566  0.2605
  189MPD1    C4 2877   2.046   2.538   0.791 -0.3856  0.3490  0.2941
  189MPD1    C5 2878   2.140   2.467   0.866  0.5592 -0.2412 -0.2582
  189MPD1     H 2879   1.782   2.468   0.987  0.0442  1.7507  0.5299
  189MPD1    H1 2880   2.074   2.596   0.704 -1.2782  0.0456 -0.1854
  189MPD1    H2 2881   2.187   2.347   1.041 -0.7855 -0.2503  0.3864
  189MPD1    H3 2882   2.239   2.474   0.824  0.5396  0.3268 -0.2096
  189MPD1     N 2883   1.811   2.591   0.776  0.4966 -0.4631  0.4361
  189MPD1    H5 2884   1.719   2.550   0.782  0.1785  0.2732  0.6044
  189MPD1    N1 2885   1.960   2.286   1.118 -0.2500  0.1893  0.0092
  189MPD1    H6 2886   1.872   2.305   1.165 -1.3395 -0.6204 -1.7206
  189MPD1    H7 2887   2.027   2.294   1.194  0.1297 -1.5959 -0.1212
  190MPD1     C 2888   0.302   1.622  15.332  0.4700  0.1100  0.6967
  190MPD1    C1 2889   0.430   1.652  15.273 -0.3353  0.0449 -0.3779
  190MPD1    C2 2890   0.532   1.682  15.360 -0.4758  0.0011  0.4128
  190MPD1    C3 2891   0.509   1.701  15.500  0.5546 -0.2641 -0.4640
  190MPD1    C4 2892   0.387   1.690  15.552  0.6104  0.6319  0.1944
  190MPD1    C5 2893   0.283   1.652  15.464 -0.1411  0.6274 -0.4315
  190MPD1     H 2894   0.628   1.697  15.313 -1.1304 -1.7993 -1.4857
  190MPD1    H1 2895   0.370   1.703  15.658 -1.9590  0.0869 -0.1529
  190MPD1    H2 2896   0.217   1.602  15.268  0.2523 -0.1349  1.0628
  190MPD1    H3 2897   0.189   1.631  15.514  1.1009 -1.4465  1.0276
  190MPD1     N 2898   0.618   1.732  15.581  0.3165  0.1702  0.1373
  190MPD1    H5 2899   0.707   1.744  15.534 -1.2081  2.5883 -2.0781
  190MPD1    N1 2900   0.460   1.620  15.140  0.1400 -0.9257  0.3269
  190MPD1    H6 2901   0.548   1.658  15.105  0.5043 -2.3480 -0.3150
  190MPD1    H7 2902   0.383   1.625  15.073 -1.1947 -1.0109  1.8580
  191MPD1     C 2903   3.769   3.470  13.562  0.4222 -0.2179 -0.5078
  191MPD1    C1 2904   3.651   3.456  13.495  0.2560 -0.2729  0.0930
  191MPD1    C2 2905   3.626   3.527  13.382  0.6397  0.3545 -0.3581
  191MPD1    C3 2906   3.728   3.607  13.333  0.1168  0.4727  0.5151
  191MPD1    C4 2907   3.846   3.623  13.403  0.5445 -0.1705 -0.5870
  191MPD1    C5 2908   3.869   3.548  13.509 -0.4889 -1.0809 -0.1018
  191MPD1     H 2909   3.533   3.520  13.326 -0.6713 -0.7009  1.9766
  191MPD1    H1 2910   3.924   3.694  13.377  0.4064  0.6785  1.3485
  191MPD1    H2 2911   3.785   3.422  13.658  0.1464 -0.9169 -0.8093
  191MPD1    H3 2912   3.964   3.549  13.562  0.4933 -0.9229 -1.8628
  191MPD1     N 2913   3.703   3.692  13.223 -0.2370  0.2212 -0.2769
  191MPD1    H5 2914   3.604   3.694  13.201 -0.8866 -0.0267  2.6082
  191MPD1    N1 2915   3.560   3.362  13.540 -0.3389  0.2072  0.7144
  191MPD1    H6 2916   3.572   3.350  13.641  0.8375 -1.3609  0.3805
  191MPD1    H7 2917   3.462   3.388  13.533 -0.4949 -0.0700  1.7945
  192MPD1     C 2918   3.133   4.445  12.894  0.0116  0.4405  0.5253
  192MPD1    C1 2919   3.113   4.307  12.917  0.3007  0.3624 -0.2177
  192MPD1    C2 2920   3.223   4.229  12.932 -0.0079  0.1867 -0.1498
  192MPD1    C3 2921   3.351   4.284  12.919  0.4196  0.1414 -0.1564
  192MPD1    C4 2922   3.366   4.418  12.891 -0.2720 -0.4177  0.7118
  192MPD1    C5 2923   3.255   4.495  12.876  0.3840 -0.0938 -0.1835
  192MPD1     H 2924   3.218   4.124  12.956  2.5527 -0.0953 -0.9406
  192MPD1    H1 2925   3.466   4.459  12.887 -1.1273  1.6349  0.6040
  192MPD1    H2 2926   3.043   4.506  12.893 -0.6236 -0.4635  1.3251
  192MPD1    H3 2927   3.262   4.601  12.854  1.3844  0.1772  1.3951
  192MPD1     N 2928   3.470   4.213  12.934 -0.0588  0.2730 -0.5809
  192MPD1    H5 2929   3.552   4.269  12.914  1.6040 -1.8519  0.2749
  192MPD1    N1 2930   2.987   4.256  12.967  0.3439  0.3785  0.4964
  192MPD1    H6 2931   2.961   4.158  12.955 -0.2149  0.4489  1.1222
  192MPD1    H7 2932   2.916   4.323  12.939 -0.1396 -1.2042 -2.0056
  193MPD1     C 2933   4.574   3.383   0.113  0.1565  0.3086  0.2387
  193MPD1    C1 2934   4.459   3.447   0.103  0.3277 -0.1629  0.0468
  193MPD1    C2 2935   4.451   3.545   0.006  0.1294  0.3481 -0.3312
  193MPD1    C3 2936   4.565   3.584  17.638 -0.9783  0.5239  0.4921
  193MPD1    C4 2937   4.683   3.528  17.665 -0.4567  0.7519 -0.0491
  193MPD1    C5 2938   4.686   3.418   0.049  0.1393 -0.0238  0.8854
  193MPD1     H 2939   4.355   3.586  17.675 -0.4446  0.4329  1.7339
  193MPD1    H1 2940   0.048   3.553  17.608 -1.8609  2.2515 -1.5797
  193MPD1    H2 2941   4.587   3.291   0.169 -1.3330  1.9774  3.3093
  193MPD1    H3 2942   0.052   3.362   0.074 -0.4691 -1.2018  0.4211
  193MPD1     N 2943   4.562   3.688  17.540 -0.1942 -0.1947  0.0792
  193MPD1    H5 2944   4.652   3.711  17.499  0.2320 -1.3329  0.3630
  193MPD1    N1 2945   4.344   3.384   0.144  0.5199  0.1623  0.3426
  193MPD1    H6 2946   4.267   3.449   0.155  0.7308  0.6804 -1.2574
  193MPD1    H7 2947   4.356   3.344   0.237 -0.5290 -0.4915  0.1897
  194MPD1     C 2948   1.185   0.459  17.610  0.1984  0.5129  0.5354
  194MPD1    C1 2949   1.265   0.391  17.526  0.6734  0.3894 -0.6191
  194MPD1    C2 2950   1.402   0.390  17.561  0.8189 -0.0027  0.5110
  194MPD1    C3 2951   1.442   0.425  17.691 -0.0658 -0.0776 -0.6989
  194MPD1    C4 2952   1.348   0.473   0.080 -0.4029  0.5770  0.4781
  194MPD1    C5 2953   1.222   0.501   0.044 -0.4459 -0.1718  0.1545
  194MPD1     H 2954   1.474   0.367  17.484 -1.7035 -2.1202 -1.2316
  194MPD1    H1 2955   1.374   0.497   0.183  0.3379  1.6284  0.0532
  194MPD1    H2 2956   1.081   0.479  17.585  0.3814  1.6490  0.6751
  194MPD1    H3 2957   1.140   0.537   0.105 -0.4008 -0.4192  0.3598
  194MPD1     N 2958   1.579   0.406   0.044 -0.9601 -0.2961 -0.3420
  194MPD1    H5 2959   1.588   0.422   0.144 -1.0373  0.9241 -0.5256
  194MPD1    N1 2960   1.218   0.373  17.394 -0.1709  0.2643  0.1403
  194MPD1    H6 2961   1.120   0.346  17.383 -0.0223 -0.4140  0.5000
  194MPD1    H7 2962   1.273   0.312  17.333 -1.5420  1.5961 -2.4148
  195MPD1     C 2963   3.822   3.155   0.433 -0.9685  0.0625 -0.4657
  195MPD1    C1 2964   3.926   3.145   0.529 -0.3294  1.1939  0.3222
  195MPD1    C2 2965   3.958   3.020   0.580  0.2055  0.4893  0.6170
  195MPD1    C3 2966   3.886   2.907   0.547 -0.4218 -0.2969 -0.0637
  195MPD1    C4 2967   3.776   2.921   0.466 -0.1881  0.1746  0.1561
  195MPD1    C5 2968   3.748   3.039   0.409  0.2212  0.0784  0.1099
  195MPD1     H 2969   4.040   3.011   0.651 -0.8326  1.7107  1.9537
  195MPD1    H1 2970   3.721   2.833   0.435  2.1023 -1.1474 -0.1785
  195MPD1    H2 2971   3.809   3.255   0.394 -1.5036  0.1346 -0.1079
  195MPD1    H3 2972   3.667   3.041   0.337 -0.6597  2.3363  1.1608
  195MPD1     N 2973   3.918   2.776   0.594 -0.1869  0.4270 -1.1127
  195MPD1    H5 2974   3.850   2.701   0.587  0.0683  0.4086 -3.5592
  195MPD1    N1 2975   4.017   3.245   0.540  0.2458 -0.5514  0.0981
  195MPD1    H6 2976   3.979   3.339   0.543 -1.0438 -1.0418 -1.2224
  195MPD1    H7 2977   4.077   3.239   0.623  0.8353  1.7168 -0.1735
  196MPD1     C 2978   2.953   1.134   1.007  0.0235 -0.2606  0.0350
  196MPD1    C1 2979   2.985   1.260   0.954 -0.7930  1.4561 -0.7114
  196MPD1    C2 2980   3.069   1.343   1.035  0.4173 -0.6157 -0.1205
  196MPD1    C3 2981   3.092   1.313   1.165  0.1738 -0.4657  0.7494
  196MPD1    C4 2982   3.058   1.191   1.216  0.5623 -0.8014 -0.3363
  196MPD1    C5 2983   2.984   1.104   1.136 -0.1479  0.1913  0.8256
  196MPD1     H 2984   3.105   1.436   0.992  1.7329  0.0299  2.4067
  196MPD1    H1 2985   3.098   1.150   1.308  0.1351  0.4500  0.3992
  196MPD1    H2 2986   2.893   1.064   0.951  1.1361 -0.0002 -1.4587
  196MPD1    H3 2987   2.953   1.005   1.168 -0.5479 -0.1327 -0.5639
  196MPD1     N 2988   3.179   1.392   1.246  0.2341 -0.2086 -0.3879
  196MPD1    H5 2989   3.220   1.351   1.329 -1.4697 -0.3683  0.3874
  196MPD1    N1 2990   2.959   1.280   0.824  0.0543  0.6637 -0.2193
  196MPD1    H6 2991   2.862   1.255   0.806  1.1058 -1.1785 -3.3498
  196MPD1    H7 2992   2.970   1.376   0.793  1.2316  0.1213 -1.4996
  197MPD1     C 2993   3.006   3.980   0.283  0.2952 -0.0756 -0.2178
  197MPD1    C1 2994   2.978   4.107   0.320  0.3054  0.2627 -0.7686
  197MPD1    C2 2995   2.991   4.208   0.229  0.4848  0.2857 -0.1933
  197MPD1    C3 2996   3.042   4.183   0.102 -0.6512 -0.7136  0.0967
  197MPD1    C4 2997   3.071   4.054   0.063 -0.9066 -0.5941 -0.0201
  197MPD1    C5 2998   3.053   3.955   0.153  0.0133 -0.6534  0.4024
  197MPD1     H 2999   2.963   4.305   0.268 -3.2230 -0.0453 -2.0145
  197MPD1    H1 3000   3.115   4.035  17.663  3.0129  0.0214  1.6650
  197MPD1    H2 3001   2.990   3.894   0.347  0.1378  0.5713  0.6191
  197MPD1    H3 3002   3.083   3.856   0.120  1.2682 -0.3685  0.6628
  197MPD1     N 3003   3.071   4.287   0.013  0.6960 -0.4897  0.5397
  197MPD1    H5 3004   3.099   4.256  17.618 -0.3116  0.6336 -0.1372
  197MPD1    N1 3005   2.910   4.133   0.443 -0.1108 -0.0362 -0.5793
  197MPD1    H6 3006   2.940   4.225   0.474  2.7002 -0.3701 -2.3359
  197MPD1    H7 3007   2.937   4.064   0.512  0.0189  1.3066  0.7086
  198MPD1     C 3008   4.510   3.602  16.541 -0.4442  0.3598  0.0965
  198MPD1    C1 3009   4.552   3.491  16.615  0.5370  0.7038 -0.0781
  198MPD1    C2 3010   4.649   3.409  16.556  0.5895  0.6528  0.2766
  198MPD1    C3 3011   4.670   3.420  16.421  0.4975 -0.1272 -0.0706
  198MPD1    C4 3012   4.606   3.511  16.348  0.0520 -1.0142 -0.5841
  198MPD1    C5 3013   4.527   3.604  16.407  0.8639 -0.5306 -0.5371
  198MPD1     H 3014   4.705   3.338  16.617 -0.0950  0.1894  0.3660
  198MPD1    H1 3015   4.612   3.509  16.240  1.6267 -1.4705 -0.4814
  198MPD1    H2 3016   4.461   3.686  16.589  0.7561  0.8570  0.4552
  198MPD1    H3 3017   4.484   3.689  16.355  0.9023 -0.3328 -0.2479
  198MPD1     N 3018   0.048   3.336  16.358  1.1138 -0.3121 -0.4610
  198MPD1    H5 3019   0.099   3.272  16.419  1.8442  0.1356 -0.6013
  198MPD1    N1 3020   4.526   3.491  16.752 -0.4490  0.1798  0.4246
  198MPD1    H6 3021   4.526   3.403  16.803  0.7205  0.0356  0.1585
  198MPD1    H7 3022   4.432   3.525  16.774 -1.1160  0.5099 -2.9999
  199MPD1     C 3023   2.030   4.311  10.820  0.0199  0.5683  0.0060
  199MPD1    C1 3024   1.958   4.204  10.773 -0.1247 -0.5661 -0.1669
  199MPD1    C2 3025   1.874   4.221  10.665  0.4322 -0.0702  0.2543
  199MPD1    C3 3026   1.873   4.342  10.587  0.6689 -0.1685 -0.7461
  199MPD1    C4 3027   1.951   4.443  10.637  0.3217  0.1288  0.2874
  199MPD1    C5 3028   2.028   4.427  10.752 -0.2697  0.9809  0.2482
  199MPD1     H 3029   1.833   4.129  10.625 -1.0354  0.7133 -0.0388
  199MPD1    H1 3030   1.945   4.539  10.587 -0.9240 -0.5556 -0.8571
  199MPD1    H2 3031   2.095   4.300  10.905 -1.1415  0.7568  0.9186
  199MPD1    H3 3032   2.086   4.510  10.789 -2.8452  2.2649  1.4198
  199MPD1     N 3033   1.804   4.364  10.466 -0.0048 -0.5168 -0.2323
  199MPD1    H5 3034   1.826   4.455  10.426 -1.4365  0.2522  0.7262
  199MPD1    N1 3035   1.947   4.092  10.853 -0.3904  0.3621  0.2627
  199MPD1    H6 3036   1.917   4.013  10.795  1.4715  1.2632 -1.9716
  199MPD1    H7 3037   2.036   4.072  10.898 -1.9357 -0.4299  2.9548
  200MPD1     C 3038   1.696   3.886  15.629  0.5368 -0.8493 -0.9874
  200MPD1    C1 3039   1.603   3.829  15.545 -0.7284  0.0216  0.0544
  200MPD1    C2 3040   1.583   3.889  15.424  0.2594  0.5449 -0.0758
  200MPD1    C3 3041   1.643   4.014  15.388 -0.1784  0.1859  0.1142
  200MPD1    C4 3042   1.708   4.080  15.490 -0.3485 -0.2242  0.4555
  200MPD1    C5 3043   1.748   4.006  15.600 -0.2538 -0.3552 -0.0593
  200MPD1     H 3044   1.535   3.828  15.347 -0.3623 -2.2413  2.5054
  200MPD1    H1 3045   1.761   4.174  15.481  0.8917 -0.7181  2.7297
  200MPD1    H2 3046   1.731   3.847  15.724  0.4834 -0.7324 -0.9188
  200MPD1    H3 3047   1.826   4.042  15.665 -0.7400  1.8051 -0.6668
  200MPD1     N 3048   1.644   4.061  15.255  0.2848  0.4204 -0.2278
  200MPD1    H5 3049   1.601   3.993  15.192  2.2190 -0.4297 -0.6329
  200MPD1    N1 3050   1.571   3.692  15.568 -0.1464  0.3211 -0.0720
  200MPD1    H6 3051   1.474   3.674  15.541 -0.3899 -0.2658  1.2167
  200MPD1    H7 3052   1.588   3.665  15.664 -0.5642  1.4186  0.3085
  201MPD1     C 3053   3.626   3.347  12.890 -0.2137 -0.3925 -0.1627
  201MPD1    C1 3054   3.611   3.231  12.816 -0.2528  0.2423  0.1457
  201MPD1    C2 3055   3.641   3.114  12.879 -0.6872 -0.2530  0.5457
  201MPD1    C3 3056   3.670   3.108  13.017  0.3093 -0.5629 -0.7476
  201MPD1    C4 3057   3.682   3.229  13.090  0.4868  0.2665 -0.7763
  201MPD1    C5 3058   3.663   3.353  13.027  0.8902 -0.1539 -0.3393
  201MPD1     H 3059   3.646   3.024  12.820 -2.5696  1.5590 -2.3622
  201MPD1    H1 3060   3.711   3.230  13.195  0.6185  1.3922 -0.8251
  201MPD1    H2 3061   3.615   3.438  12.831 -1.6954 -0.4819 -0.0056
  201MPD1    H3 3062   3.674   3.443  13.086  0.6435 -1.0887  1.1418
  201MPD1     N 3063   3.696   2.980  13.071 -0.1365 -0.7016 -0.8376
  201MPD1    H5 3064   3.665   2.906  13.008 -0.5071  0.8442 -2.4758
  201MPD1    N1 3065   3.595   3.233  12.679  0.5137 -0.1301  0.0210
  201MPD1    H6 3066   3.550   3.318  12.647 -0.6973 -0.3437  1.1303
  201MPD1    H7 3067   3.547   3.150  12.647  1.8119 -1.9926  2.8902
  202MPD1     C 3068   2.848   2.942   9.149 -0.3747  0.3697  0.7892
  202MPD1    C1 3069   2.813   2.809   9.172 -0.0420  0.0683  0.7830
  202MPD1    C2 3070   2.868   2.753   9.288 -0.1799 -0.3073  0.0155
  202MPD1    C3 3071   2.920   2.838   9.389 -0.4995 -0.7969  0.5252
  202MPD1    C4 3072   2.931   2.973   9.373 -0.4093 -0.3069  0.8954
  202MPD1    C5 3073   2.898   3.027   9.248 -0.6968 -0.4840 -0.3936
  202MPD1     H 3074   2.838   2.654   9.318 -0.7374 -0.2877 -0.4636
  202MPD1    H1 3075   2.964   3.038   9.453  0.7999 -0.1215  0.2468
  202MPD1    H2 3076   2.826   2.997   9.058 -1.2002 -1.6185 -0.2330
  202MPD1    H3 3077   2.916   3.133   9.231 -0.0531 -0.7373 -1.3167
  202MPD1     N 3078   2.958   2.790   9.512  0.8403  0.4382  0.4595
  202MPD1    H5 3079   3.003   2.859   9.571 -1.4515  2.2322  0.0945
  202MPD1    N1 3080   2.771   2.725   9.066  0.0242 -0.3353 -0.8099
  202MPD1    H6 3081   2.723   2.640   9.097 -1.0938  0.2209 -1.0397
  202MPD1    H7 3082   2.719   2.765   8.989  0.6977  2.5248  0.2215
  203MPD1     C 3083   1.643   3.257  12.480  0.2934  0.2285 -0.2898
  203MPD1    C1 3084   1.746   3.177  12.429  0.3830  0.2801  0.6006
  203MPD1    C2 3085   1.819   3.112  12.522  0.3569  0.0833 -0.4576
  203MPD1    C3 3086   1.794   3.125  12.658  0.2619  0.7284  0.1394
  203MPD1    C4 3087   1.708   3.217  12.707  0.8325 -0.4909  0.0129
  203MPD1    C5 3088   1.628   3.285  12.619  0.1982 -0.3931 -0.5035
  203MPD1     H 3089   1.899   3.044  12.495  3.1184  2.5510  1.6068
  203MPD1    H1 3090   1.687   3.233  12.812  1.3962 -1.1356  0.2245
  203MPD1    H2 3091   1.569   3.301  12.414 -0.5214 -0.1449  0.3777
  203MPD1    H3 3092   1.543   3.347  12.645 -0.2262 -1.0210 -0.3821
  203MPD1     N 3093   1.869   3.040  12.746  0.0013 -0.2856 -0.2719
  203MPD1    H5 3094   1.943   2.984  12.704  1.1511  1.2374 -0.2692
  203MPD1    N1 3095   1.759   3.151  12.290  0.0932 -0.3015  0.0462
  203MPD1    H6 3096   1.740   3.225  12.223  2.8298  0.3561  0.0171
  203MPD1    H7 3097   1.847   3.108  12.262  0.7101  2.1694 -1.8452
  204MPD1     C 3098   2.689   4.293   0.043 -0.0394 -0.3385  0.3674
  204MPD1    C1 3099   2.630   4.403  17.682  0.1130 -0.0614  0.2470
  204MPD1    C2 3100   2.501   4.390  17.640  0.8373  0.1997  0.3800
  204MPD1    C3 3101   2.431   4.276  17.681  0.0606 -0.0680 -0.1654
  204MPD1    C4 3102   2.493   4.163   0.035 -0.2276  0.0444  0.4165
  204MPD1    C5 3103   2.626   4.175   0.064  0.0409  0.3370 -0.1910
  204MPD1     H 3104   2.447   4.467  17.584  0.2631  1.2969  2.4239
  204MPD1    H1 3105   2.438   4.069   0.035  0.3476 -0.2906 -1.1053
  204MPD1    H2 3106   2.796   4.289   0.056  0.0862  0.3585 -0.4201
  204MPD1    H3 3107   2.677   4.082   0.087  0.3572  0.7280  0.6662
  204MPD1     N 3108   2.290   4.271  17.651 -0.2831  0.2176  0.2463
  204MPD1    H5 3109   2.259   4.331  17.574  0.4015  1.1193  0.6754
  204MPD1    N1 3110   2.715   4.512  17.642 -0.1592  0.0777 -0.0068
  204MPD1    H6 3111   2.781   4.544   0.014 -1.4206  0.5298  0.9850
  204MPD1    H7 3112   2.656   4.589  17.611  0.0292  0.0071 -0.5493
  205MPD1     C 3113   2.971   3.227  17.063  0.2353  0.0370  0.3245
  205MPD1    C1 3114   2.894   3.326  17.011  0.8005  0.0046 -0.1825
  205MPD1    C2 3115   2.767   3.333  17.055 -0.0879  0.8459  0.0055
  205MPD1    C3 3116   2.716   3.239  17.141  0.4224 -0.2523 -0.3355
  205MPD1    C4 3117   2.794   3.143  17.191 -1.1282  0.9124  0.3061
  205MPD1    C5 3118   2.922   3.138  17.153 -0.8059 -0.0156  0.9894
  205MPD1     H 3119   2.704   3.411  17.014  1.6465  1.3240 -1.7440
  205MPD1    H1 3120   2.759   3.069  17.262  0.5302 -0.0360  0.1356
  205MPD1    H2 3121   3.075   3.227  17.034  0.2120 -0.5457  0.2539
  205MPD1    H3 3122   2.989   3.072  17.206 -2.2181  0.1969  3.0403
  205MPD1     N 3123   2.584   3.232  17.185  0.2191 -0.4101 -0.6321
  205MPD1    H5 3124   2.561   3.172  17.263 -0.8964  0.9801  0.1217
  205MPD1    N1 3125   2.945   3.430  16.935  0.4566 -0.0047 -0.1413
  205MPD1    H6 3126   3.033   3.403  16.891  0.7256 -0.3303  0.6051
  205MPD1    H7 3127   2.881   3.458  16.861 -1.2103  1.0530  1.7418
  206MPD1     C 3128   2.242   1.742  16.725 -0.1028 -0.0018  0.1393
  206MPD1    C1 3129   2.110   1.785  16.733  0.2499 -0.4797  0.0710
  206MPD1    C2 3130   2.028   1.765  16.625  0.2182 -0.2781  0.1799
  206MPD1    C3 3131   2.076   1.714  16.506 -0.9315  0.2815  0.0792
  206MPD1    C4 3132   2.212   1.681  16.498 -1.0746  0.0212 -0.3586
  206MPD1    C5 3133   2.294   1.692  16.607  0.2212  0.1866  0.4473
  206MPD1     H 3134   1.925   1.799  16.633  0.4877  0.4976  0.3780
  206MPD1    H1 3135   2.274   1.657  16.413  0.5926 -2.2162  1.4822
  206MPD1    H2 3136   2.306   1.750  16.813  0.5198  0.7546 -0.3824
  206MPD1    H3 3137   2.400   1.671  16.597  0.1232  0.6665 -1.6071
  206MPD1     N 3138   1.995   1.695  16.393  0.2021  0.2785 -0.4096
  206MPD1    H5 3139   2.041   1.665  16.307 -1.5024  1.0570 -1.5943
  206MPD1    N1 3140   2.058   1.833  16.854 -0.1918  0.2711  0.1920
  206MPD1    H6 3141   2.114   1.895  16.912 -1.8153  2.2448 -0.3346
  206MPD1    H7 3142   1.970   1.881  16.835 -1.2105 -1.6044  0.1504
  207MPD1     C 3143   3.084   3.358  10.169  0.3138  0.9967  0.6276
  207MPD1    C1 3144   3.128   3.264  10.258  0.0429 -0.2998 -0.5746
  207MPD1    C2 3145   3.250   3.285  10.317 -0.5919 -0.4075 -0.0685
  207MPD1    C3 3146   3.333   3.388  10.274 -0.3764 -0.4280  1.8400
  207MPD1    C4 3147   3.290   3.472  10.167  0.5049 -0.0220  0.1095
  207MPD1    C5 3148   3.164   3.454  10.112 -0.4767  0.6717  0.5989
  207MPD1     H 3149   3.277   3.225  10.404 -0.4679 -0.5233 -0.1875
  207MPD1    H1 3150   3.354   3.550  10.128  0.2373 -0.4079 -1.0944
  207MPD1    H2 3151   2.979   3.355  10.141  1.5211 -2.4663 -3.4364
  207MPD1    H3 3152   3.129   3.518  10.032  0.2944 -0.1148 -0.3585
  207MPD1     N 3153   3.462   3.411  10.321 -0.7537 -0.1973  0.4949
  207MPD1    H5 3154   3.522   3.490  10.302 -0.4559 -0.2235  1.2990
  207MPD1    N1 3155   3.044   3.173  10.328  0.6195 -0.9392  0.1340
  207MPD1    H6 3156   2.961   3.147  10.277  0.1462 -1.4145  1.1493
  207MPD1    H7 3157   3.093   3.087  10.352 -0.3981 -1.8028 -0.9191
  208MPD1     C 3158   3.212   3.031  17.644  0.3185 -0.7511  0.2790
  208MPD1    C1 3159   3.080   3.031  17.607  0.4732  0.7079  0.0606
  208MPD1    C2 3160   2.993   2.957  17.679 -0.0582  0.1770 -0.4014
  208MPD1    C3 3161   3.033   2.885   0.089 -0.2893  0.7022 -0.4036
  208MPD1    C4 3162   3.161   2.888   0.133 -0.3924 -0.7504  0.0198
  208MPD1    C5 3163   3.251   2.960   0.056 -0.4400  0.7420  0.0714
  208MPD1     H 3164   2.889   2.944  17.651 -0.6147  0.8426  1.3269
  208MPD1    H1 3165   3.193   2.847   0.228 -1.1812 -0.5472  0.3673
  208MPD1    H2 3166   3.287   3.090  17.594 -0.3752 -0.1728 -0.0790
  208MPD1    H3 3167   3.355   2.973   0.084  0.1217  1.2439 -2.2411
  208MPD1     N 3168   2.931   2.802   0.157  0.3885  0.1861 -0.2627
  208MPD1    H5 3169   2.838   2.807   0.118  0.5102  1.1955 -0.4147
  208MPD1    N1 3170   3.044   3.074  17.477 -0.3944  0.1267  0.7803
  208MPD1    H6 3171   3.048   2.987  17.424 -0.5334  0.9038 -0.4884
  208MPD1    H7 3172   2.946   3.103  17.477 -0.0165  1.3993 -0.6489
  209MPD1     C 3173   4.579   2.412  11.463  0.6235 -0.4390  0.3163
  209MPD1    C1 3174   4.514   2.442  11.348  0.0106 -0.2565 -0.6358
  209MPD1    C2 3175   4.438   2.557  11.335  0.2893 -0.2506  0.3670
  209MPD1    C3 3176   4.408   2.638  11.438 -0.4998 -0.3060 -0.7674
  209MPD1    C4 3177   4.456   2.598  11.562 -0.3353 -0.0300 -0.0178
  209MPD1    C5 3178   4.555   2.494  11.574  0.0332  0.7821 -0.0291
  209MPD1     H 3179   4.404   2.572  11.233  0.1075 -2.4824  0.0953
  209MPD1    H1 3180   4.430   2.646  11.655 -1.2680  0.5825 -0.5996
  209MPD1    H2 3181   4.642   2.325  11.474  0.1351 -0.7464  0.6719
  209MPD1    H3 3182   4.599   2.475  11.672  0.6954 -1.1472 -0.6935
  209MPD1     N 3183   4.316   2.739  11.412 -0.2614  0.5239 -0.4044
  209MPD1    H5 3184   4.304   2.771  11.316  0.7475 -2.7431 -1.6081
  209MPD1    N1 3185   4.548   2.372  11.231  0.0328 -0.4287 -0.2136
  209MPD1    H6 3186   4.566   2.273  11.247 -1.6522 -0.5346  0.9971
  209MPD1    H7 3187   4.486   2.387  11.151  2.1398  2.9072 -1.2168
  210MPD1     C 3188   4.206   3.787  11.694  0.1711  0.4251  0.5940
  210MPD1    C1 3189   4.234   3.676  11.775 -0.5329 -0.1247 -0.1168
  210MPD1    C2 3190   4.234   3.551  11.713 -0.2898 -0.1490 -0.1468
  210MPD1    C3 3191   4.183   3.527  11.586 -0.0627 -0.8950 -0.3504
  210MPD1    C4 3192   4.151   3.638  11.511 -0.2486  0.5173  0.0389
  210MPD1    C5 3193   4.164   3.768  11.564 -0.1755  0.9630  0.3057
  210MPD1     H 3194   4.264   3.470  11.778 -0.8341 -1.3965 -1.4448
  210MPD1    H1 3195   4.117   3.616  11.411 -3.9911 -3.0645  2.0777
  210MPD1    H2 3196   4.226   3.888  11.729  1.4856  0.0820  0.8321
  210MPD1    H3 3197   4.139   3.857  11.507 -1.3631  0.0883 -0.5427
  210MPD1     N 3198   4.171   3.401  11.521  0.5520 -0.5384  0.1030
  210MPD1    H5 3199   4.139   3.398  11.424  3.4921  1.0537 -0.9151
  210MPD1    N1 3200   4.276   3.693  11.910  0.0854 -0.6156  0.0317
  210MPD1    H6 3201   4.222   3.773  11.942  1.2803  0.2407 -0.0805
  210MPD1    H7 3202   4.251   3.618  11.974 -1.7030 -0.4192 -0.4528
  211MPD1     C 3203   2.845   2.891  16.741  0.8184  0.3503  0.3549
  211MPD1    C1 3204   2.726   2.824  16.717  0.3798  1.3680  0.7355
  211MPD1    C2 3205   2.605   2.899  16.721 -0.3301  0.1968 -0.7088
  211MPD1    C3 3206   2.607   3.036  16.742  0.9399  0.5794  0.5824
  211MPD1    C4 3207   2.726   3.101  16.756  0.0172 -0.4773 -0.1375
  211MPD1    C5 3208   2.843   3.030  16.750 -0.0155 -0.2496  0.1652
  211MPD1     H 3209   2.509   2.852  16.703 -0.3872 -0.9746  2.7534
  211MPD1    H1 3210   2.740   3.208  16.764 -2.3841 -0.1930  0.3546
  211MPD1    H2 3211   2.937   2.836  16.722  0.1043 -0.7477  0.0683
  211MPD1    H3 3212   2.939   3.079  16.766  0.1574 -1.2877  2.3182
  211MPD1     N 3213   2.486   3.106  16.749  0.3162 -0.2511 -0.7816
  211MPD1    H5 3214   2.398   3.056  16.751 -0.4097  1.0458 -0.2122
  211MPD1    N1 3215   2.723   2.683  16.716  0.2127 -0.0526  0.4428
  211MPD1    H6 3216   2.810   2.649  16.675  0.2991  0.1083  0.4917
  211MPD1    H7 3217   2.648   2.646  16.658  0.6351  0.3149 -0.3414
  212MPD1     C 3218   1.904   1.388  16.773 -0.9217 -0.2748  0.0685
  212MPD1    C1 3219   1.820   1.464  16.837  0.1210  0.1849 -0.6226
  212MPD1    C2 3220   1.727   1.411  16.928  0.0311 -0.3577 -0.3094
  212MPD1    C3 3221   1.720   1.271  16.958  0.2928  0.0530 -0.1750
  212MPD1    C4 3222   1.827   1.200  16.903  0.1190 -0.3042  0.1095
  212MPD1    C5 3223   1.911   1.259  16.811 -0.1446  0.6082 -0.1670
  212MPD1     H 3224   1.649   1.477  16.965 -1.5416 -1.9640 -0.7419
  212MPD1    H1 3225   1.842   1.097  16.932  0.4028 -1.1086 -2.9076
  212MPD1    H2 3226   1.979   1.420  16.702 -0.7568 -0.5293  0.1243
  212MPD1    H3 3227   1.995   1.203  16.772 -0.6216 -0.9297  1.0053
  212MPD1     N 3228   1.623   1.210  17.043 -0.2501  0.2344  0.6177
  212MPD1    H5 3229   1.633   1.110  17.050  1.3706  0.4445  1.4349
  212MPD1    N1 3230   1.799   1.587  16.777 -0.3986  0.3382  0.1943
  212MPD1    H6 3231   1.884   1.618  16.731 -1.2164  0.8597 -0.9895
  212MPD1    H7 3232   1.775   1.647  16.856  0.4705  0.6906  0.1818
  213MPD1     C 3233   4.360   1.873  15.946  0.3033  0.0050 -1.0698
  213MPD1    C1 3234   4.286   1.788  15.865 -0.3393  0.0457 -0.2182
  213MPD1    C2 3235   4.252   1.842  15.742 -0.2775  0.2594  0.4628
  213MPD1    C3 3236   4.263   1.982  15.718 -0.9621 -0.4037  0.2445
  213MPD1    C4 3237   4.305   2.065  15.823 -0.2591 -0.1460 -0.4869
  213MPD1    C5 3238   4.347   2.007  15.937 -0.3859  0.2309  0.4920
  213MPD1     H 3239   4.224   1.776  15.661  0.0458 -1.5072  1.7725
  213MPD1    H1 3240   4.299   2.173  15.817 -0.8782 -0.1856 -0.6333
  213MPD1    H2 3241   4.389   1.830  16.042  0.2127  1.4511 -0.3941
  213MPD1    H3 3242   4.370   2.068  16.024  0.5369  0.1014  0.3412
  213MPD1     N 3243   4.237   2.015  15.585  0.0796  0.3754 -0.3223
  213MPD1    H5 3244   4.230   1.942  15.514 -1.3255 -0.2946  0.4866
  213MPD1    N1 3245   4.308   1.649  15.877 -0.6261 -0.7705 -0.4171
  213MPD1    H6 3246   4.237   1.591  15.832 -0.3157 -0.6815 -1.0206
  213MPD1    H7 3247   4.307   1.622  15.975  1.3348 -0.2329 -0.2585
  214MPD1     C 3248   3.657   1.653  15.152  0.1736 -0.0213  0.3753
  214MPD1    C1 3249   3.665   1.767  15.074  0.4114 -0.3246 -0.0292
  214MPD1    C2 3250   3.759   1.859  15.102  0.2886 -0.2693  0.1173
  214MPD1    C3 3251   3.858   1.836  15.195  0.1452 -0.1176 -0.2891
  214MPD1    C4 3252   3.856   1.722  15.273 -0.0249  0.2890  0.0402
  214MPD1    C5 3253   3.752   1.632  15.255  0.1598  0.5298 -0.1235
  214MPD1     H 3254   3.759   1.951  15.045  2.1935  1.1556  2.4004
  214MPD1    H1 3255   3.931   1.695  15.347  1.4243  1.1765 -1.1117
  214MPD1    H2 3256   3.579   1.580  15.138 -0.3422  0.7055 -0.5307
  214MPD1    H3 3257   3.741   1.550  15.324  1.1086  1.6349  1.3328
  214MPD1     N 3258   3.955   1.933  15.223  0.7903  0.1224 -0.3579
  214MPD1    H5 3259   4.021   1.910  15.296  1.8869  0.1195 -1.3556
  214MPD1    N1 3260   3.562   1.791  14.982  0.5805 -0.2299  0.1845
  214MPD1    H6 3261   3.598   1.826  14.894  2.2232  0.4190  1.1034
  214MPD1    H7 3262   3.511   1.705  14.964 -0.1550  0.3455 -0.4535
  215MPD1     C 3263   3.070   2.814  10.551  0.0031  1.1074 -0.2818
  215MPD1    C1 3264   3.174   2.873  10.473  0.4197 -0.1949  0.1143
  215MPD1    C2 3265   3.280   2.927  10.547  0.7186 -0.0585 -0.0407
  215MPD1    C3 3266   3.283   2.921  10.680  1.1228 -0.0331  0.7079
  215MPD1    C4 3267   3.181   2.869  10.745  0.8767  0.4932 -0.1180
  215MPD1    C5 3268   3.073   2.810  10.686  0.1317 -0.5026 -0.2213
  215MPD1     H 3269   3.362   2.969  10.489  0.0884 -0.0411 -0.9269
  215MPD1    H1 3270   3.182   2.856  10.853  1.6199  1.1374 -0.0435
  215MPD1    H2 3271   2.981   2.772  10.507 -1.2025 -0.0401  3.2430
  215MPD1    H3 3272   2.989   2.772  10.742  0.2745  0.4624  0.6543
  215MPD1     N 3273   3.398   2.978  10.743  0.1858  0.5512  0.3811
  215MPD1    H5 3274   3.475   3.003  10.682  0.2957 -0.0036  0.2947
  215MPD1    N1 3275   3.155   2.912  10.337 -0.4879  0.4687  0.2623
  215MPD1    H6 3276   3.235   2.930  10.277  0.3804  2.5189  2.0234
  215MPD1    H7 3277   3.092   2.847  10.291 -0.3013 -0.0850  0.7989
  216MPD1     C 3278   1.704   0.449   1.086  0.2127  0.5040 -0.7953
  216MPD1    C1 3279   1.829   0.393   1.076  0.1346 -0.5854  0.1463
  216MPD1    C2 3280   1.865   0.350   0.957  0.3024  0.5629  0.2535
  216MPD1    C3 3281   1.777   0.360   0.849 -0.6340  0.5946 -0.3142
  216MPD1    C4 3282   1.652   0.422   0.862 -1.6079 -1.3055  0.6224
  216MPD1    C5 3283   1.618   0.476   0.985  0.4131  0.3249  0.2359
  216MPD1     H 3284   1.966   0.313   0.945 -0.5261 -1.7919  0.5231
  216MPD1    H1 3285   1.580   0.429   0.782 -1.9553 -1.6517  0.9036
  216MPD1    H2 3286   1.679   0.491   1.182 -1.1435  0.1213 -0.9817
  216MPD1    H3 3287   1.519   0.518   0.996 -0.1222 -1.0299  0.5299
  216MPD1     N 3288   1.810   0.276   0.740  0.0838 -0.1794  0.0116
  216MPD1    H5 3289   1.897   0.225   0.744 -0.2595 -0.3906  3.9890
  216MPD1    N1 3290   1.912   0.380   1.191 -0.3048  0.4258 -0.2902
  216MPD1    H6 3291   2.010   0.359   1.175 -1.0195 -2.1701 -1.2748
  216MPD1    H7 3292   1.909   0.457   1.258 -0.8075 -0.0948  0.2779
  217MPD1     C 3293   1.821   1.876   8.900  0.3319 -0.2130  0.5913
  217MPD1    C1 3294   1.831   2.011   8.883 -0.1092 -0.0706 -0.1923
  217MPD1    C2 3295   1.913   2.073   8.981 -0.4392  0.0096 -0.2823
  217MPD1    C3 3296   1.973   2.010   9.086  0.7380  0.7667 -0.3036
  217MPD1    C4 3297   1.953   1.872   9.097 -0.1581 -0.1812 -0.6303
  217MPD1    C5 3298   1.873   1.811   9.003 -0.0178  0.1211  0.3466
  217MPD1     H 3299   1.934   2.178   8.969  0.1103 -0.3455 -2.5383
  217MPD1    H1 3300   2.004   1.804   9.164  0.8324 -0.0449 -1.2599
  217MPD1    H2 3301   1.765   1.817   8.829 -0.5276 -2.2461  2.9483
  217MPD1    H3 3302   1.860   1.703   9.012  2.2633 -0.0902  1.1240
  217MPD1     N 3303   2.058   2.075   9.181  0.0362 -0.2883 -0.4780
  217MPD1    H5 3304   2.101   2.011   9.246  1.5561  1.1836 -0.0347
  217MPD1    N1 3305   1.806   2.070   8.758  0.8091 -0.6951 -0.8460
  217MPD1    H6 3306   1.781   2.168   8.763  0.6812 -0.8210  1.0027
  217MPD1    H7 3307   1.722   2.040   8.709 -0.6609 -0.3665  1.4741
  218MPD1     C 3308   3.514   3.811  12.652 -0.4543 -0.0162 -0.4058
  218MPD1    C1 3309   3.592   3.788  12.545 -0.6088  0.2591 -0.0133
  218MPD1    C2 3310   3.707   3.713  12.563  0.2181  0.4489 -0.3599
  218MPD1    C3 3311   3.736   3.657  12.692 -0.3515 -0.9986 -0.3539
  218MPD1    C4 3312   3.651   3.687  12.800 -0.1726  1.0789  0.2106
  218MPD1    C5 3313   3.539   3.766  12.778 -0.2018 -0.0057  0.2389
  218MPD1     H 3314   3.770   3.697  12.477  0.9463 -0.6767  0.3709
  218MPD1    H1 3315   3.666   3.649  12.901 -0.6797  0.5690  0.0965
  218MPD1    H2 3316   3.427   3.875  12.651  1.7901  3.0788 -0.8802
  218MPD1    H3 3317   3.465   3.794  12.852 -0.0195 -0.3130  0.5393
  218MPD1     N 3318   3.858   3.588  12.708  0.1058  0.2781  0.2506
  218MPD1    H5 3319   3.906   3.557  12.624 -0.0457  1.1776 -0.1676
  218MPD1    N1 3320   3.557   3.841  12.419 -0.4175  0.1884 -0.6116
  218MPD1    H6 3321   3.578   3.783  12.338  3.2670 -0.1037  0.5586
  218MPD1    H7 3322   3.463   3.879  12.410 -0.5724 -0.4324 -1.6108
  219MPD1     C 3323   4.296   3.312  12.073  0.8081 -0.4667 -0.1594
  219MPD1    C1 3324   4.378   3.258  12.166 -0.3950  0.1293  0.5512
  219MPD1    C2 3325   4.336   3.247  12.295 -0.4905 -0.1931  0.3293
  219MPD1    C3 3326   4.210   3.291  12.332 -1.0581  0.3036  0.1490
  219MPD1    C4 3327   4.126   3.346  12.235 -0.4172 -0.4110  0.0553
  219MPD1    C5 3328   4.169   3.355  12.104  0.8604  0.0852  0.0882
  219MPD1     H 3329   4.400   3.205  12.372  0.2701 -1.3260 -0.9184
  219MPD1    H1 3330   4.027   3.382  12.262 -1.0028 -0.6090 -1.8674
  219MPD1    H2 3331   4.322   3.308  11.968  1.7144  1.7981 -0.0115
  219MPD1    H3 3332   4.108   3.382  12.019 -0.5776 -1.0367  0.7594
  219MPD1     N 3333   4.163   3.301  12.463 -0.8289 -0.0681 -0.0570
  219MPD1    H5 3334   4.080   3.354  12.483  0.1306  1.5960 -0.4824
  219MPD1    N1 3335   4.511   3.235  12.121  0.5009 -0.3750 -0.4632
  219MPD1    H6 3336   4.561   3.175  12.187  0.0406 -0.7321 -0.4409
  219MPD1    H7 3337   4.523   3.204  12.025 -0.8023  1.2642 -1.1597
  220MPD1     C 3338   2.776   4.177   9.729 -0.2641 -0.7772 -0.0969
  220MPD1    C1 3339   2.689   4.166   9.840 -0.0175 -0.2562  0.3480
  220MPD1    C2 3340   2.709   4.068   9.935  0.6226  0.7063 -0.0360
  220MPD1    C3 3341   2.821   3.983   9.924 -0.0076 -0.5375  1.0180
  220MPD1    C4 3342   2.923   4.021   9.832 -0.0001 -0.1820 -0.2075
  220MPD1    C5 3343   2.894   4.115   9.736  0.1574  0.1340 -0.4244
  220MPD1     H 3344   2.643   4.064  10.021 -0.6629  1.1251 -0.9969
  220MPD1    H1 3345   3.022   3.977   9.833 -0.8007 -1.9292  2.1973
  220MPD1    H2 3346   2.763   4.249   9.649  1.9871 -1.5511 -1.1620
  220MPD1    H3 3347   2.968   4.147   9.664  0.8192 -0.8296 -0.1795
  220MPD1     N 3348   2.848   3.886  10.017  0.0055 -0.5252  0.1517
  220MPD1    H5 3349   2.941   3.845  10.012  0.8516  1.6046 -1.5561
  220MPD1    N1 3350   2.571   4.250   9.843  0.3418  0.0283 -0.5219
  220MPD1    H6 3351   2.596   4.347   9.828 -0.7285  0.0593 -2.1368
  220MPD1    H7 3352   2.517   4.232   9.927  1.0779 -1.4051 -0.3534
  221MPD1     C 3353   1.642   2.083  16.861 -0.1734 -0.4626 -0.3312
  221MPD1    C1 3354   1.754   2.121  16.927  0.2139 -0.0048 -0.5402
  221MPD1    C2 3355   1.870   2.117  16.853 -0.2709  0.3941  0.4092
  221MPD1    C3 3356   1.868   2.084  16.718 -0.0277  0.6003  0.2821
  221MPD1    C4 3357   1.751   2.040  16.657 -1.1933 -0.8596  0.0668
  221MPD1    C5 3358   1.641   2.038  16.732  0.1972 -0.5710 -0.6209
  221MPD1     H 3359   1.950   2.167  16.907  2.0559 -1.1056 -1.6916
  221MPD1    H1 3360   1.754   2.033  16.549 -1.2566  0.0266  0.0102
  221MPD1    H2 3361   1.542   2.101  16.899  0.1955  0.0344  0.3982
  221MPD1    H3 3362   1.547   2.019  16.681  0.2452 -0.9864 -0.5585
  221MPD1     N 3363   1.988   2.096  16.636  0.0609  0.0454  0.0826
  221MPD1    H5 3364   1.978   2.062  16.541  0.5415  0.4573 -0.1204
  221MPD1    N1 3365   1.748   2.174  17.061  0.0069 -0.5346 -0.1596
  221MPD1    H6 3366   1.829   2.172  17.123 -1.0179  1.8975  1.2487
  221MPD1    H7 3367   1.670   2.135  17.113 -0.7900 -0.6253 -1.4244
  222MPD1     C 3368   1.630   0.729  17.262  0.4601 -0.1949 -0.4461
  222MPD1    C1 3369   1.671   0.861  17.266  0.2114 -0.3291  0.4218
  222MPD1    C2 3370   1.608   0.937  17.362 -0.0540  0.5234 -0.2987
  222MPD1    C3 3371   1.532   0.882  17.467 -0.0206 -0.2354 -0.1490
  222MPD1    C4 3372   1.514   0.748  17.468  0.0126 -0.2803  0.5155
  222MPD1    C5 3373   1.556   0.678  17.365 -0.0465 -0.0756 -0.2137
  222MPD1     H 3374   1.635   1.042  17.372  1.2892  0.2203 -0.7060
  222MPD1    H1 3375   1.457   0.696  17.545 -2.9869  1.7584 -0.3415
  222MPD1    H2 3376   1.658   0.657  17.185  0.5173  0.2534 -0.8456
  222MPD1    H3 3377   1.537   0.572  17.363 -0.1796 -0.0723  0.8053
  222MPD1     N 3378   1.474   0.959  17.569  0.1707 -0.2820  0.2830
  222MPD1    H5 3379   1.403   0.911  17.624 -0.5688  0.3280 -0.1303
  222MPD1    N1 3380   1.742   0.922  17.157 -0.2620 -0.1213  0.7632
  222MPD1    H6 3381   1.783   0.853  17.096  2.6337  1.4593  0.9318
  222MPD1    H7 3382   1.807   0.996  17.183  0.8475 -0.6608 -0.5024
  223MPD1     C 3383   1.092   0.607   0.521  0.0069 -0.1705  0.5390
  223MPD1    C1 3384   1.191   0.578   0.429  0.2065 -0.7551  0.8670
  223MPD1    C2 3385   1.235   0.685   0.357  0.5202  0.0461  0.3239
  223MPD1    C3 3386   1.188   0.812   0.375  0.3639 -0.1374 -0.7035
  223MPD1    C4 3387   1.092   0.840   0.468  0.2913  0.1374 -0.2591
  223MPD1    C5 3388   1.047   0.738   0.545 -0.1451 -0.2266  0.0994
  223MPD1     H 3389   1.312   0.677   0.281 -1.6240 -0.2944 -1.8415
  223MPD1    H1 3390   1.059   0.940   0.491  0.5218 -0.3716  2.2564
  223MPD1    H2 3391   1.066   0.535   0.598  1.7747 -0.5627  0.7795
  223MPD1    H3 3392   0.983   0.766   0.628 -0.6954  1.7411 -0.9731
  223MPD1     N 3393   1.234   0.912   0.282  0.3323  0.2767 -0.1822
  223MPD1    H5 3394   1.304   0.877   0.218  0.9768 -1.2312  1.3295
  223MPD1    N1 3395   1.210   0.447   0.400 -0.0505 -0.6428  0.2660
  223MPD1    H6 3396   1.301   0.421   0.363  0.3252 -0.1617  0.8449
  223MPD1    H7 3397   1.195   0.395   0.486 -3.0189  0.0435  0.1809
  224MPD1     C 3398   2.410   2.524   9.070 -0.1102 -0.2370 -0.4603
  224MPD1    C1 3399   2.366   2.649   9.043 -0.1002  0.2520 -0.2077
  224MPD1    C2 3400   2.397   2.752   9.138 -0.4243  0.8781  1.0860
  224MPD1    C3 3401   2.477   2.721   9.252  0.2337 -0.3621 -0.1931
  224MPD1    C4 3402   2.528   2.592   9.267  0.0856 -0.0714  0.0810
  224MPD1    C5 3403   2.486   2.494   9.177  0.0468 -0.4843 -0.3413
  224MPD1     H 3404   2.368   2.854   9.116 -2.1753  0.4758  1.5234
  224MPD1    H1 3405   2.583   2.568   9.357 -0.2020  0.9528  0.5424
  224MPD1    H2 3406   2.386   2.437   9.009  1.3047 -0.8912 -0.1074
  224MPD1    H3 3407   2.523   2.394   9.197 -0.1808 -0.9004 -2.0202
  224MPD1     N 3408   2.514   2.821   9.346  0.0372 -0.4427 -0.1912
  224MPD1    H5 3409   2.561   2.781   9.426  1.1693 -1.5783 -1.4307
  224MPD1    N1 3410   2.266   2.671   8.947 -0.0057  0.0973  0.2457
  224MPD1    H6 3411   2.269   2.760   8.899  2.8631 -0.4088 -0.5105
  224MPD1    H7 3412   2.265   2.591   8.884  2.3670 -0.6719  1.1803
  225MPD1     C 3413   3.277   3.536  13.213  0.5119 -0.4717  0.3228
  225MPD1    C1 3414   3.303   3.667  13.182  0.6494  0.2741 -0.7920
  225MPD1    C2 3415   3.267   3.714  13.061  0.6751  0.3823  0.4821
  225MPD1    C3 3416   3.179   3.636  12.979  0.1191 -0.1899  0.0243
  225MPD1    C4 3417   3.151   3.509  13.013 -0.1043  0.2810  0.3925
  225MPD1    C5 3418   3.197   3.457  13.131 -0.1810 -0.5433 -0.1989
  225MPD1     H 3419   3.300   3.812  13.030 -1.4586  1.3221  1.1735
  225MPD1    H1 3420   3.087   3.446  12.952  1.8032 -0.2372 -1.0625
  225MPD1    H2 3421   3.316   3.482  13.298 -1.4491 -1.2904  0.6921
  225MPD1    H3 3422   3.175   3.356  13.161  1.0739 -0.6872  0.2515
  225MPD1     N 3423   3.138   3.680  12.854  0.0447 -0.0660 -0.1743
  225MPD1    H5 3424   3.062   3.628  12.810 -0.2711 -1.1717  1.6944
  225MPD1    N1 3425   3.390   3.743  13.261 -0.0325  0.2635 -0.4152
  225MPD1    H6 3426   3.382   3.844  13.253 -0.5480  0.2421 -0.1702
  225MPD1    H7 3427   3.376   3.719  13.359 -0.4715  0.4346 -0.4344
  226MPD1     C 3428   1.719   0.524   9.437 -0.5555  0.8402  0.7337
  226MPD1    C1 3429   1.634   0.423   9.408 -0.0735 -0.3838 -0.5397
  226MPD1    C2 3430   1.666   0.301   9.459  0.2551  0.1703  0.6530
  226MPD1    C3 3431   1.762   0.275   9.552 -0.1636 -0.2038  0.1478
  226MPD1    C4 3432   1.844   0.384   9.587  0.3633  0.4331  0.1758
  226MPD1    C5 3433   1.821   0.509   9.534  0.1565 -0.3320  0.3137
  226MPD1     H 3434   1.607   0.217   9.423  1.6658  0.0104 -1.2615
  226MPD1    H1 3435   1.928   0.380   9.656  0.9538 -0.0821 -0.5737
  226MPD1    H2 3436   1.700   0.625   9.403 -0.1481  0.5856 -0.2296
  226MPD1    H3 3437   1.883   0.594   9.557  0.7365 -0.4221 -0.9595
  226MPD1     N 3438   1.792   0.141   9.585  0.3286  0.0785 -0.0918
  226MPD1    H5 3439   1.763   0.072   9.516  0.1127  0.1814 -0.1072
  226MPD1    N1 3440   1.550   0.437   9.300 -0.0116 -0.5070  0.0846
  226MPD1    H6 3441   1.472   0.372   9.310 -1.2531  0.5004 -3.0221
  226MPD1    H7 3442   1.516   0.532   9.309  2.2385  0.1247  1.8106
  227MPD1     C 3443   1.530   3.915   9.466  0.0434 -0.4024  0.3759
  227MPD1    C1 3444   1.663   3.907   9.480  1.0313 -0.1473 -0.1127
  227MPD1    C2 3445   1.738   4.017   9.503  0.5714  0.8659 -0.2078
  227MPD1    C3 3446   1.677   4.141   9.516  0.9070 -0.0872 -0.6410
  227MPD1    C4 3447   1.540   4.153   9.488 -0.3589 -0.0875 -0.3262
  227MPD1    C5 3448   1.467   4.040   9.472 -0.1111 -0.3612 -0.6103
  227MPD1     H 3449   1.846   4.005   9.510  0.8926  1.6816 -3.8288
  227MPD1    H1 3450   1.478   4.242   9.492  0.3132  0.4044 -0.8814
  227MPD1    H2 3451   1.474   3.826   9.439  1.1740 -0.1656 -2.8275
  227MPD1    H3 3452   1.360   4.041   9.460 -0.2246 -0.2369  0.4479
  227MPD1     N 3453   1.753   4.254   9.558 -0.0876 -0.4253  0.0652
  227MPD1    H5 3454   1.850   4.235   9.581  0.4418 -0.3014 -2.1226
  227MPD1    N1 3455   1.731   3.784   9.459  0.4256  0.5063 -0.2048
  227MPD1    H6 3456   1.684   3.693   9.460 -1.6440  1.5921  3.8540
  227MPD1    H7 3457   1.820   3.788   9.507  0.7599 -1.2412 -0.6631
  228MPD1     C 3458   0.259   2.291  12.480 -0.6482 -0.6521  0.2981
  228MPD1    C1 3459   0.132   2.241  12.494  0.9826  0.0782 -0.5714
  228MPD1    C2 3460   0.123   2.128  12.577  0.3014  0.1117 -0.5939
  228MPD1    C3 3461   0.217   2.096  12.671  0.5540 -0.1289  0.0377
  228MPD1    C4 3462   0.339   2.163  12.670 -0.2964  0.0261 -0.3250
  228MPD1    C5 3463   0.365   2.246  12.562 -0.1847 -0.4178  0.2657
  228MPD1     H 3464   0.029   2.078  12.595  0.7365  0.1022  1.7227
  228MPD1    H1 3465   0.422   2.135  12.734 -2.5721 -1.9746  1.7574
  228MPD1    H2 3466   0.285   2.374  12.414  0.3727 -0.3150  1.1180
  228MPD1    H3 3467   0.465   2.283  12.542 -0.1334 -0.1507  1.0129
  228MPD1     N 3468   0.178   1.986  12.753 -0.1541 -0.0379  0.5114
  228MPD1    H5 3469   0.085   1.950  12.739  0.0513  0.0375 -1.0731
  228MPD1    N1 3470   0.027   2.279  12.410  0.5616 -0.2807 -0.2031
  228MPD1    H6 3471   0.019   2.379  12.391 -0.3648 -0.2394  0.4053
  228MPD1    H7 3472   4.659   2.259  12.450 -0.3354  1.4986 -1.3612
  229MPD1     C 3473   0.271   0.680  15.971  0.4964 -0.0030 -0.3970
  229MPD1    C1 3474   0.197   0.624  15.862 -0.9298  0.2296 -0.1482
  229MPD1    C2 3475   0.262   0.544  15.772  0.3850  0.1209  0.3235
  229MPD1    C3 3476   0.397   0.505  15.800  0.2435 -0.3598 -0.0259
  229MPD1    C4 3477   0.461   0.561  15.902 -0.7203  0.4084 -0.3723
  229MPD1    C5 3478   0.402   0.652  15.981 -0.4374  0.8888 -0.3673
  229MPD1     H 3479   0.219   0.515  15.677  0.9823 -1.7284  0.6338
  229MPD1    H1 3480   0.565   0.535  15.920 -0.7126  1.5986  1.3179
  229MPD1    H2 3481   0.227   0.742  16.048  0.2008 -0.3512 -0.2841
  229MPD1    H3 3482   0.457   0.698  16.063  0.0772 -0.4404  0.0390
  229MPD1     N 3483   0.471   0.405  15.723  0.0277 -0.1462  0.0040
  229MPD1    H5 3484   0.569   0.390  15.748 -0.0252  1.8791  1.4323
  229MPD1    N1 3485   0.071   0.684  15.837  0.5001  0.5566 -0.0522
  229MPD1    H6 3486   0.022   0.709  15.922  0.1216 -0.7376  0.1165
  229MPD1    H7 3487   0.013   0.626  15.777 -0.3426  0.2190  1.0921
  230MPD1     C 3488   1.315   0.009  15.679  0.4293 -0.3590  0.2362
  230MPD1    C1 3489   1.255   4.647  15.587  0.7521 -0.1710  0.2207
  230MPD1    C2 3490   1.137   4.687  15.529 -0.0157  0.1621  0.6103
  230MPD1    C3 3491   1.073   0.084  15.568  0.0675  0.1739  0.7229
  230MPD1    C4 3492   1.143   0.168  15.662  0.9000  0.1604  0.1252
  230MPD1    C5 3493   1.260   0.127  15.713 -0.5590  0.5480 -0.0573
  230MPD1     H 3494   1.098   4.622  15.451 -0.8731 -0.1016  1.2669
  230MPD1    H1 3495   1.109   0.262  15.703 -0.6425  0.0247 -0.8106
  230MPD1    H2 3496   1.407   4.700  15.725 -0.1097 -0.7176  1.0532
  230MPD1    H3 3497   1.310   0.192  15.784 -1.4937  0.1522  0.9589
  230MPD1     N 3498   0.951   0.109  15.513 -0.6837 -0.0443  0.1805
  230MPD1    H5 3499   0.911   0.039  15.453  0.1127  1.1407 -1.7557
  230MPD1    N1 3500   1.323   4.540  15.535  0.9211 -0.3770 -0.1477
  230MPD1    H6 3501   1.400   4.502  15.591  0.0738 -1.1672  0.4823
  230MPD1    H7 3502   1.261   4.467  15.500  0.7477 -0.6808  0.7785
  231MPD1     C 3503   3.273   1.576  15.584  0.1835  0.0327  0.4170
  231MPD1    C1 3504   3.412   1.586  15.568 -0.5148  0.4538 -0.1425
  231MPD1    C2 3505   3.446   1.675  15.463 -0.1619 -0.5146  0.5458
  231MPD1    C3 3506   3.356   1.758  15.400 -0.4744 -0.3830  0.6294
  231MPD1    C4 3507   3.224   1.746  15.429  0.0867 -0.5649 -0.6011
  231MPD1    C5 3508   3.181   1.650  15.520  0.0841  0.4726  0.3889
  231MPD1     H 3509   3.550   1.671  15.432 -0.5032  1.4336 -0.8130
  231MPD1    H1 3510   3.152   1.813  15.382  0.3156 -0.3265 -0.6105
  231MPD1    H2 3511   3.236   1.504  15.657  2.4532 -0.3662  1.1802
  231MPD1    H3 3512   3.076   1.628  15.539  0.3033  2.1597  3.5873
  231MPD1     N 3513   3.417   1.847  15.302  0.1492 -0.7639 -0.5537
  231MPD1    H5 3514   3.518   1.852  15.289  0.0817  2.7782  0.2236
  231MPD1    N1 3515   3.500   1.480  15.603  0.0746  0.4059  0.5147
  231MPD1    H6 3516   3.596   1.512  15.592  0.4497 -0.4703  1.2254
  231MPD1    H7 3517   3.479   1.463  15.701  0.0502  0.4923  0.5244
  232MPD1     C 3518   1.450   4.325   0.730  0.0458 -0.0900  0.2859
  232MPD1    C1 3519   1.393   4.256   0.632  0.0492 -0.4047 -0.8295
  232MPD1    C2 3520   1.259   4.288   0.597 -0.9839  0.6168 -0.1538
  232MPD1    C3 3521   1.194   4.398   0.656  0.6557  0.0865  0.4999
  232MPD1    C4 3522   1.259   4.468   0.756 -0.0540 -0.0265  0.3985
  232MPD1    C5 3523   1.385   4.430   0.792 -0.7970 -0.0274  0.0800
  232MPD1     H 3524   1.201   4.227   0.528 -3.8813  1.5208  1.4413
  232MPD1    H1 3525   1.204   4.546   0.807 -0.2730  0.0352  0.0697
  232MPD1    H2 3526   1.542   4.284   0.771  0.1917  0.8652  0.9021
  232MPD1    H3 3527   1.424   4.479   0.881 -1.4355  0.7855 -0.0837
  232MPD1     N 3528   1.067   4.443   0.609  0.1737  0.8705 -0.0445
  232MPD1    H5 3529   1.031   4.397   0.526  0.2242 -2.8289  1.9959
  232MPD1    N1 3530   1.443   4.132   0.592 -0.5659  1.0942  0.2878
  232MPD1    H6 3531   1.542   4.118   0.613 -0.5184 -0.6180 -1.0874
  232MPD1    H7 3532   1.410   4.096   0.502 -1.2837 -1.7159  1.6644
  233MPD1     C 3533   1.650   3.550   2.055  0.4283 -0.2638  0.4585
  233MPD1    C1 3534   1.776   3.566   1.997  0.3572  1.4221 -0.4962
  233MPD1    C2 3535   1.860   3.462   1.994  0.3816  0.9669  0.3294
  233MPD1    C3 3536   1.820   3.335   2.027 -0.2351  0.3113 -0.9382
  233MPD1    C4 3537   1.690   3.315   2.071 -0.3158 -0.5170  0.0807
  233MPD1    C5 3538   1.608   3.424   2.088  0.1069 -0.2248  0.4325
  233MPD1     H 3539   1.963   3.484   1.965  0.6605  0.7473  1.1676
  233MPD1    H1 3540   1.652   3.216   2.091  1.4041 -0.9097  1.3585
  233MPD1    H2 3541   1.579   3.631   2.064  0.6698  0.1553 -1.4621
  233MPD1    H3 3542   1.507   3.414   2.126  0.2184 -2.8925  0.0179
  233MPD1     N 3543   1.910   3.225   2.022 -0.4662 -0.3955 -0.2420
  233MPD1    H5 3544   1.875   3.135   2.053  0.5808 -0.6806  0.1147
  233MPD1    N1 3545   1.813   3.696   1.966  0.5915  0.2119  0.2100
  233MPD1    H6 3546   1.878   3.697   1.888 -0.0599  0.6913 -0.3258
  233MPD1    H7 3547   1.734   3.756   1.942 -1.4475 -2.6042 -0.0885
  234MPD1     C 3548   3.031   1.739  10.741  0.6479 -0.0669 -0.9122
  234MPD1    C1 3549   3.102   1.851  10.709 -0.3051  0.3031  0.2918
  234MPD1    C2 3550   3.053   1.930  10.605  0.5867  0.2731  0.3207
  234MPD1    C3 3551   2.975   1.871  10.505  1.2513 -0.8779 -0.2962
  234MPD1    C4 3552   2.912   1.751  10.528  0.9041 -0.0745 -0.8008
  234MPD1    C5 3553   2.936   1.689  10.646  0.0757  0.6872 -0.3789
  234MPD1     H 3554   3.098   2.026  10.581  0.3229 -0.3381 -2.6371
  234MPD1    H1 3555   2.847   1.710  10.452 -1.7197  2.0532  0.2655
  234MPD1    H2 3556   3.055   1.688  10.834  0.7570 -0.9930 -1.4557
  234MPD1    H3 3557   2.883   1.596  10.667 -0.0339  1.4419  2.6389
  234MPD1     N 3558   2.958   1.945  10.387  0.1544 -0.4826 -0.3869
  234MPD1    H5 3559   2.998   2.039  10.385 -0.7177 -0.0333  2.8891
  234MPD1    N1 3560   3.191   1.909  10.801 -0.0129 -0.1721 -0.5137
  234MPD1    H6 3561   3.247   1.830  10.833  2.0238  1.2670 -0.5010
  234MPD1    H7 3562   3.249   1.983  10.760 -0.5062  0.6034  0.1901
  235MPD1     C 3563   4.452   0.023   9.569  0.6004 -0.2426 -0.3585
  235MPD1    C1 3564   4.322   0.015   9.627  0.6958 -0.7474  0.0855
  235MPD1    C2 3565   4.279   0.118   9.713  0.4776  0.1578 -0.5275
  235MPD1    C3 3566   4.372   0.215   9.762  0.0379 -0.3885 -0.3812
  235MPD1    C4 3567   4.505   0.209   9.718  0.0239 -0.5718 -0.1022
  235MPD1    C5 3568   4.543   0.119   9.616  0.3480 -0.4549  0.4245
  235MPD1     H 3569   4.175   0.131   9.743  0.9943  2.4791  0.2294
  235MPD1    H1 3570   4.574   0.285   9.754  0.9384 -1.7722  0.6655
  235MPD1    H2 3571   4.480   4.675   9.493 -2.0677  1.4831 -2.9483
  235MPD1    H3 3572   4.646   0.097   9.594  0.2947 -1.2542  0.9782
  235MPD1     N 3573   4.329   0.308   9.863  0.3557 -0.1853  0.1298
  235MPD1    H5 3574   4.228   0.309   9.876  0.0971 -0.5922 -1.9131
  235MPD1    N1 3575   4.234   4.642   9.579 -0.0373  0.0689  0.0970
  235MPD1    H6 3576   4.286   4.556   9.560  0.2367  0.4057 -0.6569
  235MPD1    H7 3577   4.166   4.613   9.649 -0.2828  2.9049  1.0207
  236MPD1     C 3578   2.702   0.494  10.018  0.0995  0.7749 -0.1921
  236MPD1    C1 3579   2.726   0.604  10.099  0.4673  0.1275 -0.0408
  236MPD1    C2 3580   2.855   0.628  10.149  0.2052  0.5763 -0.8112
  236MPD1    C3 3581   2.953   0.534  10.123 -0.6516 -0.5013  0.0144
  236MPD1    C4 3582   2.924   0.424  10.044 -0.4999  0.6554  0.1446
  236MPD1    C5 3583   2.802   0.406   9.988  0.2133  0.3439 -0.5802
  236MPD1     H 3584   2.885   0.719  10.199  1.3034 -0.4897  0.4671
  236MPD1    H1 3585   2.999   0.352  10.014 -0.6302 -0.0192  1.4355
  236MPD1    H2 3586   2.608   0.481   9.966  1.7945  0.3385 -3.1293
  236MPD1    H3 3587   2.796   0.326   9.916 -1.7459  1.6295 -1.8251
  236MPD1     N 3588   3.087   0.539  10.172 -0.6445  0.3573 -0.3739
  236MPD1    H5 3589   3.132   0.452  10.146 -0.5576  0.2740  0.0454
  236MPD1    N1 3590   2.622   0.694  10.121  0.4068  0.5510  0.0233
  236MPD1    H6 3591   2.612   0.716  10.220  0.7338 -2.0634  0.6473
  236MPD1    H7 3592   2.530   0.656  10.099  0.2361  1.1261 -0.2562
  237MPD1     C 3593   4.586   3.419  15.468  0.1305 -0.8072  0.2181
  237MPD1    C1 3594   4.543   3.537  15.415 -0.2250 -0.3419  0.2472
  237MPD1    C2 3595   4.410   3.545  15.384 -0.8323  0.0699 -0.0029
  237MPD1    C3 3596   4.318   3.441  15.407 -0.3440 -0.3455 -0.9474
  237MPD1    C4 3597   4.371   3.321  15.450 -0.3800 -0.3712  0.2647
  237MPD1    C5 3598   4.503   3.312  15.480 -0.3066 -0.0725 -0.2028
  237MPD1     H 3599   4.365   3.642  15.366 -0.4815  0.1984 -0.1852
  237MPD1    H1 3600   4.314   3.230  15.458 -2.6155  0.9963  0.0372
  237MPD1    H2 3601   4.683   3.409  15.515 -0.7280 -4.3285  1.2512
  237MPD1    H3 3602   4.532   3.213  15.514 -3.9423  0.0482  3.1713
  237MPD1     N 3603   4.181   3.461  15.397 -0.0588  0.1947 -0.5248
  237MPD1    H5 3604   4.120   3.381  15.401  0.2885 -0.0314  0.1969
  237MPD1    N1 3605   4.615   3.647  15.430 -0.8737 -0.2657 -0.1827
  237MPD1    H6 3606   4.594   3.720  15.362  1.3419 -1.2204 -1.8770
  237MPD1    H7 3607   4.716   3.639  15.441 -0.6550 -0.8340 -2.7239
  238MPD1     C 3608   0.125   2.077  16.075 -1.0445 -0.6457 -0.2393
  238MPD1    C1 3609   0.242   2.128  16.014  0.0286  0.0747  0.0875
  238MPD1    C2 3610   0.226   2.185  15.890 -0.5916  0.1417 -0.5261
  238MPD1    C3 3611   0.098   2.203  15.835  0.2975 -0.5756  0.2158
  238MPD1    C4 3612   4.714   2.151  15.899 -0.6030  0.7382  0.0560
  238MPD1    C5 3613   0.007   2.078  16.015  0.7106 -0.2960  0.3919
  238MPD1     H 3614   0.313   2.227  15.842 -1.9358  2.4304 -0.9512
  238MPD1    H1 3615   4.621   2.143  15.844 -1.0805 -1.0623  1.1277
  238MPD1    H2 3616   0.133   2.022  16.168 -0.6466 -1.2567 -0.6370
  238MPD1    H3 3617   4.643   2.025  16.051  1.3859  0.1706  2.6835
  238MPD1     N 3618   0.075   2.258  15.706 -0.4591 -0.7669  0.2864
  238MPD1    H5 3619   4.703   2.258  15.673  0.0764  1.1059 -1.2606
  238MPD1    N1 3620   0.369   2.105  16.062  0.8339 -0.0815  0.0110
  238MPD1    H6 3621   0.365   2.107  16.164 -0.2548  2.5043 -0.0833
  238MPD1    H7 3622   0.436   2.175  16.031 -0.7346  0.0977 -2.9274
  239MPD1     C 3623   0.937   2.822  15.420  0.3112  1.2059  0.3415
  239MPD1    C1 3624   0.984   2.763  15.302  0.5864  0.1087  0.5743
  239MPD1    C2 3625   0.997   2.834  15.188 -0.0608  0.0062  0.4768
  239MPD1    C3 3626   0.938   2.965  15.186 -1.0141  0.1953 -0.5733
  239MPD1    C4 3627   0.882   3.020  15.301  0.1716  0.4033  0.2454
  239MPD1    C5 3628   0.879   2.952  15.415 -0.1401  0.4396 -0.1687
  239MPD1     H 3629   1.035   2.781  15.101 -0.1979  0.5175  0.0998
  239MPD1    H1 3630   0.833   3.114  15.280  0.5437  0.5110 -0.1512
  239MPD1    H2 3631   0.924   2.765  15.511  0.1532 -1.4761 -1.3585
  239MPD1    H3 3632   0.823   3.000  15.495  0.4364  0.0717  0.4618
  239MPD1     N 3633   0.938   3.036  15.067  0.0189 -0.0553  0.3119
  239MPD1    H5 3634   0.904   3.130  15.082 -2.0915 -0.7663  0.0130
  239MPD1    N1 3635   1.063   2.641  15.315 -0.0261 -0.0760 -0.7207
  239MPD1    H6 3636   1.084   2.591  15.229  0.5190  0.0918 -0.6873
  239MPD1    H7 3637   1.027   2.580  15.387  2.8571 -0.1633  0.6278
  240MPD1     C 3638   4.217   2.573  13.497 -0.4358  0.7001  0.4304
  240MPD1    C1 3639   4.318   2.483  13.527 -0.6466  0.0959  0.0664
  240MPD1    C2 3640   4.374   2.485  13.654  0.3153 -1.1142  0.4455
  240MPD1    C3 3641   4.342   2.588  13.744 -0.3372  0.2618  0.6515
  240MPD1    C4 3642   4.258   2.688  13.700  0.1192 -0.3840 -0.0543
  240MPD1    C5 3643   4.185   2.669  13.588  0.0366 -0.4091 -1.0056
  240MPD1     H 3644   4.449   2.410  13.675  0.3874 -1.3826 -0.7598
  240MPD1    H1 3645   4.243   2.782  13.750  0.2137  0.5685 -1.8304
  240MPD1    H2 3646   4.178   2.577  13.396 -2.6621  0.3900  1.2909
  240MPD1    H3 3647   4.128   2.756  13.557 -1.7499 -1.3402 -0.2938
  240MPD1     N 3648   4.422   2.601  13.863  0.4883 -0.0629 -0.1818
  240MPD1    H5 3649   4.458   2.518  13.909  2.3579  0.7226 -0.2174
  240MPD1    N1 3650   4.352   2.384  13.429  0.4701  0.8871 -0.1988
  240MPD1    H6 3651   4.449   2.353  13.436  0.8689  2.2210  0.2576
  240MPD1    H7 3652   4.356   2.438  13.343  0.5609 -2.4146 -2.2336
  241MPD1     C 3653   0.065   3.134  14.749 -0.7019  0.2258  0.0638
  241MPD1    C1 3654   0.084   3.168  14.620  0.4117 -0.1842  0.1893
  241MPD1    C2 3655   0.050   3.074  14.525  0.1454  0.2289  0.0905
  241MPD1    C3 3656   4.714   2.953  14.561 -0.2104 -0.1114  0.3767
  241MPD1    C4 3657   4.700   2.924  14.696  0.3870 -0.1049  0.5568
  241MPD1    C5 3658   0.014   3.013  14.789  0.6005 -0.2329  0.6645
  241MPD1     H 3659   0.061   3.091  14.419  0.2307  0.7857  0.1899
  241MPD1    H1 3660   4.649   2.831  14.718 -0.4403 -0.6052 -3.4389
  241MPD1    H2 3661   0.098   3.201  14.828 -1.0327  0.1898  0.2283
  241MPD1    H3 3662   0.012   2.980  14.892  1.3328  0.1912  0.8098
  241MPD1     N 3663   4.662   2.864  14.465 -0.4088  1.1955  0.0083
  241MPD1    H5 3664   4.650   2.771  14.504  0.4215  0.6687 -0.9978
  241MPD1    N1 3665   0.169   3.272  14.587  0.0585  0.3708  0.5851
  241MPD1    H6 3666   0.149   3.313  14.495 -2.6304 -3.0926 -0.3761
  241MPD1    H7 3667   0.167   3.344  14.659  0.3372  1.0178 -0.0454
  242MPD1     C 3668   4.582   1.460  15.809 -0.1491 -0.2234 -0.1814
  242MPD1    C1 3669   4.577   1.534  15.702  0.2223  0.1774 -0.5937
  242MPD1    C2 3670   4.634   1.489  15.590 -0.0864 -0.0377  0.8389
  242MPD1    C3 3671   4.683   1.361  15.576 -0.3277  0.0132  0.3894
  242MPD1    C4 3672   4.690   1.284  15.689  0.0397 -0.2818  0.0307
  242MPD1    C5 3673   4.637   1.336  15.804  0.0541 -0.0846 -1.1301
  242MPD1     H 3674   4.630   1.558  15.506 -0.3967 -0.7725  0.2516
  242MPD1    H1 3675   0.009   1.185  15.699 -0.7174 -0.6798 -0.6203
  242MPD1    H2 3676   4.534   1.485  15.903  1.5769  1.3620  0.2663
  242MPD1    H3 3677   4.628   1.268  15.888  0.0346  0.5705 -0.5979
  242MPD1     N 3678   0.006   1.304  15.455 -0.7482  0.4890 -0.0546
  242MPD1    H5 3679   0.055   1.215  15.463 -1.3443  0.0496 -1.3647
  242MPD1    N1 3680   4.556   1.670  15.713  0.1861 -0.1123 -0.3679
  242MPD1    H6 3681   4.487   1.691  15.786  1.6362  0.8375  0.7344
  242MPD1    H7 3682   4.512   1.699  15.626 -1.7700  3.1737  1.6921
  243MPD1     C 3683   1.842   4.441   0.698 -0.5399 -0.4841 -0.1022
  243MPD1    C1 3684   1.858   4.364   0.584 -0.0846  0.3969  0.3537
  243MPD1    C2 3685   1.765   4.376   0.484  0.1207 -0.0931  0.6343
  243MPD1    C3 3686   1.661   4.468   0.495 -0.6662 -0.2099 -0.3490
  243MPD1    C4 3687   1.642   4.537   0.608  0.7081  0.0965  0.8536
  243MPD1    C5 3688   1.734   4.519   0.711  1.5561  0.1584  0.1680
  243MPD1     H 3689   1.777   4.312   0.397 -1.7107  1.1585 -0.5177
  243MPD1    H1 3690   1.557   4.600   0.627  0.9483  0.2912  1.2915
  243MPD1    H2 3691   1.901   4.430   0.788 -2.1843 -0.3458  0.9953
  243MPD1    H3 3692   1.712   4.562   0.808 -1.8819 -3.2092  0.9039
  243MPD1     N 3693   1.568   4.471   0.384  0.2285  0.8486  0.4281
  243MPD1    H5 3694   1.596   4.410   0.308 -1.6536 -0.8412  1.0818
  243MPD1    N1 3695   1.946   4.259   0.584  0.3301 -0.1938 -0.9112
  243MPD1    H6 3696   1.972   4.227   0.491  0.2562 -2.3195 -0.1915
  243MPD1    H7 3697   2.031   4.273   0.639  0.2839 -1.6626 -0.4838
  244MPD1     C 3698   0.552   4.346   0.084  0.0766 -0.4677 -0.1519
  244MPD1    C1 3699   0.623   4.404  17.679 -0.0966 -0.0220  0.1326
  244MPD1    C2 3700   0.766   4.404  17.673  0.0566  0.1386  0.1949
  244MPD1    C3 3701   0.834   4.365   0.085 -0.1952  0.7053  0.7086
  244MPD1    C4 3702   0.759   4.313   0.186 -0.7964 -0.1294  0.0958
  244MPD1    C5 3703   0.621   4.310   0.189  0.3610  0.1287 -0.2429
  244MPD1     H 3704   0.829   4.424  17.587  1.4843 -0.5903  1.0868
  244MPD1    H1 3705   0.811   4.291   0.278 -0.9374  0.6108  0.3538
  244MPD1    H2 3706   0.444   4.337   0.091 -0.2119  2.8981 -0.5690
  244MPD1    H3 3707   0.581   4.272   0.283  2.2904 -1.5135 -0.0909
  244MPD1     N 3708   0.979   4.378   0.085 -0.4325 -0.3792 -0.5207
  244MPD1    H5 3709   1.023   4.409  17.696  0.8010  1.7612  0.8889
  244MPD1    N1 3710   0.552   4.443  17.562 -0.1262 -0.2237  0.1218
  244MPD1    H6 3711   0.462   4.483  17.590  0.6986  2.1897 -0.7002
  244MPD1    H7 3712   0.609   4.518  17.524  0.1878 -0.1964  0.6396
  245MPD1     C 3713   2.295   0.457  13.673 -0.1180  0.1133 -0.3565
  245MPD1    C1 3714   2.353   0.575  13.698 -0.1039 -0.4200 -0.4556
  245MPD1    C2 3715   2.496   0.578  13.689  1.0211 -0.6518  0.2106
  245MPD1    C3 3716   2.576   0.462  13.672 -0.3485 -0.4329 -0.6202
  245MPD1    C4 3717   2.510   0.341  13.655  0.7304  0.7213  0.1043
  245MPD1    C5 3718   2.373   0.348  13.646  0.1535  0.3132  0.1446
  245MPD1     H 3719   2.553   0.668  13.714  2.2673 -1.0034 -1.3647
  245MPD1    H1 3720   2.562   0.251  13.626 -0.4094  0.1404 -0.1686
  245MPD1    H2 3721   2.187   0.448  13.669 -0.2020  1.3489 -1.0193
  245MPD1    H3 3722   2.318   0.260  13.617 -1.8183  1.4639  0.4279
  245MPD1     N 3723   2.713   0.472  13.674 -0.3150 -0.2382 -0.1265
  245MPD1    H5 3724   2.758   0.562  13.663  0.7941 -0.6392  1.2681
  245MPD1    N1 3725   2.274   0.671  13.767 -0.5130  0.1214  0.6859
  245MPD1    H6 3726   2.190   0.679  13.710  0.3318  0.0356 -0.5870
  245MPD1    H7 3727   2.321   0.761  13.766 -1.4376  0.5877 -0.9890
  246MPD1     C 3728   4.305   4.381   9.918 -0.1518 -0.1922  0.2672
  246MPD1    C1 3729   4.238   4.307   9.822  0.4829  0.6235 -0.1886
  246MPD1    C2 3730   4.118   4.358   9.772 -0.3040  0.4346  0.4064
  246MPD1    C3 3731   4.069   4.480   9.816  0.4285  0.0922 -0.4416
  246MPD1    C4 3732   4.127   4.547   9.924 -0.4162 -0.2106 -0.0590
  246MPD1    C5 3733   4.244   4.493   9.972 -0.5941 -0.9933  0.5549
  246MPD1     H 3734   4.064   4.305   9.695 -1.0260  1.3196  0.3016
  246MPD1    H1 3735   4.102   4.650   9.948 -2.2861 -0.8875  0.9378
  246MPD1    H2 3736   4.396   4.340   9.959 -0.9868 -1.1456  1.1623
  246MPD1    H3 3737   4.300   4.559  10.039  0.1422 -1.5982  0.5384
  246MPD1     N 3738   3.963   4.537   9.743 -0.0461  0.0985  0.3588
  246MPD1    H5 3739   3.923   4.482   9.668  4.2462  0.6782 -2.3342
  246MPD1    N1 3740   4.305   4.197   9.771 -0.0133  0.0550 -0.0697
  246MPD1    H6 3741   4.370   4.157   9.838  0.3001 -0.0397 -0.4309
  246MPD1    H7 3742   4.238   4.129   9.736 -0.1151 -0.4588  1.1371
  247MPD1     C 3743   2.779   4.284  17.339 -0.3431 -1.2331 -0.3597
  247MPD1    C1 3744   2.770   4.399  17.269 -0.2939 -0.7237  0.1569
  247MPD1    C2 3745   2.826   4.408  17.143  0.7349  0.4683 -0.9489
  247MPD1    C3 3746   2.910   4.304  17.092  0.7930  0.4943 -0.1035
  247MPD1    C4 3747   2.939   4.195  17.170  0.1583 -0.4137  0.1654
  247MPD1    C5 3748   2.867   4.194  17.291 -0.2477 -0.5740 -0.0074
  247MPD1     H 3749   2.817   4.503  17.092  0.9172  0.4086 -1.0911
  247MPD1    H1 3750   3.021   4.127  17.150  0.9576  0.7364 -0.4526
  247MPD1    H2 3751   2.725   4.264  17.431 -2.0559 -0.5688 -1.2071
  247MPD1    H3 3752   2.897   4.121  17.365  2.2664  2.3912  1.8896
  247MPD1     N 3753   2.970   4.320  16.969 -0.1576 -1.1879  0.0072
  247MPD1    H5 3754   3.035   4.244  16.950  0.5383 -0.2745 -1.3361
  247MPD1    N1 3755   2.696   4.506  17.318  0.0925 -0.7523 -0.0443
  247MPD1    H6 3756   2.732   4.595  17.284  2.9892 -2.0686 -0.4488
  247MPD1    H7 3757   2.685   4.515  17.418 -0.7283 -0.3373 -0.1755
  248MPD1     C 3758   4.132   0.325   0.852  0.3090 -0.3067 -0.2824
  248MPD1    C1 3759   4.021   0.373   0.907  0.2941  0.0246  0.4812
  248MPD1    C2 3760   3.937   0.285   0.970  0.2254 -0.3268 -0.2461
  248MPD1    C3 3761   3.978   0.154   0.995 -0.1020  1.5173 -0.1443
  248MPD1    C4 3762   4.096   0.110   0.936 -0.1528  0.0494 -0.4704
  248MPD1    C5 3763   4.164   0.196   0.859  0.2381  0.3657  0.1276
  248MPD1     H 3764   3.843   0.325   1.008  0.2788 -0.0882 -0.3642
  248MPD1    H1 3765   4.138   0.012   0.958 -0.1525  0.6995  2.4543
  248MPD1    H2 3766   4.200   0.393   0.803  0.5182 -0.7042 -0.5411
  248MPD1    H3 3767   4.258   0.170   0.814  0.6079 -2.0551  2.3134
  248MPD1     N 3768   3.895   0.077   1.086  0.2745 -0.1636  0.4314
  248MPD1    H5 3769   3.813   0.123   1.125  2.3489  1.7171  2.5715
  248MPD1    N1 3770   3.977   0.503   0.876 -0.8952  0.4076 -0.5620
  248MPD1    H6 3771   3.919   0.544   0.948 -0.4666  0.1533 -0.0700
  248MPD1    H7 3772   4.048   0.567   0.842 -0.8231 -0.6575 -2.4762
  249MPD1     C 3773   4.478   3.135  11.313  0.0591 -0.1111 -0.5064
  249MPD1    C1 3774   4.433   3.221  11.223 -0.2064 -0.5773 -0.1698
  249MPD1    C2 3775   4.388   3.180  11.097 -0.4188 -0.0826 -0.3280
  249MPD1    C3 3776   4.407   3.047  11.055  0.2863  0.2379 -0.0571
  249MPD1    C4 3777   4.465   2.957  11.142  0.6427 -0.1751  0.0145
  249MPD1    C5 3778   4.495   3.002  11.269 -0.0668  0.3183 -0.0701
  249MPD1     H 3779   4.343   3.248  11.025 -0.2406 -2.1311 -2.3660
  249MPD1    H1 3780   4.478   2.851  11.120  1.5626  0.0081 -0.3213
  249MPD1    H2 3781   4.495   3.157  11.418  1.1912  0.8664 -0.8869
  249MPD1    H3 3782   4.506   2.931  11.350 -0.6201  0.3164  0.0029
  249MPD1     N 3783   4.370   3.009  10.923 -0.3181  0.5138  0.4868
  249MPD1    H5 3784   4.331   3.082  10.863  0.6287 -0.3332 -1.1742
  249MPD1    N1 3785   4.404   3.350  11.277  0.0399  0.1319  0.6972
  249MPD1    H6 3786   4.467   3.377  11.352  1.3579  0.8019 -0.6490
  249MPD1    H7 3787   4.396   3.422  11.206 -0.2924 -1.2899 -0.7060
  250MPD2     C 3788   0.917   3.286  13.052 -0.2299 -0.1434  0.2964
  250MPD2    C1 3789   0.851   3.382  12.972  0.0566  0.0661 -1.1167
  250MPD2    C2 3790   0.863   3.379  12.831  0.0847  0.1761 -0.1341
  250MPD2    C3 3791   0.936   3.280  12.773  0.0101 -0.3554 -0.3693
  250MPD2    C4 3792   0.988   3.176  12.852 -0.6652  0.4269 -0.0371
  250MPD2    C5 3793   0.978   3.180  12.989 -0.3329  0.0044 -0.0636
  250MPD2     H 3794   0.825   3.457  12.766  0.1809  0.6606  0.3981
  250MPD2    H1 3795   1.039   3.091  12.807  0.8187  0.3283  1.8389
  250MPD2    H2 3796   0.913   3.296  13.160 -1.1862 -1.1095  0.3506
  250MPD2    H3 3797   1.026   3.105  13.051  0.5041 -1.1485 -2.1106
  250MPD2     N 3798   0.963   3.272  12.633 -0.1015 -0.1709 -0.4242
  250MPD2    H5 3799   1.005   3.187  12.597  1.9837  0.8204 -0.3177
  250MPD2    N1 3800   0.785   3.489  13.040  0.8205  0.6234 -0.1125
  250MPD2    H7 3801   0.800   3.502  13.140 -1.9182  2.3554  0.0653
  251TMC3    C1 3802   0.653   3.690  13.055  0.5743 -0.1630  0.4504
  251TMC3    C2 3803   0.655   3.689  13.193  0.3356  1.0502 -0.0066
  251TMC3    C3 3804   0.632   3.815  13.251 -0.1599 -0.4512  0.4631
  251TMC3    C4 3805   0.625   3.803  12.981  0.4804  0.2679 -0.3754
  251TMC3    C5 3806   0.599   3.920  13.042 -0.3856  0.0663  0.0892
  251TMC3    C6 3807   0.602   3.926  13.174  0.3890 -0.2718 -0.6606
  251TMC3     C 3808   0.694   3.576  12.981  0.2659  0.0869 -0.0958
  251TMC3     O 3809   0.648   3.559  12.871  0.3695 -0.2946  0.4429
  251TMC3     H 3810   0.671   3.600  13.254  1.7245  2.0432  1.0767
  251TMC3    H1 3811   0.648   3.802  12.875 -2.3491 -1.6060 -0.9835
  251TMC3    H2 3812   0.590   4.028  13.211 -2.2539 -0.2321 -1.5919
  251TMC3    C7 3813   0.651   4.043  12.985 -0.2625 -0.1211 -0.4368
  251TMC3    C8 3814   0.735   3.853  13.347 -0.3335 -0.4540  0.6096
  251TMC3    O1 3815   0.589   4.149  12.972  0.2378 -0.4539  0.1467
  251TMC3    O2 3816   0.769   3.969  13.356 -0.2346 -0.3438  0.1445
  252TMC3    C1 3817   1.340   0.712   9.729  0.3286 -0.5396 -0.1807
  252TMC3    C2 3818   1.467   0.761   9.742 -0.3429  0.4402 -0.1723
  252TMC3    C3 3819   1.561   0.662   9.761  0.1568  0.5685  0.3612
  252TMC3    C4 3820   1.307   0.579   9.703 -0.0957 -0.4396  0.1914
  252TMC3    C5 3821   1.409   0.491   9.719  0.4424  0.6454  0.3505
  252TMC3    C6 3822   1.533   0.526   9.761  0.3074 -0.6003  0.1344
  252TMC3     C 3823   1.239   0.803   9.688 -0.0074  0.1633 -0.1768
  252TMC3     O 3824   1.121   0.777   9.702 -0.2150  0.2110 -0.1920
  252TMC3     H 3825   1.488   0.866   9.754  2.7438 -0.4517  2.1326
  252TMC3    H1 3826   1.209   0.547   9.670 -0.4573  2.5677 -1.5825
  252TMC3    H2 3827   1.617   0.461   9.736  1.0740  0.9736 -1.4507
  252TMC3    C7 3828   1.374   0.351   9.690 -0.1647 -0.3280  0.2870
  252TMC3    C8 3829   1.694   0.703   9.812  0.4003  0.4181  0.1821
  252TMC3    O1 3830   1.268   0.323   9.625 -0.1198  0.1435  0.0198
  252TMC3    O2 3831   1.718   0.823   9.804 -0.0292 -0.1213  0.1047
  253MPD2     C 3832   3.319   3.562  15.299 -0.1097  0.1623  0.0436
  253MPD2    C1 3833   3.195   3.516  15.334 -0.5130 -0.0363 -0.2122
  253MPD2    C2 3834   3.138   3.510  15.460 -0.5367  0.3743 -0.6831
  253MPD2    C3 3835   3.219   3.557  15.566  0.6156  0.7143  0.1603
  253MPD2    C4 3836   3.343   3.597  15.533 -0.0735 -1.0435 -0.8552
  253MPD2    C5 3837   3.397   3.600  15.406 -0.2842  0.1207 -0.0767
  253MPD2     H 3838   3.045   3.457  15.473  0.2982 -1.4116 -2.0626
  253MPD2    H1 3839   3.418   3.625  15.606 -3.0431  0.2887  1.7002
  253MPD2    H2 3840   3.353   3.572  15.197  1.5629 -3.0278  0.3101
  253MPD2    H3 3841   3.493   3.639  15.374  0.6083  0.9434  3.6009
  253MPD2     N 3842   3.184   3.552  15.706  0.0364 -0.0646  0.1152
  253MPD2    H5 3843   3.252   3.578  15.776 -1.1726  0.5761  1.0648
  253MPD2    N1 3844   3.108   3.479  15.230 -0.1433 -0.5776  0.0642
  253MPD2    H7 3845   3.014   3.454  15.259  0.2255 -3.2818 -1.1082
  254TMC3    C1 3846   3.036   3.498  15.890 -0.1359 -0.3919 -0.0219
  254TMC3    C2 3847   2.911   3.485  15.941 -0.2431 -0.3162 -0.9330
  254TMC3    C3 3848   2.897   3.443  16.069  0.2385  0.1565  0.1889
  254TMC3    C4 3849   3.144   3.472  15.964  0.3472  0.9879  0.5394
  254TMC3    C5 3850   3.127   3.423  16.094  0.3618  0.3897 -0.3967
  254TMC3    C6 3851   3.003   3.402  16.146  0.5081  0.1828  0.6918
  254TMC3     C 3852   3.057   3.506  15.745 -0.4735 -0.3419 -0.1430
  254TMC3     O 3853   2.956   3.481  15.680 -0.1251  0.3342  0.5373
  254TMC3     H 3854   2.829   3.521  15.880  1.6054  3.3774 -1.2611
  254TMC3    H1 3855   3.245   3.480  15.926  0.1421 -1.9600 -0.6837
  254TMC3    H2 3856   2.986   3.393  16.252  0.0032  1.0524  0.6887
  254TMC3    C7 3857   3.233   3.425  16.196 -0.1933 -0.0485  0.4374
  254TMC3    C8 3858   2.779   3.481  16.144 -0.0344  0.3021  0.1566
  254TMC3    O1 3859   3.203   3.383  16.305 -0.5965  0.0312  0.1633
  254TMC3    O2 3860   2.749   3.416  16.244 -0.1915 -0.5948  0.4537
  255MPD2     C 3861   1.145   2.298   9.631 -0.2598 -0.5075  0.1120
  255MPD2    C1 3862   1.181   2.431   9.605  0.4416 -0.4803  0.6066
  255MPD2    C2 3863   1.230   2.454   9.481  0.0580 -0.3783  0.4424
  255MPD2    C3 3864   1.213   2.368   9.375 -0.4493  0.3059 -0.8159
  255MPD2    C4 3865   1.163   2.241   9.398  0.4725 -0.4624  0.1422
  255MPD2    C5 3866   1.135   2.202   9.530  0.3767  0.3148  0.3673
  255MPD2     H 3867   1.270   2.550   9.453 -3.0645  0.4177 -1.2629
  255MPD2    H1 3868   1.162   2.176   9.311 -0.2863  0.9276 -0.8774
  255MPD2    H2 3869   1.108   2.263   9.727  0.9810 -0.5264  0.5790
  255MPD2    H3 3870   1.109   2.101   9.561  2.3487  0.1800  1.5787
  255MPD2     N 3871   1.244   2.417   9.247 -0.1519  0.0083  0.2167
  255MPD2    H5 3872   1.288   2.508   9.257  1.8558 -0.8978 -0.4144
  255MPD2    N1 3873   1.170   2.530   9.708  0.8558 -0.3281 -0.7472
  255MPD2    H7 3874   1.133   2.503   9.799  1.3766 -0.0802 -0.4658
  256TMC3    C1 3875   1.134   2.749   9.802 -0.1677 -0.2891  1.1168
  256TMC3    C2 3876   1.154   2.881   9.783 -0.4793  0.0130 -0.1889
  256TMC3    C3 3877   1.069   2.975   9.802 -0.3796 -0.0316 -0.2387
  256TMC3    C4 3878   1.012   2.706   9.845 -0.0002  0.3678 -0.5855
  256TMC3    C5 3879   0.918   2.809   9.868 -0.1325 -0.7797  0.1542
  256TMC3    C6 3880   0.943   2.940   9.845 -0.2877  0.2209  0.5727
  256TMC3     C 3881   1.199   2.668   9.697 -1.0194 -0.3961 -0.2641
  256TMC3     O 3882   1.245   2.728   9.601  0.5953 -0.1602 -0.8472
  256TMC3     H 3883   1.250   2.906   9.738 -1.1888  0.2494 -1.5692
  256TMC3    H1 3884   0.978   2.604   9.835 -0.4288  0.2108  2.5299
  256TMC3    H2 3885   0.866   3.014   9.867  0.1967  0.9294 -0.0842
  256TMC3    C7 3886   0.778   2.778   9.895  0.2129 -0.6122 -0.3564
  256TMC3    C8 3887   1.092   3.116   9.768  0.2768  0.0752  0.6801
  256TMC3    O1 3888   0.683   2.840   9.843 -0.7359 -0.2629  0.3057
  256TMC3    O2 3889   1.000   3.194   9.781  0.1306  0.2815  0.0127
  257MPD2     C 3890   4.490   3.325  13.148 -0.4294  0.1717  0.0299
  257MPD2    C1 3891   4.585   3.296  13.059  0.1985  0.0776 -0.5753
  257MPD2    C2 3892   4.677   3.200  13.101 -0.3044 -0.6998  0.4896
  257MPD2    C3 3893   4.681   3.142  13.225 -0.1762 -0.1155  0.0274
  257MPD2    C4 3894   4.581   3.181  13.316  0.2072 -0.3206 -0.1850
  257MPD2    C5 3895   4.491   3.276  13.278  0.3696 -0.0602 -0.0389
  257MPD2     H 3896   0.037   3.174  13.037 -0.2449  1.3587 -0.2690
  257MPD2    H1 3897   4.569   3.155  13.421 -1.5734  1.6910  0.1118
  257MPD2    H2 3898   4.420   3.405  13.129 -1.2157 -0.5152  0.0118
  257MPD2    H3 3899   4.418   3.318  13.346  1.3197  1.0723  0.2692
  257MPD2     N 3900   0.067   3.063  13.261  0.3910  0.3660  0.6139
  257MPD2    H5 3901   0.124   3.019  13.189  2.7502  0.4768  2.3865
  257MPD2    N1 3902   4.587   3.378  12.943 -0.1808  0.1085 -0.0891
  257MPD2    H7 3903   4.508   3.438  12.922 -0.1850  0.0762 -0.1643
  258TMC3    C1 3904   0.232   2.993  13.414  0.7549  0.3938  0.5900
  258TMC3    C2 3905   0.286   2.905  13.330  0.4333 -1.0406  0.4395
  258TMC3    C3 3906   0.405   2.847  13.368 -0.2547 -0.3405 -0.4443
  258TMC3    C4 3907   0.289   3.035  13.527  0.2356 -0.8145 -0.1757
  258TMC3    C5 3908   0.417   2.984  13.547  0.5713 -0.2062  0.1580
  258TMC3    C6 3909   0.473   2.879  13.478 -0.4275 -0.1744  0.3594
  258TMC3     C 3910   0.104   3.057  13.393 -0.3371  0.2196  0.2918
  258TMC3     O 3911   0.046   3.092  13.496  0.7164  0.4482 -0.2193
  258TMC3     H 3912   0.228   2.869  13.245  1.1373  0.9011 -0.8484
  258TMC3    H1 3913   0.245   3.107  13.595  0.0949 -0.8753 -0.2034
  258TMC3    H2 3914   0.579   2.868  13.493 -0.4473 -0.3547  0.3713
  258TMC3    C7 3915   0.483   3.040  13.664  0.0674  0.5103 -0.3846
  258TMC3    C8 3916   0.479   2.764  13.278  0.4203 -0.2986 -0.5251
  258TMC3    O1 3917   0.452   3.154  13.694  0.9395  0.4636 -0.0790
  258TMC3    O2 3918   0.604   2.770  13.278  0.8636 -0.0740  0.5862
  259MPD2     C 3919   4.209   0.148   1.877 -0.3076 -0.3512  0.4741
  259MPD2    C1 3920   4.323   0.085   1.922 -0.6977 -0.7416 -0.1693
  259MPD2    C2 3921   4.434   0.060   1.842  0.1109 -0.3461 -1.4590
  259MPD2    C3 3922   4.440   0.129   1.724 -0.4993  0.6069  0.7376
  259MPD2    C4 3923   4.329   0.200   1.681  0.7349 -0.0757 -0.0045
  259MPD2    C5 3924   4.215   0.207   1.756  0.4015 -0.0659 -0.0793
  259MPD2     H 3925   4.524   0.008   1.872 -0.3132  1.1789  2.4429
  259MPD2    H1 3926   4.328   0.248   1.583  0.9096  0.0216  0.0418
  259MPD2    H2 3927   4.120   0.154   1.938  0.6298  0.0670  1.7956
  259MPD2    H3 3928   4.128   0.253   1.712  1.1754 -0.0832 -1.6176
  259MPD2     N 3929   4.551   0.117   1.640 -0.5682 -0.3747  0.0779
  259MPD2    H5 3930   4.620   0.048   1.666 -3.6636 -3.5164  0.0297
  259MPD2    N1 3931   4.310   0.043   2.056  0.2163 -0.6330  0.4232
  259MPD2    H7 3932   4.219   0.045   2.101 -1.3989  1.4178 -2.8969
  260TMC3    C1 3933   4.695   0.148   1.451  0.2072  0.2426  0.4521
  260TMC3    C2 3934   0.051   0.233   1.377  0.5107  0.7257 -0.6423
  260TMC3    C3 3935   0.155   0.186   1.297 -0.5298 -0.1508 -0.5050
  260TMC3    C4 3936   4.714   0.012   1.436 -0.1959  0.0079  0.1031
  260TMC3    C5 3937   0.097   4.693   1.360 -0.2984  0.1850 -1.0621
  260TMC3    C6 3938   0.182   0.055   1.302 -0.2871 -0.0339  0.0904
  260TMC3     C 3939   4.587   0.200   1.539  0.0603 -0.7108  0.4420
  260TMC3     O 3940   4.546   0.312   1.511 -0.3778  0.0755 -0.0091
  260TMC3     H 3941   0.023   0.338   1.376  2.2312  1.1793  0.2169
  260TMC3    H1 3942   4.645   4.663   1.477 -0.2249  0.7716  1.4107
  260TMC3    H2 3943   0.260   0.015   1.238  0.0544 -0.2797  0.6655
  260TMC3    C7 3944   0.083   4.564   1.294 -0.0256  0.8081  0.4262
  260TMC3    C8 3945   0.185   0.260   1.179 -0.5594 -0.3791  0.0662
  260TMC3    O1 3946   0.134   4.566   1.181  0.0542  0.3235 -0.6922
  260TMC3    O2 3947   0.145   0.375   1.171 -0.7500  0.0717 -0.1477
  261MPD2     C 3948   0.522   3.593  12.022  0.0969  0.3598  0.9445
  261MPD2    C1 3949   0.659   3.618  12.039 -0.2458 -0.1111 -0.0429
  261MPD2    C2 3950   0.714   3.732  11.979 -0.3994  0.1123  0.1263
  261MPD2    C3 3951   0.635   3.815  11.905  0.6607 -0.2292 -0.5967
  261MPD2    C4 3952   0.504   3.784  11.882 -0.2355  0.0410  0.4164
  261MPD2    C5 3953   0.442   3.674  11.939  0.2566 -0.2516 -0.4805
  261MPD2     H 3954   0.821   3.742  11.993 -0.9443  0.9210  3.7284
  261MPD2    H1 3955   0.433   3.846  11.827 -0.0874 -1.5690 -1.5728
  261MPD2    H2 3956   0.469   3.509  12.066  1.1420 -1.0171 -0.4098
  261MPD2    H3 3957   0.337   3.651  11.933  0.1244  0.2405 -0.0951
  261MPD2     N 3958   0.689   3.936  11.851 -0.1112 -0.1891  0.7694
  261MPD2    H5 3959   0.779   3.966  11.887  0.1247  0.2075 -0.1567
  261MPD2    N1 3960   0.738   3.533  12.110  0.0735  0.2949  0.8297
  261MPD2    H7 3961   0.835   3.553  12.131  0.3587 -0.5537  0.3616
  262TMC3    C1 3962   0.712   4.134  11.728  0.6000  0.2457 -0.3788
  262TMC3    C2 3963   0.650   4.253  11.709 -1.0051 -0.4659 -0.4090
  262TMC3    C3 3964   0.721   4.351  11.639 -0.6739  0.1095 -0.8244
  262TMC3    C4 3965   0.842   4.107  11.689 -0.1394  0.0412  0.4151
  262TMC3    C5 3966   0.915   4.202  11.625  0.6592 -0.0102 -0.6699
  262TMC3    C6 3967   0.854   4.323  11.600  0.3113  0.2504  0.1346
  262TMC3     C 3968   0.620   4.028  11.774 -0.1396  0.1099  0.2244
  262TMC3     O 3969   0.503   4.031  11.725  0.2069  0.2817  0.5798
  262TMC3     H 3970   0.549   4.263  11.747 -1.4736  1.3959 -2.1331
  262TMC3    H1 3971   0.889   4.011  11.707 -0.3123  0.1840  1.5821
  262TMC3    H2 3972   0.914   4.410  11.576 -1.4462  1.4465  0.1249
  262TMC3    C7 3973   1.062   4.187  11.625  0.6821  0.7025 -0.0668
  262TMC3    C8 3974   0.667   4.479  11.596  0.3441  0.7618 -0.0011
  262TMC3    O1 3975   1.113   4.097  11.691  0.3272 -0.1260  0.1941
  262TMC3    O2 3976   0.724   4.556  11.516 -0.3101  0.0977  0.3940
  263MPD2     C 3977   1.694   2.659  12.008  0.1888  0.0612 -0.0429
  263MPD2    C1 3978   1.824   2.686  11.967  0.0191  0.1854  0.4381
  263MPD2    C2 3979   1.842   2.788  11.879  1.0150  0.0116  0.3889
  263MPD2    C3 3980   1.741   2.864  11.829 -1.1224  0.1898 -0.7468
  263MPD2    C4 3981   1.611   2.834  11.865  0.1786  0.4395  0.6295
  263MPD2    C5 3982   1.589   2.726  11.951  0.1604  0.7811  0.1706
  263MPD2     H 3983   1.941   2.802  11.837  0.4944  2.7425  0.0305
  263MPD2    H1 3984   1.522   2.890  11.837 -1.6125 -2.2919  0.8658
  263MPD2    H2 3985   1.665   2.583  12.079  1.6214 -0.6393 -0.2100
  263MPD2    H3 3986   1.488   2.701  11.980  1.0657 -1.8078  1.0587
  263MPD2     N 3987   1.765   2.964  11.734 -0.2263  0.0581 -0.6428
  263MPD2    H5 3988   1.866   2.968  11.727 -0.1608 -1.1307 -0.3207
  263MPD2    N1 3989   1.926   2.602  12.008  0.2356  0.0767 -0.0906
  263MPD2    H7 3990   1.897   2.522  12.063  0.0862  1.1634  1.3967
  264TMC3    C1 3991   1.741   3.155  11.592  0.4235 -0.3004 -0.0347
  264TMC3    C2 3992   1.748   3.285  11.635  0.4529  0.4738 -0.2133
  264TMC3    C3 3993   1.827   3.367  11.562  0.2104 -0.5112  0.8025
  264TMC3    C4 3994   1.798   3.114  11.474 -0.7685 -0.8886 -0.5416
  264TMC3    C5 3995   1.885   3.198  11.415  0.0332 -0.2583 -0.5562
  264TMC3    C6 3996   1.900   3.328  11.451 -0.2198 -0.0635  0.7006
  264TMC3     C 3997   1.681   3.061  11.686  0.6260  0.4870 -0.5962
  264TMC3     O 3998   1.580   3.103  11.742  0.2861 -0.4024 -0.3106
  264TMC3     H 3999   1.708   3.305  11.734  2.0300  1.5136  0.1954
  264TMC3    H1 4000   1.784   3.010  11.449 -1.7052 -1.0310  0.5222
  264TMC3    H2 4001   1.967   3.398  11.402 -0.2178 -0.6990 -0.2121
  264TMC3    C7 4002   1.968   3.149  11.297 -0.0241  0.5752  0.5130
  264TMC3    C8 4003   1.910   3.457  11.643  0.4278 -0.4697 -0.2238
  264TMC3    O1 4004   2.037   3.228  11.230 -0.0734 -0.0767 -0.3882
  264TMC3    O2 4005   2.029   3.438  11.618  0.4503 -0.3999  0.3067
  265MPD2     C 4006   4.657   2.881  16.091  0.0226 -0.4002  0.6779
  265MPD2    C1 4007   4.631   3.007  16.042  0.0243 -0.0009 -0.9733
  265MPD2    C2 4008   4.690   3.064  15.937 -0.1100  0.3839  1.1627
  265MPD2    C3 4009   0.052   2.979  15.867 -0.1606 -0.3313 -0.1316
  265MPD2    C4 4010   0.065   2.850  15.901  0.5456 -0.5317 -0.4104
  265MPD2    C5 4011   0.016   2.800  16.021  0.1785  0.6692  0.1249
  265MPD2     H 4012   4.677   3.170  15.917  0.3552  0.0399 -0.9568
  265MPD2    H1 4013   0.130   2.785  15.844 -0.7973 -0.3939 -2.0822
  265MPD2    H2 4014   4.605   2.829  16.171  1.3749 -2.1373  0.4296
  265MPD2    H3 4015   0.029   2.697  16.051 -2.2970 -0.0033 -1.0743
  265MPD2     N 4016   0.101   3.005  15.737 -0.1914 -0.5989 -0.3011
  265MPD2    H5 4017   0.156   2.932  15.694  0.8675 -0.5385  0.9785
  265MPD2    N1 4018   4.537   3.091  16.109  0.3073 -0.7819 -0.4547
  265MPD2    H7 4019   4.527   3.182  16.067 -0.3475 -0.4849  0.3389
  266TMC3    C1 4020   4.387   3.160  16.276 -0.2406  0.5031  0.5072
  266TMC3    C2 4021   4.355   3.157  16.412  0.3871  0.5403 -0.8813
  266TMC3    C3 4022   4.296   3.269  16.479  0.6376 -0.3521  0.3208
  266TMC3    C4 4023   4.361   3.276  16.215  0.2441 -0.2638 -0.4496
  266TMC3    C5 4024   4.297   3.378  16.282  0.5210 -0.1463  0.3081
  266TMC3    C6 4025   4.265   3.378  16.410 -0.0511 -0.3361  0.2156
  266TMC3     C 4026   4.465   3.055  16.218  0.3024 -0.7839 -0.6422
  266TMC3     O 4027   4.457   2.951  16.280 -0.1641  0.5155  0.1617
  266TMC3     H 4028   4.384   3.066  16.463 -0.0807  0.8901  0.0041
  266TMC3    H1 4029   4.396   3.296  16.114 -2.2514 -0.6280 -1.4016
  266TMC3    H2 4030   4.227   3.470  16.452 -1.3590 -0.4913 -0.6558
  266TMC3    C7 4031   4.234   3.483  16.200 -0.4261  0.1352 -0.1683
  266TMC3    C8 4032   4.288   3.270  16.620 -0.1673 -0.3855 -0.3392
  266TMC3    O1 4033   4.189   3.576  16.260  0.2139  0.6527  0.3487
  266TMC3    O2 4034   4.306   3.167  16.680 -0.4574 -0.0286 -0.2519
  267MPD2     C 4035   2.582   4.493   0.349 -0.3605 -0.4510  0.3966
  267MPD2    C1 4036   2.547   4.614   0.400 -0.1034  0.0402  0.7810
  267MPD2    C2 4037   2.414   4.657   0.421  0.0632  0.1440 -0.3891
  267MPD2    C3 4038   2.303   4.578   0.385  0.4767 -0.5561  0.6396
  267MPD2    C4 4039   2.337   4.457   0.335 -0.4924  0.2707  0.3130
  267MPD2    C5 4040   2.469   4.422   0.316  0.5117 -0.5230 -0.7669
  267MPD2     H 4041   2.401   0.029   0.471 -1.7478 -0.4517  0.2587
  267MPD2    H1 4042   2.256   4.388   0.316 -0.2152  0.5552 -1.8498
  267MPD2    H2 4043   2.684   4.459   0.333  0.6711  1.0506  3.7121
  267MPD2    H3 4044   2.487   4.332   0.257 -1.3742 -0.4950 -1.3916
  267MPD2     N 4045   2.168   4.622   0.396  0.6408 -1.0604 -0.1951
  267MPD2    H5 4046   2.096   4.556   0.367  1.4161 -1.5736 -0.9617
  267MPD2    N1 4047   2.658   4.694   0.435 -0.2311 -0.2618  0.5038
  267MPD2    H7 4048   2.752   4.657   0.424  0.0449  1.0659 -1.6502
  268TMC3    C1 4049   2.742   0.159   0.556  0.3031  0.0230  0.7738
  268TMC3    C2 4050   2.711   0.285   0.595  0.2558 -0.2032  0.0348
  268TMC3    C3 4051   2.695   0.311   0.728  0.7327  0.8698 -0.4562
  268TMC3    C4 4052   2.773   0.064   0.650  0.1687  0.7860  0.6967
  268TMC3    C5 4053   2.759   0.097   0.787 -0.3158  0.4403 -0.1692
  268TMC3    C6 4054   2.707   0.214   0.825  0.1620 -0.1633  0.0683
  268TMC3     C 4055   2.643   0.106   0.466  0.1727  0.0618 -0.4331
  268TMC3     O 4056   2.547   0.184   0.448 -0.0039 -0.1415 -0.1074
  268TMC3     H 4057   2.710   0.362   0.519 -2.5388  2.3266  2.6411
  268TMC3    H1 4058   2.808   4.690   0.621 -0.5744  0.3487  1.3095
  268TMC3    H2 4059   2.683   0.237   0.929  0.5463  0.8469 -0.0695
  268TMC3    C7 4060   2.752   4.716   0.889 -0.0910  0.0649 -1.1082
  268TMC3    C8 4061   2.576   0.385   0.755  0.1104  0.1509 -0.2459
  268TMC3    O1 4062   2.664   0.019   0.970  0.4418  0.8855 -0.1096
  268TMC3    O2 4063   2.558   0.436   0.866 -0.6175 -0.0483  0.7631
  269MPD2     C 4064   2.398   3.964  15.723 -0.1548  0.8336 -0.2737
  269MPD2    C1 4065   2.282   3.982  15.795 -0.3056 -0.2241 -0.4238
  269MPD2    C2 4066   2.230   4.105  15.817 -0.7151  0.0655  0.0832
  269MPD2    C3 4067   2.295   4.211  15.769  0.5358  0.9141  0.0569
  269MPD2    C4 4068   2.404   4.189  15.682  0.3034  0.4237 -0.1138
  269MPD2    C5 4069   2.457   4.067  15.665  0.3324  0.1894  0.2394
  269MPD2     H 4070   2.136   4.129  15.865 -1.0584  0.2818 -0.6997
  269MPD2    H1 4071   2.461   4.264  15.628 -0.6475  2.0959  1.1982
  269MPD2    H2 4072   2.446   3.867  15.720  0.4753  1.1717 -1.2704
  269MPD2    H3 4073   2.540   4.056  15.596 -0.2886 -1.3003 -0.2650
  269MPD2     N 4074   2.232   4.337  15.796  0.4408 -0.9800 -0.1527
  269MPD2    H5 4075   2.144   4.342  15.846 -0.0882 -0.0075 -1.1759
  269MPD2    N1 4076   2.216   3.858  15.811  0.1436 -0.0735  0.9416
  269MPD2    H7 4077   2.266   3.772  15.788 -1.0065 -0.8189  1.2041
  270TMC3    C1 4078   2.050   3.704  15.887  0.6044 -0.2127 -0.1814
  270TMC3    C2 4079   1.915   3.691  15.900 -0.0888 -0.4633 -0.3485
  270TMC3    C3 4080   1.868   3.564  15.914 -0.0700  0.2570  0.3482
  270TMC3    C4 4081   2.138   3.603  15.888 -0.0515 -0.1214 -0.0167
  270TMC3    C5 4082   2.089   3.473  15.916  0.6711 -0.0097  0.3021
  270TMC3    C6 4083   1.954   3.457  15.928  0.6438 -0.6202 -0.6210
  270TMC3     C 4084   2.092   3.844  15.873 -0.1846 -0.1051 -0.5161
  270TMC3     O 4085   2.021   3.930  15.920  0.2101 -0.3848 -0.6941
  270TMC3     H 4086   1.844   3.769  15.876  2.5634  2.5476  1.5973
  270TMC3    H1 4087   2.243   3.631  15.882 -0.0959  0.1757  0.5877
  270TMC3    H2 4088   1.911   3.359  15.942 -0.9644  0.4338  1.8774
  270TMC3    C7 4089   2.171   3.353  15.899  0.4052  0.2849  0.1010
  270TMC3    C8 4090   1.747   3.530  15.843 -0.4389  0.2892  0.7619
  270TMC3    O1 4091   2.291   3.385  15.888  0.2300 -0.2703  0.5242
  270TMC3    O2 4092   1.646   3.601  15.844 -0.0221 -0.2304  0.1548
  271MPD2     C 4093   1.312   3.420  14.185  0.3517  0.1743  0.0366
  271MPD2    C1 4094   1.259   3.415  14.310  0.3258  0.5005  0.0848
  271MPD2    C2 4095   1.131   3.464  14.340 -0.0640  0.0820 -0.1589
  271MPD2    C3 4096   1.052   3.509  14.231  1.1548  0.0516  0.2704
  271MPD2    C4 4097   1.107   3.508  14.102 -0.3953 -0.7061  0.0579
  271MPD2    C5 4098   1.234   3.471  14.083  0.4576 -0.2306  0.0530
  271MPD2     H 4099   1.103   3.463  14.444  0.2817 -1.3867 -0.0759
  271MPD2    H1 4100   1.041   3.548  14.025 -3.0748 -0.4599  2.4750
  271MPD2    H2 4101   1.409   3.384  14.155  0.9124 -1.3249  3.6308
  271MPD2    H3 4102   1.278   3.463  13.984 -0.1686  0.5819 -0.2912
  271MPD2     N 4103   0.923   3.559  14.257 -0.0750 -0.0534  0.1773
  271MPD2    H5 4104   0.860   3.566  14.177  1.6397  1.5372 -1.0474
  271MPD2    N1 4105   1.321   3.350  14.421 -0.3926 -0.2125  0.1180
  271MPD2    H7 4106   1.272   3.367  14.509 -1.5679 -0.7795 -0.4304
  272TMC3    C1 4107   1.452   3.187  14.534  0.1763 -0.2727 -0.2703
  272TMC3    C2 4108   1.572   3.116  14.542  1.0267 -0.5694 -0.5022
  272TMC3    C3 4109   1.611   3.062  14.663 -0.2617 -0.7957  0.0401
  272TMC3    C4 4110   1.372   3.198  14.646  0.0859 -0.5043  0.4226
  272TMC3    C5 4111   1.426   3.159  14.763  0.2139 -0.7643  0.8733
  272TMC3    C6 4112   1.542   3.095  14.779  0.4550  0.2129  0.1376
  272TMC3     C 4113   1.432   3.267  14.414 -0.4714  0.4950 -0.5139
  272TMC3     O 4114   1.490   3.218  14.317 -0.5073 -0.8580  0.0266
  272TMC3     H 4115   1.632   3.101  14.453  0.6039 -0.0059 -0.8799
  272TMC3    H1 4116   1.281   3.257  14.644  0.0126 -0.5141  2.9610
  272TMC3    H2 4117   1.590   3.057  14.868  1.1426  1.0561  0.1299
  272TMC3    C7 4118   1.362   3.222  14.879  0.2735 -0.0086 -0.1741
  272TMC3    C8 4119   1.750   3.039  14.676 -0.4159  0.9170 -0.0267
  272TMC3    O1 4120   1.240   3.230  14.884  0.4122  0.4225 -0.2965
  272TMC3    O2 4121   1.814   3.100  14.589 -0.1394  0.4422  0.1995
  273MPD2     C 4122   2.181   1.257  11.889 -0.8000 -0.1278  0.0212
  273MPD2    C1 4123   2.230   1.376  11.927  0.1870 -0.5234 -0.7625
  273MPD2    C2 4124   2.254   1.474  11.828 -0.2437  0.0595 -0.2374
  273MPD2    C3 4125   2.224   1.458  11.693 -0.5149  0.5717 -0.7067
  273MPD2    C4 4126   2.157   1.344  11.655 -0.5736  0.3376  0.3775
  273MPD2    C5 4127   2.143   1.246  11.753 -0.4586  0.0797  0.2893
  273MPD2     H 4128   2.289   1.572  11.858  0.6975 -0.8674  1.7320
  273MPD2    H1 4129   2.130   1.328  11.552 -1.1347 -1.8185  0.8650
  273MPD2    H2 4130   2.176   1.172  11.956  0.3923  0.2449  0.5732
  273MPD2    H3 4131   2.094   1.151  11.733 -1.0453  0.0408  1.8906
  273MPD2     N 4132   2.247   1.563  11.600  0.2855  0.5180 -0.0214
  273MPD2    H5 4133   2.203   1.556  11.508  0.9979 -1.1261 -0.2401
  273MPD2    N1 4134   2.260   1.407  12.063 -0.2740 -0.3285 -0.3753
  273MPD2    H7 4135   2.250   1.324  12.121 -0.6944  1.1564  1.6706
  274TMC3    C1 4136   2.345   1.744  11.494 -0.4246  0.6620  0.9768
  274TMC3    C2 4137   2.237   1.764  11.414 -0.6048  0.0851  0.0395
  274TMC3    C3 4138   2.261   1.851  11.312  0.4914  0.1475 -0.4677
  274TMC3    C4 4139   2.473   1.801  11.473 -0.4353 -0.4409  0.7320
  274TMC3    C5 4140   2.488   1.883  11.363 -0.2799 -0.0102  0.1904
  274TMC3    C6 4141   2.388   1.891  11.274 -0.4677 -0.2079 -0.7444
  274TMC3     C 4142   2.338   1.661  11.612  0.1845 -0.0344  0.5131
  274TMC3     O 4143   2.405   1.700  11.707  0.1717 -0.8071  0.2684
  274TMC3     H 4144   2.140   1.730  11.449 -0.2878  0.2876  1.1337
  274TMC3    H1 4145   2.550   1.787  11.548  1.8593  2.7450 -1.0439
  274TMC3    H2 4146   2.392   1.981  11.214 -2.7124  1.0395  1.0459
  274TMC3    C7 4147   2.551   2.013  11.390  0.0533 -0.2398 -0.2957
  274TMC3    C8 4148   2.146   1.918  11.260  0.5077  0.0755 -0.0833
  274TMC3    O1 4149   2.585   2.072  11.293 -0.0039  0.3265  0.3980
  274TMC3    O2 4150   2.062   1.949  11.342 -0.1626 -0.2233  0.1507
  275MPD2     C 4151   3.005   3.991  14.689  0.0695  0.0044  0.0368
  275MPD2    C1 4152   2.931   4.105  14.687 -0.3844  0.8890  0.1558
  275MPD2    C2 4153   2.802   4.091  14.641 -0.4555  0.3736 -0.0032
  275MPD2    C3 4154   2.752   3.967  14.603  0.1137 -0.0583 -0.0463
  275MPD2    C4 4155   2.832   3.859  14.606 -0.5301  0.8748  0.0387
  275MPD2    C5 4156   2.966   3.871  14.638 -0.2100  0.1116  0.1428
  275MPD2     H 4157   2.734   4.175  14.645 -0.0918  0.7210 -1.1066
  275MPD2    H1 4158   2.781   3.763  14.601  1.7184 -0.5235  3.7497
  275MPD2    H2 4159   3.107   4.000  14.727  0.9531 -1.0977 -2.0783
  275MPD2    H3 4160   3.043   3.796  14.655  0.4188  0.6550 -0.3329
  275MPD2     N 4161   2.614   3.947  14.576 -0.0844 -0.4910  0.3224
  275MPD2    H5 4162   2.580   3.852  14.585 -2.1541  0.1071 -1.1144
  275MPD2    N1 4163   2.972   4.230  14.735 -0.2785 -0.0217 -0.1637
  275MPD2    H7 4164   2.907   4.308  14.725 -0.5964 -0.5418 -2.0199
  276TMC3    C1 4165   3.071   4.367  14.892 -0.5172  0.1359 -0.5140
  276TMC3    C2 4166   2.945   4.423  14.898  0.6403  0.1390 -1.0501
  276TMC3    C3 4167   2.887   4.443  15.021 -0.0745  0.0197 -0.0153
  276TMC3    C4 4168   3.142   4.348  15.009 -0.1207 -0.1340 -0.2968
  276TMC3    C5 4169   3.088   4.389  15.129  0.0770 -0.3167 -0.1948
  276TMC3    C6 4170   2.959   4.420  15.133  0.2820  0.3818 -0.1746
  276TMC3     C 4171   3.091   4.259  14.791  0.6370  0.2195 -0.3371
  276TMC3     O 4172   3.190   4.191  14.807 -0.2337 -0.6357 -0.6589
  276TMC3     H 4173   2.877   4.438  14.814 -1.8466 -1.4908  0.6723
  276TMC3    H1 4174   3.234   4.292  15.021 -0.5822 -0.9241 -0.5102
  276TMC3    H2 4175   2.908   4.423  15.229  0.8377 -1.9237  0.2049
  276TMC3    C7 4176   3.167   4.440  15.239  0.4808  0.3882  0.6377
  276TMC3    C8 4177   2.761   4.376  15.021  0.5294 -0.2285 -0.0431
  276TMC3    O1 4178   3.110   4.509  15.320 -0.1371 -0.4678  0.5466
  276TMC3    O2 4179   2.660   4.438  14.979  0.3101 -0.1778  0.0366
  277MPD2     C 4180   4.318   3.631  13.569 -0.0458  0.3398  0.4357
  277MPD2    C1 4181   4.221   3.677  13.650 -1.0674 -0.3681 -0.4222
  277MPD2    C2 4182   4.192   3.604  13.764 -0.1107 -0.2983 -0.6852
  277MPD2    C3 4183   4.260   3.488  13.794  0.3485 -0.0723  0.1684
  277MPD2    C4 4184   4.363   3.439  13.716 -0.2048 -0.2037 -0.3569
  277MPD2    C5 4185   4.388   3.519  13.605 -0.3866 -0.3217 -0.6760
  277MPD2     H 4186   4.106   3.626  13.825  0.9375  2.3887 -0.1543
  277MPD2    H1 4187   4.430   3.356  13.735  0.9186  0.7227 -0.3049
  277MPD2    H2 4188   4.341   3.675  13.473  0.8811 -0.0224  0.4981
  277MPD2    H3 4189   4.462   3.487  13.533  0.4316  0.0638 -0.0120
  277MPD2     N 4190   4.214   3.421  13.911  0.0260  0.1870  0.6268
  277MPD2    H5 4191   4.138   3.459  13.965 -0.6529  2.7201 -2.0894
  277MPD2    N1 4192   4.148   3.792  13.600  0.4736  0.2036 -0.3990
  277MPD2    H7 4193   4.174   3.825  13.507 -0.2466 -1.1086 -1.0626
  278TMC3    C1 4194   4.183   3.252  14.070  0.3609  1.1242  0.5553
  278TMC3    C2 4195   4.132   3.123  14.058 -0.1168 -0.1571  0.2274
  278TMC3    C3 4196   4.026   3.095  14.138 -0.9677 -0.5990  0.3668
  278TMC3    C4 4197   4.122   3.347  14.149  0.0532 -0.5224  0.3471
  278TMC3    C5 4198   4.014   3.315  14.224 -0.3432 -0.3827  0.1123
  278TMC3    C6 4199   3.971   3.183  14.227  0.1759  0.1363  0.0127
  278TMC3     C 4200   4.254   3.295  13.945  0.2142  0.0333  0.0776
  278TMC3     O 4201   4.320   3.209  13.883  0.6110  0.2376 -0.0773
  278TMC3     H 4202   4.188   3.049  14.003  1.1765  0.5734  0.5541
  278TMC3    H1 4203   4.161   3.447  14.157  1.2463 -0.9823  0.2302
  278TMC3    H2 4204   3.890   3.148  14.290  0.7466 -0.1533  0.5832
  278TMC3    C7 4205   3.918   3.422  14.254  0.4905 -0.1725  0.3527
  278TMC3    C8 4206   3.969   2.963  14.113 -0.1049 -0.2510  0.1250
  278TMC3    O1 4207   3.974   3.531  14.265  0.6334  0.5669  0.3311
  278TMC3    O2 4208   3.890   2.921  14.195 -0.1074  0.1622 -0.4205
  279MPD2     C 4209   3.944   3.475   0.725 -1.1369  0.0142  0.5463
  279MPD2    C1 4210   3.835   3.459   0.639 -0.5840 -0.0759 -0.5834
  279MPD2    C2 4211   3.820   3.530   0.521 -0.1553  0.3368 -0.2696
  279MPD2    C3 4212   3.922   3.611   0.480 -0.3505  0.2333 -0.4082
  279MPD2    C4 4213   4.027   3.629   0.566 -0.4117  0.9678  0.6641
  279MPD2    C5 4214   4.042   3.563   0.682 -0.6371 -0.1883  0.4050
  279MPD2     H 4215   3.730   3.512   0.462  1.1112  2.2888 -2.7886
  279MPD2    H1 4216   4.102   3.702   0.538  0.0585  0.0558 -0.4251
  279MPD2    H2 4217   3.958   3.423   0.820  0.6977  0.6130  0.6028
  279MPD2    H3 4218   4.125   3.589   0.748 -1.7564  0.3603  1.6044
  279MPD2     N 4219   3.905   3.692   0.366 -0.7867  0.1557 -0.0208
  279MPD2    H5 4220   3.970   3.769   0.354  1.3317 -1.7927 -1.0112
  279MPD2    N1 4221   3.734   3.379   0.692  0.1333 -0.2015 -0.8427
  279MPD2    H7 4222   3.756   3.331   0.779 -0.4943  0.5171 -0.2930
  280TMC3    C1 4223   3.526   3.263   0.705 -0.5311 -0.1581 -0.1889
  280TMC3    C2 4224   3.593   3.151   0.753 -0.2874  0.0213 -0.8344
  280TMC3    C3 4225   3.522   3.061   0.819 -0.1443  0.1423  0.1522
  280TMC3    C4 4226   3.395   3.293   0.736 -0.2395 -0.2397 -0.3301
  280TMC3    C5 4227   3.322   3.191   0.787  0.5909 -0.5040  0.5584
  280TMC3    C6 4228   3.384   3.077   0.826 -0.5268  0.0459  0.2544
  280TMC3     C 4229   3.598   3.374   0.654 -0.2076  0.4405  0.1874
  280TMC3     O 4230   3.532   3.448   0.577  0.1543  0.5886  0.7678
  280TMC3     H 4231   3.695   3.133   0.721 -0.9076  0.0947 -2.8359
  280TMC3    H1 4232   3.345   3.384   0.705  0.2126 -0.2892 -1.2031
  280TMC3    H2 4233   3.320   2.994   0.856  1.1587 -1.4970 -0.3920
  280TMC3    C7 4234   3.184   3.209   0.821  0.3483 -0.3847 -1.0396
  280TMC3    C8 4235   3.580   2.937   0.860  0.8521  0.6812 -0.5792
  280TMC3    O1 4236   3.130   3.127   0.897 -0.5769  0.7373  1.0206
  280TMC3    O2 4237   3.495   2.851   0.846  0.0547 -0.2876 -0.5300
  281TMC3    C1 4238   1.537   3.971  13.312  0.3149  0.6114 -0.1695
  281TMC3    C2 4239   1.457   4.026  13.214  0.0722  0.0261 -0.0685
  281TMC3    C3 4240   1.420   3.942  13.109  0.5499  0.1126  0.3943
  281TMC3    C4 4241   1.587   3.840  13.310 -0.6355  0.7211 -0.3016
  281TMC3    C5 4242   1.555   3.763  13.199  0.6576  0.0834 -0.4525
  281TMC3    C6 4243   1.467   3.812  13.100  0.6600  0.0173 -0.2581
  281TMC3     C 4244   1.583   4.059  13.417 -0.2896 -0.1189  0.1670
  281TMC3     O 4245   1.694   4.038  13.464 -0.0758 -0.2901 -0.0353
  281TMC3     H 4246   1.440   4.134  13.209  2.6486  0.4665  1.0505
  281TMC3    H1 4247   1.664   3.813  13.382 -0.4329  2.0566 -0.0138
  281TMC3    H2 4248   1.454   3.768  13.002 -0.4818 -0.8604  0.2880
  281TMC3    C7 4249   1.636   3.644  13.155 -0.0096 -0.5424  0.2885
  281TMC3    C8 4250   1.294   3.973  13.048 -0.7326 -0.4245  0.3578
  281TMC3    O1 4251   1.636   3.617  13.037  0.3716  0.3225 -0.3524
  281TMC3    O2 4252   1.241   3.884  12.984  0.7245 -0.2211 -0.0391
  282MPD2     C 4253   4.129   0.433  15.267  0.8173 -0.0548  0.1006
  282MPD2    C1 4254   4.015   0.487  15.307 -1.1219 -1.1631 -0.8374
  282MPD2    C2 4255   3.910   0.495  15.222  0.5075 -0.2395 -0.8967
  282MPD2    C3 4256   3.921   0.457  15.092 -0.5295  0.1074  0.3581
  282MPD2    C4 4257   4.043   0.426  15.038  0.2737 -0.8058 -0.4705
  282MPD2    C5 4258   4.149   0.417  15.128  0.2998  0.6107 -0.6481
  282MPD2     H 4259   3.817   0.533  15.262 -0.1260 -1.9496 -0.7282
  282MPD2    H1 4260   4.059   0.403  14.933  0.6759 -1.8391 -0.1745
  282MPD2    H2 4261   4.214   0.409  15.330  0.7311 -0.7511 -0.0447
  282MPD2    H3 4262   4.250   0.388  15.104  0.1786 -1.7810  1.7908
  282MPD2     N 4263   3.804   0.484  15.020  0.1813  0.0399 -0.7106
  282MPD2    H5 4264   3.726   0.522  15.073  0.1655 -0.6622 -0.2203
  282MPD2    N1 4265   4.001   0.538  15.438 -0.7095  0.3506 -0.0742
  282MPD2    H7 4266   3.910   0.564  15.474 -0.6947  0.5037 -0.1455
  283TMC3    C1 4267   4.052   0.626  15.646 -0.6509 -0.2040 -0.5195
  283TMC3    C2 4268   4.133   0.722  15.701  0.2637  0.0364 -0.8705
  283TMC3    C3 4269   4.099   0.766  15.831 -0.7024 -0.5921  0.3680
  283TMC3    C4 4270   3.951   0.563  15.722 -0.0214 -0.6215 -0.1364
  283TMC3    C5 4271   3.941   0.595  15.849 -0.1929 -0.5625 -0.0166
  283TMC3    C6 4272   4.011   0.699  15.908  0.6993 -0.6060 -0.2546
  283TMC3     C 4273   4.100   0.569  15.518 -0.2501  0.0833 -0.1024
  283TMC3     O 4274   4.215   0.582  15.496 -0.4942  0.0918  0.0906
  283TMC3     H 4275   4.225   0.754  15.653  0.1541  1.4576 -0.1381
  283TMC3    H1 4276   3.894   0.482  15.679  0.2528 -0.7465 -0.2681
  283TMC3    H2 4277   4.008   0.722  16.014 -2.6021  0.9387 -0.6826
  283TMC3    C7 4278   3.900   0.487  15.938  0.7562  0.2314 -0.2811
  283TMC3    C8 4279   4.126   0.909  15.852  0.3045 -0.2775 -0.2858
  283TMC3    O1 4280   3.898   0.515  16.058 -0.4811  0.5957 -0.5718
  283TMC3    O2 4281   4.147   0.941  15.970 -0.3965 -0.0436 -0.1880
  284MPD2     C 4282   1.855   4.647  11.599  0.9326  0.1554 -0.1262
  284MPD2    C1 4283   1.921   0.009  11.683 -0.3164 -0.1263  0.0619
  284MPD2    C2 4284   1.949   4.685  11.813 -0.2541  0.2456 -0.1904
  284MPD2    C3 4285   1.919   4.555  11.847 -0.3320 -0.1329 -0.1981
  284MPD2    C4 4286   1.845   4.476  11.764 -0.6296 -0.0717 -0.4200
  284MPD2    C5 4287   1.815   4.524  11.640 -0.0203 -0.2806  0.5029
  284MPD2     H 4288   1.997   0.016  11.893  1.1808  0.7767 -1.4079
  284MPD2    H1 4289   1.803   4.380  11.795  0.5786 -0.8433 -1.1704
  284MPD2    H2 4290   1.833   4.661  11.494 -1.8382 -0.0487  0.4113
  284MPD2    H3 4291   1.757   4.474  11.564 -0.4739  0.0596  0.6262
  284MPD2     N 4292   1.975   4.509  11.970  0.3730  0.2473 -0.0252
  284MPD2    H5 4293   2.024   4.581  12.022 -0.3400 -0.2086  1.2708
  284MPD2    N1 4294   1.940   0.141  11.629  0.2536  0.4728  0.4138
  284MPD2    H7 4295   1.872   0.162  11.558  1.0821 -0.9384 -0.7933
  285TMC3    C1 4296   2.142   0.205  11.759 -0.0069 -0.2057  0.8378
  285TMC3    C2 4297   2.211   0.089  11.744  0.2192 -0.8841  0.1928
  285TMC3    C3 4298   2.334   0.071  11.799  0.4435 -0.5467  0.1327
  285TMC3    C4 4299   2.201   0.310  11.823 -0.2960  0.1092 -0.4436
  285TMC3    C5 4300   2.332   0.298  11.871  0.0093 -0.7408 -0.5935
  285TMC3    C6 4301   2.399   0.176  11.856 -0.3200 -0.8368  0.2208
  285TMC3     C 4302   2.020   0.236  11.682 -0.6799 -0.0593 -0.2228
  285TMC3     O 4303   1.999   0.356  11.672  0.0781 -0.3365  0.1343
  285TMC3     H 4304   2.174   0.000  11.695  0.3539 -0.3243 -0.9215
  285TMC3    H1 4305   2.160   0.410  11.821  3.6942  1.7207 -1.9055
  285TMC3    H2 4306   2.505   0.171  11.879 -0.0293  3.1327 -0.1415
  285TMC3    C7 4307   2.405   0.420  11.885  0.3868 -0.0543  0.8478
  285TMC3    C8 4308   2.397   4.664  11.774  0.3195  0.0773 -0.4844
  285TMC3    O1 4309   2.368   0.505  11.802 -0.0519  0.2144 -0.2843
  285TMC3    O2 4310   2.317   4.572  11.772  0.4241 -0.1166  0.1940
  286MPD2     C 4311   3.189   2.989   2.287  0.0129  0.1793  0.3929
  286MPD2    C1 4312   3.084   2.926   2.223  0.2428 -0.0454  0.0446
  286MPD2    C2 4313   3.102   2.798   2.177  0.5372 -0.1780 -0.3621
  286MPD2    C3 4314   3.221   2.729   2.182 -1.0937 -0.2240 -0.3850
  286MPD2    C4 4315   3.326   2.797   2.235 -0.1430 -0.5110 -0.5314
  286MPD2    C5 4316   3.312   2.922   2.287  0.0935  0.3374 -0.4558
  286MPD2     H 4317   3.019   2.750   2.128  1.9379 -1.4474 -1.5190
  286MPD2    H1 4318   3.428   2.762   2.247 -0.5401 -0.7620  2.1826
  286MPD2    H2 4319   3.185   3.091   2.325 -0.0802  1.0049 -1.8413
  286MPD2    H3 4320   3.399   2.978   2.321  0.1165  0.3114 -0.4715
  286MPD2     N 4321   3.255   2.611   2.119  0.1745  0.3156 -0.0790
  286MPD2    H5 4322   3.351   2.577   2.119 -0.4825 -1.5701  0.3701
  286MPD2    N1 4323   2.955   2.986   2.208 -0.2484  0.1503 -0.4214
  286MPD2    H7 4324   2.885   2.935   2.154  0.2394 -2.3235  1.2895
  287TMC3    C1 4325   3.234   2.439   1.965  0.2198  0.2985  0.0233
  287TMC3    C2 4326   3.179   2.400   1.844  0.3262  0.0944 -0.2388
  287TMC3    C3 4327   3.243   2.302   1.770 -0.0184 -0.2618 -0.4408
  287TMC3    C4 4328   3.353   2.391   2.014 -0.0937  0.1028 -0.2410
  287TMC3    C5 4329   3.412   2.298   1.936  0.0403  0.3112  0.8363
  287TMC3    C6 4330   3.357   2.247   1.819 -0.0432 -0.4969 -0.7150
  287TMC3     C 4331   3.176   2.554   2.024  0.3902 -0.0520 -0.0946
  287TMC3     O 4332   3.065   2.586   1.990 -0.0521 -0.3013  0.1196
  287TMC3     H 4333   3.084   2.438   1.810  0.5806  1.8194  0.9824
  287TMC3    H1 4334   3.392   2.421   2.111 -0.8621 -2.1425  0.7740
  287TMC3    H2 4335   3.392   2.163   1.759 -0.0434 -2.5869  2.2371
  287TMC3    C7 4336   3.548   2.267   1.961  0.3003 -1.1148  1.6677
  287TMC3    C8 4337   3.182   2.271   1.641 -0.3247 -0.1470 -0.3124
  287TMC3    O1 4338   3.593   2.304   2.065 -0.4196  0.3331 -0.2203
  287TMC3    O2 4339   3.197   2.158   1.592 -0.5272 -0.5879 -0.1632
  288TMC3    C1 4340   4.332   2.725  14.771 -0.7326  0.0569  0.5469
  288TMC3    C2 4341   4.311   2.672  14.895  0.2583 -0.1482  0.1716
  288TMC3    C3 4342   4.329   2.752  15.008 -0.0302 -0.0960  0.5331
  288TMC3    C4 4343   4.355   2.855  14.748  0.1403  0.5402  0.0259
  288TMC3    C5 4344   4.367   2.931  14.855  1.1295  0.2486  0.5448
  288TMC3    C6 4345   4.362   2.881  14.984 -0.6337 -0.1975  0.0461
  288TMC3     C 4346   4.316   2.637  14.656  0.5799 -0.1615  0.0372
  288TMC3     O 4347   4.329   2.515  14.675 -0.3289 -0.3194  0.4957
  288TMC3     H 4348   4.285   2.568  14.912 -0.3033 -0.0639 -0.1646
  288TMC3    H1 4349   4.377   2.894  14.650  0.3718  0.1500 -0.0792
  288TMC3    H2 4350   4.364   2.947  15.070  0.4976 -0.9663  0.6067
  288TMC3    C7 4351   4.393   3.073  14.826 -0.0543  0.1919  0.9815
  288TMC3    C8 4352   4.272   2.703  15.128 -0.4043  0.6701 -0.1046
  288TMC3    O1 4353   4.361   3.116  14.717  0.1959  0.3425  0.6398
  288TMC3    O2 4354   4.317   2.762  15.227 -0.7779 -0.8732  0.2915
  289MPD2     C 4355   0.003   2.109  14.048  0.1742  0.8397  0.5467
  289MPD2    C1 4356   4.701   2.202  14.149  0.1899 -0.4815 -0.0549
  289MPD2    C2 4357   4.607   2.164  14.249 -0.4141 -0.2773  0.6527
  289MPD2    C3 4358   4.540   2.048  14.242 -0.2578 -0.0418 -0.1829
  289MPD2    C4 4359   4.570   1.955  14.140 -0.1957 -0.6852 -0.3951
  289MPD2    C5 4360   4.667   1.987  14.054 -0.6785  0.4933 -0.6901
  289MPD2     H 4361   4.584   2.234  14.328  0.6243  0.6217  0.1633
  289MPD2    H1 4362   4.519   1.863  14.115  0.2504 -1.0928  0.1881
  289MPD2    H2 4363   0.069   2.136  13.966 -0.9351  1.7019 -0.0716
  289MPD2    H3 4364   4.682   1.922  13.968 -0.6226  1.5348 -1.4593
  289MPD2     N 4365   4.428   2.021  14.332  1.2186  0.2231 -0.8449
  289MPD2    H5 4366   4.372   1.942  14.302 -1.5211  1.0374  2.0995
  289MPD2    N1 4367   0.015   2.336  14.134  0.2730 -0.2016  0.3882
  289MPD2    H7 4368   0.034   2.366  14.038 -1.9278 -0.8299 -0.2530
  290TMC3    C1 4369   4.262   2.052  14.489 -0.5339  0.0758 -0.6748
  290TMC3    C2 4370   4.180   2.159  14.526 -0.4604  0.4593 -0.1252
  290TMC3    C3 4371   4.045   2.147  14.514 -0.0935  0.0653 -0.1834
  290TMC3    C4 4372   4.212   1.934  14.439  0.1008  0.6008 -0.5444
  290TMC3    C5 4373   4.077   1.926  14.434  0.0685 -0.7173  0.1169
  290TMC3    C6 4374   3.992   2.036  14.456 -0.5272 -0.1035  0.0647
  290TMC3     C 4375   4.393   2.093  14.437 -0.0875  0.5394 -0.3585
  290TMC3     O 4376   4.433   2.204  14.479 -0.4348 -0.0518  0.7396
  290TMC3     H 4377   4.219   2.256  14.556  1.4268  0.0527 -1.2326
  290TMC3    H1 4378   4.271   1.844  14.423 -1.2142 -0.4505  0.4970
  290TMC3    H2 4379   3.885   2.016  14.455 -0.4515 -0.4614 -1.9222
  290TMC3    C7 4380   4.021   1.852  14.316 -0.3795 -0.5765 -0.0058
  290TMC3    C8 4381   3.966   2.274  14.497 -0.3467  0.6348 -0.3247
  290TMC3    O1 4382   3.948   1.908  14.230  0.0258 -0.2996  0.0390
  290TMC3    O2 4383   3.892   2.268  14.396 -0.3664 -0.0685 -0.1383
  291MPD2     C 4384   3.359   2.184   0.676  0.4304 -0.0685  0.8844
  291MPD2    C1 4385   3.464   2.103   0.730  0.3961  0.1552 -0.2579
  291MPD2    C2 4386   3.595   2.151   0.727  0.0725  0.1230 -0.0002
  291MPD2    C3 4387   3.617   2.279   0.680 -0.2728 -0.4512  0.4307
  291MPD2    C4 4388   3.510   2.359   0.635 -0.4253  0.1811  1.1266
  291MPD2    C5 4389   3.386   2.306   0.634 -0.5334  0.7482  0.5537
  291MPD2     H 4390   3.672   2.077   0.748  0.0258 -0.4077 -1.6563
  291MPD2    H1 4391   3.530   2.456   0.591  2.0390 -0.2139  1.3854
  291MPD2    H2 4392   3.259   2.144   0.667 -0.6032  3.0485 -1.3162
  291MPD2    H3 4393   3.302   2.357   0.588  0.1386  2.6593  1.4460
  291MPD2     N 4394   3.746   2.341   0.666  0.2373 -0.2736 -1.0205
  291MPD2    H5 4395   3.746   2.435   0.626  3.2608  0.1506  0.0286
  291MPD2    N1 4396   3.447   1.971   0.773  0.1771  0.3607  0.2777
  291MPD2    H7 4397   3.526   1.935   0.825  0.7477  1.7791  0.3966
  292TMC3    C1 4398   3.338   1.756   0.797 -0.4854 -0.4171  0.2691
  292TMC3    C2 4399   3.428   1.732   0.901  0.5440 -0.1818  0.4106
  292TMC3    C3 4400   3.457   1.601   0.927  0.8136  0.3902  0.4848
  292TMC3    C4 4401   3.286   1.658   0.718 -0.3968  0.3123  0.7613
  292TMC3    C5 4402   3.322   1.532   0.749  0.0431  0.1837  0.0112
  292TMC3    C6 4403   3.408   1.501   0.851  0.3666 -0.0347  0.1594
  292TMC3     C 4404   3.335   1.894   0.746  0.0534 -0.0079 -1.2378
  292TMC3     O 4405   3.241   1.917   0.674 -0.3615 -0.0935 -0.5385
  292TMC3     H 4406   3.457   1.817   0.962  0.9617 -0.8717  1.1719
  292TMC3    H1 4407   3.224   1.686   0.633  3.6787  0.0428 -2.3002
  292TMC3    H2 4408   3.440   1.397   0.857  1.4843  0.3534  0.8250
  292TMC3    C7 4409   3.293   1.428   0.655  0.2256  0.6141  0.1003
  292TMC3    C8 4410   3.541   1.570   1.046 -0.0730  0.3512 -0.5184
  292TMC3    O1 4411   3.367   1.329   0.658 -0.1013  0.3101 -0.2120
  292TMC3    O2 4412   3.604   1.669   1.082  0.0497  0.4567  0.0872
  293MPD2     C 4413   0.275   3.566  13.101 -0.0088  0.3080 -0.2251
  293MPD2    C1 4414   0.326   3.440  13.149  0.0151 -0.2857  0.0128
  293MPD2    C2 4415   0.391   3.439  13.269  0.2379  0.2538 -0.0262
  293MPD2    C3 4416   0.389   3.554  13.351  0.4355  0.5072 -0.4117
  293MPD2    C4 4417   0.329   3.672  13.314  0.4783 -0.0474  0.1931
  293MPD2    C5 4418   0.282   3.673  13.182  0.3351  0.2764 -0.9104
  293MPD2     H 4419   0.445   3.350  13.301 -1.5806 -0.2240  1.6957
  293MPD2    H1 4420   0.335   3.766  13.368  1.8355  0.3474 -0.6587
  293MPD2    H2 4421   0.237   3.587  13.002 -0.2690  2.6316  0.3778
  293MPD2    H3 4422   0.240   3.765  13.145 -0.1364 -0.6430 -2.6838
  293MPD2     N 4423   0.459   3.532  13.474 -0.0306 -0.3419 -0.2748
  293MPD2    H5 4424   0.501   3.440  13.485  0.7473 -0.0583 -0.9130
  293MPD2    N1 4425   0.315   3.333  13.057  0.6331  0.1941  0.3600
  293MPD2    H7 4426   0.253   3.351  12.979  0.7130 -0.2738  0.1926
  294TMC3    C1 4427   0.314   3.130  12.969 -0.2738  0.1602  1.1215
  294TMC3    C2 4428   0.282   2.999  12.980 -0.1849 -0.7156  0.3203
  294TMC3    C3 4429   0.218   2.932  12.882  0.1200 -0.4166 -0.1656
  294TMC3    C4 4430   0.290   3.199  12.850 -0.1271 -0.0094 -0.5063
  294TMC3    C5 4431   0.232   3.123  12.748  0.4469  0.3155  0.2523
  294TMC3    C6 4432   0.190   2.994  12.766 -0.0107  0.0838  0.5230
  294TMC3     C 4433   0.352   3.202  13.083  0.0431 -0.3551  0.6448
  294TMC3     O 4434   0.398   3.143  13.182  0.3661 -0.5192 -0.4104
  294TMC3     H 4435   0.300   2.945  13.072 -1.8646  1.3023  1.8403
  294TMC3    H1 4436   0.316   3.303  12.836  1.9808 -0.3880  0.6237
  294TMC3    H2 4437   0.147   2.937  12.684  0.5979  0.4800 -0.0754
  294TMC3    C7 4438   0.146   3.186  12.652 -0.8816  0.5048 -0.3657
  294TMC3    C8 4439   0.104   2.854  12.940  0.0134 -0.1904  0.5422
  294TMC3    O1 4440   0.048   3.122  12.622  0.2065  0.0235  0.1801
  294TMC3    O2 4441   0.102   2.853  13.063  1.1187  0.1345 -0.4078
  295MPD2     C 4442   1.498   2.029   1.162 -0.0835 -0.1653 -0.7936
  295MPD2    C1 4443   1.568   1.932   1.093  0.6143 -0.0848 -1.0061
  295MPD2    C2 4444   1.569   1.804   1.150  0.4646  0.1202 -0.2760
  295MPD2    C3 4445   1.486   1.781   1.263 -0.2123  0.1071  1.1935
  295MPD2    C4 4446   1.416   1.885   1.324 -0.0461 -0.1964  0.1128
  295MPD2    C5 4447   1.430   2.012   1.276  0.4471  0.3330  0.0557
  295MPD2     H 4448   1.633   1.729   1.104  1.1223  0.0755  0.7209
  295MPD2    H1 4449   1.351   1.873   1.410  0.7071 -2.7461  0.3117
  295MPD2    H2 4450   1.482   2.126   1.115 -0.7942  0.0989 -0.0047
  295MPD2    H3 4451   1.365   2.088   1.319  1.5203  0.9799  0.5309
  295MPD2     N 4452   1.473   1.662   1.337 -0.3908  0.2164 -0.0155
  295MPD2    H5 4453   1.421   1.669   1.424  0.3027  0.4367  0.3779
  295MPD2    N1 4454   1.629   1.952   0.963  0.2840  0.4868 -0.4236
  295MPD2    H7 4455   1.672   1.874   0.915 -0.1811 -1.2857  2.0611
  296TMC3    C1 4456   1.531   1.463   1.441  0.0272  0.5726  0.0147
  296TMC3    C2 4457   1.453   1.497   1.544  0.6669  1.0485  0.0939
  296TMC3    C3 4458   1.462   1.429   1.662 -0.3255  0.5286  0.1387
  296TMC3    C4 4459   1.601   1.342   1.437  0.3732 -0.5645  0.0634
  296TMC3    C5 4460   1.596   1.264   1.553  0.8259  0.0895  0.6044
  296TMC3    C6 4461   1.531   1.310   1.673 -0.2156  0.5127  0.1186
  296TMC3     C 4462   1.535   1.540   1.314  0.7273 -0.1229  0.5087
  296TMC3     O 4463   1.596   1.495   1.221  0.6097 -0.2890  0.4046
  296TMC3     H 4464   1.390   1.585   1.551 -0.1963  0.3481  1.2572
  296TMC3    H1 4465   1.672   1.313   1.361  1.1377 -1.5647  1.1765
  296TMC3    H2 4466   1.532   1.250   1.764 -0.4092 -0.4240 -0.4969
  296TMC3    C7 4467   1.671   1.144   1.548  0.6025  0.5421 -0.2011
  296TMC3    C8 4468   1.389   1.474   1.782  0.2402 -0.1192 -0.3201
  296TMC3    O1 4469   1.782   1.158   1.497  0.4770  0.3307 -0.2942
  296TMC3    O2 4470   1.281   1.527   1.766 -0.2083 -0.6817 -0.8684
  297MPD2     C 4471   3.615   3.873  16.832 -0.2679 -0.7776  0.3664
  297MPD2    C1 4472   3.551   3.921  16.716 -0.1577  0.2115  0.5804
  297MPD2    C2 4473   3.563   4.052  16.676  0.3143 -0.4723 -1.0304
  297MPD2    C3 4474   3.643   4.135  16.747  0.9329 -0.2083 -0.7668
  297MPD2    C4 4475   3.722   4.082  16.855  0.0333 -0.3950  0.1861
  297MPD2    C5 4476   3.713   3.947  16.895 -0.0427 -0.4512 -0.0800
  297MPD2     H 4477   3.508   4.096  16.593 -1.3224  1.8895  1.3188
  297MPD2    H1 4478   3.796   4.140  16.909 -0.7152  0.3880  0.3581
  297MPD2    H2 4479   3.603   3.771  16.869  0.2104 -1.2742 -0.8526
  297MPD2    H3 4480   3.757   3.920  16.990 -0.0090  1.3916  0.4294
  297MPD2     N 4481   3.638   4.276  16.714 -0.5873 -0.3559  0.1501
  297MPD2    H5 4482   3.583   4.299  16.632  1.1237  2.8308 -0.1058
  297MPD2    N1 4483   3.447   3.854  16.656  0.2729  0.4329 -0.1074
  297MPD2    H7 4484   3.416   3.902  16.572  0.4630 -3.1464 -2.2314
  298TMC3    C1 4485   3.283   3.694  16.607 -0.7143  0.0510 -0.4516
  298TMC3    C2 4486   3.286   3.733  16.475 -0.1991  0.7439  0.4422
  298TMC3    C3 4487   3.165   3.732  16.415 -0.1243  0.0175  0.3103
  298TMC3    C4 4488   3.171   3.639  16.663 -0.2504  0.2267 -0.3492
  298TMC3    C5 4489   3.052   3.662  16.606 -0.4683 -1.0366  0.4853
  298TMC3    C6 4490   3.051   3.690  16.475 -0.3787  0.6453 -0.2476
  298TMC3     C 4491   3.394   3.729  16.691 -0.2387  0.1297 -0.7135
  298TMC3     O 4492   3.403   3.657  16.785 -0.3001 -0.1121  0.2531
  298TMC3     H 4493   3.378   3.762  16.425 -0.0048 -0.3205  0.1857
  298TMC3    H1 4494   3.175   3.615  16.768 -0.9448  1.9933  0.0898
  298TMC3    H2 4495   2.952   3.694  16.431  0.6500  0.0736 -2.5994
  298TMC3    C7 4496   2.971   3.750  16.687 -0.4735 -1.0730 -0.2154
  298TMC3    C8 4497   3.147   3.766  16.277 -0.0647  0.2811 -0.2111
  298TMC3    O1 4498   2.986   3.753  16.811 -0.2824 -0.4274  0.0503
  298TMC3    O2 4499   3.033   3.771  16.230  0.6384  0.4564 -0.0898
  299MPD2     C 4500   3.400   3.396  11.084 -0.3250  0.2120 -0.3297
  299MPD2    C1 4501   3.373   3.514  11.021  0.3468 -0.0846 -1.0804
  299MPD2    C2 4502   3.248   3.529  10.956 -0.0377  0.4454 -0.2665
  299MPD2    C3 4503   3.163   3.417  10.963 -0.6558 -0.7800 -0.4343
  299MPD2    C4 4504   3.197   3.298  11.024  0.2346 -0.1860  0.0805
  299MPD2    C5 4505   3.312   3.296  11.090  0.4502 -0.1151 -0.4870
  299MPD2     H 4506   3.215   3.615  10.901  0.1154  0.0450 -0.9799
  299MPD2    H1 4507   3.137   3.208  11.020 -2.6835  1.7281  0.3302
  299MPD2    H2 4508   3.489   3.397  11.146 -1.6854 -0.0484  1.6502
  299MPD2    H3 4509   3.338   3.214  11.156 -1.1400 -1.1928 -1.1829
  299MPD2     N 4510   3.031   3.443  10.913 -0.2396 -0.0963 -0.1206
  299MPD2    H5 4511   3.015   3.539  10.885 -1.0279 -0.2234 -0.0843
  299MPD2    N1 4512   3.463   3.627  11.030 -0.4000  0.9477 -0.3583
  299MPD2    H7 4513   3.552   3.615  11.078  0.1636 -0.9611 -1.8558
  300TMC3    C1 4514   2.798   3.424  10.902 -0.2259  0.0730 -0.3317
  300TMC3    C2 4515   2.790   3.535  10.820 -0.3803 -0.2714 -0.0158
  300TMC3    C3 4516   2.667   3.597  10.823 -0.5566 -1.1304  0.4030
  300TMC3    C4 4517   2.688   3.364  10.946 -0.5344  0.1176 -0.0130
  300TMC3    C5 4518   2.569   3.426  10.947  0.0007 -0.3211 -0.4507
  300TMC3    C6 4519   2.556   3.554  10.894  0.4769 -0.1802  0.4239
  300TMC3     C 4520   2.926   3.356  10.918  0.2493 -0.5300  0.7950
  300TMC3     O 4521   2.925   3.232  10.936  0.5223 -0.0188  0.2332
  300TMC3     H 4522   2.874   3.577  10.767 -1.4723  1.0867 -0.6524
  300TMC3    H1 4523   2.697   3.272  11.003  1.6797 -0.3979 -1.1963
  300TMC3    H2 4524   2.475   3.618  10.929  0.9601  0.2958  0.6665
  300TMC3    C7 4525   2.475   3.398  11.053 -0.4471 -0.1731  0.3116
  300TMC3    C8 4526   2.679   3.734  10.768 -0.3144  0.0704  0.3472
  300TMC3    O1 4527   2.397   3.307  11.034 -0.0605  0.2642  0.1709
  300TMC3    O2 4528   2.789   3.787  10.788 -0.0260 -0.0324 -0.9208
  301MPD2     C 4529   2.004   4.495   1.192 -0.6911  0.1542  0.0988
  301MPD2    C1 4530   1.883   4.501   1.259 -0.0397 -1.0328 -0.0760
  301MPD2    C2 4531   1.792   4.411   1.216 -0.6405 -0.7239  0.0443
  301MPD2    C3 4532   1.805   4.322   1.109  0.7605  0.4966 -0.1811
  301MPD2    C4 4533   1.929   4.318   1.048  0.1000  0.4705  0.1236
  301MPD2    C5 4534   2.029   4.410   1.088 -0.4446 -0.3761  0.3661
  301MPD2     H 4535   1.697   4.399   1.268 -0.7152 -3.3218 -0.7252
  301MPD2    H1 4536   1.952   4.252   0.965  0.0718 -1.1796  1.4402
  301MPD2    H2 4537   2.087   4.563   1.211 -1.7550  1.1862  1.0404
  301MPD2    H3 4538   2.125   4.408   1.038  0.1891  1.8338  1.4667
  301MPD2     N 4539   1.700   4.240   1.079  0.1506  0.4129  0.3139
  301MPD2    H5 4540   1.612   4.264   1.125 -0.6081 -1.2601 -0.2566
  301MPD2    N1 4541   1.859   4.578   1.376  0.7051  0.1661 -0.0619
  301MPD2    H7 4542   1.772   4.565   1.428  0.8837  0.8505  0.4042
  302TMC3    C1 4543   1.580   4.057   0.980 -0.3916 -0.2945 -0.7167
  302TMC3    C2 4544   1.598   3.925   0.963 -1.3784  0.5406  0.5320
  302TMC3    C3 4545   1.492   3.839   0.986 -0.8590 -0.0869 -0.3979
  302TMC3    C4 4546   1.464   4.116   1.022 -1.0487  0.4180 -0.6874
  302TMC3    C5 4547   1.364   4.030   1.050 -0.1265 -0.5602  0.7192
  302TMC3    C6 4548   1.373   3.894   1.029  0.4572  0.4521  0.1534
  302TMC3     C 4549   1.700   4.140   0.985  0.6608  0.2252 -0.6244
  302TMC3     O 4550   1.789   4.095   0.914  0.0493  0.1053  0.3402
  302TMC3     H 4551   1.696   3.886   0.938 -1.5643  0.2628  0.2454
  302TMC3    H1 4552   1.451   4.224   1.025 -2.2569  0.2512  0.2272
  302TMC3    H2 4553   1.281   3.837   1.042 -0.2519  2.3003  3.2534
  302TMC3    C7 4554   1.228   4.084   1.032 -0.4829 -1.1546  0.2600
  302TMC3    C8 4555   1.528   3.714   1.047  0.2490  0.3327 -0.0244
  302TMC3    O1 4556   1.134   4.020   0.990 -0.0480 -0.1493  0.0930
  302TMC3    O2 4557   1.649   3.704   1.066 -0.2213 -0.0759 -0.6026
  303MPD2     C 4558   0.859   3.895  10.596  0.1098 -0.2802  0.4491
  303MPD2    C1 4559   0.797   3.777  10.555 -0.4612 -0.1004  0.3151
  303MPD2    C2 4560   0.877   3.680  10.498  1.3300  0.5974 -0.7642
  303MPD2    C3 4561   1.009   3.704  10.478 -0.7792 -0.8346  0.3959
  303MPD2    C4 4562   1.062   3.824  10.502 -0.1530 -0.3642  0.5338
  303MPD2    C5 4563   0.983   3.922  10.563  0.4077  0.6897  0.0993
  303MPD2     H 4564   0.834   3.581  10.504  3.5633 -0.2161  1.8100
  303MPD2    H1 4565   1.159   3.864  10.475  0.8910 -1.7513  2.2181
  303MPD2    H2 4566   0.812   3.974  10.653  1.5511 -0.4346  1.8573
  303MPD2    H3 4567   1.023   4.016  10.600 -2.1724  2.2850 -1.1721
  303MPD2     N 4568   1.086   3.604  10.420  0.2812  0.4794  0.3492
  303MPD2    H5 4569   1.175   3.642  10.389 -0.2746 -0.5037 -2.4376
  303MPD2    N1 4570   0.660   3.750  10.586 -0.4308 -0.0970 -0.1055
  303MPD2    H7 4571   0.596   3.819  10.625  0.5763  0.5963  0.3149
  304TMC3    C1 4572   0.469   3.629  10.615  0.4097 -0.3555 -0.3999
  304TMC3    C2 4573   0.366   3.598  10.525 -0.3521  0.2741  0.2927
  304TMC3    C3 4574   0.254   3.531  10.589 -0.3771 -0.3902 -0.0499
  304TMC3    C4 4575   0.457   3.611  10.748 -0.1475 -0.1326  0.3929
  304TMC3    C5 4576   0.345   3.556  10.801 -0.3989  0.5485  0.1122
  304TMC3    C6 4577   0.242   3.526  10.718  0.5408 -0.0538  0.0101
  304TMC3     C 4578   0.600   3.628  10.562 -0.2941  0.3893  0.2878
  304TMC3     O 4579   0.625   3.527  10.495  0.1349 -0.1539 -0.0560
  304TMC3     H 4580   0.397   3.589  10.422 -2.8716  2.1192 -0.6175
  304TMC3    H1 4581   0.542   3.625  10.814 -0.5321  0.4633  0.7662
  304TMC3    H2 4582   0.153   3.483  10.763  0.6070 -0.4509 -0.2384
  304TMC3    C7 4583   0.365   3.455  10.904  0.4566  0.1310 -0.2063
  304TMC3    C8 4584   0.215   3.408  10.531  0.7622  1.2813  0.6346
  304TMC3    O1 4585   0.399   3.490  11.017 -0.0460 -0.2634 -1.2627
  304TMC3    O2 4586   0.172   3.318  10.602  0.2033 -0.7983  0.0833
  305MPD2     C 4587   3.786   0.147  14.546  0.2874  0.6354  0.0947
  305MPD2    C1 4588   3.849   0.240  14.469 -0.2379 -0.1124  0.2497
  305MPD2    C2 4589   3.851   0.214  14.334 -0.7673 -1.1554  0.0435
  305MPD2    C3 4590   3.782   0.105  14.278 -0.4685 -0.4516  0.2541
  305MPD2    C4 4591   3.697   0.026  14.363 -0.3134 -0.5306  0.2941
  305MPD2    C5 4592   3.706   0.050  14.496  0.0561 -0.1786  0.0073
  305MPD2     H 4593   3.915   0.273  14.269 -2.5088 -2.3236 -2.7670
  305MPD2    H1 4594   3.619   4.681  14.333  0.1829 -1.0982  0.3229
  305MPD2    H2 4595   3.780   0.157  14.654  0.5175  0.8480  0.0886
  305MPD2    H3 4596   3.639   0.009  14.571 -0.3883 -2.7530 -1.7842
  305MPD2     N 4597   3.779   0.083  14.136  0.5252 -0.2070  0.9307
  305MPD2    H5 4598   3.714   0.006  14.120 -0.8295  0.9469  0.8633
  305MPD2    N1 4599   3.892   0.363  14.529  0.0432 -0.0987  0.2055
  305MPD2    H7 4600   3.891   0.367  14.630 -0.9767  1.0442  0.1502
  306TMC3    C1 4601   4.033   0.542  14.572  0.9382  0.2194 -0.6385
  306TMC3    C2 4602   4.125   0.467  14.636  0.0755  0.2408  0.3879
  306TMC3    C3 4603   4.206   0.539  14.716  0.7706  0.0160 -1.3975
  306TMC3    C4 4604   4.048   0.676  14.551 -0.6185  0.4982  0.4247
  306TMC3    C5 4605   4.143   0.748  14.621 -0.8802 -0.4359  0.0884
  306TMC3    C6 4606   4.220   0.680  14.707  0.2977 -0.4829  0.6071
  306TMC3     C 4607   3.953   0.470  14.477 -0.1707 -0.4351  0.5338
  306TMC3     O 4608   3.974   0.502  14.360 -0.3651  0.0114 -0.0193
  306TMC3     H 4609   4.113   0.360  14.642 -0.6330  0.4078  1.9636
  306TMC3    H1 4610   3.978   0.729  14.487  0.6542  1.0208 -0.5487
  306TMC3    H2 4611   4.292   0.734  14.769  0.4018  1.6446 -1.3767
  306TMC3    C7 4612   4.169   0.893  14.593 -0.5735 -0.4111 -0.4130
  306TMC3    C8 4613   4.306   0.465  14.793 -0.2348 -0.5708  0.8181
  306TMC3    O1 4614   4.090   0.954  14.523 -0.3209 -0.2998  0.4406
  306TMC3    O2 4615   4.324   0.345  14.776 -0.0113  0.1239  0.1024
  307MPD2     C 4616   2.479   2.719   0.778 -0.6473  0.3730 -0.3133
  307MPD2    C1 4617   2.383   2.809   0.726 -0.0399 -0.0482  0.6071
  307MPD2    C2 4618   2.281   2.843   0.813  1.0746  0.3602 -0.3167
  307MPD2    C3 4619   2.272   2.792   0.939 -0.0360 -0.0157  0.2457
  307MPD2    C4 4620   2.373   2.713   0.988 -0.5931  1.4151 -0.2301
  307MPD2    C5 4621   2.482   2.679   0.909 -0.5515  0.3318  0.1011
  307MPD2     H 4622   2.207   2.913   0.776 -1.2497 -1.4931  0.8524
  307MPD2    H1 4623   2.374   2.694   1.095  0.7145 -1.0891 -0.6812
  307MPD2    H2 4624   2.559   2.681   0.715  0.4945  1.3142  0.5727
  307MPD2    H3 4625   2.561   2.615   0.946 -0.9055 -1.9024 -2.9839
  307MPD2     N 4626   2.161   2.825   1.023  0.3836  0.2417 -0.0341
  307MPD2    H5 4627   2.091   2.887   0.983 -1.1205 -1.2391  0.2997
  307MPD2    N1 4628   2.372   2.863   0.592 -0.1945 -0.1935 -0.2585
  307MPD2    H7 4629   2.294   2.924   0.571 -0.7333 -0.5567  0.6506
  308TMC3    C1 4630   1.804   2.916   1.132  0.4385  0.1666  0.6403
  308TMC3    C2 4631   1.827   3.046   1.171  1.2365 -0.2451 -0.3131
  308TMC3    C3 4632   1.955   3.068   1.214 -0.1475 -0.2110 -0.4654
  308TMC3    C4 4633   1.901   2.818   1.140 -0.5503  0.2841  0.5102
  308TMC3    C5 4634   2.018   2.848   1.197  0.0096  0.2575  0.1672
  308TMC3    C6 4635   2.056   2.975   1.220  0.1693  0.3590 -0.4051
  308TMC3     C 4636   1.678   2.882   1.056 -0.1649  0.4251 -0.2242
  308TMC3     O 4637   1.656   2.759   1.037  0.4081 -1.2891 -0.5909
  308TMC3     H 4638   1.751   3.123   1.173  1.6665  0.2119 -1.1331
  308TMC3    H1 4639   1.880   2.712   1.135  0.9405 -0.0288  1.0384
  308TMC3    H2 4640   2.156   2.997   1.255 -1.3427  2.9872  2.1838
  308TMC3    C7 4641   2.130   2.772   1.150  0.4122  0.4567  0.3024
  308TMC3    C8 4642   2.003   3.205   1.241 -0.8937  0.0893 -0.0318
  308TMC3    O1 4643   2.188   2.696   1.225 -0.6476 -0.0594 -0.4028
  308TMC3    O2 4644   2.105   3.217   1.308  0.4470 -0.2864  0.0942
  309MPD2     C 4645   1.368   4.049  17.581 -0.2299 -0.0551 -0.0838
  309MPD2    C1 4646   1.290   4.071  17.465  0.3795 -0.3580  0.2959
  309MPD2    C2 4647   1.156   4.099  17.477  0.1382 -0.1550  0.5841
  309MPD2    C3 4648   1.099   4.084  17.598  0.3100 -0.1141  0.6974
  309MPD2    C4 4649   1.170   4.041   0.016 -0.7312 -0.4120  1.0019
  309MPD2    C5 4650   1.303   4.025   0.006 -0.3891 -0.2708 -0.5409
  309MPD2     H 4651   1.093   4.122  17.392 -1.9272 -0.8181  1.9268
  309MPD2    H1 4652   1.121   4.019   0.110  0.7710  0.4745  1.9830
  309MPD2    H2 4653   1.476   4.045  17.573 -0.4447 -3.6107 -0.7937
  309MPD2    H3 4654   1.363   4.011   0.095 -1.7365  4.0543  1.0703
  309MPD2     N 4655   0.955   4.085  17.611 -0.1650  0.3770 -0.1142
  309MPD2    H5 4656   0.910   4.041  17.691 -0.3022 -0.8575 -0.8754
  309MPD2    N1 4657   1.345   4.095  17.335 -0.3101 -0.6375  0.5891
  309MPD2    H7 4658   1.276   4.111  17.262  0.3955  0.1707  0.0932
  310TMC3    C1 4659   1.498   4.092  17.166  0.2677 -0.0817  0.3047
  310TMC3    C2 4660   1.405   4.140  17.084  0.5690 -0.2110  0.5086
  310TMC3    C3 4661   1.435   4.154  16.950  0.2051  0.1639  0.3042
  310TMC3    C4 4662   1.627   4.064  17.119 -0.3387  0.2244  0.7760
  310TMC3    C5 4663   1.657   4.089  16.988  0.1479 -0.3158  0.1146
  310TMC3    C6 4664   1.559   4.125  16.903 -0.2510 -0.0204  0.6165
  310TMC3     C 4665   1.476   4.099  17.307  0.5776  0.2350 -0.2974
  310TMC3     O 4666   1.567   4.058  17.374  0.1799  0.8710 -0.3381
  310TMC3     H 4667   1.309   4.179  17.117 -0.6183 -2.5510 -0.2041
  310TMC3    H1 4668   1.708   4.038  17.186 -0.7683 -0.8591  0.8720
  310TMC3    H2 4669   1.575   4.141  16.797 -0.9138 -1.5357  0.2897
  310TMC3    C7 4670   1.778   4.021  16.947  0.5851 -0.0931 -0.1174
  310TMC3    C8 4671   1.330   4.195  16.853  0.4021 -0.4158 -0.1793
  310TMC3    O1 4672   1.795   3.918  17.011  0.2126 -0.5436  0.1474
  310TMC3    O2 4673   1.357   4.213  16.732  0.1311  0.0973 -0.0069
  311MPD2     C 4674   3.002   0.220  13.372 -0.0665 -0.0225 -0.0848
  311MPD2    C1 4675   3.019   0.337  13.303 -0.0002 -0.5809 -0.1132
  311MPD2    C2 4676   2.903   0.408  13.266 -0.2654  0.1133  0.2311
  311MPD2    C3 4677   2.777   0.360  13.283 -0.5203 -0.0985  0.1170
  311MPD2    C4 4678   2.763   0.235  13.345 -0.2527  0.1731 -0.2338
  311MPD2    C5 4679   2.877   0.169  13.391  0.4733 -0.1888  1.3433
  311MPD2     H 4680   2.908   0.507  13.223 -1.4606 -0.2686 -0.7618
  311MPD2    H1 4681   2.670   0.182  13.357  0.6017 -1.1680  0.4376
  311MPD2    H2 4682   3.088   0.167  13.411 -0.6001 -1.3148 -0.6717
  311MPD2    H3 4683   2.870   0.071  13.439 -0.4770 -1.8530 -2.1794
  311MPD2     N 4684   2.672   0.435  13.235  1.0074  0.4374  0.2269
  311MPD2    H5 4685   2.698   0.520  13.186 -0.4787  0.8436  0.1551
  311MPD2    N1 4686   3.137   0.398  13.277  0.0140  0.0543 -0.1058
  311MPD2    H7 4687   3.128   0.488  13.232  0.3087 -0.3068 -0.8828
  312TMC3    C1 4688   2.463   0.492  13.169 -0.1091  0.8871 -0.7404
  312TMC3    C2 4689   2.398   0.478  13.051 -0.1047  0.1257 -0.4839
  312TMC3    C3 4690   2.324   0.576  12.999 -0.1308 -0.5359  0.8258
  312TMC3    C4 4691   2.468   0.607  13.244  0.3146  0.0419  0.4479
  312TMC3    C5 4692   2.388   0.709  13.192 -0.3891 -0.2527  0.1985
  312TMC3    C6 4693   2.323   0.701  13.069  0.3856  0.9549 -0.2138
  312TMC3     C 4694   2.544   0.387  13.220 -0.1645 -0.2378  0.2633
  312TMC3     O 4695   2.490   0.279  13.247  0.1644  0.0310 -0.4902
  312TMC3     H 4696   2.401   0.380  13.006  1.0958 -0.9759  1.9992
  312TMC3    H1 4697   2.513   0.598  13.342 -0.8269 -0.5317  0.9242
  312TMC3    H2 4698   2.257   0.783  13.043  0.0393  0.9090  0.5307
  312TMC3    C7 4699   2.337   0.806  13.283 -0.5398  0.3598  0.0609
  312TMC3    C8 4700   2.222   0.536  12.897 -0.7911 -0.6389  0.2631
  312TMC3    O1 4701   2.226   0.849  13.255 -0.5095 -0.8078 -0.0316
  312TMC3    O2 4702   2.258   0.442  12.831 -0.0480  0.0791  0.3776
  313MPD2     C 4703   2.144   4.280  11.692  0.3556 -0.0118  0.0049
  313MPD2    C1 4704   2.213   4.297  11.573 -0.2404  0.2348  0.2866
  313MPD2    C2 4705   2.243   4.182  11.499  0.8404 -0.6183 -0.5624
  313MPD2    C3 4706   2.196   4.061  11.535 -0.1120 -1.1086  0.1984
  313MPD2    C4 4707   2.123   4.049  11.651 -0.6031 -0.0886  0.0226
  313MPD2    C5 4708   2.099   4.160  11.730 -0.7245  0.0667 -0.0760
  313MPD2     H 4709   2.302   4.189  11.408  1.1543 -1.0417 -0.3869
  313MPD2    H1 4710   2.077   3.953  11.670  1.0085 -1.1952 -1.7111
  313MPD2    H2 4711   2.123   4.366  11.754 -1.6336 -0.0264 -0.6637
  313MPD2    H3 4712   2.045   4.157  11.824 -2.0236  2.2439 -0.7367
  313MPD2     N 4713   2.225   3.946  11.457  0.0111 -0.1687 -0.3180
  313MPD2    H5 4714   2.275   3.964  11.371  1.2742  0.4482  0.5516
  313MPD2    N1 4715   2.251   4.421  11.545 -0.0016  0.1297 -0.5098
  313MPD2    H7 4716   2.229   4.487  11.618  0.5037  0.7128 -0.8829
  314TMC3    C1 4717   2.311   4.606  11.416  0.3582  0.0802  0.2775
  314TMC3    C2 4718   2.417   4.673  11.370 -0.2057 -0.4411 -0.4900
  314TMC3    C3 4719   2.404   0.071  11.314  0.4620  0.4626 -0.2868
  314TMC3    C4 4720   2.184   4.657  11.406 -0.4664  0.0333  0.9549
  314TMC3    C5 4721   2.166   0.063  11.354  0.0376 -0.6675 -0.4256
  314TMC3    C6 4722   2.280   0.126  11.305 -0.0594  0.3541  0.0025
  314TMC3     C 4723   2.320   4.464  11.437 -0.7461  0.5579 -0.3564
  314TMC3     O 4724   2.388   4.398  11.361 -0.8619 -0.4268 -0.9964
  314TMC3     H 4725   2.518   4.633  11.375 -0.4181 -0.7602  1.0483
  314TMC3    H1 4726   2.101   4.599  11.446 -0.6153 -0.4061  0.0180
  314TMC3    H2 4727   2.268   0.226  11.263 -1.2925 -0.4343 -1.5370
  314TMC3    C7 4728   2.052   0.079  11.266 -0.5749  0.3790  0.9634
  314TMC3    C8 4729   2.510   0.140  11.241 -0.0455  0.1255  0.4616
  314TMC3    O1 4730   1.948   0.034  11.315 -0.1248  0.8358  0.5458
  314TMC3    O2 4731   2.494   0.261  11.227 -0.2594  0.3613  0.6819
  315MPD2     C 4732   2.291   3.319   0.784 -0.3762  0.8115  0.2936
  315MPD2    C1 4733   2.414   3.307   0.730 -0.0094  0.7271 -0.5025
  315MPD2    C2 4734   2.445   3.407   0.640 -0.3406  0.6530  0.8164
  315MPD2    C3 4735   2.364   3.517   0.600  0.3828 -0.2344 -0.0868
  315MPD2    C4 4736   2.237   3.513   0.656  0.0710 -0.0493 -0.1428
  315MPD2    C5 4737   2.196   3.413   0.743 -0.3924  0.0347 -0.2004
  315MPD2     H 4738   2.547   3.423   0.606  1.3625  3.9368  7.6215
  315MPD2    H1 4739   2.157   3.585   0.639 -0.7280 -0.2330  2.9502
  315MPD2    H2 4740   2.260   3.236   0.846 -0.7112 -0.1183 -1.1396
  315MPD2    H3 4741   2.092   3.406   0.774 -0.3905 -3.5973 -1.0103
  315MPD2     N 4742   2.420   3.619   0.527  0.6625  0.2674 -1.0205
  315MPD2    H5 4743   2.512   3.592   0.493  0.1068 -1.6545 -1.0328
  315MPD2    N1 4744   2.502   3.201   0.743 -0.2815 -0.1817 -0.1695
  315MPD2    H7 4745   2.581   3.206   0.680  0.5566 -0.4808  0.8634
  316TMC3    C1 4746   2.471   3.838   0.454  0.4875 -0.1711 -0.3671
  316TMC3    C2 4747   2.550   3.875   0.561 -0.0960  0.8682  0.4466
  316TMC3    C3 4748   2.680   3.826   0.581  0.1167 -0.8385  0.3516
  316TMC3    C4 4749   2.544   3.770   0.358 -0.9241 -0.4288 -0.7677
  316TMC3    C5 4750   2.676   3.755   0.360  0.2104  0.0325  0.1010
  316TMC3    C6 4751   2.754   3.778   0.467  0.6248  0.2619  0.0995
  316TMC3     C 4752   2.371   3.750   0.509  0.4621  0.5093  0.8490
  316TMC3     O 4753   2.279   3.807   0.560 -0.2206  0.5080  0.1921
  316TMC3     H 4754   2.508   3.929   0.646 -0.7056  0.5045  0.3778
  316TMC3    H1 4755   2.494   3.735   0.269  1.9079 -0.3538 -2.3806
  316TMC3    H2 4756   2.857   3.745   0.475  0.3090 -0.3838  1.5626
  316TMC3    C7 4757   2.754   3.746   0.238 -0.3858  0.8101 -0.3070
  316TMC3    C8 4758   2.698   3.750   0.707  0.4719  0.7292 -0.0604
  316TMC3    O1 4759   2.872   3.715   0.249 -0.2798 -0.5281  0.2116
  316TMC3    O2 4760   2.598   3.737   0.773  0.3664 -0.1232 -0.9870
  317MPD2     C 4761   3.989   2.142  12.707  0.5161 -0.2928 -0.4623
  317MPD2    C1 4762   4.065   2.029  12.689  0.2727 -0.3109 -0.1971
  317MPD2    C2 4763   4.180   2.015  12.761  0.3267  0.1769 -0.3067
  317MPD2    C3 4764   4.215   2.109  12.860 -0.0965  0.0826  0.1810
  317MPD2    C4 4765   4.132   2.218  12.876 -1.0209 -0.0545 -0.2200
  317MPD2    C5 4766   4.020   2.236  12.800 -0.0239  0.1140  0.0036
  317MPD2     H 4767   4.230   1.920  12.750  1.4426  0.6643  0.6302
  317MPD2    H1 4768   4.142   2.303  12.942 -2.3807 -1.2607  1.5007
  317MPD2    H2 4769   3.900   2.160  12.646 -0.1747  0.7696  0.8678
  317MPD2    H3 4770   3.951   2.318  12.815  0.8054  1.0137 -1.1338
  317MPD2     N 4771   4.326   2.081  12.941  0.4107 -0.5916  0.1969
  317MPD2    H5 4772   4.363   1.987  12.927 -0.6661 -0.7318 -1.6583
  317MPD2    N1 4773   4.035   1.913  12.615 -0.0586  0.0774  0.0689
  317MPD2    H7 4774   4.107   1.842  12.626 -1.4035 -0.8917  2.7754
  318TMC3    C1 4775   4.500   2.108  13.100 -0.1431  0.5148 -0.0233
  318TMC3    C2 4776   4.513   1.971  13.102 -0.8425  0.4570  0.0231
  318TMC3    C3 4777   4.570   1.915  13.209  0.6282  0.4391 -0.4052
  318TMC3    C4 4778   4.552   2.188  13.201  0.8239  0.1939  0.0391
  318TMC3    C5 4779   4.625   2.129  13.305 -0.2728 -0.1501  0.2136
  318TMC3    C6 4780   4.629   1.992  13.313 -0.4757  0.3078  0.5492
  318TMC3     C 4781   4.386   2.162  13.030  0.3773  0.8545  0.4374
  318TMC3     O 4782   4.365   2.276  13.056 -0.6842 -0.0912  0.4520
  318TMC3     H 4783   4.478   1.913  13.017 -2.2435  0.6848  0.4361
  318TMC3    H1 4784   4.518   2.291  13.203 -0.9671 -0.3480 -1.8836
  318TMC3    H2 4785   4.675   1.939  13.396  2.2892  3.9202  1.2823
  318TMC3    C7 4786   4.696   2.219  13.394 -0.4275  0.0842  0.1597
  318TMC3    C8 4787   4.541   1.774  13.223  0.1194  0.6897 -0.1351
  318TMC3    O1 4788   4.633   2.323  13.415 -0.2122 -0.5038 -0.3865
  318TMC3    O2 4789   4.623   1.694  13.267  0.0497 -0.2205 -0.0255
  319MPD2     C 4790   1.078   3.774  16.948  0.6807 -0.5554  0.2575
  319MPD2    C1 4791   0.978   3.720  17.031 -0.4938  0.1437 -0.7592
  319MPD2    C2 4792   0.860   3.684  16.971 -0.2449  0.0103  1.0657
  319MPD2    C3 4793   0.834   3.704  16.836  0.2514  0.5561  0.0039
  319MPD2    C4 4794   0.938   3.741  16.756 -0.3620 -0.4429  0.0169
  319MPD2    C5 4795   1.060   3.769  16.811  0.1144  0.7907 -0.3720
  319MPD2     H 4796   0.786   3.642  17.039 -1.1072  2.6860  1.7877
  319MPD2    H1 4797   0.921   3.762  16.651  1.8443  0.1199 -0.2233
  319MPD2    H2 4798   1.170   3.816  16.988 -0.0691  0.7770  0.5795
  319MPD2    H3 4799   1.139   3.806  16.746  3.0019 -1.2427  1.9755
  319MPD2     N 4800   0.703   3.678  16.780 -0.3227  0.1771 -0.0147
  319MPD2    H5 4801   0.690   3.705  16.683  1.3481 -0.3467 -0.3936
  319MPD2    N1 4802   0.995   3.698  17.171  0.6912  0.1387 -0.3216
  319MPD2    H7 4803   0.925   3.648  17.225  1.8877 -2.7782 -1.4694
  320TMC3    C1 4804   0.497   3.571  16.741  0.1534  0.4722  0.0523
  320TMC3    C2 4805   0.459   3.666  16.647 -0.0344  0.4248  0.5704
  320TMC3    C3 4806   0.371   3.624  16.552 -0.2769 -0.1883  0.4007
  320TMC3    C4 4807   0.431   3.451  16.756 -0.9662 -0.0820 -0.0490
  320TMC3    C5 4808   0.338   3.420  16.670  0.3984  1.0101 -0.6381
  320TMC3    C6 4809   0.309   3.503  16.565  0.2447 -0.2832  0.1554
  320TMC3     C 4810   0.603   3.598  16.835 -0.2731  0.0938  0.0714
  320TMC3     O 4811   0.602   3.541  16.941  0.4445  0.8232 -0.2734
  320TMC3     H 4812   0.500   3.766  16.635 -0.8804  0.8422  1.1476
  320TMC3    H1 4813   0.464   3.387  16.837  0.6023 -1.1207 -1.5074
  320TMC3    H2 4814   0.225   3.469  16.505 -0.5457  1.4732  0.2472
  320TMC3    C7 4815   0.268   3.290  16.682 -0.5377 -0.1707 -0.5892
  320TMC3    C8 4816   0.312   3.727  16.470 -0.2982 -0.3416  0.1804
  320TMC3    O1 4817   0.242   3.240  16.572 -0.2204  0.3319  0.1504
  320TMC3    O2 4818   0.341   3.845  16.492 -0.0890  0.3289  0.6264
  321TMC3    C1 4819   1.076   3.688  17.394 -0.5221  0.5888  0.6939
  321TMC3    C2 4820   0.984   3.594  17.413 -0.7903  0.4042 -0.4345
  321TMC3    C3 4821   0.967   3.546  17.543  0.3011 -0.0054  0.4251
  321TMC3    C4 4822   1.159   3.737  17.489 -0.2072  0.5234 -1.0990
  321TMC3    C5 4823   1.136   3.686  17.618 -0.5818  0.1869  0.5618
  321TMC3    C6 4824   1.035   3.603  17.647  0.8001 -0.1954  0.2534
  321TMC3     C 4825   1.095   3.732  17.255 -0.4436 -0.3047 -1.1457
  321TMC3     O 4826   1.194   3.795  17.238 -0.1820 -0.1032 -0.2923
  321TMC3     H 4827   0.957   3.512  17.348  0.0819 -1.6347  1.7761
  321TMC3    H1 4828   1.243   3.802  17.467  0.6097 -0.2963 -0.3960
  321TMC3    H2 4829   1.013   3.555   0.044 -0.3279  0.8108  0.5072
  321TMC3    C7 4830   1.247   3.633  17.689 -0.0341  0.2387 -0.3376
  321TMC3    C8 4831   0.949   3.401  17.554  0.1047 -0.2490 -0.5885
  321TMC3    O1 4832   1.228   3.525   0.044  0.5223  0.1488 -0.2187
  321TMC3    O2 4833   0.867   3.345  17.481  0.3230  0.1185 -0.1130
  322MPD2     C 4834   4.303   4.630  13.871  0.2262 -0.1451 -0.2129
  322MPD2    C1 4835   4.275   4.578  13.996  0.0199  0.1238 -0.1147
  322MPD2    C2 4836   4.283   4.440  13.998 -0.1308 -0.4843 -0.3277
  322MPD2    C3 4837   4.299   4.358  13.892 -0.3047  0.3071  0.3677
  322MPD2    C4 4838   4.317   4.414  13.771 -0.0231 -0.7561 -0.2880
  322MPD2    C5 4839   4.323   4.550  13.761 -0.2769 -0.4095 -0.2356
  322MPD2     H 4840   4.274   4.386  14.092 -3.7472  2.9361  1.3340
  322MPD2    H1 4841   4.321   4.364  13.676  2.7846 -2.4030  0.7125
  322MPD2    H2 4842   4.312   0.013  13.858  0.6765  0.0848  2.0082
  322MPD2    H3 4843   4.342   4.598  13.666  1.1310  1.8985  1.2167
  322MPD2     N 4844   4.299   4.220  13.922 -0.2338 -0.2523  0.2653
  322MPD2    H5 4845   4.310   4.197  14.021  0.1884  0.3119  0.3450
  322MPD2    N1 4846   4.279   4.665  14.112 -0.6449  0.3100 -0.3426
  322MPD2    H7 4847   4.326   0.030  14.098 -1.0361  0.1143 -3.0026
  323TMC3    C1 4848   4.269   0.016  14.337  0.7100 -0.0582 -0.0165
  323TMC3    C2 4849   4.374   0.099  14.319  0.2502 -0.4162 -0.2081
  323TMC3    C3 4850   4.423   0.163  14.425  0.8871 -0.1889 -0.0276
  323TMC3    C4 4851   4.206   4.719  14.455 -0.3193 -0.2118  0.0618
  323TMC3    C5 4852   4.263   0.053  14.563  0.0180  0.0862  0.8352
  323TMC3    C6 4853   4.374   0.145  14.554 -0.0378  0.3378  0.4303
  323TMC3     C 4854   4.254   4.628  14.242 -0.1403  1.0843 -0.1045
  323TMC3     O 4855   4.199   4.530  14.289 -0.2143  0.1611 -0.0550
  323TMC3     H 4856   4.430   0.100  14.227  1.3210  2.0188  0.4691
  323TMC3    H1 4857   4.114   4.662  14.462 -1.2152  1.6681  3.5308
  323TMC3    H2 4858   4.413   0.200  14.638  1.0874 -0.3641  0.3701
  323TMC3    C7 4859   4.215   0.006  14.695 -0.1477 -0.9371 -0.2115
  323TMC3    C8 4860   4.546   0.242  14.398  0.9358 -0.7645  0.0489
  323TMC3    O1 4861   4.132   4.643  14.702  0.3154 -0.4904 -0.3700
  323TMC3    O2 4862   4.598   0.251  14.286 -0.1616 -0.3119 -0.2023
  324MPD2     C 4863   1.625   2.022  14.519 -0.2973  0.2637 -0.1585
  324MPD2    C1 4864   1.591   1.942  14.412  0.1560  0.5391 -0.9264
  324MPD2    C2 4865   1.470   1.959  14.341  0.3545  0.1444 -0.2933
  324MPD2    C3 4866   1.376   2.051  14.384 -0.3047 -0.1237  0.7094
  324MPD2    C4 4867   1.416   2.133  14.489 -0.8275 -0.1342  0.7464
  324MPD2    C5 4868   1.533   2.119  14.556 -0.2423  0.2183  0.8309
  324MPD2     H 4869   1.445   1.895  14.257 -1.4345 -0.0087  0.3514
  324MPD2    H1 4870   1.357   2.214  14.531 -1.7565 -0.2755 -0.2775
  324MPD2    H2 4871   1.713   2.008  14.582  0.1664  1.9962 -0.4290
  324MPD2    H3 4872   1.552   2.190  14.635  0.6332  0.9486 -0.0406
  324MPD2     N 4873   1.247   2.070  14.330 -0.4494  0.1761 -0.0283
  324MPD2    H5 4874   1.181   2.134  14.372  0.1846  0.3216  0.7417
  324MPD2    N1 4875   1.674   1.827  14.381 -0.2479  0.1512  0.1056
  324MPD2    H7 4876   1.635   1.769  14.308 -0.1217 -0.6895  0.7124
  325TMC3    C1 4877   1.043   2.022  14.225 -0.5218  0.0349  0.0443
  325TMC3    C2 4878   0.965   1.910  14.203 -0.2043  0.4006 -0.4338
  325TMC3    C3 4879   0.842   1.906  14.268 -0.3831  0.3950  0.1854
  325TMC3    C4 4880   1.004   2.134  14.301 -0.4116 -0.6043 -0.2410
  325TMC3    C5 4881   0.875   2.125  14.353 -0.7172 -0.7392 -0.6756
  325TMC3    C6 4882   0.796   2.014  14.340 -0.2977  0.5206  0.2546
  325TMC3     C 4883   1.187   2.000  14.225  0.3127  0.6092  0.1530
  325TMC3     O 4884   1.215   1.900  14.165 -0.2180 -0.1022 -0.5982
  325TMC3     H 4885   1.008   1.831  14.143 -0.7935 -1.1845  1.2442
  325TMC3    H1 4886   1.062   2.225  14.308  0.9518 -1.3601 -1.5030
  325TMC3    H2 4887   0.691   2.015  14.369 -0.3822  1.6287 -0.0537
  325TMC3    C7 4888   0.837   2.239  14.431  0.3969  0.4767 -0.2846
  325TMC3    C8 4889   0.763   1.789  14.250  0.5463 -0.4462  1.0723
  325TMC3    O1 4890   0.898   2.347  14.410 -0.2685  0.1043  0.0658
  325TMC3    O2 4891   0.779   1.716  14.154  0.0607 -0.8424 -0.3634
  326MPD2     C 4892   2.022   2.432  11.550  0.3514  0.1379  0.2093
  326MPD2    C1 4893   2.006   2.418  11.411 -0.9008  0.2717  0.2778
  326MPD2    C2 4894   2.113   2.374  11.329 -0.5468  0.2904 -0.2943
  326MPD2    C3 4895   2.242   2.349  11.389  0.0522  0.5574  0.2091
  326MPD2    C4 4896   2.258   2.378  11.528  0.5075 -0.5441 -0.6465
  326MPD2    C5 4897   2.146   2.416  11.610  0.8482  0.2840  0.6815
  326MPD2     H 4898   2.104   2.372  11.221  0.4677  0.0427 -0.3722
  326MPD2    H1 4899   2.355   2.351  11.568  1.0679 -0.2537 -1.8257
  326MPD2    H2 4900   1.935   2.454  11.611 -0.1898 -1.4957  0.0273
  326MPD2    H3 4901   2.174   2.437  11.712  1.8488 -0.3802  0.5447
  326MPD2     N 4902   2.357   2.307  11.315 -0.0829  0.3004 -0.2953
  326MPD2    H5 4903   2.443   2.305  11.369 -0.6790 -0.4264  0.6164
  326MPD2    N1 4904   1.885   2.445  11.342 -0.2511 -0.1387  0.5080
  326MPD2    H7 4905   1.882   2.430  11.242 -0.8632  2.1162  0.1925
  327TMC3    C1 4906   1.671   2.513  11.304  0.0666 -0.1548 -0.2612
  327TMC3    C2 4907   1.625   2.636  11.271 -0.2819  0.1287  0.5311
  327TMC3    C3 4908   1.612   2.660  11.139 -0.6295  0.5390  0.4816
  327TMC3    C4 4909   1.679   2.413  11.214 -0.2065 -0.7943 -0.1817
  327TMC3    C5 4910   1.675   2.441  11.076  0.1693 -0.6560 -0.0397
  327TMC3    C6 4911   1.647   2.573  11.044  0.7123 -0.3308 -0.2180
  327TMC3     C 4912   1.779   2.508  11.394 -0.1482  0.1987  0.7040
  327TMC3     O 4913   1.761   2.575  11.501 -0.0945  0.0491  0.0434
  327TMC3     H 4914   1.625   2.708  11.352 -0.7836  2.8353 -1.9090
  327TMC3    H1 4915   1.695   2.317  11.262 -0.7905 -0.7345  0.1295
  327TMC3    H2 4916   1.643   2.609  10.942 -0.2523 -0.5874 -0.2640
  327TMC3    C7 4917   1.759   2.370  10.993 -0.6818  0.1944  0.8133
  327TMC3    C8 4918   1.637   2.800  11.108  0.2262  0.6281 -0.6267
  327TMC3    O1 4919   1.799   2.443  10.905 -0.1933  0.3661  0.8850
  327TMC3    O2 4920   1.700   2.825  11.007  0.0993  0.5006 -0.0995
  328MPD2     C 4921   0.329   1.911  17.396 -0.5141 -0.3053  0.0235
  328MPD2    C1 4922   0.196   1.909  17.416  0.2166  0.5653 -0.6640
  328MPD2    C2 4923   0.117   1.985  17.326 -0.5075 -0.7214  0.1711
  328MPD2    C3 4924   0.170   2.068  17.237 -0.2836 -0.3955 -0.0109
  328MPD2    C4 4925   0.308   2.097  17.248 -0.4863  0.5357 -0.3337
  328MPD2    C5 4926   0.385   2.003  17.315  0.5345  1.1455 -0.0593
  328MPD2     H 4927   0.009   1.979  17.328 -0.4870 -1.4500 -0.5995
  328MPD2    H1 4928   0.359   2.162  17.177  1.2678 -0.7872 -0.2873
  328MPD2    H2 4929   0.394   1.854  17.461 -1.9781 -1.0446  0.8642
  328MPD2    H3 4930   0.494   2.007  17.310  0.6744  1.5053  3.1146
  328MPD2     N 4931   0.089   2.147  17.148 -0.5842  0.5109 -0.1731
  328MPD2    H5 4932   0.138   2.225  17.104  2.6361 -1.0787  0.6144
  328MPD2    N1 4933   0.148   1.819  17.511  0.2827 -0.2009  0.4057
  328MPD2    H7 4934   0.215   1.750  17.544 -0.2439 -1.1425 -0.5118
  329TMC3    C1 4935   0.012   1.764  17.691 -0.0272  0.6498 -0.3203
  329TMC3    C2 4936   4.680   1.818   0.112 -0.1548  0.8954 -0.6911
  329TMC3    C3 4937   4.690   1.740   0.226  0.4916  0.3847 -0.5180
  329TMC3    C4 4938   0.058   1.638  17.681  0.3468  0.3586  0.0142
  329TMC3    C5 4939   0.051   1.557   0.092  0.2576 -0.1200 -0.1168
  329TMC3    C6 4940   0.009   1.607   0.216  0.1217 -0.0739  0.5042
  329TMC3     C 4941   0.037   1.852  17.583 -0.2741  0.3201 -0.3205
  329TMC3     O 4942   4.691   1.951  17.566  0.7811 -0.3215  0.0354
  329TMC3     H 4943   4.656   1.923   0.127  0.9101  1.0996 -0.4262
  329TMC3    H1 4944   0.100   1.598  17.590 -0.7372  0.6198 -0.6018
  329TMC3    H2 4945   0.009   1.551   0.309  1.9761 -1.5666 -0.4020
  329TMC3    C7 4946   0.071   1.414   0.083  0.0338  0.0402  0.1879
  329TMC3    C8 4947   4.684   1.800   0.356  0.1686 -0.2233  0.3802
  329TMC3    O1 4948   0.030   1.355   0.179 -0.4367  0.7475 -0.1568
  329TMC3    O2 4949   0.017   1.737   0.444 -0.3497  0.6642  0.2198
  330TMC3    C1 4950   2.363   1.810   9.885 -0.4638 -0.0113 -0.6820
  330TMC3    C2 4951   2.312   1.720   9.799  0.4126  0.6058  0.0019
  330TMC3    C3 4952   2.317   1.587   9.838 -0.1213 -0.4961  0.2745
  330TMC3    C4 4953   2.421   1.778  10.011 -0.1246 -0.2803  0.4650
  330TMC3    C5 4954   2.424   1.645  10.033  0.3596 -0.1581 -0.0065
  330TMC3    C6 4955   2.369   1.542   9.958 -0.2282 -0.0464 -0.4834
  330TMC3     C 4956   2.319   1.950   9.877  0.2747 -0.3489  0.7851
  330TMC3     O 4957   2.354   2.021   9.967 -0.3170 -0.3326  0.4796
  330TMC3     H 4958   2.265   1.732   9.702 -0.7673  1.2068  0.6359
  330TMC3    H1 4959   2.460   1.853  10.079  0.4979  0.6826 -0.9424
  330TMC3    H2 4960   2.396   1.440   9.984  1.1369  0.8584  1.6229
  330TMC3    C7 4961   2.508   1.610  10.145 -0.3210 -0.4739  0.1460
  330TMC3    C8 4962   2.233   1.494   9.774 -0.8340  0.9472 -0.2283
  330TMC3    O1 4963   2.519   1.695  10.233  0.4030 -0.3465 -0.6065
  330TMC3    O2 4964   2.205   1.513   9.653 -0.1697  0.1047 -0.2667
  331MPD2     C 4965   0.577   0.167  12.464  0.1752 -0.3389  0.0658
  331MPD2    C1 4966   0.621   0.283  12.400  0.6096 -0.0559  0.1960
  331MPD2    C2 4967   0.671   0.275  12.273 -0.4188 -0.0157  0.4746
  331MPD2    C3 4968   0.676   0.147  12.212 -0.2500 -0.2810  0.8308
  331MPD2    C4 4969   0.641   0.031  12.279  0.3914 -0.3385  0.0205
  331MPD2    C5 4970   0.588   0.046  12.401  0.1757  0.3027  0.2064
  331MPD2     H 4971   0.697   0.363  12.215 -1.8421 -0.8757 -1.4577
  331MPD2    H1 4972   0.637   4.654  12.239 -2.2312  0.1836 -1.0663
  331MPD2    H2 4973   0.538   0.172  12.566  0.3366  1.4301  0.0502
  331MPD2    H3 4974   0.566   4.683  12.461  1.1503  0.3141  0.5755
  331MPD2     N 4975   0.720   0.151  12.078  0.6872 -0.2733  0.1128
  331MPD2    H5 4976   0.745   0.239  12.035  0.2480  0.2243  0.8865
  331MPD2    N1 4977   0.614   0.400  12.477  0.3298 -0.4210 -0.0348
  331MPD2    H7 4978   0.560   0.402  12.563  1.1053 -0.3090  0.4448
  332TMC3    C1 4979   0.759   0.081  11.864 -0.2820  0.0603  0.1239
  332TMC3    C2 4980   0.770   0.216  11.838 -0.3919 -0.0028 -0.1174
  332TMC3    C3 4981   0.878   0.253  11.764  0.3010 -0.8227 -0.1504
  332TMC3    C4 4982   0.831   4.709  11.800  0.2080  0.3422  0.6362
  332TMC3    C5 4983   0.936   0.028  11.727  0.4290  0.1983 -0.4443
  332TMC3    C6 4984   0.960   0.158  11.709  0.3980  0.0240  0.9086
  332TMC3     C 4985   0.717   0.044  11.993  0.6543 -0.7039 -0.3609
  332TMC3     O 4986   0.706   4.649  12.019  0.2197 -0.1710 -0.2601
  332TMC3     H 4987   0.685   0.274  11.872 -0.6167  0.9710 -2.3244
  332TMC3    H1 4988   0.813   4.604  11.816 -2.5828  0.8833  1.1786
  332TMC3    H2 4989   1.042   0.186  11.645 -2.2647  1.5518 -1.8199
  332TMC3    C7 4990   1.054   4.665  11.740 -0.1816  0.3876 -0.3352
  332TMC3    C8 4991   0.909   0.392  11.752 -0.3042 -0.5892 -0.6249
  332TMC3    O1 4992   1.052   4.546  11.711 -0.0773  0.0456  0.0776
  332TMC3    O2 4993   1.009   0.411  11.687 -0.1560 -0.0784  0.6615
  333MPD2     C 4994   0.246   0.800  11.320  0.0951 -0.4632  0.3035
  333MPD2    C1 4995   0.337   0.715  11.260  0.0013 -0.6279  0.1618
  333MPD2    C2 4996   0.334   0.574  11.290  0.4006  0.3577 -0.1047
  333MPD2    C3 4997   0.248   0.526  11.388  0.5420 -0.5239  0.5405
  333MPD2    C4 4998   0.187   0.622  11.466  0.2991  0.4464 -0.1622
  333MPD2    C5 4999   0.182   0.754  11.430 -0.0803 -1.3340  0.1256
  333MPD2     H 5000   0.405   0.508  11.241 -0.4655  1.2779 -2.6209
  333MPD2    H1 5001   0.127   0.585  11.548  1.5022  2.5719  1.6536
  333MPD2    H2 5002   0.224   0.901  11.289 -1.0034 -0.2710  1.6773
  333MPD2    H3 5003   0.122   0.829  11.480 -0.8214 -0.8403 -1.5070
  333MPD2     N 5004   0.244   0.385  11.396  0.6821  0.1056  0.1036
  333MPD2    H5 5005   0.305   0.331  11.336  0.3747  0.4343 -0.5118
  333MPD2    N1 5006   0.431   0.775  11.177 -0.3126 -0.2019  0.0544
  333MPD2    H7 5007   0.421   0.875  11.166 -2.7716 -0.3001  1.3849
  334TMC3    C1 5008   0.644   0.814  11.071  0.1381 -0.9887 -0.2300
  334TMC3    C2 5009   0.757   0.755  11.021 -0.3867 -0.1788 -0.4423
  334TMC3    C3 5010   0.878   0.817  11.033 -0.4547  0.1045  0.2767
  334TMC3    C4 5011   0.647   0.933  11.139  0.0015 -0.3801 -0.2025
  334TMC3    C5 5012   0.765   1.002  11.130 -1.1735  0.2834  0.0882
  334TMC3    C6 5013   0.882   0.949  11.076  1.2822 -0.6612 -0.1861
  334TMC3     C 5014   0.542   0.715  11.119 -0.4141  0.1650  0.2400
  334TMC3     O 5015   0.560   0.600  11.088 -0.3362  0.5001 -0.0834
  334TMC3     H 5016   0.758   0.650  10.994  1.7717  0.0502 -1.2415
  334TMC3    H1 5017   0.565   0.967  11.202 -0.1538  0.6588 -0.9588
  334TMC3    H2 5018   0.970   1.011  11.065  0.2230  0.8519 -0.0429
  334TMC3    C7 5019   0.765   1.150  11.163  0.4055 -0.1850  0.8144
  334TMC3    C8 5020   0.991   0.733  11.062 -0.3589  1.0699  0.2838
  334TMC3    O1 5021   0.867   1.216  11.161  0.3979 -0.0348 -0.0503
  334TMC3    O2 5022   0.970   0.619  11.093 -0.6524  0.1241 -0.1900
  335TMC3    C1 5023   1.249   2.002   0.281  0.6388  0.4489 -0.7486
  335TMC3    C2 5024   1.150   1.969   0.195  0.9755  0.2180 -0.0731
  335TMC3    C3 5025   1.128   2.049   0.085 -0.6327  0.1477 -0.5586
  335TMC3    C4 5026   1.319   2.112   0.265 -0.3684  0.2338 -0.2224
  335TMC3    C5 5027   1.303   2.188   0.152  0.2743  0.3478 -0.1431
  335TMC3    C6 5028   1.209   2.154   0.055  0.3159 -0.6877 -0.3575
  335TMC3     C 5029   1.252   1.924   0.403 -0.8575  0.3968  0.0914
  335TMC3     O 5030   1.191   1.818   0.398  0.2020 -0.3846  0.0891
  335TMC3     H 5031   1.104   1.871   0.200 -2.5756  2.0026  2.1489
  335TMC3    H1 5032   1.406   2.134   0.327  0.0863  0.1136 -0.8099
  335TMC3    H2 5033   1.209   2.195  17.652  1.4586 -1.2835 -0.5942
  335TMC3    C7 5034   1.377   2.306   0.111  0.2598 -0.1866  0.2541
  335TMC3    C8 5035   1.023   2.015  17.690  0.0488  0.5059  0.8975
  335TMC3    O1 5036   1.486   2.316   0.161 -0.1918  0.2150  0.2139
  335TMC3    O2 5037   1.021   2.083  17.586 -0.2798  0.4421  0.2241
  336MPD2     C 5038   0.344   0.123  16.710 -0.3368 -0.3745 -0.8659
  336MPD2    C1 5039   0.370   0.058  16.590 -0.4646 -0.0003  0.1315
  336MPD2    C2 5040   0.416   4.650  16.588 -0.3608  0.0306  0.1103
  336MPD2    C3 5041   0.404   4.579  16.705 -0.0275  0.1522 -0.2770
  336MPD2    C4 5042   0.366   4.642  16.824  0.5809  0.3321  1.0148
  336MPD2    C5 5043   0.344   0.049  16.823 -0.8073 -0.2134 -0.0090
  336MPD2     H 5044   0.436   4.602  16.493 -0.2680  0.2862  0.0005
  336MPD2    H1 5045   0.346   4.578  16.910  0.5622 -2.1602 -0.8463
  336MPD2    H2 5046   0.310   0.225  16.708  1.2657  0.1406 -1.8382
  336MPD2    H3 5047   0.308   0.094  16.914  0.4041  2.2682 -0.7690
  336MPD2     N 5048   0.441   4.441  16.719  0.4652 -0.4066 -0.1881
  336MPD2    H5 5049   0.425   4.394  16.808  2.9374 -2.3250 -0.7404
  336MPD2    N1 5050   0.367   0.116  16.466 -0.3516 -0.6876  0.3895
  336MPD2    H7 5051   0.391   0.045  16.397  0.6106 -1.1371  1.1832
  337TMC3    C1 5052   0.313   0.273  16.289 -0.2312  0.2632  0.3924
  337TMC3    C2 5053   0.213   0.356  16.252  0.1123  0.5189 -0.1801
  337TMC3    C3 5054   0.168   0.368  16.122 -0.0048  0.1361  0.2465
  337TMC3    C4 5055   0.359   0.184  16.194 -0.7019  0.0150  0.5141
  337TMC3    C5 5056   0.317   0.194  16.069  0.1572 -0.2395 -0.5967
  337TMC3    C6 5057   0.207   0.273  16.032 -0.6166  0.8895  0.2472
  337TMC3     C 5058   0.330   0.248  16.436 -0.3182  0.0634  0.2587
  337TMC3     O 5059   0.285   0.336  16.504 -0.4357  0.3216  0.0102
  337TMC3     H 5060   0.175   0.434  16.318 -2.6575 -0.3642 -0.7061
  337TMC3    H1 5061   0.440   0.116  16.216  0.2903  1.9283  2.7015
  337TMC3    H2 5062   0.166   0.262  15.932  0.6418  1.7663 -0.3638
  337TMC3    C7 5063   0.386   0.119  15.968  0.1410  0.2491 -0.0069
  337TMC3    C8 5064   0.041   0.432  16.100  0.0845 -0.4704 -0.3124
  337TMC3    O1 5065   0.319   0.084  15.872 -0.2824  0.1914  0.1696
  337TMC3    O2 5066   0.008   0.526  16.171 -0.0171 -0.8937 -0.8778
  338MPD2     C 5067   0.989   3.750   1.171 -0.6629  0.5089 -0.0725
  338MPD2    C1 5068   0.908   3.736   1.056  0.3410 -0.2018 -0.2041
  338MPD2    C2 5069   0.775   3.755   1.077 -1.3103 -0.5430  0.5483
  338MPD2    C3 5070   0.726   3.803   1.197 -0.9353 -0.4100 -0.4026
  338MPD2    C4 5071   0.806   3.806   1.309 -0.0536 -0.3785 -0.0913
  338MPD2    C5 5072   0.938   3.784   1.290 -0.1487 -0.7502  0.3248
  338MPD2     H 5073   0.697   3.736   1.004  0.0113 -1.9770 -0.4868
  338MPD2    H1 5074   0.773   3.843   1.405 -0.8328 -1.4932  0.0778
  338MPD2    H2 5075   1.095   3.726   1.165 -0.9111 -0.3212 -1.3435
  338MPD2    H3 5076   0.993   3.793   1.383  1.1823 -0.5989 -0.4685
  338MPD2     N 5077   0.587   3.838   1.200 -0.3428  0.2004 -0.2547
  338MPD2    H5 5078   0.541   3.844   1.110 -0.8073 -1.3236 -0.1289
  338MPD2    N1 5079   0.958   3.697   0.932  0.1350  0.1251 -0.1218
  338MPD2    H7 5080   0.893   3.695   0.854  0.5284  0.1292 -0.4508
  339TMC3    C1 5081   0.377   3.890   1.293 -0.8046  1.4352 -0.2321
  339TMC3    C2 5082   0.298   3.822   1.377  0.3581  0.7406  0.1732
  339TMC3    C3 5083   0.164   3.817   1.345  0.1963 -0.3268  0.2764
  339TMC3    C4 5084   0.330   3.962   1.190  0.2323  0.4014  0.4350
  339TMC3    C5 5085   0.190   3.975   1.171  0.2535  0.2078 -0.2638
  339TMC3    C6 5086   0.109   3.890   1.237  0.6795 -0.0857  0.1837
  339TMC3     C 5087   0.520   3.859   1.314 -0.1007  0.0475 -0.9210
  339TMC3     O 5088   0.566   3.866   1.425  0.2481  1.1533  0.7219
  339TMC3     H 5089   0.341   3.774   1.465  0.1710  0.7053  0.2472
  339TMC3    H1 5090   0.395   4.033   1.140 -2.1355  1.4265 -1.1976
  339TMC3    H2 5091   0.001   3.896   1.234  0.6079 -1.9121 -1.4250
  339TMC3    C7 5092   0.159   4.001   1.032 -0.2750 -0.5454  0.2319
  339TMC3    C8 5093   0.080   3.735   1.426 -0.9637 -0.4598  0.0128
  339TMC3    O1 5094   0.080   3.925   0.976  0.1996  0.1641  0.5681
  339TMC3    O2 5095   4.690   3.773   1.424  0.1902  0.1411 -0.2970
  340MPD2     C 5096   0.462   2.373   9.968 -0.1290  0.3438 -0.2719
  340MPD2    C1 5097   0.453   2.470   9.874  0.5674  0.7093  0.0049
  340MPD2    C2 5098   0.549   2.572   9.880 -0.1164  0.1594  0.4811
  340MPD2    C3 5099   0.662   2.567   9.959  0.5314  0.2757  0.4204
  340MPD2    C4 5100   0.672   2.462  10.044 -0.2351  0.1904 -0.5631
  340MPD2    C5 5101   0.573   2.367  10.050  0.3082  0.0679  0.5603
  340MPD2     H 5102   0.543   2.649   9.804 -2.2661  0.1043  0.5892
  340MPD2    H1 5103   0.752   2.461  10.118  0.1077 -1.8441 -0.9531
  340MPD2    H2 5104   0.383   2.299   9.979  0.3706 -0.2183 -0.4542
  340MPD2    H3 5105   0.581   2.282  10.117  0.4289 -0.0256  0.4275
  340MPD2     N 5106   0.773   2.661   9.961  0.4969  0.1526  0.4636
  340MPD2    H5 5107   0.855   2.639  10.017  1.3115  1.1500 -0.3320
  340MPD2    N1 5108   0.350   2.454   9.786  0.2886  0.3729  0.3290
  340MPD2    H7 5109   0.277   2.386   9.806 -0.4175  0.9460 -0.2543
  341TMC3    C1 5110   0.217   2.493   9.598  0.2767 -0.2110  0.3444
  341TMC3    C2 5111   0.124   2.412   9.650  0.7866  1.0481  0.3150
  341TMC3    C3 5112   0.027   2.365   9.571  1.0482  0.3216  0.1051
  341TMC3    C4 5113   0.218   2.516   9.462 -0.3476  0.0444  0.2585
  341TMC3    C5 5114   0.110   2.469   9.390  0.2282 -0.9939  0.4943
  341TMC3    C6 5115   0.020   2.380   9.435 -0.4426 -0.1665 -0.4422
  341TMC3     C 5116   0.342   2.522   9.661  0.6937 -0.7031 -0.0336
  341TMC3     O 5117   0.435   2.588   9.604  1.3227  0.5686  0.1957
  341TMC3     H 5118   0.116   2.403   9.758 -0.1349 -2.2121 -0.0375
  341TMC3    H1 5119   0.308   2.558   9.418  0.1181  1.3541  2.4474
  341TMC3    H2 5120   4.691   2.313   9.369 -1.1611 -0.5852  0.5523
  341TMC3    C7 5121   0.117   2.493   9.248 -0.1064 -0.3819  0.7061
  341TMC3    C8 5122   4.667   2.268   9.637 -0.2929  0.4820 -0.0226
  341TMC3    O1 5123   0.226   2.519   9.198 -0.1081 -0.2630  1.0593
  341TMC3    O2 5124   4.714   2.236   9.744 -0.2720  0.0920 -0.2716
  342MPD2     C 5125   3.196   0.084   0.223  0.2218  0.7021  0.2575
  342MPD2    C1 5126   3.270   0.117   0.114  0.0683  0.1920  0.3922
  342MPD2    C2 5127   3.273   0.247   0.077  0.8852  0.2249  0.7505
  342MPD2    C3 5128   3.213   0.349   0.158  0.3476  0.2770 -0.3074
  342MPD2    C4 5129   3.134   0.307   0.264  0.4065 -0.5082  0.3442
  342MPD2    C5 5130   3.124   0.176   0.298  0.1944  0.4886  0.8232
  342MPD2     H 5131   3.328   0.273  17.685 -0.7461 -0.5505 -0.4841
  342MPD2    H1 5132   3.080   0.377   0.325 -0.9575 -0.0021 -1.4556
  342MPD2    H2 5133   3.187   4.710   0.269 -0.0245 -0.2802 -1.8822
  342MPD2    H3 5134   3.067   0.145   0.385 -0.8419  1.9141  0.6563
  342MPD2     N 5135   3.223   0.486   0.137 -0.0822  0.0514  0.9488
  342MPD2    H5 5136   3.174   0.544   0.204 -0.9038 -0.3866  0.7280
  342MPD2    N1 5137   3.344   0.030   0.033 -0.1564 -0.5996 -0.9762
  342MPD2    H7 5138   3.396   0.060  17.648  0.0493  0.9192 -0.2827
  343TMC3    C1 5139   3.457   4.550  17.673 -0.1892 -0.0544 -0.2796
  343TMC3    C2 5140   3.576   4.602  17.624 -0.0417 -0.9015  0.8450
  343TMC3    C3 5141   3.669   4.520  17.567 -0.0164 -0.6869 -0.2752
  343TMC3    C4 5142   3.421   4.419  17.657  0.8755  0.0553  1.0729
  343TMC3    C5 5143   3.514   4.339  17.597  0.2336  0.0573  0.1973
  343TMC3    C6 5144   3.639   4.384  17.554  0.2166 -0.5171  0.0465
  343TMC3     C 5145   3.368   4.624   0.060 -0.3117  0.4134  0.7332
  343TMC3     O 5146   3.326   4.557   0.154 -0.1151  0.0218 -0.3186
  343TMC3     H 5147   3.616   4.698  17.656  2.5118 -2.0323  1.0532
  343TMC3    H1 5148   3.335   4.370   0.002 -0.2816  0.4329 -0.8366
  343TMC3    H2 5149   3.713   4.316  17.512  0.7370 -0.2862  0.5988
  343TMC3    C7 5150   3.497   4.192  17.625  0.1231 -0.5903 -0.3280
  343TMC3    C8 5151   3.808   4.570  17.574 -0.7473 -0.3928 -0.9904
  343TMC3    O1 5152   3.504   4.114  17.533  0.0554  0.6895  0.0374
  343TMC3    O2 5153   3.825   4.692  17.586 -0.4779  0.0137 -0.1523
  344MPD2     C 5154   3.794   4.351  10.661 -0.2328  0.3547 -0.3023
  344MPD2    C1 5155   3.824   4.349  10.796 -0.8715  0.3817 -0.3241
  344MPD2    C2 5156   3.896   4.453  10.856  0.0307 -0.6411 -0.2205
  344MPD2    C3 5157   3.929   4.564  10.785  0.9388  0.2237 -0.6383
  344MPD2    C4 5158   3.898   4.558  10.653  0.0171 -0.2853 -0.3627
  344MPD2    C5 5159   3.833   4.454  10.592 -0.5524  0.3731 -0.2588
  344MPD2     H 5160   3.928   4.436  10.958  0.2552 -0.6451 -0.2905
  344MPD2    H1 5161   3.929   4.630  10.578 -1.2948  0.4478 -0.2016
  344MPD2    H2 5162   3.742   4.270  10.613 -1.8891  0.4743  1.2928
  344MPD2    H3 5163   3.819   4.461  10.485 -2.9189 -0.9682 -0.0276
  344MPD2     N 5164   4.017   4.667  10.827 -1.0058  0.1645 -0.2289
  344MPD2    H5 5165   4.038   0.013  10.756  2.3754  1.8328  2.4072
  344MPD2    N1 5166   3.779   4.246  10.878  0.3269 -0.3297  0.7014
  344MPD2    H7 5167   3.815   4.253  10.973 -1.2273 -0.4725  1.3058
  345TMC3    C1 5168   4.129   0.101  10.965  0.0137  0.8790 -0.2049
  345TMC3    C2 5169   4.202   0.125  11.083  0.0975  0.2210  0.5701
  345TMC3    C3 5170   4.294   0.228  11.076  0.6767 -0.2728  0.4864
  345TMC3    C4 5171   4.128   0.183  10.857 -0.0037  0.6922  0.3761
  345TMC3    C5 5172   4.218   0.284  10.850  0.3104 -0.5689 -0.3705
  345TMC3    C6 5173   4.305   0.303  10.958 -0.0916 -1.0172 -0.5916
  345TMC3     C 5174   4.062   4.694  10.953  0.2904  0.3888  0.6695
  345TMC3     O 5175   4.062   4.632  11.060  0.1963 -0.1941 -0.0055
  345TMC3     H 5176   4.212   0.057  11.166 -0.7306  0.6259  0.9968
  345TMC3    H1 5177   4.054   0.177  10.777  0.7619  0.3620 -0.3164
  345TMC3    H2 5178   4.375   0.385  10.945 -1.4323  0.1485 -0.4259
  345TMC3    C7 5179   4.179   0.404  10.793 -0.1447 -0.6702 -0.4048
  345TMC3    C8 5180   4.274   0.307  11.190  0.6316  0.4225  0.2020
  345TMC3    O1 5181   4.164   0.509  10.856  0.1150  0.1363  0.2692
  345TMC3    O2 5182   4.254   0.245  11.295 -0.1247  0.2587 -0.3617
  346MPD2     C 5183   4.559   1.629  14.480  0.5854  0.3833 -0.1245
  346MPD2    C1 5184   4.684   1.675  14.452  0.2100 -0.3722 -0.1583
  346MPD2    C2 5185   0.027   1.736  14.558 -0.4915  0.7121  0.3446
  346MPD2    C3 5186   4.696   1.746  14.685 -0.2625  0.6370  0.1318
  346MPD2    C4 5187   4.565   1.704  14.707 -0.1406 -0.4549  0.2128
  346MPD2    C5 5188   4.503   1.642  14.598 -0.0309  0.4873  0.5193
  346MPD2     H 5189   0.126   1.773  14.537 -0.1979  0.1759  0.7877
  346MPD2    H1 5190   4.515   1.706  14.803 -1.1534  1.9409 -0.3575
  346MPD2    H2 5191   4.494   1.593  14.402 -1.3413 -0.1016  1.7109
  346MPD2    H3 5192   4.400   1.610  14.610  0.2265 -1.1894 -1.7775
  346MPD2     N 5193   0.051   1.806  14.791  0.0740  0.3032  0.1391
  346MPD2    H5 5194   0.145   1.838  14.767 -0.6239  1.3893 -1.1326
  346MPD2    N1 5195   0.038   1.666  14.332  0.7347  0.5304 -0.5288
  346MPD2    H7 5196   0.130   1.709  14.334  1.2263 -0.5716  1.1204
  347TMC3    C1 5197   0.103   1.920  14.986 -0.2884  0.0989 -0.2695
  347TMC3    C2 5198   0.163   2.015  14.903  0.2752  0.4159  0.3870
  347TMC3    C3 5199   0.270   2.081  14.951  0.0513 -0.1494 -0.4774
  347TMC3    C4 5200   0.156   1.894  15.113  0.2618 -0.3312  0.1168
  347TMC3    C5 5201   0.258   1.975  15.163 -0.2694 -0.0790 -0.1303
  347TMC3    C6 5202   0.317   2.066  15.079 -0.2807 -1.2482 -0.5612
  347TMC3     C 5203   0.011   1.828  14.923 -1.2705  1.0490 -0.9072
  347TMC3     O 5204   4.656   1.766  14.995  0.7088  0.1271 -0.1757
  347TMC3     H 5205   0.113   2.046  14.812  0.3026  1.0639  0.5949
  347TMC3    H1 5206   0.117   1.817  15.178  0.8890  0.5053  1.4990
  347TMC3    H2 5207   0.403   2.125  15.109 -0.5861 -0.4825 -1.1797
  347TMC3    C7 5208   0.292   1.976  15.304  0.1990 -0.2223 -0.1893
  347TMC3    C8 5209   0.361   2.121  14.848  0.1269  0.0679 -0.6232
  347TMC3    O1 5210   0.195   1.955  15.380  0.2274  0.0110  0.2583
  347TMC3    O2 5211   0.368   2.046  14.752 -0.1288  0.1699 -0.3247
  348MPD2     C 5212   2.491   0.822  12.229 -0.3994  0.0970  0.1497
  348MPD2    C1 5213   2.573   0.932  12.249  0.3151  0.4247  0.6382
  348MPD2    C2 5214   2.595   1.026  12.148 -0.1575  0.4712  0.4486
  348MPD2    C3 5215   2.528   1.010  12.029 -0.2035 -0.3907  0.5658
  348MPD2    C4 5216   2.444   0.901  12.007 -0.3466  0.2335  0.7232
  348MPD2    C5 5217   2.433   0.803  12.103 -1.2548  0.6132  0.2624
  348MPD2     H 5218   2.663   1.110  12.161 -1.5271  1.6757 -0.1551
  348MPD2    H1 5219   2.382   0.885  11.919  1.2484 -0.0218 -0.3684
  348MPD2    H2 5220   2.467   0.754  12.310  2.2068  0.7535  1.4818
  348MPD2    H3 5221   2.377   0.714  12.079 -0.7179  0.0629  1.0329
  348MPD2     N 5222   2.531   1.114  11.932  0.4970  0.3202  0.0078
  348MPD2    H5 5223   2.586   1.197  11.948  2.1672 -0.7480 -0.1372
  348MPD2    N1 5224   2.646   0.957  12.371 -0.1131 -0.6567 -0.3848
  348MPD2    H7 5225   2.699   1.044  12.372 -1.1132 -0.0353 -0.1676
  349TMC3    C1 5226   2.789   0.900  12.539 -0.3721  0.3891 -0.8157
  349TMC3    C2 5227   2.851   0.790  12.599 -0.3414 -0.2624 -0.3876
  349TMC3    C3 5228   2.990   0.782  12.588 -0.1257 -0.1647  0.1651
  349TMC3    C4 5229   2.867   1.003  12.504 -0.4325 -0.0255 -0.8341
  349TMC3    C5 5230   2.998   0.994  12.488 -0.4463 -0.6330 -0.8036
  349TMC3    C6 5231   3.068   0.879  12.524 -0.6341  0.0668  0.4525
  349TMC3     C 5232   2.672   0.863  12.469 -0.2459 -0.2561 -0.1756
  349TMC3     O 5233   2.632   0.746  12.468 -0.2210 -0.6159 -0.7049
  349TMC3     H 5234   2.787   0.714  12.643  0.9258 -0.6796  0.7579
  349TMC3    H1 5235   2.808   1.092  12.484  1.1032  0.7874 -1.7561
  349TMC3    H2 5236   3.173   0.869  12.499 -0.9918  0.5281 -1.2587
  349TMC3    C7 5237   3.040   1.059  12.366  0.5710  0.0342 -0.4864
  349TMC3    C8 5238   3.040   0.655  12.634  0.0893 -0.0655 -0.2047
  349TMC3    O1 5239   3.108   0.988  12.293  0.0980  0.3423 -0.2605
  349TMC3    O2 5240   2.957   0.566  12.649  0.1633 -0.1946 -0.0612
  350MPD2     C 5241   2.244   4.065  10.571  0.1237 -0.1689  0.3549
  350MPD2    C1 5242   2.180   3.946  10.583  0.8380  0.0537 -0.3582
  350MPD2    C2 5243   2.188   3.873  10.694  0.3003  0.1010 -1.0231
  350MPD2    C3 5244   2.249   3.913  10.809  0.4197 -0.6311 -1.2080
  350MPD2    C4 5245   2.334   4.025  10.790  0.9848  0.1220  0.1931
  350MPD2    C5 5246   2.316   4.104  10.674  0.0840 -0.1936 -0.8610
  350MPD2     H 5247   2.131   3.781  10.690  1.4855 -0.6714 -0.1735
  350MPD2    H1 5248   2.399   4.057  10.870 -0.4194 -0.4067  1.5464
  350MPD2    H2 5249   2.240   4.124  10.480  1.9685 -1.6614 -0.6744
  350MPD2    H3 5250   2.373   4.196  10.668  2.9817 -1.8960  0.4482
  350MPD2     N 5251   2.238   3.841  10.929  0.2849  0.0711  0.3106
  350MPD2    H5 5252   2.207   3.746  10.914 -0.3128  0.3720 -0.3712
  350MPD2    N1 5253   2.107   3.881  10.482  0.5379  0.2782  0.1706
  350MPD2    H7 5254   2.084   3.783  10.490  1.3922  0.1602  1.1318
  351TMC3    C1 5255   1.994   3.853  10.280 -0.5315  0.2886  0.7452
  351TMC3    C2 5256   2.035   3.852  10.153  0.0151 -0.0184 -1.2090
  351TMC3    C3 5257   1.995   3.747  10.082 -0.8178 -0.4867  0.4298
  351TMC3    C4 5258   1.926   3.744  10.334  0.0095 -0.0244 -0.3463
  351TMC3    C5 5259   1.892   3.638  10.262 -0.0087  0.5655  0.0664
  351TMC3    C6 5260   1.919   3.639  10.126 -0.0838  0.2080 -0.1685
  351TMC3     C 5261   2.070   3.941  10.360  0.0764 -0.1416 -0.3104
  351TMC3     O 5262   2.073   4.061  10.332  0.3696 -0.1582  0.8940
  351TMC3     H 5263   2.101   3.928  10.114  1.9838 -2.0394 -1.8272
  351TMC3    H1 5264   1.888   3.751  10.436 -2.2761 -0.4604 -1.1597
  351TMC3    H2 5265   1.896   3.549  10.070  2.0622 -0.6715  0.3315
  351TMC3    C7 5266   1.777   3.562  10.308 -0.5755  1.0313 -0.1333
  351TMC3    C8 5267   2.033   3.759   9.947 -0.4572 -0.6748  0.6945
  351TMC3    O1 5268   1.705   3.609  10.396 -0.3568 -0.2478  0.1674
  351TMC3    O2 5269   2.032   3.868   9.896 -0.1742  0.9089 -0.3757
  352MPD2     C 5270   1.886   0.719   1.342  0.1568 -0.5459 -0.3738
  352MPD2    C1 5271   1.774   0.661   1.391 -0.0776  0.2111  0.2844
  352MPD2    C2 5272   1.799   0.551   1.469 -0.2932 -0.1417  0.2989
  352MPD2    C3 5273   1.926   0.500   1.499 -0.0420  0.2859  0.3968
  352MPD2    C4 5274   2.029   0.565   1.442  0.3001 -0.8041 -0.5185
  352MPD2    C5 5275   2.015   0.674   1.366  0.6044 -0.5220 -0.2030
  352MPD2     H 5276   1.713   0.503   1.514 -0.6944 -0.2010 -0.5234
  352MPD2    H1 5277   2.129   0.529   1.464  0.5917  0.0591 -0.4272
  352MPD2    H2 5278   1.870   0.800   1.271 -1.3260 -1.4070 -1.0049
  352MPD2    H3 5279   2.103   0.728   1.335  1.3254 -1.0032  1.0299
  352MPD2     N 5280   1.944   0.378   1.573 -0.4196 -0.5847  0.0708
  352MPD2    H5 5281   2.039   0.344   1.577  0.5123  1.5022 -4.3357
  352MPD2    N1 5282   1.649   0.721   1.372  0.2821  0.1229 -0.1096
  352MPD2    H7 5283   1.651   0.799   1.307 -2.0783  1.6665  1.6999
  353TMC3    C1 5284   1.882   0.182   1.691  0.1152 -0.5945 -0.3898
  353TMC3    C2 5285   1.943   0.112   1.595 -0.1821 -0.0838  0.0117
  353TMC3    C3 5286   1.907   4.708   1.567  0.0563  0.3983  0.3626
  353TMC3    C4 5287   1.772   0.124   1.758 -0.1817 -0.4185  0.4045
  353TMC3    C5 5288   1.731   0.003   1.723  0.1579 -0.0447  0.2353
  353TMC3    C6 5289   1.807   4.646   1.640 -0.1847  0.0860  0.4285
  353TMC3     C 5290   1.849   0.321   1.656  0.1252 -0.2566 -0.2561
  353TMC3     O 5291   1.744   0.366   1.705  0.2511  0.1296  0.0533
  353TMC3     H 5292   2.031   0.147   1.543 -1.0986 -0.2635 -1.6555
  353TMC3    H1 5293   1.715   0.183   1.829  0.0142  1.0695 -0.6531
  353TMC3    H2 5294   1.756   4.552   1.621  0.4877 -0.2629  0.3646
  353TMC3    C7 5295   1.589   4.706   1.701 -0.6314 -0.1405 -0.0499
  353TMC3    C8 5296   1.952   4.664   1.438 -0.3187  0.0391  0.2112
  353TMC3    O1 5297   1.548   4.633   1.610 -0.2981 -0.7271  0.0161
  353TMC3    O2 5298   2.063   4.698   1.399 -0.5096  0.4309 -0.1915
  354TMC3    C1 5299   2.697   2.387  13.841  0.0779 -0.1496 -0.7002
  354TMC3    C2 5300   2.653   2.508  13.803 -0.2733 -0.2426  0.1442
  354TMC3    C3 5301   2.693   2.549  13.676 -0.1938 -0.3701  0.1282
  354TMC3    C4 5302   2.789   2.311  13.779  0.0361 -0.3492  0.1106
  354TMC3    C5 5303   2.836   2.354  13.662  0.0343 -0.1500 -0.2925
  354TMC3    C6 5304   2.794   2.475  13.609 -0.1611  0.2168 -0.4047
  354TMC3     C 5305   2.630   2.330  13.963 -0.0026  0.2933  0.1505
  354TMC3     O 5306   2.627   2.207  13.977 -0.1288 -0.5007 -0.1390
  354TMC3     H 5307   2.586   2.563  13.869  0.7128 -0.1235  1.0352
  354TMC3    H1 5308   2.791   2.207  13.809  0.9435  0.2252  2.0164
  354TMC3    H2 5309   2.835   2.506  13.514 -2.1869  1.5578 -0.8342
  354TMC3    C7 5310   2.839   2.247  13.568  1.0789 -0.6934 -0.4432
  354TMC3    C8 5311   2.600   2.625  13.596 -0.3566  0.6387 -0.2311
  354TMC3    O1 5312   2.880   2.133  13.597 -0.0664  0.0624  0.3692
  354TMC3    O2 5313   2.638   2.684  13.498 -0.0816 -0.1572 -0.3276
  355MPD2     C 5314   2.242   3.033  11.994 -0.1363  0.4962  0.6784
  355MPD2    C1 5315   2.328   2.984  11.901 -0.1449  0.1810  0.0439
  355MPD2    C2 5316   2.403   2.871  11.937 -0.3956  0.3805  0.2351
  355MPD2    C3 5317   2.398   2.814  12.064  0.3284 -0.6211  0.1305
  355MPD2    C4 5318   2.312   2.866  12.161 -0.3674 -0.2968 -0.0978
  355MPD2    C5 5319   2.231   2.975  12.121 -0.0097  0.4883 -0.2064
  355MPD2     H 5320   2.484   2.834  11.874  0.1232  1.9866 -0.0416
  355MPD2    H1 5321   2.296   2.819  12.257  1.4346  0.6338  0.6371
  355MPD2    H2 5322   2.169   3.111  11.975 -1.2923 -0.0408  2.9586
  355MPD2    H3 5323   2.161   3.011  12.195 -1.1153 -2.4072  0.1140
  355MPD2     N 5324   2.499   2.727  12.112 -0.1235  0.4852  1.0185
  355MPD2    H5 5325   2.518   2.734  12.211 -0.2843 -0.2433  1.1059
  355MPD2    N1 5326   2.349   3.061  11.783  0.1769 -0.6127  0.2400
  355MPD2    H7 5327   2.296   3.147  11.771 -2.5924 -2.2825  0.4603
  356TMC3    C1 5328   2.727   2.688  12.052 -0.4946  0.4628 -0.0900
  356TMC3    C2 5329   2.786   2.743  11.942 -0.0561 -0.0161  0.2766
  356TMC3    C3 5330   2.858   2.858  11.966 -0.2254 -0.3620 -0.0168
  356TMC3    C4 5331   2.758   2.729  12.176  0.0152 -0.6989 -0.2658
  356TMC3    C5 5332   2.838   2.839  12.199 -0.2056 -0.0878 -1.2444
  356TMC3    C6 5333   2.886   2.905  12.088  0.1396 -0.0114  0.0685
  356TMC3     C 5334   2.583   2.667  12.026  0.3272  0.3094 -0.4650
  356TMC3     O 5335   2.551   2.624  11.916 -0.0037 -0.2975 -0.6801
  356TMC3     H 5336   2.748   2.732  11.841  0.4939 -2.8475  0.3581
  356TMC3    H1 5337   2.718   2.684  12.267  0.8653 -2.7412 -0.8925
  356TMC3    H2 5338   2.927   3.004  12.106  4.0681 -1.8023  0.9670
  356TMC3    C7 5339   2.851   2.897  12.329  0.5903  0.3375 -0.4758
  356TMC3    C8 5340   2.894   2.934  11.846 -0.2985  0.3491  0.5965
  356TMC3    O1 5341   2.869   2.815  12.413  0.4711  0.3929 -0.1720
  356TMC3    O2 5342   2.868   2.879  11.738 -0.2601 -0.4915 -0.1658
  357MPD2     C 5343   2.694   3.071   1.430 -0.2000  0.2265  0.1836
  357MPD2    C1 5344   2.678   2.955   1.502  0.7051  0.0308  0.0669
  357MPD2    C2 5345   2.600   2.953   1.616 -0.5130  0.4469  0.5332
  357MPD2    C3 5346   2.526   3.066   1.656  0.2716  1.1653  0.7361
  357MPD2    C4 5347   2.545   3.186   1.580  0.6137  0.2604  0.0727
  357MPD2    C5 5348   2.617   3.182   1.467 -0.5432 -0.8740  0.4365
  357MPD2     H 5349   2.592   2.858   1.668  0.5368  0.7755  1.2877
  357MPD2    H1 5350   2.480   3.271   1.597  0.5327 -0.2415  2.2584
  357MPD2    H2 5351   2.746   3.078   1.336  0.4790 -0.2672  0.5286
  357MPD2    H3 5352   2.617   3.273   1.408 -2.1035 -0.5951  0.8577
  357MPD2     N 5353   2.436   3.056   1.758  0.3001 -0.5595 -0.0388
  357MPD2    H5 5354   2.368   3.131   1.766 -0.0874 -0.9681  0.4915
  357MPD2    N1 5355   2.741   2.842   1.449  0.6288 -0.1962  0.1571
  357MPD2    H7 5356   2.761   2.841   1.349  1.5595 -1.4265  0.3598
  358TMC3    C1 5357   2.772   2.604   1.443  0.4616 -0.3625 -0.6140
  358TMC3    C2 5358   2.724   2.590   1.314  0.0110 -0.6670  0.5531
  358TMC3    C3 5359   2.700   2.466   1.269 -0.1916  0.2085 -0.3536
  358TMC3    C4 5360   2.809   2.497   1.509  0.1049 -0.1575 -0.0256
  358TMC3    C5 5361   2.784   2.367   1.463  0.2937  0.1104  0.2800
  358TMC3    C6 5362   2.733   2.349   1.338  0.1791 -0.8266 -0.0361
  358TMC3     C 5363   2.760   2.727   1.521  0.4890 -0.6559  0.4048
  358TMC3     O 5364   2.758   2.707   1.640 -0.1536 -0.4611  0.0660
  358TMC3     H 5365   2.694   2.674   1.253 -0.8594 -0.0836  1.7743
  358TMC3    H1 5366   2.837   2.507   1.614  0.1726  0.7716 -0.1304
  358TMC3    H2 5367   2.696   2.255   1.299 -0.7865 -0.3848 -0.1780
  358TMC3    C7 5368   2.814   2.260   1.560 -0.0697 -0.4594 -0.2990
  358TMC3    C8 5369   2.686   2.448   1.126  0.9860  0.6781  0.0870
  358TMC3    O1 5370   2.862   2.286   1.669 -0.6087  0.1337  0.4146
  358TMC3    O2 5371   2.743   2.528   1.054 -0.0366 -0.2801 -0.3705
  359MPD2     C 5372   2.066   1.173  12.754 -0.4790  0.2070 -0.2352
  359MPD2    C1 5373   2.107   1.301  12.766  0.2785  0.1010  0.1020
  359MPD2    C2 5374   2.073   1.377  12.874  0.9001 -0.9488 -0.7400
  359MPD2    C3 5375   1.984   1.330  12.968 -0.2721  1.0442  0.7639
  359MPD2    C4 5376   1.939   1.202  12.961 -0.3060  0.2496 -0.0274
  359MPD2    C5 5377   1.975   1.129  12.855  0.3753 -0.6882 -0.4894
  359MPD2     H 5378   2.116   1.476  12.886 -0.3378 -0.6431  1.1642
  359MPD2    H1 5379   1.871   1.165  13.037 -2.5115  2.4812 -0.9352
  359MPD2    H2 5380   2.087   1.110  12.668 -1.5087  0.4219 -0.6354
  359MPD2    H3 5381   1.937   1.027  12.850  0.5827 -0.6654 -2.6684
  359MPD2     N 5382   1.913   1.404  13.069  0.3147 -0.1170 -0.1415
  359MPD2    H5 5383   1.851   1.352  13.131  2.2189 -1.4616  0.6204
  359MPD2    N1 5384   2.184   1.369  12.666  0.0055  0.2744 -0.2978
  359MPD2    H7 5385   2.228   1.458  12.688  2.7438 -1.2410  0.3119
  360TMC3    C1 5386   2.302   1.405  12.464  0.0178 -0.6270 -0.0228
  360TMC3    C2 5387   2.394   1.485  12.519 -0.5559 -0.7136  0.0914
  360TMC3    C3 5388   2.464   1.570  12.437  0.3093  0.2669 -0.6545
  360TMC3    C4 5389   2.267   1.409  12.330 -0.2365  0.6933  0.1872
  360TMC3    C5 5390   2.332   1.513  12.261 -0.5481 -0.3687 -0.1845
  360TMC3    C6 5391   2.428   1.595  12.311  0.8280 -0.0145 -0.3761
  360TMC3     C 5392   2.219   1.311  12.543  0.8348 -0.1873 -0.2019
  360TMC3     O 5393   2.159   1.227  12.475 -0.1272  0.2139 -0.3709
  360TMC3     H 5394   2.450   1.444  12.602  3.0420  1.5353 -1.2224
  360TMC3    H1 5395   2.198   1.338  12.284 -0.0157 -0.8866  2.2372
  360TMC3    H2 5396   2.474   1.670  12.248  1.9029  0.9860  1.6074
  360TMC3    C7 5397   2.299   1.529  12.117  0.3749 -0.0634 -0.3064
  360TMC3    C8 5398   2.592   1.624  12.494 -0.5318 -0.2141  0.2368
  360TMC3    O1 5399   2.310   1.642  12.061 -0.3207  0.0022  0.1458
  360TMC3    O2 5400   2.615   1.598  12.608  0.5465 -0.2216  0.1221
  361MPD2     C 5401   4.374   0.839  17.572  0.3512  0.0286  0.0265
  361MPD2    C1 5402   4.358   0.762  17.462 -1.0847 -0.4085  0.2768
  361MPD2    C2 5403   4.454   0.665  17.429 -0.5778 -0.1140  0.2662
  361MPD2    C3 5404   4.569   0.663  17.505 -0.0050  0.0696 -0.2949
  361MPD2    C4 5405   4.578   0.741  17.619 -0.2592 -0.1530  0.0738
  361MPD2    C5 5406   4.486   0.830  17.646  0.7236  0.2748  0.2806
  361MPD2     H 5407   4.436   0.605  17.341 -0.4969  0.0157  0.1616
  361MPD2    H1 5408   4.667   0.741  17.680 -0.3105  0.5741  0.1439
  361MPD2    H2 5409   4.296   0.910  17.593 -0.5812 -1.6863  2.4000
  361MPD2    H3 5410   4.505   0.904   0.025  2.3765 -0.0264  0.1700
  361MPD2     N 5411   4.674   0.574  17.491  0.3855 -1.0893  0.3792
  361MPD2    H5 5412   0.022   0.581  17.562  0.4844  1.0797  0.0566
  361MPD2    N1 5413   4.239   0.795  17.385 -0.4098  0.0666  0.0224
  361MPD2    H7 5414   4.179   0.867  17.423 -1.8736 -1.1063 -0.0885
  362TMC3    C1 5415   4.071   0.773  17.225  0.0157 -0.6072  0.1405
  362TMC3    C2 5416   3.972   0.764  17.322 -0.0399 -0.4949 -0.1859
  362TMC3    C3 5417   3.859   0.841  17.300  0.1166  0.2011 -0.0879
  362TMC3    C4 5418   4.059   0.834  17.107  0.1839  0.3949  0.6483
  362TMC3    C5 5419   3.941   0.899  17.081  0.5278 -0.2592  0.0089
  362TMC3    C6 5420   3.840   0.903  17.176  0.1552 -0.6412  0.1919
  362TMC3     C 5421   4.204   0.743  17.260 -0.9762  1.5607  0.2640
  362TMC3     O 5422   4.275   0.690  17.175  0.1218 -0.0418 -0.6973
  362TMC3     H 5423   3.989   0.714  17.416  0.2884  0.8317  0.4658
  362TMC3    H1 5424   4.142   0.843  17.038  1.3128 -2.6762  1.6020
  362TMC3    H2 5425   3.747   0.954  17.157  0.5807  0.4390  1.0371
  362TMC3    C7 5426   3.924   0.954  16.949  0.3359 -0.3083  0.4721
  362TMC3    C8 5427   3.744   0.791  17.365 -0.5741 -0.3759  0.6763
  362TMC3    O1 5428   4.030   0.989  16.895 -0.0826 -0.2591  0.0138
  362TMC3    O2 5429   3.744   0.674  17.398 -0.2508  0.1174 -0.0001
  363TMC3    C1 5430   2.731   3.728   9.633 -0.4215  0.1022 -0.2309
  363TMC3    C2 5431   2.749   3.637   9.734 -0.3964 -0.7768  0.2361
  363TMC3    C3 5432   2.641   3.610   9.821  0.2186 -0.1697 -0.3194
  363TMC3    C4 5433   2.619   3.804   9.628 -0.2953 -0.3693 -0.0684
  363TMC3    C5 5434   2.516   3.779   9.718 -0.4353  0.0066  0.0781
  363TMC3    C6 5435   2.530   3.693   9.827 -0.8892 -0.4596 -0.3581
  363TMC3     C 5436   2.849   3.769   9.563  0.1181  0.4825  0.3563
  363TMC3     O 5437   2.960   3.743   9.606  0.5505  0.2701  0.9040
  363TMC3     H 5438   2.840   3.578   9.735 -0.5194 -0.9163  2.1626
  363TMC3    H1 5439   2.603   3.888   9.561  0.9306 -0.0734  0.0096
  363TMC3    H2 5440   2.444   3.673   9.890 -0.8199 -0.6726 -0.3328
  363TMC3    C7 5441   2.426   3.896   9.739 -0.1534 -0.7711  0.4512
  363TMC3    C8 5442   2.640   3.499   9.920  0.1526 -0.2022  0.4473
  363TMC3    O1 5443   2.378   3.956   9.643 -0.3063  0.8362  0.0912
  363TMC3    O2 5444   2.563   3.510  10.014  0.1806 -0.1531  0.3724
  364MPD2     C 5445   1.582   3.291  11.192  0.3425  0.0145 -0.6754
  364MPD2    C1 5446   1.642   3.226  11.084  0.2545  0.0748  0.1682
  364MPD2    C2 5447   1.629   3.088  11.078  0.3065  0.3580 -0.1591
  364MPD2    C3 5448   1.559   3.017  11.174 -0.4763 -0.3457 -0.0221
  364MPD2    C4 5449   1.489   3.093  11.267 -0.1113 -0.2805  0.4534
  364MPD2    C5 5450   1.500   3.225  11.274  0.1452  0.1312  0.7520
  364MPD2     H 5451   1.686   3.035  11.003  1.5570 -0.3768  1.3082
  364MPD2    H1 5452   1.424   3.039  11.334  1.3853 -0.2745  1.9070
  364MPD2    H2 5453   1.588   3.399  11.197 -0.2298  0.1010 -2.0258
  364MPD2    H3 5454   1.450   3.280  11.352 -1.0611  0.9581 -0.6041
  364MPD2     N 5455   1.551   2.879  11.183  1.0111 -0.5063  0.2643
  364MPD2    H5 5456   1.491   2.835  11.253  0.1316 -0.7546 -0.6444
  364MPD2    N1 5457   1.728   3.303  10.997 -0.5032  0.0656  0.0693
  364MPD2    H7 5458   1.733   3.402  11.019 -1.6777 -0.0243  0.7191
  365TMC3    C1 5459   1.859   3.377  10.813  0.5247 -0.3491 -0.4372
  365TMC3    C2 5460   1.936   3.343  10.702  0.2434 -0.1460 -0.4858
  365TMC3    C3 5461   1.986   3.452  10.631  0.4815  0.0129 -0.0162
  365TMC3    C4 5462   1.817   3.502  10.839  0.0472 -0.0744  0.9471
  365TMC3    C5 5463   1.856   3.603  10.751 -0.1768 -0.2904  0.2117
  365TMC3    C6 5464   1.952   3.580  10.657 -0.2646  0.0759  0.2781
  365TMC3     C 5465   1.804   3.260  10.888 -0.1126 -0.5565 -0.1835
  365TMC3     O 5466   1.821   3.148  10.843  0.3767 -0.2934  0.3231
  365TMC3     H 5467   1.980   3.245  10.687  0.3603  0.2458 -2.8003
  365TMC3    H1 5468   1.734   3.523  10.905 -0.6289  2.3181 -0.6418
  365TMC3    H2 5469   1.983   3.658  10.588 -0.6007 -1.6706 -1.8750
  365TMC3    C7 5470   1.780   3.717  10.735  0.4715  0.1861 -0.0212
  365TMC3    C8 5471   2.086   3.439  10.534  0.8081 -0.6970  0.6038
  365TMC3    O1 5472   1.821   3.808  10.665  0.6868 -0.0589 -0.0877
  365TMC3    O2 5473   2.145   3.540  10.505  0.4887 -0.1983  0.0714
  366MPD2     C 5474   0.395   3.583  15.392  0.2903 -0.4643 -0.8344
  366MPD2    C1 5475   0.440   3.648  15.508 -0.3699  0.2906 -0.0026
  366MPD2    C2 5476   0.570   3.675  15.528 -0.2815 -0.2166  0.8144
  366MPD2    C3 5477   0.657   3.671  15.426  0.1353  0.2094 -0.5758
  366MPD2    C4 5478   0.614   3.621  15.308 -0.2080 -0.1872  0.5149
  366MPD2    C5 5479   0.488   3.566  15.294  0.2674 -0.0274 -0.4013
  366MPD2     H 5480   0.600   3.713  15.625 -2.0438 -2.0850  2.0884
  366MPD2    H1 5481   0.678   3.620  15.220 -4.0319 -0.6428 -2.2410
  366MPD2    H2 5482   0.292   3.552  15.383  0.3841 -0.1861 -2.8637
  366MPD2    H3 5483   0.452   3.526  15.200 -0.8747  0.0300  0.0156
  366MPD2     N 5484   0.793   3.706  15.435  0.5083 -0.3179 -1.0294
  366MPD2    H5 5485   0.857   3.671  15.364 -0.9344 -0.7098 -2.1454
  366MPD2    N1 5486   0.345   3.696  15.606  0.0397 -0.0209 -0.2820
  366MPD2    H7 5487   0.387   3.729  15.692  2.2364  1.0641 -1.7729
  367TMC3    C1 5488   0.154   3.835  15.665  0.3150 -0.3719 -0.1921
  367TMC3    C2 5489   0.232   3.890  15.765 -0.1395 -0.5418  0.0170
  367TMC3    C3 5490   0.175   3.988  15.837 -0.5139  0.3674  0.0042
  367TMC3    C4 5491   0.015   3.860  15.654  0.0969 -0.2498  0.0858
  367TMC3    C5 5492   4.691   3.963  15.736  0.4292 -0.0428  1.0140
  367TMC3    C6 5493   0.048   4.031  15.821 -0.8821 -0.9661 -0.1334
  367TMC3     C 5494   0.220   3.728  15.576  0.1028  0.6374  0.1018
  367TMC3     O 5495   0.144   3.688  15.488 -0.4844 -0.2127  0.1972
  367TMC3     H 5496   0.337   3.866  15.765  0.3331  1.6481  1.8109
  367TMC3    H1 5497   4.673   3.819  15.578 -0.1582 -0.3811  0.3758
  367TMC3    H2 5498   0.003   4.109  15.882 -1.7320 -0.6986 -1.0943
  367TMC3    C7 5499   4.583   4.048  15.688 -0.4882 -0.1475 -0.5468
  367TMC3    C8 5500   0.263   4.077  15.901  0.0738 -0.1776 -0.2822
  367TMC3    O1 5501   4.596   4.166  15.716 -0.3231  0.2369  0.2630
  367TMC3    O2 5502   0.375   4.033  15.931  0.2288  0.3271 -0.3574
  368MPD2     C 5503   0.784   0.361  13.066 -0.0458 -0.1126 -0.5356
  368MPD2    C1 5504   0.797   0.484  13.015 -0.3090 -0.4760  0.2002
  368MPD2    C2 5505   0.928   0.520  12.974  0.1257 -0.6335 -0.2110
  368MPD2    C3 5506   1.041   0.435  12.996 -0.1357 -0.1371  0.2367
  368MPD2    C4 5507   1.016   0.310  13.044 -0.3228 -0.0239  0.9780
  368MPD2    C5 5508   0.894   0.282  13.085  0.4234  0.0387  0.3029
  368MPD2     H 5509   0.946   0.624  12.949 -0.3766 -0.6764 -0.7441
  368MPD2    H1 5510   1.091   0.233  13.059 -2.8001 -2.2396  2.0035
  368MPD2    H2 5511   0.686   0.331  13.101 -0.5639 -0.0900 -1.9412
  368MPD2    H3 5512   0.880   0.191  13.142  1.6984 -0.0222  0.5120
  368MPD2     N 5513   1.174   0.473  12.963  0.1116  0.0488  0.2337
  368MPD2    H5 5514   1.250   0.419  13.002 -0.1924  1.2746  2.4985
  368MPD2    N1 5515   0.672   0.547  13.006  0.1765 -0.4864 -0.4476
  368MPD2    H7 5516   0.582   0.508  13.031 -0.2251  0.1129 -0.9654
  369TMC3    C1 5517   0.529   0.731  12.992  0.1723  0.3540 -0.6413
  369TMC3    C2 5518   0.503   0.855  12.938  0.6021 -0.0978  0.5916
  369TMC3    C3 5519   0.383   0.916  12.972  0.6404 -0.0357 -0.4159
  369TMC3    C4 5520   0.466   0.691  13.113 -0.3820  0.1333 -0.3301
  369TMC3    C5 5521   0.348   0.751  13.136 -0.2175  0.1827 -0.0221
  369TMC3    C6 5522   0.299   0.864  13.067  0.4931  0.2124 -0.1075
  369TMC3     C 5523   0.660   0.676  12.963 -0.0401  0.4991 -0.7206
  369TMC3     O 5524   0.746   0.745  12.914  0.3161  0.5967 -0.6121
  369TMC3     H 5525   0.563   0.887  12.854  2.0916 -1.0493  1.2889
  369TMC3    H1 5526   0.500   0.611  13.178 -0.4563 -0.5917 -1.1871
  369TMC3    H2 5527   0.219   0.926  13.105 -1.0749 -3.5562  2.7349
  369TMC3    C7 5528   0.309   0.750  13.275 -0.6271  0.4992  0.6198
  369TMC3    C8 5529   0.389   1.058  12.964 -0.7972 -0.4116 -0.2336
  369TMC3    O1 5530   0.393   0.713  13.356  0.4382  0.4436  0.0809
  369TMC3    O2 5531   0.278   1.114  12.970  0.2985 -0.1330  0.5751
  370TMC3    C1 5532   1.031   1.834  16.357  1.0626 -0.1935  0.3782
  370TMC3    C2 5533   0.938   1.784  16.447 -0.0709  0.1315  0.4861
  370TMC3    C3 5534   0.881   1.662  16.424  0.8729  0.6685 -0.2846
  370TMC3    C4 5535   1.075   1.752  16.260  0.4637 -0.4051 -0.4939
  370TMC3    C5 5536   1.006   1.636  16.234  0.3537 -0.2061  0.2274
  370TMC3    C6 5537   0.905   1.588  16.315 -0.1645  0.1964 -0.2308
  370TMC3     C 5538   1.123   1.924  16.416  0.1392  0.3017  0.2087
  370TMC3     O 5539   1.123   1.910  16.538 -0.4239  0.4860 -0.7079
  370TMC3     H 5540   0.920   1.845  16.534  0.7691  1.2643 -0.1242
  370TMC3    H1 5541   1.150   1.776  16.186  1.7059  1.5736  1.4009
  370TMC3    H2 5542   0.851   1.500  16.283  1.3645 -0.1011 -2.0553
  370TMC3    C7 5543   1.069   1.551  16.127  0.0491  0.4303  0.3848
  370TMC3    C8 5544   0.824   1.586  16.530  0.2682  0.5201  0.0786
  370TMC3    O1 5545   1.134   1.605  16.039 -0.1711 -0.0628  0.1852
  370TMC3    O2 5546   0.823   1.462  16.513  0.1648 -0.4898  0.1450
  371TMC3    C1 5547   2.212   4.575  15.789  0.2033  0.0185 -0.4829
  371TMC3    C2 5548   2.083   4.566  15.838 -0.1169 -0.6242  0.6186
  371TMC3    C3 5549   2.021   4.685  15.867  0.1397 -0.0714 -0.1404
  371TMC3    C4 5550   2.276   4.695  15.760 -0.2216  0.0116 -1.0293
  371TMC3    C5 5551   2.198   0.089  15.781  0.4255 -0.0849 -0.0889
  371TMC3    C6 5552   2.074   0.087  15.836 -0.1444 -0.4794 -0.5824
  371TMC3     C 5553   2.284   4.459  15.753 -0.2525 -0.6277  0.1941
  371TMC3     O 5554   2.378   4.471  15.676  0.0480  0.1632 -0.0601
  371TMC3     H 5555   2.042   4.467  15.859  3.1386 -1.9093  0.8692
  371TMC3    H1 5556   2.376   4.707  15.720  1.0828  0.0196  2.2009
  371TMC3    H2 5557   2.028   0.184  15.848 -0.4783 -0.6715 -0.2997
  371TMC3    C7 5558   2.237   0.207  15.712 -0.3250 -0.2303  0.0738
  371TMC3    C8 5559   1.880   4.678  15.886 -0.4880 -0.4260  0.9494
  371TMC3    O1 5560   2.177   0.309  15.739 -0.2902  0.3630  0.2826
  371TMC3    O2 5561   1.829   4.572  15.854 -0.4722 -0.3837  0.6700
  372MPD2     C 5562   0.474   0.722  14.026  0.1362  0.3507  0.3427
  372MPD2    C1 5563   0.611   0.729  14.015 -0.1361 -0.3020 -0.0099
  372MPD2    C2 5564   0.689   0.724  14.121  0.3046  0.2132 -0.8854
  372MPD2    C3 5565   0.626   0.690  14.242  1.1746  0.1399  0.9021
  372MPD2    C4 5566   0.487   0.675  14.252 -0.1847  0.0035  0.7661
  372MPD2    C5 5567   0.416   0.686  14.141  0.2266  0.1646  0.1440
  372MPD2     H 5568   0.796   0.740  14.122  0.4917 -1.1117  1.0483
  372MPD2    H1 5569   0.437   0.638  14.341  1.2745  0.0286  1.6029
  372MPD2    H2 5570   0.404   0.724  13.943 -0.6782  3.3710  1.1090
  372MPD2    H3 5571   0.313   0.655  14.136  0.2640 -0.0799  1.0609
  372MPD2     N 5572   0.710   0.657  14.354  0.2037  1.0394 -0.5934
  372MPD2    H5 5573   0.811   0.652  14.344  0.3024 -0.5493  1.1555
  372MPD2    N1 5574   0.679   0.754  13.892  1.2762  0.3877 -0.0529
  372MPD2    H7 5575   0.780   0.765  13.898  1.4125 -0.1910 -1.2467
  373TMC3    C1 5576   0.777   0.567  14.560  0.7565 -0.0388  0.1171
  373TMC3    C2 5577   0.815   0.681  14.632 -0.7147 -0.1739 -0.5688
  373TMC3    C3 5578   0.941   0.726  14.609 -0.3023 -0.3489 -0.6042
  373TMC3    C4 5579   0.872   0.507  14.476  0.2742 -0.3944 -0.5240
  373TMC3    C5 5580   1.001   0.549  14.474  0.2176  0.1012  0.8556
  373TMC3    C6 5581   1.041   0.659  14.542  0.2524 -0.2102  0.1148
  373TMC3     C 5582   0.669   0.604  14.472  0.1942 -0.1550 -0.6629
  373TMC3     O 5583   0.555   0.563  14.507 -0.7654  0.3923 -0.0758
  373TMC3     H 5584   0.744   0.748  14.679 -1.0251 -0.9000  0.0002
  373TMC3    H1 5585   0.852   0.413  14.426 -2.3069 -0.7302  1.1172
  373TMC3    H2 5586   1.145   0.691  14.544  0.2170 -0.1258  0.9018
  373TMC3    C7 5587   1.070   0.519  14.350  0.3623 -0.7247  0.3016
  373TMC3    C8 5588   0.975   0.835  14.689 -0.1378 -0.0174 -0.4250
  373TMC3    O1 5589   0.997   0.515  14.251 -0.6132 -0.1635  0.2368
  373TMC3    O2 5590   0.914   0.858  14.794  0.0288 -0.1735 -1.0993
  374TMC3    C1 5591   1.473   1.311   9.786 -0.6212 -0.2626 -0.8195
  374TMC3    C2 5592   1.592   1.369   9.821  0.9861  0.9133 -0.1354
  374TMC3    C3 5593   1.648   1.461   9.735 -0.1141 -0.5137  0.6099
  374TMC3    C4 5594   1.412   1.346   9.669 -0.4543 -0.2457  0.0404
  374TMC3    C5 5595   1.476   1.434   9.587 -0.4391 -0.5338 -0.2997
  374TMC3    C6 5596   1.600   1.489   9.612  0.0813  0.1009 -0.0417
  374TMC3     C 5597   1.412   1.194   9.846  0.0256  0.6008  0.1943
  374TMC3     O 5598   1.503   1.126   9.893 -0.5159 -0.5721 -0.1525
  374TMC3     H 5599   1.624   1.360   9.925 -0.3510 -2.2808 -0.0124
  374TMC3    H1 5600   1.319   1.296   9.641  0.1604 -1.3259 -0.0589
  374TMC3    H2 5601   1.651   1.554   9.542 -0.8689  0.6200 -0.2396
  374TMC3    C7 5602   1.399   1.472   9.469  0.1100 -0.3839 -0.0795
  374TMC3    C8 5603   1.742   1.563   9.786 -0.2794 -0.2407  0.3956
  374TMC3    O1 5604   1.477   1.510   9.382 -0.0724 -0.4357 -0.3499
  374TMC3    O2 5605   1.776   1.654   9.713 -0.0383 -0.3398 -0.0070
  375MPD2     C 5606   2.022   2.080  17.234  0.2324  0.7025  0.1126
  375MPD2    C1 5607   2.102   2.182  17.183  0.0832  0.0482 -0.1884
  375MPD2    C2 5608   2.216   2.155  17.105 -0.9024 -0.0082 -0.3051
  375MPD2    C3 5609   2.244   2.021  17.077 -0.4649 -0.5605 -0.0682
  375MPD2    C4 5610   2.163   1.924  17.128  0.3375  0.2578 -0.1930
  375MPD2    C5 5611   2.054   1.948  17.199  0.1792 -0.3636  0.3118
  375MPD2     H 5612   2.277   2.235  17.065  0.0235 -0.1762  0.7657
  375MPD2    H1 5613   2.189   1.820  17.113  0.8115  0.5400 -1.3803
  375MPD2    H2 5614   1.939   2.092  17.303 -0.6743  2.8638 -1.3247
  375MPD2    H3 5615   2.000   1.872  17.254  0.5636  0.0244  1.2460
  375MPD2     N 5616   2.361   1.985  17.008  0.4179  1.1333 -0.0938
  375MPD2    H5 5617   2.369   1.887  16.981  0.9749  1.1833 -0.1142
  375MPD2    N1 5618   2.076   2.316  17.217  0.7530 -0.3755 -0.0653
  375MPD2    H7 5619   2.156   2.378  17.208 -1.6384  2.7658  0.1572
  376TMC3    C1 5620   2.585   1.980  16.933  0.6930 -0.5049 -0.5761
  376TMC3    C2 5621   2.709   1.984  16.984  0.5499  0.0985  0.3215
  376TMC3    C3 5622   2.793   1.877  16.955  0.4568 -0.2801  0.2873
  376TMC3    C4 5623   2.543   1.885  16.839 -0.4800 -0.4462  0.7315
  376TMC3    C5 5624   2.634   1.788  16.805 -0.5933 -0.2427 -0.9438
  376TMC3    C6 5625   2.758   1.777  16.869 -0.1823 -0.6774  0.1846
  376TMC3     C 5626   2.477   2.055  16.997  0.3790  0.0961  0.4143
  376TMC3     O 5627   2.506   2.162  17.047 -0.1504 -0.0627 -0.0237
  376TMC3     H 5628   2.739   2.051  17.064 -1.8282  0.6706  0.7496
  376TMC3    H1 5629   2.454   1.909  16.782 -0.0557 -1.8660 -0.5039
  376TMC3    H2 5630   2.826   1.703  16.829  1.8722  0.9027  0.7507
  376TMC3    C7 5631   2.635   1.755  16.661 -0.0487  0.8591 -0.0809
  376TMC3    C8 5632   2.934   1.900  16.974  0.6571  0.0234  0.9709
  376TMC3    O1 5633   2.578   1.834  16.593  0.0337 -0.5987 -0.2074
  376TMC3    O2 5634   2.970   2.017  16.967 -0.1503  0.4134  0.5205
  377MPD2     C 5635   0.168   0.643  12.837 -0.1807 -0.8035 -0.2534
  377MPD2    C1 5636   0.109   0.767  12.826 -0.0818 -0.5683 -0.1424
  377MPD2    C2 5637   0.012   0.795  12.926  0.2437 -0.1545  0.4047
  377MPD2    C3 5638   4.692   0.692  13.007  0.3920  0.2169 -0.4211
  377MPD2    C4 5639   0.027   0.566  13.012  0.1559 -0.0044 -0.2740
  377MPD2    C5 5640   0.131   0.548  12.932 -0.0024 -0.2961  0.0124
  377MPD2     H 5641   4.692   0.894  12.921 -1.5211 -1.0723 -1.9757
  377MPD2    H1 5642   4.717   0.486  13.077 -1.6230  0.0047 -1.1908
  377MPD2    H2 5643   0.242   0.610  12.764 -0.6107 -1.8532 -0.2146
  377MPD2    H3 5644   0.187   0.457  12.949  0.2881 -0.0368  0.4435
  377MPD2     N 5645   4.591   0.708  13.102 -0.3228  0.5188  0.5586
  377MPD2    H5 5646   4.572   0.636  13.170 -0.4662  0.1167  0.0919
  377MPD2    N1 5647   0.156   0.861  12.732 -0.3002  0.1888 -0.1653
  377MPD2    H7 5648   0.241   0.850  12.678 -1.2007 -2.8046 -0.9852
  378TMC3    C1 5649   0.193   1.276  12.521  0.3976  0.1128  0.3116
  378TMC3    C2 5650   0.117   1.184  12.587  0.5869  0.2791 -0.9426
  378TMC3    C3 5651   0.180   1.077  12.643  0.0737  0.4602  0.5220
  378TMC3    C4 5652   0.332   1.265  12.511  0.3666  0.5216 -0.2108
  378TMC3    C5 5653   0.391   1.152  12.561 -0.5234  0.1199  0.3034
  378TMC3    C6 5654   0.318   1.059  12.633 -0.1339 -0.4673  0.2788
  378TMC3     C 5655   0.119   1.359  12.424 -1.4407  1.0988 -0.5801
  378TMC3     O 5656   4.721   1.360  12.431 -0.2006 -0.1161  0.2288
  378TMC3     H 5657   0.010   1.196  12.595  0.6538 -0.7917  1.3585
  378TMC3    H1 5658   0.385   1.351  12.471  0.2218 -1.0999 -3.8406
  378TMC3    H2 5659   0.372   0.977  12.679 -0.1505 -2.4015 -3.1352
  378TMC3    C7 5660   0.530   1.150  12.598  0.2453  0.3737  0.1538
  378TMC3    C8 5661   0.103   0.988  12.722  0.4467 -0.3813 -0.6530
  378TMC3    O1 5662   0.566   1.083  12.690 -0.2765  0.5888 -0.8489
  378TMC3    O2 5663   4.717   1.035  12.759 -0.1923 -0.2475 -1.3161
  379MPD2     C 5664   0.846   4.387  16.776  0.1166  0.1284 -0.0418
  379MPD2    C1 5665   0.955   4.378  16.689 -0.5876  0.1823  0.2560
  379MPD2    C2 5666   1.075   4.311  16.731  0.6843  0.2281 -0.7613
  379MPD2    C3 5667   1.085   4.255  16.862 -0.3503 -0.2320 -0.8801
  379MPD2    C4 5668   0.969   4.256  16.940 -0.4253 -0.3143 -0.0471
  379MPD2    C5 5669   0.864   4.321  16.895 -0.7453  0.5798  0.7635
  379MPD2     H 5670   1.165   4.318  16.670  1.4611  2.3530  0.6292
  379MPD2    H1 5671   0.972   4.225  17.044  1.5596 -1.9045 -0.5652
  379MPD2    H2 5672   0.754   4.435  16.749  1.6618  1.3403 -3.1041
  379MPD2    H3 5673   0.780   4.324  16.964  0.1709 -0.9923  1.9663
  379MPD2     N 5674   1.202   4.207  16.913  0.0357  0.2882 -0.0212
  379MPD2    H5 5675   1.191   4.156  17.000  2.4628  0.6428  0.4999
  379MPD2    N1 5676   0.931   4.440  16.560 -0.1844 -0.2283 -0.0586
  379MPD2    H7 5677   0.841   4.484  16.547 -0.0237  1.0208  3.0934
  380TMC3    C1 5678   0.959   4.437  16.318  0.2459 -0.6141  0.1056
  380TMC3    C2 5679   1.040   4.400  16.215 -0.2521 -0.0389  0.3037
  380TMC3    C3 5680   0.983   4.393  16.093 -0.2554 -0.1446  0.2099
  380TMC3    C4 5681   0.845   4.495  16.311  0.4420 -0.1940 -0.2437
  380TMC3    C5 5682   0.789   4.497  16.187  0.0649  0.1519  0.0695
  380TMC3    C6 5683   0.853   4.438  16.079 -0.4684 -0.5102 -0.1247
  380TMC3     C 5684   1.019   4.420  16.450 -0.0750  0.2638  0.3389
  380TMC3     O 5685   1.140   4.389  16.450  0.1303 -0.2694  0.0696
  380TMC3     H 5686   1.136   4.352  16.230 -0.5652 -1.0086 -0.8311
  380TMC3    H1 5687   0.778   4.538  16.384  0.5646 -0.2443 -0.1007
  380TMC3    H2 5688   0.812   4.446  15.979 -2.6181 -1.6782  0.6801
  380TMC3    C7 5689   0.654   4.540  16.175  0.6100  0.6356 -0.7660
  380TMC3    C8 5690   1.056   4.360  15.975 -0.2595  0.2454 -0.2117
  380TMC3    O1 5691   0.616   4.627  16.245  0.4398  0.2813 -0.7586
  380TMC3    O2 5692   0.984   4.340  15.880  0.0719  0.0014 -0.0643
  381TMC3    C1 5693   0.628   1.206  16.477 -0.7232 -0.3030  0.6156
  381TMC3    C2 5694   0.756   1.203  16.427  0.0827  0.2579  0.0837
  381TMC3    C3 5695   0.831   1.091  16.456 -0.6985 -0.7629  0.3710
  381TMC3    C4 5696   0.582   1.113  16.565 -0.3480  0.1573 -0.0701
  381TMC3    C5 5697   0.659   0.998  16.580 -0.4130  0.6438 -0.0425
  381TMC3    C6 5698   0.782   0.987  16.531 -0.4905 -0.7005 -0.6406
  381TMC3     C 5699   0.558   1.331  16.463 -0.4152  0.0908 -0.1101
  381TMC3     O 5700   0.482   1.369  16.550 -0.0405  0.4492  0.4595
  381TMC3     H 5701   0.788   1.284  16.363 -0.4915  0.1793 -0.2973
  381TMC3    H1 5702   0.485   1.124  16.614  0.2382  0.4189  1.0297
  381TMC3    H2 5703   0.837   0.898  16.559  1.8743  1.3749  1.2629
  381TMC3    C7 5704   0.620   0.904  16.686  0.4374  0.2599  0.5373
  381TMC3    C8 5705   0.977   1.110  16.450  0.6423 -0.5429 -0.4923
  381TMC3    O1 5706   0.683   0.800  16.687 -0.0218 -0.5243  0.4322
  381TMC3    O2 5707   1.040   1.006  16.419  0.2277  0.1806 -0.2636
  382MPD2     C 5708   0.424   3.044  17.332 -0.7825  0.4215 -0.5594
  382MPD2    C1 5709   0.330   3.026  17.434 -0.3578  0.0977 -0.1607
  382MPD2    C2 5710   0.237   2.927  17.429 -0.3548  0.4836 -0.3515
  382MPD2    C3 5711   0.248   2.835  17.336 -0.0163  0.6262  0.3500
  382MPD2    C4 5712   0.341   2.845  17.236  0.2903 -0.3521 -0.1050
  382MPD2    C5 5713   0.426   2.948  17.230 -0.8815  0.7146 -0.0883
  382MPD2     H 5714   0.173   2.915  17.515  1.0314 -2.3491  0.2672
  382MPD2    H1 5715   0.345   2.773  17.156 -0.5178 -0.7010  0.1700
  382MPD2    H2 5716   0.506   3.114  17.328 -0.2192 -0.2153 -0.1254
  382MPD2    H3 5717   0.502   2.954  17.153 -1.9113  2.7927 -0.9383
  382MPD2     N 5718   0.180   2.714  17.348 -0.2309 -1.0476  0.4871
  382MPD2    H5 5719   0.213   2.635  17.294 -0.8537 -0.2441 -1.0595
  382MPD2    N1 5720   0.331   3.109  17.544  0.1140  0.4038  0.0114
  382MPD2    H7 5721   0.254   3.088  17.608 -0.5613  0.0741 -0.9087
  383TMC3    C1 5722   0.064   2.543  17.450 -0.4130 -0.3127  0.4786
  383TMC3    C2 5723   4.658   2.488  17.445 -0.8640  0.1806 -0.3091
  383TMC3    C3 5724   4.640   2.355  17.464 -0.2299 -0.3620 -0.1979
  383TMC3    C4 5725   0.173   2.463  17.458 -0.0980 -0.5246 -0.4920
  383TMC3    C5 5726   0.152   2.335  17.495 -0.4621 -0.1522  0.6828
  383TMC3    C6 5727   0.025   2.281  17.499 -0.6229 -0.2999 -0.1369
  383TMC3     C 5728   0.081   2.687  17.435 -0.2249  0.3969  0.6255
  383TMC3     O 5729   0.000   2.755  17.496  0.0673 -0.0506 -0.1337
  383TMC3     H 5730   4.582   2.557  17.410 -1.0144 -0.2541 -0.8442
  383TMC3    H1 5731   0.276   2.497  17.463  0.8066 -3.4861  0.5665
  383TMC3    H2 5732   0.014   2.176  17.522 -0.2058 -0.0875  1.0117
  383TMC3    C7 5733   0.260   2.266  17.564  0.4297 -0.2142 -0.1497
  383TMC3    C8 5734   4.517   2.284  17.432 -0.1087 -0.2356  0.0356
  383TMC3    O1 5735   0.375   2.290  17.535 -0.3177 -0.1186 -0.1947
  383TMC3    O2 5736   4.430   2.357  17.392 -0.0327 -0.4194 -0.3758
  384MPD2     C 5737   0.937   4.406  12.152 -0.3106  0.1611 -0.2893
  384MPD2    C1 5738   1.006   4.322  12.234  0.0618 -0.4155 -0.2609
  384MPD2    C2 5739   1.098   4.235  12.175  0.2054 -0.2189  0.1438
  384MPD2    C3 5740   1.129   4.236  12.041  0.0382 -0.6020 -0.1120
  384MPD2    C4 5741   1.054   4.322  11.960 -0.0617  0.6710 -0.6728
  384MPD2    C5 5742   0.961   4.403  12.014 -0.4394 -0.3037  0.3375
  384MPD2     H 5743   1.145   4.168  12.246 -1.4162 -1.3983  0.1098
  384MPD2    H1 5744   1.069   4.321  11.852  1.2211 -1.0844 -0.4931
  384MPD2    H2 5745   0.880   4.488  12.195  1.6969  0.9977  0.7399
  384MPD2    H3 5746   0.905   4.479  11.959  1.6142  0.6492 -0.4276
  384MPD2     N 5747   1.224   4.142  11.982  0.2239 -0.4055  0.1080
  384MPD2    H5 5748   1.221   4.140  11.881 -2.4232 -0.6623  0.1895
  384MPD2    N1 5749   0.987   4.314  12.375 -0.1077  0.5909  0.2275
  384MPD2    H7 5750   1.040   4.246  12.428 -1.0962  0.8472  1.5359
  385TMC3    C1 5751   1.361   3.956  11.985  0.0220 -0.5198  0.8953
  385TMC3    C2 5752   1.281   3.890  11.894  0.1299 -0.1365 -0.8113
  385TMC3    C3 5753   1.304   3.758  11.864  0.3219 -0.1319 -0.0516
  385TMC3    C4 5754   1.463   3.892  12.045  0.2180  0.1956  0.0136
  385TMC3    C5 5755   1.477   3.756  12.036 -0.1172  0.0884  0.2302
  385TMC3    C6 5756   1.400   3.691  11.942  0.1238 -0.1692  0.0004
  385TMC3     C 5757   1.302   4.062  12.059  0.9346  0.5582 -0.2726
  385TMC3     O 5758   1.343   4.075  12.171  0.4537 -0.4449  0.4137
  385TMC3     H 5759   1.195   3.940  11.850 -1.1202 -0.4857  1.2028
  385TMC3    H1 5760   1.519   3.942  12.124  0.5447 -0.1743  0.0170
  385TMC3    H2 5761   1.423   3.585  11.935  0.1378 -0.1312 -0.4726
  385TMC3    C7 5762   1.450   3.694  12.165 -0.6567 -0.0005 -0.3233
  385TMC3    C8 5763   1.196   3.669  11.822 -0.2285  0.5573  0.2836
  385TMC3    O1 5764   1.461   3.570  12.171 -0.5536  0.0482  0.0895
  385TMC3    O2 5765   1.150   3.592  11.904 -0.1750 -0.0107 -0.6570
  386TMC3    C1 5766   1.496   2.047  12.463 -0.5341 -0.1940  0.7728
  386TMC3    C2 5767   1.529   2.081  12.335  0.4092  0.0246  1.0156
  386TMC3    C3 5768   1.452   2.172  12.277 -0.0955 -0.1471 -0.1131
  386TMC3    C4 5769   1.385   2.102  12.524  0.2056 -0.0434  0.1671
  386TMC3    C5 5770   1.302   2.194  12.461  0.2710 -0.2367 -0.8146
  386TMC3    C6 5771   1.342   2.237  12.333  0.2730 -0.2572 -0.5849
  386TMC3     C 5772   1.561   1.950  12.551 -0.5882  0.0594 -0.0683
  386TMC3     O 5773   1.549   1.962  12.671  0.0287  1.0611 -0.3981
  386TMC3     H 5774   1.628   2.050  12.304 -0.3705  0.8056 -2.2907
  386TMC3    H1 5775   1.353   2.063  12.620 -2.7374 -1.2956 -1.3396
  386TMC3    H2 5776   1.298   2.317  12.275  0.2468 -0.8667 -1.4106
  386TMC3    C7 5777   1.163   2.142  12.453 -0.4087 -0.3459  0.2146
  386TMC3    C8 5778   1.421   2.146  12.136  0.9790 -0.5866 -0.2313
  386TMC3    O1 5779   1.123   2.082  12.547 -0.5192  0.1569  0.4197
  386TMC3    O2 5780   1.311   2.186  12.093 -0.0908  0.3533  0.0279
  387MPD2     C 5781   3.548   1.717  10.080  0.8656  0.9758 -0.1221
  387MPD2    C1 5782   3.616   1.726  10.202  0.3441  0.0013 -0.0248
  387MPD2    C2 5783   3.645   1.617  10.274  0.0401  0.3512  0.1076
  387MPD2    C3 5784   3.604   1.492  10.225 -0.3347  0.0626  0.1882
  387MPD2    C4 5785   3.522   1.477  10.110 -0.2361 -0.2769 -0.3137
  387MPD2    C5 5786   3.501   1.593  10.041 -0.3702  0.2059  0.1775
  387MPD2     H 5787   3.701   1.623  10.366 -1.1796  1.1253  0.8110
  387MPD2    H1 5788   3.481   1.383  10.073 -2.7239  1.0766 -1.0027
  387MPD2    H2 5789   3.518   1.809  10.030  0.0863  1.7309  1.7358
  387MPD2    H3 5790   3.457   1.585   9.942  0.9614  1.0842 -0.4809
  387MPD2     N 5791   3.658   1.391  10.298  0.3999  0.1730 -0.1594
  387MPD2    H5 5792   3.710   1.419  10.381 -0.4280  0.5818  0.2225
  387MPD2    N1 5793   3.668   1.847  10.253 -0.6145  0.3305  0.0397
  387MPD2    H7 5794   3.693   1.852  10.351 -0.0640 -1.4615 -0.0193
  388TMC3    C1 5795   3.758   2.057  10.255  0.4182  0.6859  0.3737
  388TMC3    C2 5796   3.764   2.191  10.206  0.7892 -0.0771 -0.0715
  388TMC3    C3 5797   3.866   2.267  10.253 -0.2200 -0.5940 -0.5146
  388TMC3    C4 5798   3.855   2.007  10.332  1.0270 -0.2327 -0.4321
  388TMC3    C5 5799   3.952   2.094  10.388  0.0020  0.8814  0.9587
  388TMC3    C6 5800   3.959   2.220  10.342  0.6246  0.0453 -0.0945
  388TMC3     C 5801   3.678   1.961  10.179  0.6734  0.4332 -0.7942
  388TMC3     O 5802   3.643   1.989  10.068 -0.1632  0.0153 -0.5564
  388TMC3     H 5803   3.680   2.234  10.153  0.4576 -0.9480 -0.2693
  388TMC3    H1 5804   3.858   1.901  10.355 -0.3400 -0.9960 -3.8199
  388TMC3    H2 5805   4.049   2.277  10.358  2.2267 -2.1080 -1.5297
  388TMC3    C7 5806   4.070   2.034  10.438  0.2658 -0.8305 -0.4112
  388TMC3    C8 5807   3.909   2.375  10.164  0.3634  0.4668 -0.7337
  388TMC3    O1 5808   4.140   2.093  10.515  0.2892 -0.4414 -0.0113
  388TMC3    O2 5809   4.024   2.410  10.178 -0.0203  0.3431  0.6119
  389MPD2     C 5810   3.329   4.592  11.009 -0.1679 -0.1634  0.4164
  389MPD2    C1 5811   3.231   4.491  10.997 -0.1897  0.6770 -0.1544
  389MPD2    C2 5812   3.191   4.423  11.115 -0.9569 -0.4811 -0.4613
  389MPD2    C3 5813   3.251   4.455  11.238 -0.4203  0.0865  0.0750
  389MPD2    C4 5814   3.342   4.555  11.240 -0.6854  0.1279 -0.3658
  389MPD2    C5 5815   3.378   4.621  11.127 -0.3883 -0.0361  0.1973
  389MPD2     H 5816   3.113   4.348  11.111 -0.2068 -1.3993  2.0927
  389MPD2    H1 5817   3.373   4.597  11.335  0.6172 -2.4949  0.3475
  389MPD2    H2 5818   3.362   4.656  10.928 -0.2853 -0.5805  0.0371
  389MPD2    H3 5819   3.451   4.700  11.142  0.8588 -0.9997 -0.8587
  389MPD2     N 5820   3.200   4.408  11.358 -0.0424 -0.5648 -0.0956
  389MPD2    H5 5821   3.247   4.440  11.441  1.5207 -0.2469 -1.1185
  389MPD2    N1 5822   3.187   4.457  10.866 -0.2438  0.0379 -0.2759
  389MPD2    H7 5823   3.208   4.523  10.791 -1.4880  2.3027  1.3904
  390TMC3    C1 5824   3.084   4.271  11.506 -0.6035  0.2514  0.4179
  390TMC3    C2 5825   3.056   4.143  11.530  0.3475  0.5085  0.0341
  390TMC3    C3 5826   3.049   4.106  11.664  0.6690 -0.4184 -0.5036
  390TMC3    C4 5827   3.117   4.359  11.602 -0.1969 -1.5787 -0.1067
  390TMC3    C5 5828   3.103   4.323  11.729 -0.0944 -0.2788  0.2488
  390TMC3    C6 5829   3.073   4.194  11.768  0.3561 -0.3502  0.6154
  390TMC3     C 5830   3.117   4.302  11.367 -0.3690 -0.5987  0.1315
  390TMC3     O 5831   3.062   4.237  11.278 -0.0443 -0.0645  0.1912
  390TMC3     H 5832   3.037   4.074  11.449  1.5968 -1.3803  1.3488
  390TMC3    H1 5833   3.122   4.467  11.587 -0.3352 -1.4020  1.1306
  390TMC3    H2 5834   3.063   4.162  11.871 -0.5488 -0.8003  0.3828
  390TMC3    C7 5835   3.081   4.423  11.836 -0.1139  0.2480 -0.0029
  390TMC3    C8 5836   3.010   3.965  11.687 -0.3670 -0.4113  0.0063
  390TMC3    O1 5837   3.144   4.529  11.840  0.0504  0.2600 -0.0999
  390TMC3    O2 5838   2.993   3.902  11.584  0.0867 -0.9226  0.0678
  391MPD2     C 5839   2.202   1.081  11.239  0.5799  0.4505 -0.2171
  391MPD2    C1 5840   2.315   1.156  11.222  0.3694  0.1493 -0.5658
  391MPD2    C2 5841   2.338   1.228  11.104  0.3843  0.2063  0.5069
  391MPD2    C3 5842   2.244   1.217  10.999 -0.6376  0.6125  0.3829
  391MPD2    C4 5843   2.133   1.134  11.022  0.0090  0.1350 -0.4809
  391MPD2    C5 5844   2.106   1.080  11.143 -0.1867  0.2770 -0.0758
  391MPD2     H 5845   2.425   1.292  11.097 -0.4741  1.1409 -1.8010
  391MPD2    H1 5846   2.055   1.118  10.948  1.9663 -0.5193 -2.4159
  391MPD2    H2 5847   2.175   1.042  11.337  1.6190  2.5405  0.8979
  391MPD2    H3 5848   2.010   1.030  11.158 -1.6391  2.9597 -0.3717
  391MPD2     N 5849   2.265   1.303  10.884 -0.6094  0.8068  0.1588
  391MPD2    H5 5850   2.356   1.350  10.885  0.6523 -1.6477 -0.0385
  391MPD2    N1 5851   2.404   1.172  11.328 -0.0582  0.4593 -0.3581
  391MPD2    H7 5852   2.371   1.120  11.408  0.5300  0.9680  0.2222
  392TMC3    C1 5853   2.221   1.418  10.683 -0.2534 -0.2782  0.7946
  392TMC3    C2 5854   2.154   1.408  10.566  0.4043  0.5837  0.6892
  392TMC3    C3 5855   2.182   1.498  10.466 -0.2911 -0.5918  0.3310
  392TMC3    C4 5856   2.318   1.506  10.708  0.3184  0.1634 -0.4273
  392TMC3    C5 5857   2.363   1.582  10.595 -0.6458  0.4152 -0.1487
  392TMC3    C6 5858   2.290   1.578  10.482 -0.2968 -0.2039  0.1095
  392TMC3     C 5859   2.174   1.327  10.786  0.2923 -0.3378  0.7903
  392TMC3     O 5860   2.065   1.272  10.766 -0.0661 -0.0705 -0.1432
  392TMC3     H 5861   2.066   1.346  10.555 -0.2824  1.3014  2.1077
  392TMC3    H1 5862   2.365   1.508  10.806  1.9172  0.9278 -1.1973
  392TMC3    H2 5863   2.328   1.618  10.388 -0.3685 -0.6411 -0.1091
  392TMC3    C7 5864   2.460   1.685  10.618  0.6457  0.5835  0.4989
  392TMC3    C8 5865   2.108   1.485  10.340  0.4288 -0.7447 -0.2475
  392TMC3    O1 5866   2.506   1.687  10.731  0.4489 -0.6027  0.4366
  392TMC3    O2 5867   2.025   1.398  10.321 -0.0957 -0.0428  0.1686
  393TMC3    C1 5868   1.246   4.157  11.168 -0.0529  0.2979  0.0707
  393TMC3    C2 5869   1.104   4.160  11.174 -0.5922 -0.2502  0.5853
  393TMC3    C3 5870   1.047   4.066  11.262 -0.4502 -0.1961 -0.5735
  393TMC3    C4 5871   1.319   4.061  11.228  0.3388  0.7825  0.2783
  393TMC3    C5 5872   1.256   3.962  11.300 -0.4188  0.1774 -0.2450
  393TMC3    C6 5873   1.122   3.972  11.327 -0.1556  0.2009 -0.3111
  393TMC3     C 5874   1.293   4.240  11.062 -0.7901 -0.0187 -0.0984
  393TMC3     O 5875   1.210   4.278  10.983 -0.2023  0.0884  0.1156
  393TMC3     H 5876   1.047   4.242  11.132  1.3383  1.0971  0.5742
  393TMC3    H1 5877   1.427   4.055  11.219  0.2826  1.1496 -0.5869
  393TMC3    H2 5878   1.082   3.891  11.386 -0.2446  1.6520  1.6257
  393TMC3    C7 5879   1.332   3.899  11.405 -0.0342  0.1491 -0.3367
  393TMC3    C8 5880   0.900   4.060  11.270  0.1776  0.1138 -0.6916
  393TMC3    O1 5881   1.282   3.885  11.515 -0.2223 -0.3644 -0.0715
  393TMC3    O2 5882   0.844   4.124  11.185  0.2668  0.1179  0.0950
  394TMC3    C1 5883   3.092   4.352  10.682  0.2140  0.1113 -0.1561
  394TMC3    C2 5884   2.969   4.303  10.637  0.7574  0.8194  0.4255
  394TMC3    C3 5885   2.930   4.343  10.515  0.2616 -0.0206 -0.7743
  394TMC3    C4 5886   3.180   4.408  10.598  0.4812  0.4097  0.0173
  394TMC3    C5 5887   3.135   4.433  10.471  0.3013  0.2121 -0.8915
  394TMC3    C6 5888   3.006   4.419  10.434 -0.5259 -0.0707 -0.4212
  394TMC3     C 5889   3.106   4.349  10.836 -0.0938  0.2150 -0.4803
  394TMC3     O 5890   3.050   4.272  10.912 -0.3063 -0.3180 -0.4034
  394TMC3     H 5891   2.890   4.273  10.705  0.0286 -1.2235 -1.2965
  394TMC3    H1 5892   3.281   4.436  10.627 -0.0556  1.7261  0.5760
  394TMC3    H2 5893   2.975   4.448  10.335 -0.8284 -0.0647 -0.3232
  394TMC3    C7 5894   3.195   4.542  10.402 -0.2357 -0.4219 -0.1996
  394TMC3    C8 5895   2.806   4.286  10.462  0.4152  0.5620  0.3180
  394TMC3    O1 5896   3.123   4.628  10.350 -0.3003 -0.3783 -0.1892
  394TMC3    O2 5897   2.761   4.345  10.364  0.0047 -0.7815  0.2561
  395TMC3    C1 5898   2.524   2.067  14.472  0.3337 -0.0560  0.3706
  395TMC3    C2 5899   2.430   2.096  14.562  0.4494  0.1615 -0.3782
  395TMC3    C3 5900   2.446   2.209  14.649 -1.1822 -0.4948  0.0126
  395TMC3    C4 5901   2.648   2.122  14.476  0.1603  0.7606  0.0284
  395TMC3    C5 5902   2.675   2.214  14.566  0.1761 -0.0426 -0.4351
  395TMC3    C6 5903   2.578   2.271  14.647  0.4182 -0.7267  0.3368
  395TMC3     C 5904   2.512   1.935  14.420  0.3351 -0.3621  0.5749
  395TMC3     O 5905   2.431   1.868  14.486  0.2346 -0.2550  0.6287
  395TMC3     H 5906   2.329   2.056  14.552  0.3416  0.2494  0.3237
  395TMC3    H1 5907   2.734   2.079  14.425 -0.5921  0.8033 -1.2878
  395TMC3    H2 5908   2.600   2.344  14.724 -1.5706 -1.3182  1.4623
  395TMC3    C7 5909   2.810   2.229  14.617 -0.2494 -0.2955 -0.0165
  395TMC3    C8 5910   2.409   2.175  14.785 -0.0720  0.2516  0.5763
  395TMC3    O1 5911   2.873   2.131  14.638 -0.3141  0.4529 -0.2629
  395TMC3    O2 5912   2.430   2.259  14.870 -0.2025  0.2396 -0.7452
  396MPD2     C 5913   3.093   2.733  17.265 -0.0453  0.1243 -0.4106
  396MPD2    C1 5914   3.214   2.763  17.325 -0.6767  0.1250  0.0343
  396MPD2    C2 5915   3.292   2.860  17.268  0.2645  0.1848  0.4337
  396MPD2    C3 5916   3.247   2.918  17.149  0.1123  0.8828  0.2245
  396MPD2    C4 5917   3.132   2.892  17.086 -0.5214 -0.5455  0.4621
  396MPD2    C5 5918   3.052   2.796  17.147 -0.3836 -0.3328 -0.0834
  396MPD2     H 5919   3.379   2.905  17.315  1.4708 -0.1391 -1.4917
  396MPD2    H1 5920   3.090   2.933  16.995  1.4041  0.2000 -0.0781
  396MPD2    H2 5921   3.023   2.668  17.316  0.7163  0.6937  1.3579
  396MPD2    H3 5922   2.956   2.781  17.099 -0.1065  0.8655 -1.0029
  396MPD2     N 5923   3.341   3.009  17.088  0.2160  0.1238  0.4211
  396MPD2    H5 5924   3.429   3.027  17.135 -0.5587  2.9979  0.7685
  396MPD2    N1 5925   3.259   2.681  17.431 -0.2165 -0.5940  0.0516
  396MPD2    H7 5926   3.199   2.606  17.463  0.1721 -0.7335  0.4554
  397TMC3    C1 5927   3.374   2.641  17.635  0.0981 -0.2193 -0.1578
  397TMC3    C2 5928   3.484   2.559  17.633 -0.3716  0.4351  0.1793
  397TMC3    C3 5929   3.456   2.425  17.642 -0.0659 -0.7616 -0.1361
  397TMC3    C4 5930   3.252   2.600  17.667  0.4090 -0.4042 -1.0617
  397TMC3    C5 5931   3.239   2.470   0.027  0.8128  0.1676  0.3698
  397TMC3    C6 5932   3.340   2.377   0.006  0.4192 -0.4759  0.1630
  397TMC3     C 5933   3.376   2.709  17.509 -0.2378  0.5460 -0.5058
  397TMC3     O 5934   3.477   2.772  17.477 -0.3156  0.1389 -0.1684
  397TMC3     H 5935   3.574   2.595  17.584  1.2678 -1.9287  1.4073
  397TMC3    H1 5936   3.169   2.669  17.678  0.1007 -0.4333 -3.0575
  397TMC3    H2 5937   3.315   2.273   0.024 -1.6686 -0.2117 -1.2249
  397TMC3    C7 5938   3.105   2.427   0.061 -0.5766 -0.2630  0.2135
  397TMC3    C8 5939   3.486   2.354  17.520  1.1759 -0.7704  0.0854
  397TMC3    O1 5940   3.019   2.488   0.012  0.1799 -0.1990 -0.2044
  397TMC3    O2 5941   3.390   2.309  17.457  0.6997 -0.2501  0.0965
  398MPD2     C 5942   1.287   3.262   0.346  0.2158 -0.6528 -0.6096
  398MPD2    C1 5943   1.395   3.234   0.430  0.1970 -0.4417  0.0397
  398MPD2    C2 5944   1.467   3.342   0.472  0.3841  0.8500 -0.3147
  398MPD2    C3 5945   1.443   3.468   0.429  0.1302  0.3932  0.1673
  398MPD2    C4 5946   1.332   3.493   0.349 -0.1741 -0.6933  0.4250
  398MPD2    C5 5947   1.250   3.388   0.317 -0.8826  0.0990  0.4437
  398MPD2     H 5948   1.547   3.337   0.546 -1.4121 -4.4458  1.2879
  398MPD2    H1 5949   1.296   3.591   0.320 -0.6772 -0.3497  2.1765
  398MPD2    H2 5950   1.222   3.184   0.307 -0.0794 -0.3839 -0.6530
  398MPD2    H3 5951   1.158   3.413   0.263  0.2139  1.1166 -0.9686
  398MPD2     N 5952   1.513   3.575   0.490 -0.2748 -0.2822  0.1445
  398MPD2    H5 5953   1.598   3.552   0.542 -0.6656  0.4896  1.1254
  398MPD2    N1 5954   1.419   3.099   0.465 -0.0737  0.7730  0.4577
  398MPD2    H7 5955   1.339   3.040   0.444  0.4485  0.0759  0.4325
  399TMC3    C1 5956   1.561   2.914   0.546 -0.6935 -0.0359 -0.0253
  399TMC3    C2 5957   1.689   2.873   0.579 -0.0991 -0.8497  0.4004
  399TMC3    C3 5958   1.704   2.738   0.608  0.2270 -0.4182  0.5971
  399TMC3    C4 5959   1.454   2.828   0.549  0.5045  0.2363  0.5350
  399TMC3    C5 5960   1.477   2.691   0.563 -0.7020  0.2681  0.2123
  399TMC3    C6 5961   1.597   2.641   0.603 -0.5021 -0.4275  1.2267
  399TMC3     C 5962   1.543   3.051   0.512  0.0346  0.3336 -1.4870
  399TMC3     O 5963   1.636   3.127   0.528  0.6470  0.0870 -0.3518
  399TMC3     H 5964   1.771   2.942   0.589 -0.9371  0.3628 -1.0763
  399TMC3    H1 5965   1.352   2.865   0.544 -0.1054 -1.0928  2.8716
  399TMC3    H2 5966   1.625   2.539   0.627 -1.7592 -0.6564  1.6728
  399TMC3    C7 5967   1.380   2.594   0.528  0.0319  0.4760 -0.9956
  399TMC3    C8 5968   1.828   2.699   0.688 -0.6786 -0.4019  0.3522
  399TMC3    O1 5969   1.395   2.482   0.569 -0.2790  0.0612 -0.7315
  399TMC3    O2 5970   1.924   2.776   0.686 -0.1402  0.3440  0.4279
  400TMC3    C1 5971   4.614   2.224  17.044  0.9206  0.2120  0.2673
  400TMC3    C2 5972   4.495   2.186  16.984 -0.9012 -0.1958 -0.7456
  400TMC3    C3 5973   4.400   2.277  16.964  0.1204 -0.1160  0.2603
  400TMC3    C4 5974   4.634   2.353  17.080 -0.4168 -0.0248 -0.1296
  400TMC3    C5 5975   4.527   2.440  17.064  0.6822  0.3774  0.2300
  400TMC3    C6 5976   4.413   2.405  17.004  0.4001  0.0008 -0.2068
  400TMC3     C 5977   4.686   2.116  17.109 -0.9778 -0.2473  0.5915
  400TMC3     O 5978   4.625   2.010  17.113 -0.7044 -0.4489 -0.0589
  400TMC3     H 5979   4.477   2.083  16.955  0.2857 -0.4719 -0.4855
  400TMC3    H1 5980   4.721   2.376  17.141 -0.4204 -2.3980  0.7540
  400TMC3    H2 5981   4.340   2.485  16.999 -1.0800 -1.4462 -1.8578
  400TMC3    C7 5982   4.551   2.577  17.110 -0.2490 -0.2720  0.1847
  400TMC3    C8 5983   4.276   2.237  16.897  0.2854 -0.4227 -1.0438
  400TMC3    O1 5984   4.666   2.619  17.097 -0.2640 -0.5596 -0.5454
  400TMC3    O2 5985   4.189   2.320  16.894 -0.2367  0.7481  0.4285
  401MPD2     C 5986   2.754   0.842   1.781  0.1797 -0.5249 -0.2333
  401MPD2    C1 5987   2.872   0.774   1.751 -0.3779  1.4062  0.1541
  401MPD2    C2 5988   2.854   0.639   1.722  0.6842  1.1199 -0.0264
  401MPD2    C3 5989   2.726   0.579   1.720  0.6366  0.6927 -0.1192
  401MPD2    C4 5990   2.611   0.648   1.767 -0.8676  0.2622 -0.6052
  401MPD2    C5 5991   2.627   0.778   1.792  0.2848 -0.9790  0.1187
  401MPD2     H 5992   2.940   0.584   1.685 -0.4709  0.0950 -1.1918
  401MPD2    H1 5993   2.511   0.607   1.769 -0.9218  0.3943 -0.5898
  401MPD2    H2 5994   2.753   0.942   1.821  0.4382 -0.1451 -1.1854
  401MPD2    H3 5995   2.544   0.842   1.817  0.1447 -0.2894 -2.1329
  401MPD2     N 5996   2.723   0.436   1.683 -0.4030  0.1026  0.0197
  401MPD2    H5 5997   2.811   0.406   1.643  0.2159  1.4068  0.3931
  401MPD2    N1 5998   2.997   0.829   1.761  0.9127  0.3774  0.1225
  401MPD2    H7 5999   3.075   0.764   1.749  2.5639  2.4361 -0.4531
  402TMC3    C1 6000   2.657   0.213   1.641  0.3789 -0.2085  0.3963
  402TMC3    C2 6001   2.674   0.101   1.722  0.0699  0.3444  0.4082
  402TMC3    C3 6002   2.739   4.717   1.670  0.3430 -0.2193  0.4065
  402TMC3    C4 6003   2.706   0.223   1.516 -0.0745 -0.4507 -0.0936
  402TMC3    C5 6004   2.779   0.116   1.465 -0.4180  0.0176 -0.3595
  402TMC3    C6 6005   2.791   0.006   1.543 -0.0905 -0.0540  0.4157
  402TMC3     C 6006   2.629   0.340   1.705 -0.2074 -0.1182  0.7168
  402TMC3     O 6007   2.511   0.348   1.747 -0.2604 -0.0248 -0.6093
  402TMC3     H 6008   2.648   0.105   1.827  1.1736  0.9200  0.6540
  402TMC3    H1 6009   2.694   0.310   1.452 -1.6688 -1.0322 -0.5830
  402TMC3    H2 6010   2.842   4.644   1.501 -4.8324 -2.7019  0.1047
  402TMC3    C7 6011   2.859   0.151   1.353 -0.3073  0.6752 -0.0403
  402TMC3    C8 6012   2.795   4.623   1.772 -0.0834 -0.3332  0.0831
  402TMC3    O1 6013   2.824   0.249   1.287 -0.2446  0.0327  0.1460
  402TMC3    O2 6014   2.904   4.577   1.764  0.3721 -0.4401  0.3036
  403MPD2     C 6015   0.727   4.102  13.981  0.3628 -0.1682  0.3566
  403MPD2    C1 6016   0.788   3.980  13.968 -0.1155 -0.0629 -0.0409
  403MPD2    C2 6017   0.919   3.971  14.013 -0.0606  0.1911 -0.2841
  403MPD2    C3 6018   0.982   4.085  14.063  0.4525 -0.0837 -0.4772
  403MPD2    C4 6019   0.924   4.212  14.053 -0.4550  0.5026  0.3549
  403MPD2    C5 6020   0.790   4.219  14.017  0.1542 -0.0811 -0.0694
  403MPD2     H 6021   0.974   3.877  14.010  1.9643  1.3481  0.5318
  403MPD2    H1 6022   0.971   4.308  14.072 -2.8667  1.4918  1.2340
  403MPD2    H2 6023   0.624   4.114  13.951  0.4949  0.9638  0.3542
  403MPD2    H3 6024   0.734   4.312  14.013  0.6883  0.2923  0.9280
  403MPD2     N 6025   1.117   4.070  14.100 -0.3297  0.5969 -0.7890
  403MPD2    H5 6026   1.160   3.978  14.097 -2.4138 -0.4893  2.1147
  403MPD2    N1 6027   0.709   3.868  13.929  0.1665  0.1957  0.4228
  403MPD2    H7 6028   0.613   3.884  13.901 -0.5629 -0.2918  2.6659
  404TMC3    C1 6029   0.653   3.644  13.893  0.0201  1.0990 -0.9416
  404TMC3    C2 6030   0.676   3.509  13.917  0.1859  0.2242  0.1657
  404TMC3    C3 6031   0.654   3.417  13.825 -0.0120 -0.5208 -0.3508
  404TMC3    C4 6032   0.580   3.676  13.783  0.7346  0.8205 -0.5440
  404TMC3    C5 6033   0.549   3.575  13.687 -0.4477 -0.3677  0.0511
  404TMC3    C6 6034   0.596   3.447  13.709 -0.2998 -0.0437  0.1156
  404TMC3     C 6035   0.747   3.739  13.948  0.2271 -0.0257 -0.3254
  404TMC3     O 6036   0.841   3.682  14.000 -1.0098 -0.6283 -0.8081
  404TMC3     H 6037   0.718   3.491  14.016 -1.8893 -0.7524  0.8552
  404TMC3    H1 6038   0.549   3.778  13.765 -0.4764  0.0113 -3.0060
  404TMC3    H2 6039   0.589   3.367  13.636  0.4105  0.6340 -0.6888
  404TMC3    C7 6040   0.456   3.617  13.582  0.4843  0.1582  0.1533
  404TMC3    C8 6041   0.756   3.313  13.823  0.3537 -0.8303  0.4460
  404TMC3    O1 6042   0.411   3.730  13.591  0.0171  0.0806 -0.1363
  404TMC3    O2 6043   0.832   3.306  13.728 -0.1098  0.0409 -0.1151
  405MPD2     C 6044   1.338   4.642  14.877  0.8718  0.1411 -0.4574
  405MPD2    C1 6045   1.375   4.511  14.848  0.3016 -0.0605  0.2048
  405MPD2    C2 6046   1.284   4.435  14.778 -0.7073 -0.0681  0.2089
  405MPD2    C3 6047   1.167   4.492  14.728 -0.0713  0.1131 -0.0177
  405MPD2    C4 6048   1.133   4.617  14.755 -1.5406 -0.6728 -0.1615
  405MPD2    C5 6049   1.217   4.691  14.836  0.1947 -0.0723  0.2316
  405MPD2     H 6050   1.307   4.333  14.748  1.2785 -0.0393  1.5729
  405MPD2    H1 6051   1.043   4.663  14.716 -0.4109  1.2692 -0.4582
  405MPD2    H2 6052   1.398   4.716  14.929  0.3253 -0.1358  0.5684
  405MPD2    H3 6053   1.195   0.068  14.868  2.3161  0.7037 -0.6957
  405MPD2     N 6054   1.087   4.404  14.648 -0.2911  0.2842  0.2817
  405MPD2    H5 6055   1.105   4.304  14.644 -0.0680  0.4068 -1.6865
  405MPD2    N1 6056   1.501   4.461  14.883 -0.6082  0.3435  0.7521
  405MPD2    H7 6057   1.551   4.515  14.953 -1.1574  2.8816 -0.8233
  406TMC3    C1 6058   0.761   4.181  14.430  0.7394  0.1919  1.3240
  406TMC3    C2 6059   0.842   4.075  14.394 -0.0924 -0.0471 -0.1496
  406TMC3    C3 6060   0.973   4.092  14.430  1.3377 -0.3069  0.0979
  406TMC3    C4 6061   0.793   4.299  14.483 -0.5226 -0.2748  0.3375
  406TMC3    C5 6062   0.928   4.319  14.502 -0.4760 -0.2212 -0.1320
  406TMC3    C6 6063   1.016   4.217  14.484  0.0462  0.2998 -0.3524
  406TMC3     C 6064   0.622   4.152  14.409 -0.3788 -0.2506  0.4497
  406TMC3     O 6065   0.580   4.060  14.340  0.4233  0.3876  0.0821
  406TMC3     H 6066   0.811   3.974  14.368 -1.4176  0.2236  0.3840
  406TMC3    H1 6067   0.730   4.387  14.478  0.5211  0.5404  1.6288
  406TMC3    H2 6068   1.123   4.236  14.488 -0.0330  0.8881 -1.1449
  406TMC3    C7 6069   0.971   4.432  14.578  0.5495 -0.0586  0.1588
  406TMC3    C8 6070   1.064   3.982  14.427  0.0955 -0.4911 -0.7033
  406TMC3    O1 6071   0.909   4.540  14.568 -0.5305  0.0364 -0.2508
  406TMC3    O2 6072   1.044   3.890  14.351 -0.2738 -0.7432  0.0753
  407MPD2     C 6073   3.066   1.257  10.004 -0.9797  0.2060 -0.3177
  407MPD2    C1 6074   3.186   1.246  10.072  0.3521 -0.7020 -0.0527
  407MPD2    C2 6075   3.213   1.339  10.175 -0.1474  1.1986 -0.4076
  407MPD2    C3 6076   3.120   1.436  10.206  0.1179 -0.1519 -0.4294
  407MPD2    C4 6077   3.000   1.444  10.139  0.6012  0.1297 -0.1379
  407MPD2    C5 6078   2.970   1.350  10.045 -0.5704  0.3351 -0.1655
  407MPD2     H 6079   3.309   1.333  10.225 -0.9021 -2.0451  0.6756
  407MPD2    H1 6080   2.917   1.509  10.164  0.0217 -0.6185 -0.0864
  407MPD2    H2 6081   3.031   1.185   9.931 -0.3534 -0.6741  0.2495
  407MPD2    H3 6082   2.867   1.348  10.010 -0.1782 -0.2132 -1.3009
  407MPD2     N 6083   3.139   1.539  10.299  1.1366 -0.1923 -0.3821
  407MPD2    H5 6084   3.071   1.613  10.303  0.1723 -1.1315  0.7329
  407MPD2    N1 6085   3.287   1.158  10.027 -0.1808 -0.0036 -0.4394
  407MPD2    H7 6086   3.381   1.165  10.067  0.1610  0.9434 -1.3924
  408TMC3    C1 6087   3.397   1.040   9.859 -0.1594 -0.0057 -0.0180
  408TMC3    C2 6088   3.512   1.093   9.900  0.1836 -0.2502 -0.3972
  408TMC3    C3 6089   3.632   1.048   9.845 -0.7836 -0.7900 -0.0408
  408TMC3    C4 6090   3.395   0.953   9.752 -0.0153  0.7105  0.5510
  408TMC3    C5 6091   3.520   0.904   9.710  0.0056 -0.1601  0.1871
  408TMC3    C6 6092   3.637   0.942   9.760  0.3973  0.8211  0.2335
  408TMC3     C 6093   3.270   1.076   9.921 -0.1169 -0.0735 -0.5716
  408TMC3     O 6094   3.173   1.041   9.854  0.1453  0.5119  0.6747
  408TMC3     H 6095   3.514   1.180   9.965  1.9351 -0.8378  0.3254
  408TMC3    H1 6096   3.301   0.910   9.719 -0.0959  1.8607 -0.7332
  408TMC3    H2 6097   3.728   0.907   9.713  1.2831 -2.9324  4.7336
  408TMC3    C7 6098   3.538   0.799   9.607  0.8390 -0.0478  0.2018
  408TMC3    C8 6099   3.753   1.105   9.889 -0.1551 -0.3015  0.7845
  408TMC3    O1 6100   3.640   0.733   9.608 -0.2441  0.3185 -0.5117
  408TMC3    O2 6101   3.846   1.027   9.891 -0.4505  0.0422 -0.4165
  409MPD2     C 6102   3.068   1.943  17.309  0.4700  0.0735 -0.1033
  409MPD2    C1 6103   3.166   1.839  17.319  0.0933 -0.2740  0.2206
  409MPD2    C2 6104   3.297   1.877  17.270 -0.0596  0.3195  0.3101
  409MPD2    C3 6105   3.321   2.010  17.231 -0.4090  0.1654  0.2760
  409MPD2    C4 6106   3.218   2.104  17.217  0.2071 -0.0123 -0.4861
  409MPD2    C5 6107   3.094   2.074  17.259 -0.6220 -0.3450  0.4933
  409MPD2     H 6108   3.377   1.804  17.269  0.1057  0.5285 -2.9741
  409MPD2    H1 6109   3.241   2.199  17.171  0.0334 -0.2638 -1.0898
  409MPD2    H2 6110   2.962   1.924  17.323  0.5961 -0.3878  0.2478
  409MPD2    H3 6111   3.009   2.140  17.245 -0.1505  0.5304  1.7019
  409MPD2     N 6112   3.444   2.055  17.176 -0.4111 -0.1244 -0.0615
  409MPD2    H5 6113   3.448   2.151  17.142 -1.2489 -0.0053  0.1803
  409MPD2    N1 6114   3.138   1.702  17.340 -0.3099  0.0910 -0.0219
  409MPD2    H7 6115   3.217   1.639  17.347  1.2889  1.9375 -1.3950
  410TMC3    C1 6116   3.669   2.071  17.135  0.7518 -0.2003 -0.4644
  410TMC3    C2 6117   3.792   2.080  17.197  0.2461 -0.2595  0.2111
  410TMC3    C3 6118   3.874   2.183  17.158 -0.6716  0.3370  0.4772
  410TMC3    C4 6119   3.623   2.162  17.044  0.5025  0.0511 -0.2677
  410TMC3    C5 6120   3.708   2.257  17.000 -0.0352  0.0047  0.3191
  410TMC3    C6 6121   3.833   2.273  17.060  0.6487 -0.2087 -0.1686
  410TMC3     C 6122   3.570   1.985  17.185  0.2975  0.5708 -0.2292
  410TMC3     O 6123   3.606   1.880  17.232  1.0946 -0.1061  0.3241
  410TMC3     H 6124   3.823   2.014  17.277  2.9111  2.1774  1.1602
  410TMC3    H1 6125   3.542   2.124  16.984 -0.2930  0.0971  0.7785
  410TMC3    H2 6126   3.901   2.350  17.027 -3.4978  3.0543 -1.1238
  410TMC3    C7 6127   3.667   2.332  16.880  0.0225  0.6571 -0.7564
  410TMC3    C8 6128   4.016   2.183  17.203  0.8022 -0.5824  0.1147
  410TMC3    O1 6129   3.553   2.312  16.842 -0.6724 -0.1989  0.2627
  410TMC3    O2 6130   4.074   2.291  17.192  0.0160  0.1598 -0.1745
  411MPD2     C 6131   3.597   2.363  14.669 -0.5682 -0.6203  0.0406
  411MPD2    C1 6132   3.529   2.478  14.654 -0.4566 -0.0521  0.8876
  411MPD2    C2 6133   3.408   2.457  14.589 -0.5575  0.1025 -0.6154
  411MPD2    C3 6134   3.364   2.334  14.552  0.6902  0.2080 -0.4259
  411MPD2    C4 6135   3.439   2.225  14.574  0.0516 -0.2543  0.6635
  411MPD2    C5 6136   3.552   2.236  14.641 -0.2804 -0.2870  0.0856
  411MPD2     H 6137   3.350   2.548  14.574  2.0630  2.0329  0.8926
  411MPD2    H1 6138   3.424   2.127  14.530  1.5339  0.2558 -0.9671
  411MPD2    H2 6139   3.694   2.372  14.717  0.2175 -0.7071 -1.5426
  411MPD2    H3 6140   3.609   2.149  14.671  0.6573  1.0082  2.0804
  411MPD2     N 6141   3.243   2.314  14.485  0.4729  0.5249 -0.2225
  411MPD2    H5 6142   3.208   2.219  14.480 -0.6428  0.8682  1.2793
  411MPD2    N1 6143   3.586   2.602  14.686 -1.0109  0.3215 -0.0491
  411MPD2    H7 6144   3.650   2.604  14.764 -0.2990  2.9291 -0.7010
  412TMC3    C1 6145   3.064   2.348  14.342 -0.2900 -0.2007  0.2292
  412TMC3    C2 6146   2.959   2.429  14.319  0.4510 -0.3836  0.2534
  412TMC3    C3 6147   2.894   2.407  14.200  0.0162  0.0818 -0.1589
  412TMC3    C4 6148   3.111   2.248  14.262 -0.0290 -0.0186 -0.0001
  412TMC3    C5 6149   3.049   2.240  14.145 -0.3636  0.3286 -0.4845
  412TMC3    C6 6150   2.937   2.308  14.118 -0.6973 -0.0562  0.3164
  412TMC3     C 6151   3.160   2.404  14.436  0.0861  0.7274  0.0273
  412TMC3     O 6152   3.170   2.525  14.438  0.1915  0.0001 -0.5457
  412TMC3     H 6153   2.927   2.510  14.383  0.4779 -1.2829  1.4233
  412TMC3    H1 6154   3.200   2.189  14.280  0.0967 -0.2876 -1.4651
  412TMC3    H2 6155   2.894   2.283  14.021 -1.4781 -1.1268  0.9439
  412TMC3    C7 6156   3.142   2.237  14.030  0.1144  0.5315  0.1497
  412TMC3    C8 6157   2.875   2.537  14.135 -0.1220 -0.3292 -0.0710
  412TMC3    O1 6158   3.096   2.298  13.934  0.0651  0.2809 -0.2650
  412TMC3    O2 6159   2.785   2.611  14.172 -0.4347  0.1343  0.2060
  413MPD2     C 6160   0.382   0.820  15.445 -0.4285  0.0422  0.0375
  413MPD2    C1 6161   0.391   0.863  15.314 -0.3778  0.4325 -0.3693
  413MPD2    C2 6162   0.467   0.781  15.230 -0.1314 -1.1255 -0.1291
  413MPD2    C3 6163   0.523   0.659  15.274 -1.0787  0.5119  0.4847
  413MPD2    C4 6164   0.523   0.635  15.416 -0.3804  0.3226 -0.2752
  413MPD2    C5 6165   0.457   0.720  15.499 -0.2917  0.1515 -1.2573
  413MPD2     H 6166   0.476   0.810  15.127 -0.3705  3.1292  1.0628
  413MPD2    H1 6167   0.583   0.553  15.452  0.1869  1.4793  1.3805
  413MPD2    H2 6168   0.333   0.887  15.515 -1.9629 -1.3915  0.3369
  413MPD2    H3 6169   0.451   0.703  15.606  1.1949 -2.2564 -1.5444
  413MPD2     N 6170   0.594   0.581  15.178 -0.3333 -0.4551 -0.5228
  413MPD2    H5 6171   0.604   0.611  15.082  2.7017  3.6571  1.0734
  413MPD2    N1 6172   0.311   0.973  15.275  0.3960 -0.0008 -0.4292
  413MPD2    H7 6173   0.262   1.030  15.344 -0.9781  0.0465 -1.4302
  414TMC3    C1 6174   0.689   0.370  15.101 -0.4410  0.2652  0.7069
  414TMC3    C2 6175   0.702   0.241  15.122  0.1746 -0.4303  0.3157
  414TMC3    C3 6176   0.802   0.180  15.054  0.2141  0.0956  0.4794
  414TMC3    C4 6177   0.767   0.439  15.004 -0.4976 -0.1532 -0.0135
  414TMC3    C5 6178   0.849   0.366  14.928  0.2455 -0.2527 -0.2412
  414TMC3    C6 6179   0.877   0.234  14.959 -0.4858  0.3451  0.1331
  414TMC3     C 6180   0.617   0.446  15.199  0.0763 -0.1662  0.5541
  414TMC3     O 6181   0.583   0.383  15.298 -0.0317  0.1492 -0.3179
  414TMC3     H 6182   0.659   0.180  15.201  2.5206 -0.2673  1.7314
  414TMC3    H1 6183   0.756   0.545  14.982 -0.4302 -0.1594 -0.0777
  414TMC3    H2 6184   0.960   0.175  14.922 -0.8821  1.4234 -2.4703
  414TMC3    C7 6185   0.954   0.438  14.862  0.3004  0.1125 -0.0992
  414TMC3    C8 6186   0.881   0.082  15.129 -0.0392 -0.8595  1.0032
  414TMC3    O1 6187   0.980   0.550  14.904  1.0688 -0.0679  0.3768
  414TMC3    O2 6188   0.839   4.697  15.164 -0.1057  0.7984 -0.1757
  415TMC3    C1 6189   1.153   3.397  10.326  0.1626 -0.4197  0.3331
  415TMC3    C2 6190   1.250   3.462  10.254  0.4855  0.0000 -0.4506
  415TMC3    C3 6191   1.318   3.396  10.156  0.3724  0.9880  0.2133
  415TMC3    C4 6192   1.125   3.267  10.304 -0.1900 -0.4344 -0.2688
  415TMC3    C5 6193   1.192   3.204  10.193 -0.5165  0.0510 -0.3450
  415TMC3    C6 6194   1.297   3.263  10.122 -0.1828 -0.7208  0.3690
  415TMC3     C 6195   1.058   3.470  10.400  0.5021  0.3926 -0.2202
  415TMC3     O 6196   0.967   3.408  10.453  0.9497 -0.0148  0.3153
  415TMC3     H 6197   1.260   3.569  10.259 -2.0529  0.0603  3.1026
  415TMC3    H1 6198   1.059   3.220  10.376 -1.7768 -0.9519 -2.0755
  415TMC3    H2 6199   1.359   3.214  10.047  0.5603  0.1371  0.4204
  415TMC3    C7 6200   1.178   3.066  10.160  0.1029 -0.3613 -0.4948
  415TMC3    C8 6201   1.426   3.453  10.081  0.3252 -0.1394  0.1042
  415TMC3    O1 6202   1.277   3.010  10.110  0.3379  0.0309  0.3114
  415TMC3    O2 6203   1.483   3.382  10.007  0.1946 -0.2431 -0.2514
  416MPD2     C 6204   2.638   2.394  11.706  0.0879  0.5764 -0.3938
  416MPD2    C1 6205   2.545   2.313  11.765  0.1395 -0.3530 -0.7465
  416MPD2    C2 6206   2.506   2.191  11.707  0.5705 -0.6290 -0.2379
  416MPD2    C3 6207   2.558   2.170  11.583  1.0141 -0.2212 -0.1322
  416MPD2    C4 6208   2.652   2.244  11.519 -0.4453 -0.2558  0.9395
  416MPD2    C5 6209   2.680   2.362  11.581 -0.0140 -0.0123 -0.4089
  416MPD2     H 6210   2.433   2.126  11.752 -0.5969 -0.9790 -2.6639
  416MPD2    H1 6211   2.678   2.240  11.414  0.0383 -2.3185  1.1363
  416MPD2    H2 6212   2.671   2.489  11.747  1.4123  0.3020 -0.8427
  416MPD2    H3 6213   2.761   2.415  11.533  0.1580  0.1921  0.1035
  416MPD2     N 6214   2.513   2.053  11.518 -0.2440 -0.0113  0.1524
  416MPD2    H5 6215   2.459   1.989  11.576 -0.3623 -1.4774 -1.5508
  416MPD2    N1 6216   2.488   2.357  11.883 -0.4760  0.4273 -0.8456
  416MPD2    H7 6217   2.492   2.454  11.912  0.3769  0.4132 -0.9155
  417TMC3    C1 6218   2.321   2.373  12.052 -1.3633  1.2021  0.0595
  417TMC3    C2 6219   2.282   2.331  12.175 -0.0721  1.0377  0.1732
  417TMC3    C3 6220   2.169   2.378  12.234  0.3010  0.4021  0.2668
  417TMC3    C4 6221   2.248   2.467  11.985  0.5342 -0.4054 -0.1428
  417TMC3    C5 6222   2.140   2.520  12.045 -0.0313 -0.2361  0.1272
  417TMC3    C6 6223   2.096   2.470  12.169  0.0274 -0.3994  0.1787
  417TMC3     C 6224   2.400   2.285  11.967  0.1659 -0.2320 -0.5235
  417TMC3     O 6225   2.371   2.166  11.962 -1.0919  0.2359  0.1852
  417TMC3     H 6226   2.346   2.260  12.225 -1.5499 -1.0763 -0.9567
  417TMC3    H1 6227   2.281   2.493  11.885 -0.4359 -2.9328 -1.1140
  417TMC3    H2 6228   2.003   2.506  12.211  0.1720 -1.0273  1.0450
  417TMC3    C7 6229   2.059   2.610  11.970  0.4708  0.4672  0.1446
  417TMC3    C8 6230   2.150   2.378  12.376 -0.2198 -0.4271  0.0592
  417TMC3    O1 6231   2.127   2.663  11.885 -0.1569  0.0585  0.1056
  417TMC3    O2 6232   2.062   2.448  12.420 -0.1918  0.2704  0.1811
  418TMC3    C1 6233   1.834   3.830   0.479 -0.4126 -0.1762 -0.2546
  418TMC3    C2 6234   1.701   3.830   0.435  0.1088 -0.6542  0.0013
  418TMC3    C3 6235   1.612   3.779   0.525  0.4578 -0.1656 -0.7615
  418TMC3    C4 6236   1.881   3.778   0.595 -0.3806 -0.4227 -0.7698
  418TMC3    C5 6237   1.785   3.720   0.676 -0.3215 -0.6243  0.1229
  418TMC3    C6 6238   1.656   3.708   0.636  0.3497 -0.5465 -0.0906
  418TMC3     C 6239   1.936   3.829   0.373  0.1632  0.0366 -0.4190
  418TMC3     O 6240   1.932   3.912   0.287 -0.0669  1.0537 -0.1395
  418TMC3     H 6241   1.677   3.869   0.337  1.7534  1.2118  0.3260
  418TMC3    H1 6242   1.985   3.792   0.625 -0.9120 -2.1402  1.8316
  418TMC3    H2 6243   1.584   3.664   0.704  0.5291  0.8969  1.0215
  418TMC3    C7 6244   1.822   3.623   0.783  0.1294  0.1598 -0.1073
  418TMC3    C8 6245   1.502   3.709   0.457 -0.0602 -0.4141  0.4726
  418TMC3    O1 6246   1.747   3.534   0.806  0.1827  0.2579  0.3458
  418TMC3    O2 6247   1.420   3.771   0.393 -0.3018 -0.5522 -0.0475
  419MPD2     C 6248   4.683   2.265  12.837 -0.2691  0.0101 -0.0256
  419MPD2    C1 6249   4.585   2.356  12.830  0.5130  0.6286 -0.5288
  419MPD2    C2 6250   4.586   2.461  12.923 -0.0915 -0.1556 -0.4911
  419MPD2    C3 6251   4.685   2.471  13.018  0.3257  0.6057 -0.8121
  419MPD2    C4 6252   0.063   2.373  13.017  0.0691  0.4545 -0.1418
  419MPD2    C5 6253   0.064   2.272  12.931 -0.8074 -1.1272  0.0693
  419MPD2     H 6254   4.509   2.536  12.930  0.3283  0.1358  1.0616
  419MPD2    H1 6255   0.124   2.370  13.107 -0.3007  3.2564  0.2180
  419MPD2    H2 6256   4.690   2.174  12.777 -1.1828  1.0764 -1.7463
  419MPD2    H3 6257   0.137   2.192  12.937  0.4425 -0.0006 -0.0039
  419MPD2     N 6258   4.660   2.571  13.117 -0.6688 -0.2794  0.0534
  419MPD2    H5 6259   4.569   2.612  13.133 -0.3713 -0.4525  2.1893
  419MPD2    N1 6260   4.479   2.338  12.741  0.8529  0.6212  0.3220
  419MPD2    H7 6261   4.412   2.414  12.739 -0.4996 -0.5791 -0.9232
  420TMC3    C1 6262   4.692   2.682  13.322  0.3817  0.5380  0.1430
  420TMC3    C2 6263   4.561   2.735  13.304  0.6589 -0.5447 -0.4246
  420TMC3    C3 6264   4.505   2.805  13.410  0.5155 -0.2731  0.5393
  420TMC3    C4 6265   0.030   2.695  13.437 -0.3680  0.5890 -0.6571
  420TMC3    C5 6266   4.693   2.755  13.541 -0.3984  0.0737 -0.5865
  420TMC3    C6 6267   4.570   2.817  13.528  0.4783  1.2608 -0.2653
  420TMC3     C 6268   0.026   2.603  13.219  0.3998  0.8382 -0.4964
  420TMC3     O 6269   0.143   2.571  13.233 -0.8772 -0.0773 -0.2368
  420TMC3     H 6270   4.506   2.717  13.212 -0.2111 -3.3151  0.6362
  420TMC3    H1 6271   0.134   2.668  13.452 -0.4131  0.7196 -0.1083
  420TMC3    H2 6272   4.529   2.867  13.616 -0.2718  0.8365 -0.3770
  420TMC3    C7 6273   0.040   2.763  13.670  0.4457  0.0535 -0.0235
  420TMC3    C8 6274   4.368   2.860  13.384  0.0429  0.3555 -0.0464
  420TMC3    O1 6275   0.099   2.663  13.709 -0.4390 -0.2935 -0.0368
  420TMC3    O2 6276   4.311   2.823  13.285 -0.1178  0.1348  0.2267
  421TMC3    C1 6277   1.329   4.121  14.203 -0.7270 -0.2751  0.4313
  421TMC3    C2 6278   1.394   4.195  14.303 -0.7947  0.0069 -0.1584
  421TMC3    C3 6279   1.517   4.149  14.333 -0.3987 -0.0701  0.2862
  421TMC3    C4 6280   1.384   4.012  14.140  1.0737 -0.1211  0.4143
  421TMC3    C5 6281   1.509   3.973  14.180 -0.1396 -0.5912 -0.2774
  421TMC3    C6 6282   1.573   4.039  14.281 -0.3711  0.3973  0.3848
  421TMC3     C 6283   1.198   4.168  14.162  0.2720 -0.9942  0.1362
  421TMC3     O 6284   1.156   4.271  14.218 -0.1574 -0.0748 -0.5422
  421TMC3     H 6285   1.353   4.289  14.340  0.8582  0.7953 -0.3442
  421TMC3    H1 6286   1.329   3.954  14.067  0.1946  0.7746  0.3680
  421TMC3    H2 6287   1.659   3.994  14.330  0.9586 -0.1884 -2.5047
  421TMC3    C7 6288   1.568   3.842  14.145  0.6399 -0.2366  0.2838
  421TMC3    C8 6289   1.608   4.253  14.378 -0.0234  0.4629  0.0598
  421TMC3    O1 6290   1.690   3.844  14.163  0.5760  0.2797  0.5628
  421TMC3    O2 6291   1.559   4.361  14.400  0.0261 -0.2822 -0.2128
  422TMC3    C1 6292   3.603   0.432  13.212  0.8067 -0.7204  0.1474
  422TMC3    C2 6293   3.604   0.564  13.218  0.5601 -0.5122 -0.0211
  422TMC3    C3 6294   3.488   0.625  13.226  0.7428 -1.0795  0.4222
  422TMC3    C4 6295   3.489   0.362  13.242  0.2169  1.0505 -0.1466
  422TMC3    C5 6296   3.374   0.425  13.252  0.0008  0.1508  0.6011
  422TMC3    C6 6297   3.369   0.558  13.242 -0.4935 -0.4283  0.1789
  422TMC3     C 6298   3.700   0.362  13.129 -0.4943  0.2345 -0.0115
  422TMC3     O 6299   3.804   0.420  13.107 -0.4717  0.2726 -0.0692
  422TMC3     H 6300   3.695   0.619  13.198  0.9691 -1.2936 -0.2810
  422TMC3    H1 6301   3.484   0.254  13.252 -0.4857  0.9309 -1.7031
  422TMC3    H2 6302   3.274   0.608  13.258 -1.1905 -1.4310 -0.8463
  422TMC3    C7 6303   3.259   0.346  13.302  0.0692  0.0270 -0.5937
  422TMC3    C8 6304   3.490   0.761  13.181 -1.1186  0.5859 -0.3020
  422TMC3    O1 6305   3.289   0.241  13.357  0.1175  0.1049 -0.2389
  422TMC3    O2 6306   3.595   0.825  13.177 -0.1469  0.1607  0.0063
  423MPD2     C 6307   1.314   1.202   0.871 -0.0069  0.2594  0.6272
  423MPD2    C1 6308   1.220   1.102   0.902  0.0755 -0.5263  0.5813
  423MPD2    C2 6309   1.112   1.084   0.819 -1.0878 -0.6251  0.1807
  423MPD2    C3 6310   1.092   1.165   0.708 -0.0887  0.3642  0.1591
  423MPD2    C4 6311   1.180   1.267   0.680 -0.5873 -0.6693 -0.6787
  423MPD2    C5 6312   1.286   1.288   0.768 -0.3403  0.8129  0.7231
  423MPD2     H 6313   1.057   0.991   0.823  0.6786 -1.7427 -1.7456
  423MPD2    H1 6314   1.164   1.333   0.596 -0.4175 -0.2081 -0.3451
  423MPD2    H2 6315   1.408   1.219   0.922 -0.9891  1.6648  1.9547
  423MPD2    H3 6316   1.350   1.370   0.735  1.3712 -0.4358  0.9752
  423MPD2     N 6317   0.995   1.137   0.613  0.5352 -0.2480 -0.2566
  423MPD2    H5 6318   1.004   1.163   0.515 -0.7698 -0.4647 -0.4394
  423MPD2    N1 6319   1.235   1.003   1.011 -0.4076  0.1241 -0.6443
  423MPD2    H7 6320   1.159   0.936   1.014 -0.1528 -0.1488 -0.3961
  424TMC3    C1 6321   1.317   0.889   1.207  0.6093 -0.9847 -0.9355
  424TMC3    C2 6322   1.427   0.849   1.277 -0.0817  0.1115 -0.2424
  424TMC3    C3 6323   1.413   0.745   1.369 -0.3350 -0.1577 -0.7190
  424TMC3    C4 6324   1.194   0.839   1.240 -0.0177  0.1828 -0.0456
  424TMC3    C5 6325   1.183   0.743   1.341  0.1712 -0.6789 -0.2173
  424TMC3    C6 6326   1.290   0.693   1.410  0.4876 -0.4335 -0.2778
  424TMC3     C 6327   1.334   0.993   1.102  0.7169  0.0341 -0.3882
  424TMC3     O 6328   1.434   1.059   1.100  0.2647  0.2978 -0.0608
  424TMC3     H 6329   1.523   0.897   1.264 -0.3682  0.3887 -1.2963
  424TMC3    H1 6330   1.106   0.879   1.190  0.5102 -2.0778 -2.7584
  424TMC3    H2 6331   1.276   0.607   1.474  2.5480 -2.7746 -2.9696
  424TMC3    C7 6332   1.050   0.713   1.402 -0.1538  0.1270  0.0414
  424TMC3    C8 6333   1.527   0.664   1.406 -0.1976  0.2959 -0.5855
  424TMC3    O1 6334   1.039   0.624   1.482 -0.0018 -0.1028  0.3783
  424TMC3    O2 6335   1.502   0.545   1.424  0.2481 -0.1309  0.3568
  425MPD2     C 6336   4.108   0.763   0.125  0.3441 -0.6246 -0.4159
  425MPD2    C1 6337   4.045   0.693   0.024 -0.3714  0.4741 -0.7543
  425MPD2    C2 6338   3.913   0.715   0.004  0.3858 -0.9338  0.1285
  425MPD2    C3 6339   3.845   0.814   0.066  0.1675 -0.4810  0.5632
  425MPD2    C4 6340   3.906   0.889   0.168 -0.2417 -0.0480 -0.6625
  425MPD2    C5 6341   4.038   0.857   0.204 -0.2420 -0.2776  0.2101
  425MPD2     H 6342   3.852   0.655  17.636 -0.0236 -1.2960  0.8447
  425MPD2    H1 6343   3.850   0.968   0.217 -0.9919 -0.6229 -0.5906
  425MPD2    H2 6344   4.213   0.761   0.152  0.1552 -0.7523  0.3248
  425MPD2    H3 6345   4.076   0.908   0.291 -0.7028  3.0834 -1.5525
  425MPD2     N 6346   3.708   0.824   0.033  0.5249 -0.4614  0.5275
  425MPD2    H5 6347   3.672   0.751  17.669  1.4018  0.4659 -1.1005
  425MPD2    N1 6348   4.126   0.595  17.657  0.4776 -0.4640  0.8554
  425MPD2    H7 6349   4.219   0.576  17.693  0.6209 -0.7765  0.3216
  426TMC3    C1 6350   4.174   0.410  17.510  0.8599 -1.1537  0.6032
  426TMC3    C2 6351   4.129   0.310  17.428  0.1464 -0.0972  1.4986
  426TMC3    C3 6352   4.232   0.224  17.383  0.3504 -0.0476 -0.0717
  426TMC3    C4 6353   4.298   0.410  17.573  0.3097 -0.6699 -0.9249
  426TMC3    C5 6354   4.385   0.313  17.538  0.5391  0.2870  0.6811
  426TMC3    C6 6355   4.358   0.229  17.434  0.2291  0.3200  0.6405
  426TMC3     C 6356   4.079   0.507  17.559  0.4502 -0.2369  0.1553
  426TMC3     O 6357   3.961   0.500  17.512  0.4214  0.5192 -0.0774
  426TMC3     H 6358   4.044   0.317  17.361  0.4376  0.5204  1.1978
  426TMC3    H1 6359   4.338   0.490  17.635 -1.6327  0.8829 -1.6817
  426TMC3    H2 6360   4.441   0.172  17.392 -0.4280 -1.7826  2.2201
  426TMC3    C7 6361   4.493   0.265  17.620  0.2195 -0.1153 -0.1581
  426TMC3    C8 6362   4.197   0.112  17.306  0.1641  0.8894  0.2953
  426TMC3    O1 6363   4.568   0.185  17.573 -0.1433  0.2235 -0.0096
  426TMC3    O2 6364   4.295   0.062  17.252  0.0717 -0.4877  0.1543
  427MPD2     C 6365   2.816   2.806  15.300 -0.5408 -0.3107 -0.4626
  427MPD2    C1 6366   2.761   2.678  15.323 -0.1086 -0.4120 -0.3891
  427MPD2    C2 6367   2.635   2.662  15.373 -0.1616  0.0310 -0.6489
  427MPD2    C3 6368   2.557   2.768  15.391  0.4154  0.0393  0.5815
  427MPD2    C4 6369   2.610   2.897  15.378  0.0358 -0.5112 -0.1845
  427MPD2    C5 6370   2.738   2.916  15.334  0.0209  0.3074 -0.5207
  427MPD2     H 6371   2.599   2.562  15.352  0.9856 -0.7277  1.0049
  427MPD2    H1 6372   2.561   2.991  15.403  0.1760 -0.6445  0.5790
  427MPD2    H2 6373   2.919   2.825  15.270 -0.6625  0.3055 -0.4928
  427MPD2    H3 6374   2.768   3.020  15.325 -0.1944  0.5492  1.6964
  427MPD2     N 6375   2.424   2.760  15.413  0.1524 -0.1031 -0.4796
  427MPD2    H5 6376   2.367   2.843  15.416 -0.3920 -0.3693 -3.2269
  427MPD2    N1 6377   2.839   2.561  15.295 -0.0837 -0.2481  0.0107
  427MPD2    H7 6378   2.798   2.476  15.333 -0.5347 -0.1199 -0.1928
  428TMC3    C1 6379   3.047   2.444  15.256 -0.2980 -0.3081  0.0222
  428TMC3    C2 6380   2.998   2.324  15.307  0.4450 -0.2891 -0.0722
  428TMC3    C3 6381   3.078   2.241  15.364 -0.0349  0.4078  0.6046
  428TMC3    C4 6382   3.179   2.463  15.262 -0.0359 -0.2583  0.5908
  428TMC3    C5 6383   3.259   2.380  15.325  0.4747 -0.4351 -0.1409
  428TMC3    C6 6384   3.212   2.267  15.387  0.6170  0.2983  0.2769
  428TMC3     C 6385   2.959   2.560  15.224 -0.0843  0.0624 -0.7944
  428TMC3     O 6386   3.009   2.650  15.156  0.0512 -0.1684  0.0995
  428TMC3     H 6387   2.897   2.298  15.275 -0.0373  0.3047  0.9651
  428TMC3    H1 6388   3.221   2.552  15.216  0.3285 -1.5007 -1.4457
  428TMC3    H2 6389   3.285   2.197  15.426  1.8677  1.1664 -0.5092
  428TMC3    C7 6390   3.377   2.436  15.375 -0.1038  0.2448  0.1982
  428TMC3    C8 6391   3.035   2.117  15.420  0.0985  0.4304 -0.5040
  428TMC3    O1 6392   3.413   2.407  15.489  0.6451  0.4744 -0.2714
  428TMC3    O2 6393   3.089   2.086  15.528  0.6109 -0.3084  0.2287
  429MPD2     C 6394   3.445   2.567   0.315 -0.4423 -0.0952  0.4508
  429MPD2    C1 6395   3.566   2.505   0.271 -0.8968 -0.3861 -0.6345
  429MPD2    C2 6396   3.660   2.584   0.206 -0.2927 -0.3338  0.0793
  429MPD2    C3 6397   3.639   2.722   0.183  0.9024  0.3406  0.6202
  429MPD2    C4 6398   3.521   2.775   0.228 -0.1286 -0.6601 -0.0586
  429MPD2    C5 6399   3.424   2.698   0.286 -0.1035  0.3574 -0.6953
  429MPD2     H 6400   3.746   2.524   0.179 -1.3075 -1.2908 -0.9822
  429MPD2    H1 6401   3.500   2.881   0.224  0.6602 -0.4645  1.0644
  429MPD2    H2 6402   3.380   2.507   0.377  1.1804 -1.9980  0.2932
  429MPD2    H3 6403   3.335   2.749   0.321  1.1965  1.3777  1.1583
  429MPD2     N 6404   3.740   2.798   0.116  0.1159 -0.1044 -0.1788
  429MPD2    H5 6405   3.815   2.739   0.082  0.4972  0.8975 -1.0585
  429MPD2    N1 6406   3.600   2.371   0.299  0.4566  0.0407 -0.2759
  429MPD2    H7 6407   3.691   2.335   0.270  0.1543 -2.0141  1.2783
  430TMC3    C1 6408   3.861   2.984   0.019  0.0334 -0.1324 -0.2134
  430TMC3    C2 6409   3.842   3.115  17.676  0.1389  0.0495 -0.2051
  430TMC3    C3 6410   3.943   3.160  17.591  0.4073  0.3870  0.1507
  430TMC3    C4 6411   3.976   2.913  17.690  0.1792  0.3882  0.1049
  430TMC3    C5 6412   4.065   2.964  17.600 -0.5203  0.3839 -0.5369
  430TMC3    C6 6413   4.055   3.090  17.552 -0.3754  0.0790  0.5740
  430TMC3     C 6414   3.739   2.934   0.088 -0.1270 -0.1365 -0.2588
  430TMC3     O 6415   3.645   3.009   0.103 -0.1341  0.0947 -0.3488
  430TMC3     H 6416   3.752   3.174  17.690 -1.1597 -2.2940  1.1831
  430TMC3    H1 6417   3.984   2.812   0.030 -1.4746  0.5624  0.8879
  430TMC3    H2 6418   4.104   3.118  17.459  1.0042 -0.8361  1.0126
  430TMC3    C7 6419   4.166   2.881  17.552 -0.6696 -1.0141 -0.0181
  430TMC3    C8 6420   3.893   3.262  17.498 -0.4147  0.3846  0.0100
  430TMC3    O1 6421   4.150   2.756  17.551 -0.5844 -0.0401 -0.3474
  430TMC3    O2 6422   3.889   3.375  17.544  0.0759 -0.2925  0.2938
  431MPD2     C 6423   4.536   2.840  12.963  0.2277 -0.3199 -0.1712
  431MPD2    C1 6424   4.603   2.803  12.846 -0.0397  0.2746 -0.6421
  431MPD2    C2 6425   4.526   2.750  12.742 -0.7201  0.3545 -0.0662
  431MPD2    C3 6426   4.384   2.737  12.744 -0.6180 -0.3985  0.1210
  431MPD2    C4 6427   4.323   2.790  12.854  0.0363 -0.0762  0.2232
  431MPD2    C5 6428   4.396   2.827  12.968  0.2560  0.7272 -0.0163
  431MPD2     H 6429   4.572   2.699  12.658 -0.9632  0.4213 -0.2398
  431MPD2    H1 6430   4.216   2.771  12.864  0.2460 -0.0635  2.3690
  431MPD2    H2 6431   4.587   2.883  13.048  1.4623  0.9720 -1.5659
  431MPD2    H3 6432   4.339   2.840  13.060 -0.3841 -3.3343  0.1799
  431MPD2     N 6433   4.303   2.657  12.655  0.3261  0.0854 -0.0582
  431MPD2    H5 6434   4.213   2.629  12.691  1.0825 -1.0764  0.9143
  431MPD2    N1 6435   0.024   2.814  12.844  0.0743 -0.2222 -0.4928
  431MPD2    H7 6436   0.062   2.824  12.750 -0.8896 -0.3068 -0.8957
  432TMC3    C1 6437   4.254   2.487  12.506 -0.5546  0.6893 -0.6980
  432TMC3    C2 6438   4.270   2.459  12.375 -0.5357 -0.0334 -0.7127
  432TMC3    C3 6439   4.320   2.335  12.343  0.3262  0.1204 -0.3194
  432TMC3    C4 6440   4.272   2.396  12.608 -0.0424  0.1755  0.2617
  432TMC3    C5 6441   4.341   2.278  12.574 -0.0242 -0.1945  0.3816
  432TMC3    C6 6442   4.356   2.244  12.442  0.2511 -0.3772  0.1474
  432TMC3     C 6443   4.342   2.601  12.538  0.3149  0.1896 -0.2541
  432TMC3     O 6444   4.448   2.605  12.469  0.3502 -1.2774  0.1831
  432TMC3     H 6445   4.247   2.528  12.295 -0.8390  0.8006  0.0913
  432TMC3    H1 6446   4.249   2.414  12.712  1.8278 -1.4691  0.9383
  432TMC3    H2 6447   4.411   2.154  12.418  2.5763  0.7490  1.2519
  432TMC3    C7 6448   4.455   2.240  12.655  0.6013 -0.3759  0.4357
  432TMC3    C8 6449   4.407   2.325  12.230 -0.9674  0.5452  0.4631
  432TMC3    O1 6450   4.520   2.141  12.621  0.4234 -0.2107 -0.3077
  432TMC3    O2 6451   4.425   2.215  12.176 -0.2643  0.1157  0.2589
  433MPD2     C 6452   3.306   1.842  11.101  0.1517  0.1752  0.5683
  433MPD2    C1 6453   3.292   1.713  11.149  0.0866  0.3755 -0.0974
  433MPD2    C2 6454   3.259   1.700  11.281  0.5134 -0.0755 -0.9847
  433MPD2    C3 6455   3.240   1.808  11.370 -0.6699 -0.0746 -0.1991
  433MPD2    C4 6456   3.254   1.938  11.313  1.1383  0.0035 -0.0559
  433MPD2    C5 6457   3.283   1.946  11.179 -0.0842  0.3764 -0.2225
  433MPD2     H 6458   3.258   1.601  11.323 -0.2520  0.5748  0.5232
  433MPD2    H1 6459   3.234   2.031  11.364 -0.4822  0.3739 -1.3707
  433MPD2    H2 6460   3.337   1.851  10.997  0.0726  2.4856  0.7652
  433MPD2    H3 6461   3.275   2.042  11.129 -1.7739  1.3608  1.9051
  433MPD2     N 6462   3.203   1.795  11.505  0.5322  0.2754  0.6316
  433MPD2    H5 6463   3.192   1.700  11.538 -0.5106  0.7887  1.7896
  433MPD2    N1 6464   3.297   1.592  11.076  0.0092  0.0790  0.4158
  433MPD2    H7 6465   3.288   1.504  11.127 -1.0507 -0.2801 -0.3821
  434TMC3    C1 6466   3.347   1.438  10.915 -0.1613 -0.8484  0.2218
  434TMC3    C2 6467   3.427   1.370  11.007  0.1726  0.4145 -0.3898
  434TMC3    C3 6468   3.437   1.232  10.990 -0.2770 -0.6036  0.4559
  434TMC3    C4 6469   3.281   1.374  10.820  0.2412 -0.1254  0.2971
  434TMC3    C5 6470   3.288   1.236  10.806 -0.0190 -0.4198  0.2637
  434TMC3    C6 6471   3.370   1.163  10.895  0.1109 -0.0701  0.1611
  434TMC3     C 6472   3.317   1.574  10.943 -0.2405  0.2461 -0.0660
  434TMC3     O 6473   3.343   1.644  10.847 -0.3889 -0.5592 -0.6401
  434TMC3     H 6474   3.481   1.419  11.087 -0.1399  0.8093 -0.4160
  434TMC3    H1 6475   3.205   1.418  10.758  1.5396  1.8583  0.1329
  434TMC3    H2 6476   3.357   1.056  10.908  1.0743 -0.0828  1.0694
  434TMC3    C7 6477   3.187   1.162  10.726 -0.7976 -0.4392  0.2080
  434TMC3    C8 6478   3.525   1.164  11.091 -0.6008  0.3545  0.2429
  434TMC3    O1 6479   3.089   1.229  10.690 -0.5232 -0.4441  0.3043
  434TMC3    O2 6480   3.568   1.232  11.184  0.4900  0.4713 -0.0591
  435MPD2     C 6481   1.360   1.630  15.590  0.5123  0.0246  0.6308
  435MPD2    C1 6482   1.311   1.624  15.719  0.1372 -0.5415  0.4509
  435MPD2    C2 6483   1.382   1.545  15.812  0.4055  0.4989  0.5520
  435MPD2    C3 6484   1.476   1.457  15.774  0.4641  0.8333  0.2024
  435MPD2    C4 6485   1.534   1.471  15.649 -0.4861  0.4180 -0.1266
  435MPD2    C5 6486   1.476   1.562  15.558 -0.2619 -0.0007  0.1724
  435MPD2     H 6487   1.358   1.558  15.917 -0.6725 -0.1705  0.3818
  435MPD2    H1 6488   1.620   1.414  15.618 -2.0139 -2.1703  0.3752
  435MPD2    H2 6489   1.326   1.699  15.515  1.5956 -1.8780 -1.6276
  435MPD2    H3 6490   1.520   1.566  15.459  1.2943 -3.4364  0.7147
  435MPD2     N 6491   1.521   1.363  15.866 -0.3707 -0.5246  0.0032
  435MPD2    H5 6492   1.481   1.379  15.958  2.8831 -0.3155  1.3826
  435MPD2    N1 6493   1.184   1.675  15.752  0.1694  0.0644  0.7031
  435MPD2    H7 6494   1.165   1.678  15.851  1.9430 -0.3061  1.0588
  436TMC3    C1 6495   0.880   1.873  15.937  0.0100  0.4885 -0.4349
  436TMC3    C2 6496   0.988   1.836  15.867 -0.2651  0.7108  0.4308
  436TMC3    C3 6497   0.978   1.783  15.742  0.3990 -0.2636  0.0411
  436TMC3    C4 6498   0.754   1.859  15.882 -0.8384  0.1459  0.1508
  436TMC3    C5 6499   0.752   1.803  15.758 -0.5874  0.1481 -0.0233
  436TMC3    C6 6500   0.860   1.763  15.684  0.8338 -0.1719  0.0941
  436TMC3     C 6501   0.905   1.963  16.053  0.2994 -0.1622  0.0351
  436TMC3     O 6502   1.014   2.010  16.074 -0.5863 -0.2161 -0.4490
  436TMC3     H 6503   1.083   1.858  15.913 -0.0674 -0.8104  0.7547
  436TMC3    H1 6504   0.664   1.899  15.927 -1.8962  0.4121 -2.2282
  436TMC3    H2 6505   0.860   1.706  15.591  1.9064 -2.3402  1.4198
  436TMC3    C7 6506   0.620   1.759  15.717  0.6311  0.0223  0.0541
  436TMC3    C8 6507   1.093   1.735  15.671  0.2955  0.6333  0.6931
  436TMC3    O1 6508   0.523   1.767  15.794 -0.4025  0.1388 -0.4154
  436TMC3    O2 6509   1.086   1.740  15.551 -0.3801  0.3719 -0.5540
  437TMC3    C1 6510   3.748   3.860  13.059 -0.5883 -0.6112  0.5666
  437TMC3    C2 6511   3.633   3.931  13.075  0.0980 -0.1026 -0.4169
  437TMC3    C3 6512   3.609   4.033  12.988  0.7422  0.2503 -0.8933
  437TMC3    C4 6513   3.839   3.893  12.953 -0.3782 -0.1980 -1.0650
  437TMC3    C5 6514   3.813   4.001  12.875 -0.1332 -0.3656  0.1706
  437TMC3    C6 6515   3.695   4.072  12.890 -0.4429 -0.0491 -0.5261
  437TMC3     C 6516   3.801   3.772  13.159  0.7721  0.4030 -0.0418
  437TMC3     O 6517   3.920   3.773  13.174  0.4186  0.4394 -0.0568
  437TMC3     H 6518   3.570   3.907  13.160 -0.5918  1.6290 -0.4347
  437TMC3    H1 6519   3.937   3.846  12.947 -0.5401 -0.9074  1.5090
  437TMC3    H2 6520   3.669   4.139  12.810 -0.7341  2.4046  1.6294
  437TMC3    C7 6521   3.880   4.028  12.751  0.0670 -0.8797  1.2241
  437TMC3    C8 6522   3.484   4.092  12.998 -1.0559 -0.0551 -0.0296
  437TMC3    O1 6523   3.836   4.111  12.678 -0.7245  0.1222 -0.4378
  437TMC3    O2 6524   3.402   4.045  13.077  0.0033  0.0257 -0.1007
  438MPD2     C 6525   2.183   4.229  16.954 -0.1177  0.1725  0.2992
  438MPD2    C1 6526   2.182   4.108  17.025  0.7998  0.1274  0.4343
  438MPD2    C2 6527   2.116   4.102  17.145  0.4519 -0.2542  0.1240
  438MPD2    C3 6528   2.048   4.217  17.179  0.4369  0.7102  0.1371
  438MPD2    C4 6529   2.032   4.330  17.107 -0.0255 -0.3459  0.0086
  438MPD2    C5 6530   2.106   4.342  16.995  0.8819 -0.1196 -0.3493
  438MPD2     H 6531   2.122   4.017  17.212 -0.7947 -0.7305 -0.3782
  438MPD2    H1 6532   1.989   4.420  17.149 -0.0037 -0.0088 -0.6863
  438MPD2    H2 6533   2.236   4.238  16.860  0.9660 -0.8890  0.8081
  438MPD2    H3 6534   2.108   4.435  16.940 -1.0852 -1.6923 -3.0853
  438MPD2     N 6535   2.008   4.217  17.318  0.4797  0.2125  0.9256
  438MPD2    H5 6536   2.038   4.141  17.379  1.3178 -0.1087  0.1198
  438MPD2    N1 6537   2.258   3.991  17.000  0.1140  0.0336  0.4281
  438MPD2    H7 6538   2.251   3.909  17.060  1.2642 -1.4073 -1.4037
  439TMC3    C1 6539   2.396   3.848  16.871  0.1414  0.8784 -0.1831
  439TMC3    C2 6540   2.423   3.797  16.749  0.0792 -0.1983  0.3846
  439TMC3    C3 6541   2.527   3.707  16.735  0.4470  0.3555 -0.2271
  439TMC3    C4 6542   2.462   3.799  16.983 -0.2384  0.4116  0.9228
  439TMC3    C5 6543   2.565   3.712  16.962  0.5972  0.4466 -0.5114
  439TMC3    C6 6544   2.594   3.656  16.841 -0.4197 -0.1196 -0.8488
  439TMC3     C 6545   2.323   3.970  16.882 -0.6235 -0.6481  0.6523
  439TMC3     O 6546   2.342   4.047  16.787 -0.6073 -0.1365 -0.2185
  439TMC3     H 6547   2.354   3.831  16.673  3.1231 -0.2893 -2.4732
  439TMC3    H1 6548   2.444   3.850  17.077 -0.0361 -0.2778  1.3416
  439TMC3    H2 6549   2.663   3.573  16.834  1.9079  1.8917 -1.8009
  439TMC3    C7 6550   2.621   3.658  17.081 -0.5434 -0.1357 -0.7460
  439TMC3    C8 6551   2.579   3.668  16.601 -0.2659 -0.3755 -0.1850
  439TMC3    O1 6552   2.740   3.626  17.074  0.4359  0.0258  0.5508
  439TMC3    O2 6553   2.663   3.580  16.578  0.5002  0.0773  0.7829
  440MPD2     C 6554   0.482   4.374  15.288 -0.3124 -0.1487  0.3531
  440MPD2    C1 6555   0.601   4.441  15.310 -0.9390  0.3399 -0.0682
  440MPD2    C2 6556   0.713   4.371  15.282 -0.2089  0.0586 -0.7221
  440MPD2    C3 6557   0.713   4.239  15.240  0.7492 -0.7589  0.3343
  440MPD2    C4 6558   0.589   4.176  15.227 -0.0551  0.5317 -0.1346
  440MPD2    C5 6559   0.478   4.249  15.243 -0.6933  0.0444  0.1661
  440MPD2     H 6560   0.810   4.417  15.299  1.3553 -3.4294 -0.3549
  440MPD2    H1 6561   0.601   4.071  15.206  1.2483  1.4791 -4.1391
  440MPD2    H2 6562   0.389   4.426  15.310 -0.2439 -0.0797  0.4844
  440MPD2    H3 6563   0.386   4.194  15.225 -0.9064 -0.0375  1.4641
  440MPD2     N 6564   0.827   4.163  15.216  0.7843  0.6563  0.1952
  440MPD2    H5 6565   0.825   4.062  15.226  2.7350  0.6088  0.1582
  440MPD2    N1 6566   0.614   4.575  15.350 -0.3503 -0.8849  0.5111
  440MPD2    H7 6567   0.708   4.613  15.345  0.0819 -1.9652  0.2681
  441TMC3    C1 6568   1.067   4.142  15.196  0.5408  0.6860 -0.4762
  441TMC3    C2 6569   1.167   4.199  15.124 -0.6849  0.6277 -0.3132
  441TMC3    C3 6570   1.286   4.212  15.186 -0.6372  0.3535 -0.6929
  441TMC3    C4 6571   1.097   4.086  15.320 -0.2898  0.1861  0.6994
  441TMC3    C5 6572   1.216   4.108  15.378  0.0940  0.5993 -0.0661
  441TMC3    C6 6573   1.318   4.158  15.307 -0.1372  0.6759  1.7280
  441TMC3     C 6574   0.954   4.222  15.191 -0.5793 -0.3767 -0.6236
  441TMC3     O 6575   0.968   4.332  15.142  0.0974  0.3764  0.1582
  441TMC3     H 6576   1.144   4.251  15.032 -0.2597  0.4729 -0.5057
  441TMC3    H1 6577   1.016   4.046  15.380  0.2593 -2.3311 -0.2697
  441TMC3    H2 6578   1.422   4.150  15.340 -0.1614 -1.6012  1.2343
  441TMC3    C7 6579   1.210   4.135  15.520 -0.7019 -0.3710  0.5061
  441TMC3    C8 6580   1.339   4.345  15.191 -0.5434 -0.0272  0.3296
  441TMC3    O1 6581   1.102   4.140  15.579 -0.3813 -0.3061 -0.5806
  441TMC3    O2 6582   1.439   4.358  15.257 -0.3128 -0.2372  0.1269
  442MPD2     C 6583   3.790   0.618  16.932  0.5757 -0.3888  0.6264
  442MPD2    C1 6584   3.681   0.541  16.961 -0.4752 -0.0078  0.2928
  442MPD2    C2 6585   3.694   0.401  16.936  0.9985  0.1045  0.6782
  442MPD2    C3 6586   3.805   0.341  16.874 -0.8422  0.2116  0.1031
  442MPD2    C4 6587   3.906   0.420  16.848 -0.0304 -0.4218 -0.3356
  442MPD2    C5 6588   3.907   0.556  16.879  0.3104 -0.0007  0.6502
  442MPD2     H 6589   3.607   0.340  16.959  1.0164 -0.1831 -0.0025
  442MPD2    H1 6590   3.991   0.391  16.786 -0.5636 -0.1166 -1.2137
  442MPD2    H2 6591   3.795   0.724  16.955  1.6222 -0.4702  0.7963
  442MPD2    H3 6592   4.000   0.608  16.859 -1.1132  2.5172  0.7260
  442MPD2     N 6593   3.802   0.213  16.824  0.3464  0.1052  0.4954
  442MPD2    H5 6594   3.882   0.187  16.766  0.4605 -1.8256  1.5282
  442MPD2    N1 6595   3.558   0.585  17.015  0.1943  0.4727  0.3484
  442MPD2    H7 6596   3.485   0.514  17.012 -2.0137  2.7865 -0.1265
  443TMC3    C1 6597   3.370   0.717  17.053 -0.3356 -0.0336 -0.0094
  443TMC3    C2 6598   3.311   0.835  17.026  0.1841  0.1616  0.5027
  443TMC3    C3 6599   3.174   0.847  17.040 -0.4141 -0.5710 -0.4404
  443TMC3    C4 6600   3.306   0.624  17.127 -0.0190  0.0776 -0.4689
  443TMC3    C5 6601   3.176   0.653  17.171  0.0474 -0.0632  0.4821
  443TMC3    C6 6602   3.111   0.763  17.129  0.5361 -0.0529 -0.0011
  443TMC3     C 6603   3.516   0.712  17.028 -0.4239  0.0384  0.3051
  443TMC3     O 6604   3.579   0.817  17.013 -0.4059 -0.1070  0.0638
  443TMC3     H 6605   3.365   0.911  16.970  1.4604 -0.8273  0.4128
  443TMC3    H1 6606   3.344   0.526  17.155  0.7909  0.6710  0.5223
  443TMC3    H2 6607   3.007   0.776  17.158 -0.3708 -1.8660 -2.4713
  443TMC3    C7 6608   3.103   0.555  17.243  0.3124 -0.1725  0.2128
  443TMC3    C8 6609   3.131   0.809  16.909  0.5730 -0.0735 -0.2005
  443TMC3    O1 6610   3.158   0.444  17.234 -0.0505  0.6032  0.3296
  443TMC3    O2 6611   3.060   0.709  16.903  0.1877  0.3101  0.0348
  444MPD2     C 6612   4.104   4.601  17.553  0.5761  0.0559 -0.1687
  444MPD2    C1 6613   4.041   4.479  17.542  0.6956 -0.0908  0.5051
  444MPD2    C2 6614   4.115   4.370  17.516 -0.1684 -0.2672  0.3725
  444MPD2    C3 6615   4.253   4.373  17.502  0.6779  0.2453 -0.3358
  444MPD2    C4 6616   4.328   4.485  17.521 -0.1660  0.5882 -0.1419
  444MPD2    C5 6617   4.247   4.596  17.555 -0.4894  0.1590  0.4508
  444MPD2     H 6618   4.067   4.274  17.498 -0.4376 -0.2572  1.0420
  444MPD2    H1 6619   4.435   4.494  17.507 -0.3438  1.2032 -1.1119
  444MPD2    H2 6620   4.058   4.697  17.576  1.1259  0.0709  0.8722
  444MPD2    H3 6621   4.290   4.695  17.568 -1.8867  1.1358 -2.4708
  444MPD2     N 6622   4.316   4.251  17.458 -0.1549  0.3865 -0.1741
  444MPD2    H5 6623   4.258   4.169  17.470 -1.2935  1.0860 -0.9161
  444MPD2    N1 6624   3.899   4.470  17.545  0.0022  0.1930 -0.3661
  444MPD2    H7 6625   3.860   4.377  17.552  1.1776 -0.0292  3.3619
  445TMC3    C1 6626   4.473   4.098  17.366 -0.3937 -0.1747  0.4300
  445TMC3    C2 6627   4.429   4.005  17.451 -0.8945  0.3984 -0.0082
  445TMC3    C3 6628   4.483   3.881  17.426 -0.8054 -0.2025 -0.4822
  445TMC3    C4 6629   4.561   4.086  17.264  0.6418 -0.5431  0.6353
  445TMC3    C5 6630   4.619   3.964  17.262 -0.7254  0.8349  0.0676
  445TMC3    C6 6631   4.576   3.855  17.338  0.1361 -0.7848 -0.3017
  445TMC3     C 6632   4.430   4.236  17.384  0.5568 -0.4531  0.0212
  445TMC3     O 6633   4.510   4.319  17.343 -0.3851  0.2090  0.2675
  445TMC3     H 6634   4.360   4.029  17.530 -1.7914 -0.1814 -0.6107
  445TMC3    H1 6635   4.595   4.167  17.201  0.4105  0.4212  1.7539
  445TMC3    H2 6636   4.600   3.754  17.308 -0.6244 -0.9217 -0.4611
  445TMC3    C7 6637   0.002   3.949  17.170  0.5127 -0.3359  0.1386
  445TMC3    C8 6638   4.458   3.778  17.528  0.0916 -0.4165 -0.8952
  445TMC3    O1 6639   0.009   4.033  17.080  0.1969  0.0866 -0.0440
  445TMC3    O2 6640   4.356   3.800  17.592 -0.0353 -0.1539  0.1900
  446MPD2     C 6641   3.144   0.935  11.457  0.6577  0.1557 -0.2760
  446MPD2    C1 6642   3.183   0.981  11.331  0.0050  0.1648 -0.1481
  446MPD2    C2 6643   3.277   1.084  11.337 -0.4775  0.5273 -0.0129
  446MPD2    C3 6644   3.345   1.125  11.455 -0.0041  0.7744 -0.0256
  446MPD2    C4 6645   3.300   1.072  11.577 -0.5148  0.0914 -0.1189
  446MPD2    C5 6646   3.195   0.985  11.574  0.3008 -0.7797  0.2127
  446MPD2     H 6647   3.316   1.126  11.245 -0.8409  0.0512 -0.3875
  446MPD2    H1 6648   3.346   1.099  11.671  0.0358  1.2181 -0.7054
  446MPD2    H2 6649   3.065   0.861  11.463  1.3254 -0.4802  0.5571
  446MPD2    H3 6650   3.160   0.943  11.667  0.3374 -2.2698 -0.4580
  446MPD2     N 6651   3.440   1.227  11.453  0.1106 -0.1260 -0.0275
  446MPD2    H5 6652   3.451   1.272  11.363  1.1340  0.0687  0.1925
  446MPD2    N1 6653   3.137   0.925  11.212 -0.2915  0.4164 -0.2193
  446MPD2    H7 6654   3.144   0.981  11.128 -1.3757  1.8869  0.6621
  447TMC3    C1 6655   3.633   1.355  11.490 -0.3195  0.2407  0.5913
  447TMC3    C2 6656   3.623   1.432  11.379 -0.4203  0.0442 -0.2038
  447TMC3    C3 6657   3.729   1.497  11.336  0.1298 -0.2500  0.2175
  447TMC3    C4 6658   3.756   1.344  11.551 -0.4514 -0.0879 -1.2034
  447TMC3    C5 6659   3.864   1.399  11.494 -0.6339 -0.4066 -0.1214
  447TMC3    C6 6660   3.855   1.490  11.388  0.0437 -0.3067  0.2624
  447TMC3     C 6661   3.532   1.257  11.547 -0.2335  0.6095  0.2715
  447TMC3     O 6662   3.566   1.196  11.644  0.4932 -0.2405 -0.0804
  447TMC3     H 6663   3.528   1.456  11.333 -1.1816 -0.9515  0.8531
  447TMC3    H1 6664   3.772   1.284  11.640  0.7074  1.3502 -0.4506
  447TMC3    H2 6665   3.924   1.566  11.354 -0.5343  0.4308  0.7326
  447TMC3    C7 6666   3.996   1.350  11.529  0.1483  0.6175 -0.0764
  447TMC3    C8 6667   3.706   1.578  11.212 -0.3497 -0.8322 -0.5491
  447TMC3    O1 6668   4.079   1.350  11.436 -0.1935 -0.1524 -0.2687
  447TMC3    O2 6669   3.591   1.601  11.180  0.0295 -0.1111 -0.2238
  448TMC3    C1 6670   1.805   0.337   0.047 -0.1996  0.3355  0.1003
  448TMC3    C2 6671   1.899   0.266  17.680 -0.2197 -0.1653  0.1263
  448TMC3    C3 6672   2.029   0.263   0.036 -1.1231 -0.1333  0.0217
  448TMC3    C4 6673   1.827   0.417   0.156  0.0452 -0.4362 -0.3964
  448TMC3    C5 6674   1.956   0.411   0.206 -0.0723  1.3578  0.0456
  448TMC3    C6 6675   2.051   0.335   0.148 -0.7852 -0.3975 -0.2913
  448TMC3     C 6676   1.682   0.354  17.663 -0.2960 -0.4373  0.7860
  448TMC3     O 6677   1.683   0.299  17.552  0.4399  1.0650  0.3862
  448TMC3     H 6678   1.878   0.223  17.583 -1.2742  1.6771 -0.4602
  448TMC3    H1 6679   1.758   0.485   0.205 -0.2748 -0.0065 -1.4422
  448TMC3    H2 6680   2.157   0.337   0.171 -0.8499  0.0389 -0.0119
  448TMC3    C7 6681   1.982   0.457   0.340 -0.1942  0.2817  0.5171
  448TMC3    C8 6682   2.139   0.249  17.639  0.4095  0.1603 -0.0005
  448TMC3    O1 6683   1.892   0.520   0.399 -0.5830 -0.3911  0.3061
  448TMC3    O2 6684   2.240   0.319  17.656  0.5157 -0.0149  0.1501
  449MPD2     C 6685   3.437   4.288  13.555 -0.8683  0.1538  0.3809
  449MPD2    C1 6686   3.421   4.267  13.691 -0.2378  0.3007  0.8415
  449MPD2    C2 6687   3.529   4.236  13.773  0.7464  0.5239 -0.4602
  449MPD2    C3 6688   3.660   4.240  13.721 -0.1325  0.6665  0.2606
  449MPD2    C4 6689   3.680   4.275  13.590 -0.1751  0.5113  1.1248
  449MPD2    C5 6690   3.565   4.299  13.510 -1.1283  0.0234 -0.1291
  449MPD2     H 6691   3.515   4.208  13.877  3.5115 -1.7689 -0.7153
  449MPD2    H1 6692   3.774   4.299  13.542 -0.1414 -0.0415  0.9183
  449MPD2    H2 6693   3.351   4.321  13.498 -0.7693 -0.4918 -0.1363
  449MPD2    H3 6694   3.581   4.326  13.406 -2.0798 -2.2213 -0.8503
  449MPD2     N 6695   3.772   4.207  13.807 -0.7594 -0.3774 -0.4927
  449MPD2    H5 6696   3.752   4.163  13.897 -0.0205  0.4062  0.0561
  449MPD2    N1 6697   3.294   4.271  13.747 -0.1991  0.2981  0.1795
  449MPD2    H7 6698   3.291   4.258  13.848  0.6260 -0.7448  0.0741
  450TMC3    C1 6699   3.072   4.278  13.784 -0.8139 -0.0209 -0.0305
  450TMC3    C2 6700   3.005   4.164  13.758  0.1785  0.2135  0.0138
  450TMC3    C3 6701   3.005   4.063  13.852 -0.2108  0.0061 -0.2682
  450TMC3    C4 6702   3.121   4.290  13.909  0.2305 -0.4485 -1.0716
  450TMC3    C5 6703   3.111   4.189  14.003  0.2571 -0.2782  0.5032
  450TMC3    C6 6704   3.060   4.069  13.971 -0.9172  0.6129  0.0650
  450TMC3     C 6705   3.177   4.282  13.688 -0.7904  0.2222 -1.0801
  450TMC3     O 6706   3.141   4.261  13.570  0.7269  0.4184  0.1105
  450TMC3     H 6707   2.955   4.154  13.663 -2.3402  4.2020  0.9207
  450TMC3    H1 6708   3.171   4.381  13.943 -0.7580 -1.3744  2.9244
  450TMC3    H2 6709   3.073   3.981  14.032 -0.0155  0.3141 -0.5726
  450TMC3    C7 6710   3.239   4.172  14.077 -0.1001 -0.0083  0.4855
  450TMC3    C8 6711   3.020   3.929  13.804  0.0847  0.2154  0.2261
  450TMC3    O1 6712   3.331   4.246  14.041 -0.0577  0.1155 -0.0969
  450TMC3    O2 6713   2.988   3.838  13.880 -0.3876  0.6100  0.2783
  451MPD2     C 6714   4.695   2.057   1.833  0.4181 -0.5734  0.4351
  451MPD2    C1 6715   0.039   2.156   1.772 -0.7227 -0.2518 -0.2466
  451MPD2    C2 6716   0.168   2.127   1.726  0.7253 -0.8420  0.3738
  451MPD2    C3 6717   0.223   2.006   1.753  0.1610  0.9229 -0.7954
  451MPD2    C4 6718   0.151   1.902   1.811 -0.1037  0.7610  0.5899
  451MPD2    C5 6719   0.023   1.929   1.851  0.1749  0.4471  0.4213
  451MPD2     H 6720   0.218   2.207   1.671 -0.9767  0.1436  0.2773
  451MPD2    H1 6721   0.191   1.803   1.831  1.7670  1.6416  1.2618
  451MPD2    H2 6722   4.593   2.069   1.867  0.0072  0.7182 -1.2713
  451MPD2    H3 6723   4.680   1.851   1.886  0.7413 -0.1532  0.1859
  451MPD2     N 6724   0.353   1.973   1.717 -0.8402 -0.1434 -0.2628
  451MPD2    H5 6725   0.391   1.889   1.758  0.0081  1.9305  3.2523
  451MPD2    N1 6726   4.690   2.283   1.760  0.2391  0.0347 -0.2812
  451MPD2    H7 6727   4.612   2.292   1.825  0.6165 -2.7810  0.5608
  452TMC3    C1 6728   0.569   1.983   1.644 -0.8990  0.3804  0.2376
  452TMC3    C2 6729   0.606   1.916   1.757 -0.0831  0.2843  0.3505
  452TMC3    C3 6730   0.708   1.824   1.738 -0.0922  0.6281 -0.3470
  452TMC3    C4 6731   0.645   1.975   1.525 -0.5510 -0.0274  0.7690
  452TMC3    C5 6732   0.746   1.879   1.513 -0.0796 -0.4652 -0.5252
  452TMC3    C6 6733   0.778   1.809   1.619 -0.1121 -0.1899  0.2079
  452TMC3     C 6734   0.441   2.057   1.652 -0.5346  0.1655 -0.7406
  452TMC3     O 6735   0.413   2.128   1.560  0.4881 -0.4970 -0.3695
  452TMC3     H 6736   0.566   1.951   1.852  0.2052  0.0798  0.5465
  452TMC3    H1 6737   0.611   2.033   1.439 -1.1054 -0.9511  0.3680
  452TMC3    H2 6738   0.860   1.738   1.608 -0.6126 -0.7214 -0.0630
  452TMC3    C7 6739   0.801   1.860   1.386  0.4603 -0.0615 -0.2981
  452TMC3    C8 6740   0.765   1.744   1.847 -0.1259 -0.1547  0.2107
  452TMC3    O1 6741   0.763   1.936   1.299  0.2811 -0.0349  0.3429
  452TMC3    O2 6742   0.877   1.697   1.833 -0.1269  0.2902  0.2596
  453TMC3    C1 6743   0.837   0.475  11.358 -0.1628 -0.5923  0.5056
  453TMC3    C2 6744   0.749   0.398  11.430 -0.2100  0.8217  0.2392
  453TMC3    C3 6745   0.635   0.459  11.490  0.0908  0.4051  0.7599
  453TMC3    C4 6746   0.826   0.611  11.354  0.1343 -0.2156 -0.0983
  453TMC3    C5 6747   0.710   0.669  11.405 -0.2938 -0.5537  0.1693
  453TMC3    C6 6748   0.615   0.592  11.476  0.4118  0.4480  0.4387
  453TMC3     C 6749   0.977   0.436  11.365  0.1606 -0.3928  0.7733
  453TMC3     O 6750   1.057   0.517  11.409  0.5738  0.0006 -1.5448
  453TMC3     H 6751   0.772   0.293  11.439 -0.6767  0.6564 -0.4816
  453TMC3    H1 6752   0.905   0.666  11.305  0.8091 -1.4215 -0.3663
  453TMC3    H2 6753   0.527   0.634  11.523 -0.7777  0.7233 -1.9958
  453TMC3    C7 6754   0.726   0.812  11.434  0.9181  0.0960  0.1037
  453TMC3    C8 6755   0.552   0.390  11.582 -0.1547 -0.2202  0.5268
  453TMC3    O1 6756   0.836   0.852  11.401 -0.4277 -0.1204  0.4319
  453TMC3    O2 6757   0.481   0.455  11.661  0.6819 -0.1447  0.0492
  454MPD2     C 6758   0.016   4.609  16.656 -0.3191  0.0937 -0.4458
  454MPD2    C1 6759   4.705   4.483  16.609 -0.0805  0.0132  0.5587
  454MPD2    C2 6760   4.642   4.391  16.689  0.5684  0.3928  0.7336
  454MPD2    C3 6761   4.593   4.427  16.812 -0.4036  0.1162  0.3465
  454MPD2    C4 6762   4.621   4.556  16.852 -0.0430  0.1204 -0.7324
  454MPD2    C5 6763   4.699   4.644  16.784  0.8736 -0.2786  0.1991
  454MPD2     H 6764   4.615   4.293  16.651  2.5725  0.6304 -1.2619
  454MPD2    H1 6765   4.582   4.579  16.950  0.0696 -1.7133 -0.2603
  454MPD2    H2 6766   0.078   4.670  16.592  0.1058 -1.3345 -1.3970
  454MPD2    H3 6767   4.713   0.018  16.827  1.1862 -0.3077  0.1657
  454MPD2     N 6768   4.520   4.341  16.898 -0.1931 -0.0086 -0.5485
  454MPD2    H5 6769   4.463   4.390  16.967  1.3520 -0.1956  0.8598
  454MPD2    N1 6770   0.006   4.439  16.479 -0.4263  0.0463 -0.1347
  454MPD2    H7 6771   4.707   4.342  16.458  1.8592 -1.0991  2.7722
  455TMC3    C1 6772   4.404   4.146  16.957 -0.2813  0.7984  0.6393
  455TMC3    C2 6773   4.301   4.227  17.000 -0.4953 -0.3426 -0.4734
  455TMC3    C3 6774   4.193   4.159  17.052 -0.4694 -0.5347 -0.2310
  455TMC3    C4 6775   4.398   4.013  16.963 -0.3107  0.5525 -0.2238
  455TMC3    C5 6776   4.283   3.948  16.997 -0.3374  0.1549  0.6975
  455TMC3    C6 6777   4.176   4.023  17.033  0.0812  0.2618  0.2857
  455TMC3     C 6778   4.511   4.204  16.881 -0.2627  0.5693  0.0423
  455TMC3     O 6779   4.569   4.120  16.811  0.4181 -0.4683  0.1297
  455TMC3     H 6780   4.290   4.329  16.966 -2.2183 -0.2376  0.4220
  455TMC3    H1 6781   4.489   3.955  16.955 -0.5702 -0.0480  1.2486
  455TMC3    H2 6782   4.080   3.983  17.061 -1.7855  2.6033 -2.8456
  455TMC3    C7 6783   4.245   3.831  16.932 -1.1823 -0.4079 -0.4179
  455TMC3    C8 6784   4.069   4.235  17.079  0.7015  0.1757  0.0247
  455TMC3    O1 6785   4.249   3.845  16.808  0.2002 -0.3408 -0.2293
  455TMC3    O2 6786   3.961   4.184  17.079  0.2678 -0.1742 -0.3863
  456MPD2     C 6787   2.799   4.040  16.537  0.1423 -0.4520  0.0818
  456MPD2    C1 6788   2.821   3.948  16.640  0.2558 -0.6866 -0.6011
  456MPD2    C2 6789   2.782   3.979  16.767  0.0766  0.0915  0.1455
  456MPD2    C3 6790   2.707   4.093  16.784  0.2007  0.5834  0.1685
  456MPD2    C4 6791   2.678   4.179  16.679 -0.4061 -0.2726 -0.2403
  456MPD2    C5 6792   2.728   4.154  16.558 -0.0245  0.4580  0.2506
  456MPD2     H 6793   2.801   3.914  16.852  2.0390 -0.2832 -0.5809
  456MPD2    H1 6794   2.626   4.274  16.693 -1.8329 -1.4643  2.6315
  456MPD2    H2 6795   2.824   4.029  16.432  1.0282 -1.8194  0.4352
  456MPD2    H3 6796   2.716   4.226  16.478  0.7085  1.0552  0.6812
  456MPD2     N 6797   2.662   4.125  16.919 -0.5007 -0.0216  0.4938
  456MPD2    H5 6798   2.692   4.060  16.991  0.6676  0.5220  0.5001
  456MPD2    N1 6799   2.905   3.842  16.613  0.7888  0.2144  0.2924
  456MPD2    H7 6800   2.929   3.832  16.515 -1.5379 -0.1722 -0.2336
  457TMC3    C1 6801   2.537   4.220  17.091 -0.8562  0.2486 -0.0453
  457TMC3    C2 6802   2.467   4.330  17.139  0.3940 -0.3902 -0.1969
  457TMC3    C3 6803   2.406   4.328  17.262  0.4330  0.1277 -0.8617
  457TMC3    C4 6804   2.538   4.102  17.162 -0.1824 -0.5755  0.3212
  457TMC3    C5 6805   2.464   4.094  17.280  0.0840  0.0433  0.0847
  457TMC3    C6 6806   2.400   4.210  17.323  0.8339  0.3302  0.6189
  457TMC3     C 6807   2.567   4.223  16.946 -0.7850 -0.2710  0.1759
  457TMC3     O 6808   2.526   4.315  16.879 -0.2957 -1.0032 -0.4878
  457TMC3     H 6809   2.459   4.419  17.077 -0.8548 -0.6409 -0.4098
  457TMC3    H1 6810   2.572   4.011  17.113  0.5941 -0.2420  0.2437
  457TMC3    H2 6811   2.340   4.210  17.413  1.7108 -1.1716  1.2017
  457TMC3    C7 6812   2.497   3.995  17.381  0.1788 -0.0399 -0.1881
  457TMC3    C8 6813   2.339   4.444  17.319  0.4807  0.9358  0.1084
  457TMC3    O1 6814   2.429   4.000  17.486 -0.4488 -0.1609  0.9890
  457TMC3    O2 6815   2.266   4.432  17.419  0.1220  0.1120  0.5597
  458MPD2     C 6816   4.270   3.952  12.422 -0.2365  0.2079 -0.4888
  458MPD2    C1 6817   4.269   3.851  12.512 -0.2543  0.2602  0.6380
  458MPD2    C2 6818   4.165   3.844  12.607 -0.0060  0.2173 -0.0028
  458MPD2    C3 6819   4.072   3.943  12.619 -0.2003 -0.5692 -0.6083
  458MPD2    C4 6820   4.086   4.054  12.540 -0.3471  0.1630 -0.5263
  458MPD2    C5 6821   4.181   4.056  12.440 -0.1513 -0.0523 -0.9971
  458MPD2     H 6822   4.157   3.766  12.681 -0.6024  0.7109  0.4515
  458MPD2    H1 6823   4.019   4.140  12.535 -0.3493  0.2671  1.3338
  458MPD2    H2 6824   4.350   3.957  12.348  0.0626  4.3748  0.0824
  458MPD2    H3 6825   4.186   4.142  12.374 -0.9047  0.0844 -0.8813
  458MPD2     N 6826   3.979   3.940  12.730  0.1920  1.0218 -0.5040
  458MPD2    H5 6827   3.992   3.871  12.803  0.3604 -0.1116 -1.6090
  458MPD2    N1 6828   4.379   3.769  12.513 -0.4747 -0.5118  0.1057
  458MPD2    H7 6829   4.467   3.794  12.468 -2.1161  1.8527 -1.8184
  459TMC3    C1 6830   4.527   3.621  12.622 -0.0675  0.2601  0.0651
  459TMC3    C2 6831   4.634   3.710  12.597  0.6138  0.8470 -0.0559
  459TMC3    C3 6832   0.027   3.693  12.664 -0.0134  0.2164 -0.9540
  459TMC3    C4 6833   4.536   3.528  12.725  0.2807  0.6944  0.7126
  459TMC3    C5 6834   4.665   3.517  12.775  0.1531  0.3190  0.1099
  459TMC3    C6 6835   0.047   3.596  12.746  0.0617 -0.1262 -0.1799
  459TMC3     C 6836   4.392   3.649  12.585 -0.3213  0.6253  0.8047
  459TMC3     O 6837   4.308   3.590  12.647 -0.5432 -0.6373 -0.3636
  459TMC3     H 6838   4.621   3.785  12.520 -0.5032 -1.2180 -1.8829
  459TMC3    H1 6839   4.458   3.456  12.746  0.8950 -0.3115 -0.4621
  459TMC3    H2 6840   0.140   3.581  12.799  0.4875  0.7930 -0.6711
  459TMC3    C7 6841   4.696   3.426  12.878  0.1844  0.7549  0.7205
  459TMC3    C8 6842   0.131   3.795  12.656  0.3782  0.1155  0.2221
  459TMC3    O1 6843   0.089   3.405  12.904  0.0273  0.2592  1.1208
  459TMC3    O2 6844   0.229   3.779  12.732  0.1801  0.3564 -0.5278
  460MPD2     C 6845   3.943   1.683  10.951  0.4208 -0.4907  0.0057
  460MPD2    C1 6846   3.819   1.660  11.007 -0.3980  0.3001 -0.3865
  460MPD2    C2 6847   3.707   1.676  10.929  0.5281  0.0502 -0.6095
  460MPD2    C3 6848   3.715   1.731  10.800 -0.1437 -0.1670  0.5409
  460MPD2    C4 6849   3.838   1.758  10.750  0.2103  0.6935  0.6795
  460MPD2    C5 6850   3.954   1.732  10.822 -0.0046 -0.0365  0.4971
  460MPD2     H 6851   3.607   1.646  10.958  0.3285  0.8150 -0.5156
  460MPD2    H1 6852   3.844   1.812  10.656  0.2681  0.0238  0.3010
  460MPD2    H2 6853   4.032   1.667  11.010 -0.9553  0.0624  2.2145
  460MPD2    H3 6854   4.044   1.775  10.780 -0.5661  0.3454 -0.3133
  460MPD2     N 6855   3.596   1.741  10.723  0.2777 -0.3715 -0.0262
  460MPD2    H5 6856   3.507   1.708  10.758  0.3779  0.0785  0.6624
  460MPD2    N1 6857   3.818   1.601  11.133 -0.0212 -0.6990 -0.1785
  460MPD2    H7 6858   3.905   1.568  11.173 -0.2569  1.0583  1.7673
  461TMC3    C1 6859   3.448   1.801  10.552 -0.4229 -0.5334 -0.4721
  461TMC3    C2 6860   3.381   1.680  10.531 -0.7989  1.1274  0.7772
  461TMC3    C3 6861   3.291   1.673  10.423  0.4862  0.2980 -0.0471
  461TMC3    C4 6862   3.425   1.910  10.471 -0.3128  0.1079  0.0400
  461TMC3    C5 6863   3.332   1.898  10.372  0.2089 -0.2065  0.2284
  461TMC3    C6 6864   3.265   1.786  10.345  0.0904 -0.2196  0.6004
  461TMC3     C 6865   3.585   1.800  10.599  0.8234  0.2266  0.1333
  461TMC3     O 6866   3.666   1.842  10.518 -0.2453  0.3711  0.1958
  461TMC3     H 6867   3.399   1.601  10.603  1.6641  0.9008 -0.0685
  461TMC3    H1 6868   3.493   1.994  10.479  1.8010 -1.4411 -1.6570
  461TMC3    H2 6869   3.190   1.779  10.268  2.4058  2.6312 -1.9295
  461TMC3    C7 6870   3.333   2.000  10.268 -0.0138  0.0925  0.7464
  461TMC3    C8 6871   3.249   1.541  10.378  0.3179 -0.0167 -0.2639
  461TMC3    O1 6872   3.355   2.116  10.300 -0.4461 -0.3785 -0.0965
  461TMC3    O2 6873   3.309   1.447  10.430  0.1173  0.2259 -0.6725
  462TMC3    C1 6874   4.059   2.591   0.652 -0.4129 -0.1706  0.2388
  462TMC3    C2 6875   4.183   2.541   0.639  0.4504  0.4999  0.5756
  462TMC3    C3 6876   4.196   2.409   0.674  0.6336  0.2753 -0.3376
  462TMC3    C4 6877   3.952   2.505   0.683 -0.1424 -0.9728  0.3465
  462TMC3    C5 6878   3.975   2.373   0.696 -0.2013  0.4927  0.1196
  462TMC3    C6 6879   4.097   2.321   0.717  0.8847 -0.3112 -0.3753
  462TMC3     C 6880   4.044   2.737   0.636 -0.2550  0.6958 -0.1398
  462TMC3     O 6881   4.148   2.797   0.643 -0.5243 -0.0303 -0.5183
  462TMC3     H 6882   4.262   2.597   0.590 -0.4162 -1.2377 -2.7613
  462TMC3    H1 6883   3.856   2.550   0.703 -0.3437 -0.8374 -0.9126
  462TMC3    H2 6884   4.110   2.214   0.721  1.0476 -0.3591 -2.3893
  462TMC3    C7 6885   3.866   2.285   0.708  0.1397  0.0074 -0.5993
  462TMC3    C8 6886   4.328   2.356   0.683 -0.2372 -0.0310  0.1212
  462TMC3    O1 6887   3.882   2.180   0.768 -0.1570  0.6939 -0.4121
  462TMC3    O2 6888   4.410   2.430   0.737 -0.1484  0.2708  0.8643
  463MPD2     C 6889   0.710   0.533   1.889 -0.6087  0.5023  0.4649
  463MPD2    C1 6890   0.741   0.563   2.023 -0.7403  0.6827  1.1339
  463MPD2    C2 6891   0.872   0.540   2.060  0.5498 -0.3749 -0.7014
  463MPD2    C3 6892   0.967   0.501   1.965 -0.1035  0.7757 -0.5628
  463MPD2    C4 6893   0.934   0.490   1.833 -0.4763 -0.4408  0.6404
  463MPD2    C5 6894   0.802   0.495   1.795  0.2079  0.0198 -0.2233
  463MPD2     H 6895   0.901   0.558   2.163  1.2389  2.3962 -1.3917
  463MPD2    H1 6896   1.009   0.461   1.760 -0.0964 -1.2608  1.3562
  463MPD2    H2 6897   0.606   0.526   1.860 -0.5851 -1.5185  0.9055
  463MPD2    H3 6898   0.778   0.491   1.690 -0.8869 -1.4467  0.0909
  463MPD2     N 6899   1.099   0.473   1.998 -0.2168 -0.0747  0.6962
  463MPD2    H5 6900   1.166   0.452   1.925  0.0305 -1.4821  1.3241
  463MPD2    N1 6901   0.647   0.618   2.111 -0.0805  0.7844 -0.3993
  463MPD2    H7 6902   0.672   0.626   2.209 -2.0544  0.1542  0.1658
  464TMC3    C1 6903   0.453   0.741   2.175 -0.4265 -0.0787 -0.1124
  464TMC3    C2 6904   0.366   0.832   2.128  0.1670 -0.1896  0.1454
  464TMC3    C3 6905   0.255   0.865   2.203 -0.2329  0.3516 -0.0463
  464TMC3    C4 6906   0.437   0.673   2.293  0.0422  0.8922  0.1545
  464TMC3    C5 6907   0.319   0.712   2.361  0.0588 -0.1141  0.4999
  464TMC3    C6 6908   0.225   0.808   2.317 -0.6469 -0.0473 -0.4594
  464TMC3     C 6909   0.525   0.672   2.070  0.5238 -0.4914  0.1983
  464TMC3     O 6910   0.476   0.690   1.959  0.1362  0.4529  0.1066
  464TMC3     H 6911   0.391   0.887   2.038  0.1196 -2.0725 -1.0144
  464TMC3    H1 6912   0.481   0.580   2.328  1.0372  1.5074  0.5457
  464TMC3    H2 6913   0.126   0.809   2.361 -0.2459  0.8511  0.4193
  464TMC3    C7 6914   0.280   0.627   2.468  0.0826  0.4337 -0.5969
  464TMC3    C8 6915   0.169   0.974   2.152  0.6124 -0.0510 -0.2020
  464TMC3    O1 6916   0.370   0.585   2.539  0.5479  0.0266  0.3247
  464TMC3    O2 6917   0.198   1.021   2.040  0.3830 -0.3845  0.1400
  465MPD2     C 6918   1.540   4.423  17.336  0.4980  0.7190  0.0620
  465MPD2    C1 6919   1.408   4.438  17.373  0.2054  0.5109  0.8865
  465MPD2    C2 6920   1.314   4.474  17.272  0.6999 -0.1593 -0.1347
  465MPD2    C3 6921   1.360   4.489  17.142 -0.0940  0.2363  0.2504
  465MPD2    C4 6922   1.490   4.481  17.112 -0.5710 -0.3225  0.1147
  465MPD2    C5 6923   1.582   4.445  17.207 -0.0218  0.4681  0.4615
  465MPD2     H 6924   1.210   4.485  17.299  0.2208 -0.5940 -1.8023
  465MPD2    H1 6925   1.538   4.497  17.016 -1.0451  0.8015  0.0554
  465MPD2    H2 6926   1.618   4.389  17.402  0.4351 -0.6416 -0.5786
  465MPD2    H3 6927   1.688   4.434  17.187  0.0798 -0.2966  1.4329
  465MPD2     N 6928   1.263   4.521  17.043 -0.2273  0.2222  0.9113
  465MPD2    H5 6929   1.169   4.514  17.082  0.0798 -1.9429  1.2547
  465MPD2    N1 6930   1.367   4.420  17.503 -0.7894 -0.0576 -0.0392
  465MPD2    H7 6931   1.268   4.430  17.526 -0.4722 -0.5102  1.5014
  466TMC3    C1 6932   0.957   4.672  16.877 -0.4113 -0.4330  0.3858
  466TMC3    C2 6933   0.967   0.039  16.775 -0.1070  0.3031  0.3929
  466TMC3    C3 6934   1.082   0.039  16.710  0.2030  0.0505  0.3459
  466TMC3    C4 6935   1.060   4.590  16.915  0.2124 -0.4028 -0.2043
  466TMC3    C5 6936   1.177   4.594  16.848 -0.4785 -0.3175 -0.0425
  466TMC3    C6 6937   1.183   4.675  16.737 -0.5337  0.4059 -0.1361
  466TMC3     C 6938   0.839   4.683  16.965  0.5759 -0.0938 -0.2509
  466TMC3     O 6939   0.844   4.602  17.054 -0.2880  0.2976 -0.8576
  466TMC3     H 6940   0.879   0.098  16.754 -0.4097 -0.8738 -1.6983
  466TMC3    H1 6941   1.028   4.514  16.986 -0.6698 -0.4431 -0.6529
  466TMC3    H2 6942   1.276   4.695  16.684 -0.5075  1.5544  0.3344
  466TMC3    C7 6943   1.298   4.567  16.917  0.7959 -0.2382 -0.5430
  466TMC3    C8 6944   1.106   0.150  16.615 -0.2862  0.9335  0.1471
  466TMC3    O1 6945   1.398   4.583  16.853 -0.3312 -0.0075  0.1451
  466TMC3    O2 6946   1.181   0.132  16.519 -0.2320 -0.0809 -0.2106
  467TMC3    C1 6947   2.170   3.037  13.713  1.0069 -0.0147 -0.9790
  467TMC3    C2 6948   2.099   3.105  13.616 -0.3686  0.1971 -0.1191
  467TMC3    C3 6949   1.960   3.132  13.648 -0.3328 -0.3412  0.1092
  467TMC3    C4 6950   2.104   2.993  13.823  0.1124 -0.2814 -0.1636
  467TMC3    C5 6951   1.969   3.018  13.851  0.1950 -0.4911 -0.5669
  467TMC3    C6 6952   1.894   3.085  13.753  0.3690  0.1330  0.0283
  467TMC3     C 6953   2.313   3.069  13.731 -0.1696  0.2246  0.2276
  467TMC3     O 6954   2.347   3.072  13.846 -0.5778 -0.6951 -0.3136
  467TMC3     H 6955   2.151   3.154  13.535  0.3754  0.5632  0.5800
  467TMC3    H1 6956   2.150   2.916  13.884  0.0812 -0.3559 -0.2332
  467TMC3    H2 6957   1.790   3.106  13.775 -0.3051 -1.6604 -1.4630
  467TMC3    C7 6958   1.927   2.989  13.985 -0.5991 -0.2185  0.3692
  467TMC3    C8 6959   1.886   3.211  13.563 -0.2471  0.1788 -0.0284
  467TMC3    O1 6960   2.010   2.987  14.069  0.0675 -0.3033 -0.3757
  467TMC3    O2 6961   1.818   3.291  13.619 -0.1151 -0.5504 -0.4773
  468MPD2     C 6962   0.539   1.595  11.283 -0.0679 -0.0346 -0.1963
  468MPD2    C1 6963   0.668   1.555  11.304  0.1826 -0.1065 -0.4235
  468MPD2    C2 6964   0.699   1.428  11.271 -0.4593  0.1305  0.1772
  468MPD2    C3 6965   0.610   1.340  11.228 -0.2327  0.1777 -0.1821
  468MPD2    C4 6966   0.479   1.380  11.216  0.1826  0.0069  0.0944
  468MPD2    C5 6967   0.446   1.510  11.238 -0.4686 -0.5902 -0.2451
  468MPD2     H 6968   0.803   1.396  11.275 -0.5913 -0.5995 -2.3563
  468MPD2    H1 6969   0.394   1.317  11.190 -1.0822  0.8894  2.0626
  468MPD2    H2 6970   0.504   1.694  11.310  0.6505 -0.1189  1.0477
  468MPD2    H3 6971   0.349   1.554  11.219  0.1794  1.3463  0.8978
  468MPD2     N 6972   0.638   1.204  11.184  0.1055 -0.0228 -0.1773
  468MPD2    H5 6973   0.552   1.158  11.156 -0.0553 -0.5728  1.2600
  468MPD2    N1 6974   0.759   1.656  11.342  0.4844 -0.1294  0.1355
  468MPD2    H7 6975   0.719   1.744  11.371 -2.0672 -1.2515  0.0014
  469TMC3    C1 6976   0.960   1.778  11.381  0.5172 -0.3031 -0.4865
  469TMC3    C2 6977   1.085   1.776  11.443 -0.0495  0.1852  0.4583
  469TMC3    C3 6978   1.146   1.891  11.481 -0.8941  0.0044  0.4602
  469TMC3    C4 6979   0.896   1.897  11.374 -0.5371 -0.4305 -0.7133
  469TMC3    C5 6980   0.960   2.010  11.426 -0.6455  0.8645 -0.3135
  469TMC3    C6 6981   1.089   2.015  11.478  0.5292  0.2425  0.0401
  469TMC3     C 6982   0.897   1.650  11.347 -0.3168  0.5574  0.1763
  469TMC3     O 6983   0.978   1.561  11.336  0.0119  0.1854 -0.7088
  469TMC3     H 6984   1.130   1.683  11.474 -0.9452 -0.3753  0.0824
  469TMC3    H1 6985   0.798   1.914  11.331 -0.3886  2.4340  0.1183
  469TMC3    H2 6986   1.142   2.109  11.488 -3.4632  2.5342 -0.4789
  469TMC3    C7 6987   0.879   2.125  11.435 -0.1452  0.3888  0.2033
  469TMC3    C8 6988   1.265   1.871  11.561  0.0431 -0.0087  0.2622
  469TMC3    O1 6989   0.787   2.129  11.354  0.0266 -0.0532 -0.0866
  469TMC3    O2 6990   1.318   1.760  11.554 -0.2444 -0.0964 -0.1512
  470TMC3    C1 6991   3.275   1.588   1.332  0.8223 -0.8876  0.4160
  470TMC3    C2 6992   3.338   1.701   1.292  0.5794 -0.2256 -0.3401
  470TMC3    C3 6993   3.421   1.768   1.375 -0.6412  0.4532 -0.7484
  470TMC3    C4 6994   3.311   1.519   1.447 -0.1472 -0.2765  0.1562
  470TMC3    C5 6995   3.398   1.587   1.531 -0.6901 -0.0809 -0.3932
  470TMC3    C6 6996   3.451   1.709   1.501 -0.2273 -0.0831  0.5155
  470TMC3     C 6997   3.207   1.523   1.225 -0.3638  0.1941  0.8157
  470TMC3     O 6998   3.181   1.590   1.126 -0.4923  0.3465 -0.6866
  470TMC3     H 6999   3.334   1.733   1.189  1.4912 -0.7915 -0.5538
  470TMC3    H1 7000   3.277   1.417   1.467  0.8202 -0.5195  0.5481
  470TMC3    H2 7001   3.502   1.770   1.575  0.7266  0.2144 -0.3880
  470TMC3    C7 7002   3.439   1.521   1.648  0.4523  0.4497  0.2748
  470TMC3    C8 7003   3.456   1.909   1.354  0.4171  1.2840 -0.2838
  470TMC3    O1 7004   3.555   1.522   1.682  0.0712  0.0682 -0.0759
  470TMC3    O2 7005   3.536   1.952   1.434  0.5611 -0.4504 -0.1082
  471MPD2     C 7006   3.853   3.459  17.023  0.2361  0.3848  0.3885
  471MPD2    C1 7007   3.881   3.328  17.014 -0.8828  0.3891 -0.2516
  471MPD2    C2 7008   3.893   3.250  17.129 -0.5897 -0.0396  0.3971
  471MPD2    C3 7009   3.881   3.305  17.256  0.0258 -0.7542 -0.2229
  471MPD2    C4 7010   3.855   3.442  17.261 -0.2340 -0.3497  0.6195
  471MPD2    C5 7011   3.840   3.519  17.148  0.1984 -0.7123 -0.0854
  471MPD2     H 7012   3.924   3.147  17.116 -0.3647  0.0981 -0.2011
  471MPD2    H1 7013   3.828   3.490  17.355  0.4898  0.8679  0.2104
  471MPD2    H2 7014   3.842   3.534  16.946  2.6038  1.0890  0.7378
  471MPD2    H3 7015   3.832   3.626  17.167  0.5784 -0.5893 -0.6120
  471MPD2     N 7016   3.897   3.221  17.370  0.1141 -0.2246 -0.0830
  471MPD2    H5 7017   3.907   3.122  17.354 -0.3215 -0.5853  1.8421
  471MPD2    N1 7018   3.896   3.258  16.891  1.0117  0.8493  0.2381
  471MPD2    H7 7019   3.900   3.157  16.903 -2.8267  0.6433 -0.2499
  472TMC3    C1 7020   3.934   3.220  16.657 -0.4991 -0.6147 -0.2007
  472TMC3    C2 7021   3.909   3.258  16.530  0.4619 -0.3352 -0.2108
  472TMC3    C3 7022   3.919   3.171  16.431  0.0691  0.4840 -0.4324
  472TMC3    C4 7023   3.991   3.100  16.687 -0.2593  0.0164  0.3026
  472TMC3    C5 7024   4.011   3.008  16.584  0.3292 -0.4471  0.7063
  472TMC3    C6 7025   3.974   3.041  16.455 -0.3310  0.0551 -0.4579
  472TMC3     C 7026   3.901   3.313  16.766  0.7431  0.2500  0.0909
  472TMC3     O 7027   3.878   3.428  16.728 -0.1811 -0.1366 -0.0293
  472TMC3     H 7028   3.862   3.355  16.518 -0.6919 -1.0664 -1.7059
  472TMC3    H1 7029   4.003   3.068  16.790  2.2591 -1.0181 -0.3196
  472TMC3    H2 7030   3.969   2.972  16.372  0.0071  0.5401 -0.8768
  472TMC3    C7 7031   3.993   2.874  16.630  0.4028 -0.3285 -0.1194
  472TMC3    C8 7032   3.802   3.176  16.349  0.2878 -0.6750  0.3086
  472TMC3    O1 7033   4.036   2.850  16.742 -0.0577 -0.0120  0.3921
  472TMC3    O2 7034   3.805   3.248  16.252 -0.2251 -0.3862  0.1685
  473MPD2     C 7035   3.397   0.271  14.102 -0.7374  0.1445  0.5830
  473MPD2    C1 7036   3.398   0.379  14.023 -0.2423  0.0511 -0.9913
  473MPD2    C2 7037   3.480   0.485  14.060  0.4257  0.1024 -0.3024
  473MPD2    C3 7038   3.567   0.481  14.169  0.1688 -0.0518 -0.5374
  473MPD2    C4 7039   3.560   0.368  14.248  0.3140  0.0465 -0.1064
  473MPD2    C5 7040   3.480   0.265  14.211  0.3128  0.3949  0.3318
  473MPD2     H 7041   3.483   0.567  13.988  0.6402  0.9914  0.7240
  473MPD2    H1 7042   3.612   0.359  14.342 -1.0559 -0.7815  0.5540
  473MPD2    H2 7043   3.317   0.199  14.091  1.0047 -1.8326  0.8567
  473MPD2    H3 7044   3.478   0.172  14.267 -1.8008  0.8227  0.9734
  473MPD2     N 7045   3.650   0.582  14.211  0.4223 -0.7335 -0.2580
  473MPD2    H5 7046   3.686   0.573  14.305 -1.0362  1.5538  0.5204
  473MPD2    N1 7047   3.308   0.400  13.911  0.0971 -0.3118 -0.0425
  473MPD2    H7 7048   3.303   0.493  13.869  0.4319 -0.7252 -0.9923
  474TMC3    C1 7049   3.742   0.797  14.231  0.7529 -0.8519  0.0537
  474TMC3    C2 7050   3.801   0.904  14.162 -0.5526  0.1744  0.0557
  474TMC3    C3 7051   3.848   1.014  14.230 -0.5225 -0.0982 -0.6767
  474TMC3    C4 7052   3.732   0.797  14.367  0.2492  0.0742 -0.4900
  474TMC3    C5 7053   3.782   0.904  14.431  0.3866 -0.4913 -0.3121
  474TMC3    C6 7054   3.827   1.016  14.363 -0.0261  0.9228  1.4272
  474TMC3     C 7055   3.665   0.703  14.150 -0.7552 -0.6085 -0.3085
  474TMC3     O 7056   3.646   0.731  14.035  0.1936  0.7821  0.1503
  474TMC3     H 7057   3.821   0.887  14.057  0.4982 -1.9992  0.5906
  474TMC3    H1 7058   3.678   0.717  14.415 -0.6747  0.1752 -1.3510
  474TMC3    H2 7059   3.865   1.103  14.416  2.5297  0.8097 -0.2061
  474TMC3    C7 7060   3.798   0.882  14.576 -0.5935 -0.2298  0.0712
  474TMC3    C8 7061   3.881   1.135  14.152  0.4539 -0.5570 -0.2591
  474TMC3    O1 7062   3.782   0.763  14.608  0.6381 -0.1116 -0.0457
  474TMC3    O2 7063   3.869   1.133  14.030  0.1372  0.6341 -0.3997
  475MPD2     C 7064   1.793   3.802  11.576  0.6167 -0.0285  0.4119
  475MPD2    C1 7065   1.798   3.763  11.446  0.2021  0.3973 -0.0420
  475MPD2    C2 7066   1.680   3.789  11.368 -0.1122  0.5906 -0.6194
  475MPD2    C3 7067   1.571   3.838  11.436 -0.8224  0.1788 -0.0786
  475MPD2    C4 7068   1.558   3.840  11.573  0.8063  0.4474 -0.0148
  475MPD2    C5 7069   1.676   3.825  11.634  0.7203  0.1440 -0.1842
  475MPD2     H 7070   1.701   3.782  11.262  2.0218  2.7072 -0.3258
  475MPD2    H1 7071   1.471   3.855  11.635 -0.4542 -0.4168 -1.5842
  475MPD2    H2 7072   1.879   3.798  11.642 -0.3305  0.4035  1.6477
  475MPD2    H3 7073   1.677   3.828  11.742  1.1050  0.8865 -0.2066
  475MPD2     N 7074   1.458   3.871  11.355 -0.1317  0.4130  0.0279
  475MPD2    H5 7075   1.471   3.873  11.254 -2.3679 -1.6629 -0.3026
  475MPD2    N1 7076   1.919   3.717  11.391 -0.4013  0.2923  0.0474
  475MPD2    H7 7077   1.994   3.721  11.460  0.7645 -2.1729 -1.0803
  476TMC3    C1 7078   2.084   3.637  11.240  0.2326  0.1279  0.2395
  476TMC3    C2 7079   2.121   3.714  11.132 -0.2194  0.4167  0.9555
  476TMC3    C3 7080   2.237   3.782  11.149 -0.7697 -0.2525  0.2529
  476TMC3    C4 7081   2.156   3.635  11.357  1.0944  0.0445 -0.9749
  476TMC3    C5 7082   2.244   3.738  11.380  0.1874  0.3936 -0.0967
  476TMC3    C6 7083   2.292   3.807  11.272  0.0381  0.2997  0.5489
  476TMC3     C 7084   1.947   3.676  11.262  0.2377 -0.4284 -0.8856
  476TMC3     O 7085   1.885   3.676  11.159  0.5630 -0.3344 -0.3732
  476TMC3     H 7086   2.062   3.724  11.042 -0.0575 -0.0063  0.8016
  476TMC3    H1 7087   2.121   3.581  11.444 -0.3566  0.9958 -0.9732
  476TMC3    H2 7088   2.384   3.864  11.275  0.9379 -1.2512  2.1248
  476TMC3    C7 7089   2.212   3.815  11.493  0.1847 -0.1936  0.1937
  476TMC3    C8 7090   2.278   3.879  11.051 -0.1845 -0.2676  0.0821
  476TMC3    O1 7091   2.150   3.766  11.584  0.2054 -0.0117 -0.2595
  476TMC3    O2 7092   2.328   3.983  11.085  0.3149 -0.5924 -0.4848
  477MPD2     C 7093   4.289   0.848  12.274  0.5614  0.8220  0.0237
  477MPD2    C1 7094   4.238   0.762  12.175  0.0114  0.0295 -0.0002
  477MPD2    C2 7095   4.262   0.627  12.192 -0.6310 -0.0668  0.2168
  477MPD2    C3 7096   4.334   0.578  12.300 -0.3027 -0.1812  0.2982
  477MPD2    C4 7097   4.394   0.668  12.388  0.8713  0.1968  0.5785
  477MPD2    C5 7098   4.371   0.798  12.370 -0.3239 -0.6595 -0.2820
  477MPD2     H 7099   4.209   0.565  12.120 -1.1497  0.9255 -0.2649
  477MPD2    H1 7100   4.456   0.644  12.474  2.2518 -0.1867 -0.5242
  477MPD2    H2 7101   4.272   0.954  12.281 -1.9176  0.2527  2.9004
  477MPD2    H3 7102   4.426   0.872  12.426 -1.1378 -1.4115  1.4992
  477MPD2     N 7103   4.336   0.437  12.331 -0.2389  0.4824 -0.3473
  477MPD2    H5 7104   4.278   0.375  12.275 -0.8675 -1.2140  2.1660
  477MPD2    N1 7105   4.149   0.813  12.078 -0.1123  0.0746  0.2208
  477MPD2    H7 7106   4.125   0.911  12.094  0.6158  0.1525  0.8149
  478TMC3    C1 7107   4.010   0.831  11.894 -0.4542  0.1369 -0.2369
  478TMC3    C2 7108   3.919   0.903  11.964  0.3827  0.3972 -0.1784
  478TMC3    C3 7109   3.806   0.948  11.902 -0.3833  0.0282  0.2833
  478TMC3    C4 7110   3.987   0.803  11.764 -0.8267 -0.2278  0.6236
  478TMC3    C5 7111   3.873   0.849  11.703 -0.2496 -0.0954  0.2258
  478TMC3    C6 7112   3.782   0.923  11.770 -0.2670  0.0767  0.4716
  478TMC3     C 7113   4.116   0.763  11.958 -0.2536  1.1987 -0.5781
  478TMC3     O 7114   4.166   0.665  11.906 -0.0963 -0.3127  0.3780
  478TMC3     H 7115   3.928   0.912  12.072 -0.6494 -1.7125  0.0808
  478TMC3    H1 7116   4.047   0.732  11.707  0.5786  0.4896  1.2054
  478TMC3    H2 7117   3.691   0.964  11.729  0.0024 -0.3672 -0.5615
  478TMC3    C7 7118   3.843   0.795  11.571  0.1743  0.1612 -0.0843
  478TMC3    C8 7119   3.693   0.975  11.982  0.2188 -0.2607  0.3905
  478TMC3    O1 7120   3.873   0.678  11.543 -0.5575 -0.2051  0.1546
  478TMC3    O2 7121   3.706   0.940  12.095 -0.1216  0.0418  0.6225
  479MPD2     C 7122   3.622   2.613  15.173  0.2286  0.6395 -0.3713
  479MPD2    C1 7123   3.566   2.559  15.291  0.4131 -0.2637 -0.7463
  479MPD2    C2 7124   3.625   2.589  15.411 -0.1416  0.3658 -0.0176
  479MPD2    C3 7125   3.737   2.664  15.418 -0.3090 -0.4271  0.1530
  479MPD2    C4 7126   3.796   2.712  15.298  0.0798  0.7558 -0.4211
  479MPD2    C5 7127   3.734   2.688  15.178 -0.3278 -0.1502 -0.6200
  479MPD2     H 7128   3.582   2.550  15.503 -1.2581 -0.4190 -0.8680
  479MPD2    H1 7129   3.880   2.780  15.300 -0.1699  1.0597 -0.1756
  479MPD2    H2 7130   3.574   2.595  15.077  1.8687 -2.1546 -0.6784
  479MPD2    H3 7131   3.771   2.752  15.098 -2.4805  3.0349  0.9488
  479MPD2     N 7132   3.800   2.693  15.537  0.2451  0.1317 -0.1059
  479MPD2    H5 7133   3.881   2.755  15.528 -2.7403  3.9240 -0.7475
  479MPD2    N1 7134   3.446   2.502  15.271  0.5113 -0.8339  0.0153
  479MPD2    H7 7135   3.417   2.481  15.176  1.6031 -0.7379 -0.3393
  480TMC3    C1 7136   3.628   2.799  15.932  0.2031 -0.0135  0.2490
  480TMC3    C2 7137   3.554   2.892  15.867 -0.1278  1.0116 -0.0265
  480TMC3    C3 7138   3.600   2.932  15.744  0.1034 -0.2579  0.1821
  480TMC3    C4 7139   3.741   2.734  15.882  0.8322 -0.0395 -0.7052
  480TMC3    C5 7140   3.781   2.774  15.754  0.4324 -0.7629  0.0222
  480TMC3    C6 7141   3.718   2.874  15.688  1.1672 -0.1892  0.0301
  480TMC3     C 7142   3.580   2.734  16.056  0.6247 -0.0629 -0.2748
  480TMC3     O 7143   3.666   2.684  16.127  0.1745 -0.3410 -0.0249
  480TMC3     H 7144   3.470   2.951  15.901 -2.0587 -1.4232 -0.5459
  480TMC3    H1 7145   3.785   2.661  15.948 -2.7427 -0.7728  0.9123
  480TMC3    H2 7146   3.759   2.905  15.593 -0.8569 -1.4696 -1.2476
  480TMC3    C7 7147   3.757   2.666  15.666 -1.1078 -0.1732 -0.0662
  480TMC3    C8 7148   3.491   2.908  15.657 -0.4734 -0.3337  0.7604
  480TMC3    O1 7149   3.674   2.587  15.710 -0.2666 -0.0654  0.6721
  480TMC3    O2 7150   3.381   2.883  15.708  0.0998 -0.2617 -0.4768
  481MPD2     C 7151   0.302   2.921  14.938  0.5854  0.6510  0.4810
  481MPD2    C1 7152   0.297   2.788  14.890 -0.2182 -0.4568  0.7749
  481MPD2    C2 7153   0.295   2.685  14.984  0.2475  0.2799  0.1730
  481MPD2    C3 7154   0.293   2.711  15.117 -0.2800 -0.0671  0.0198
  481MPD2    C4 7155   0.299   2.843  15.165 -0.0319  0.1244 -0.7911
  481MPD2    C5 7156   0.309   2.946  15.073 -0.2582 -0.4288  0.0797
  481MPD2     H 7157   0.283   2.582  14.954 -4.2447  1.6678 -2.7194
  481MPD2    H1 7158   0.311   2.871  15.269 -1.5369 -4.0842  0.5332
  481MPD2    H2 7159   0.314   3.000  14.865  1.1319  0.2240  0.1033
  481MPD2    H3 7160   0.328   3.048  15.104  0.1410 -0.6224  0.4568
  481MPD2     N 7161   0.284   2.615  15.215 -1.0291 -0.1599  0.0881
  481MPD2    H5 7162   0.256   2.644  15.308 -0.6410  0.3524  0.0454
  481MPD2    N1 7163   0.292   2.768  14.750 -0.1161  0.2007  0.3196
  481MPD2    H7 7164   0.310   2.850  14.692  1.4879 -1.4942 -1.6018
  482TMC3    C1 7165   0.299   2.637  14.558 -0.0213  0.1116 -0.3015
  482TMC3    C2 7166   0.310   2.510  14.510  0.3568  0.0250 -0.1586
  482TMC3    C3 7167   0.343   2.495  14.381 -0.0180  0.0376 -0.5106
  482TMC3    C4 7168   0.316   2.750  14.483 -0.3915  0.0917 -0.0702
  482TMC3    C5 7169   0.331   2.726  14.352  0.3021  0.8409  0.5557
  482TMC3    C6 7170   0.356   2.601  14.294  0.4147 -0.1800 -0.7688
  482TMC3     C 7171   0.260   2.648  14.694 -0.5072 -0.6761 -0.2941
  482TMC3     O 7172   0.206   2.551  14.750 -0.2416  0.6881  0.1267
  482TMC3     H 7173   0.279   2.427  14.571 -2.2402  0.3035 -1.0958
  482TMC3    H1 7174   0.284   2.850  14.511  0.8791 -0.2663  2.6625
  482TMC3    H2 7175   0.373   2.585  14.189  1.7059  0.2173 -0.6192
  482TMC3    C7 7176   0.278   2.839  14.269  0.0258  0.3266 -0.5285
  482TMC3    C8 7177   0.361   2.359  14.334 -0.0740 -0.3740  0.5695
  482TMC3    O1 7178   0.281   2.946  14.324 -0.4337 -0.4681  0.2054
  482TMC3    O2 7179   0.294   2.268  14.377  0.3465 -0.4671  0.7893
  483TMC3    C1 7180   3.165   0.990   1.742 -0.7470 -0.0439 -0.2778
  483TMC3    C2 7181   3.208   1.074   1.647 -0.2055  0.5525  0.3887
  483TMC3    C3 7182   3.344   1.077   1.611  0.0512 -0.2588  0.2114
  483TMC3    C4 7183   3.253   0.899   1.796 -0.1103  0.9828  1.0468
  483TMC3    C5 7184   3.384   0.906   1.756  0.3109  0.2797  0.3795
  483TMC3    C6 7185   3.432   0.988   1.667  0.0475  0.1485 -0.2117
  483TMC3     C 7186   3.021   0.963   1.758 -0.0772  0.4794  0.0738
  483TMC3     O 7187   2.945   1.053   1.729 -0.4386 -0.7039 -0.2691
  483TMC3     H 7188   3.141   1.140   1.593  0.0969  1.5829  1.2945
  483TMC3    H1 7189   3.223   0.826   1.870 -3.1156  0.9386 -0.2208
  483TMC3    H2 7190   3.530   0.964   1.628  0.5352 -0.5830  1.4781
  483TMC3    C7 7191   3.472   0.794   1.790  0.7270 -0.2974  0.0132
  483TMC3    C8 7192   3.388   1.149   1.497  0.2860 -0.1477 -0.5355
  483TMC3    O1 7193   3.549   0.763   1.698 -0.3007  0.0886 -0.5064
  483TMC3    O2 7194   3.299   1.202   1.427  0.5275  0.4209 -0.7801
  484MPD2     C 7195   0.101   4.095  12.448 -0.2937  0.2327  0.4097
  484MPD2    C1 7196   0.171   4.003  12.526 -0.5753  0.0904 -0.5995
  484MPD2    C2 7197   0.308   4.020  12.545  0.1674  0.3697  0.8055
  484MPD2    C3 7198   0.378   4.128  12.500 -0.3755  0.2504 -0.6967
  484MPD2    C4 7199   0.310   4.212  12.420 -0.1576  0.0253  0.5244
  484MPD2    C5 7200   0.175   4.201  12.396  0.1933  0.0319  0.1762
  484MPD2     H 7201   0.354   3.944  12.606 -0.4428 -0.0941  0.6833
  484MPD2    H1 7202   0.365   4.296  12.379 -1.3445  0.6461  0.2293
  484MPD2    H2 7203   4.719   4.094  12.427  0.1361 -0.5200 -1.7169
  484MPD2    H3 7204   0.123   4.276  12.337  0.1266  1.5004  2.1257
  484MPD2     N 7205   0.511   4.157  12.532  0.4902  0.1434 -0.5055
  484MPD2    H5 7206   0.553   4.243  12.497  1.3563  0.2157  0.7299
  484MPD2    N1 7207   0.093   3.896  12.573  0.2457  0.4156 -0.5247
  484MPD2    H7 7208   4.722   3.899  12.538  0.1558  0.7660 -0.2547
  485TMC3    C1 7209   0.723   4.144  12.626  0.5607  0.2023  0.4222
  485TMC3    C2 7210   0.833   4.062  12.633  0.2298  0.2573  0.2877
  485TMC3    C3 7211   0.957   4.113  12.628  0.3717 -0.3330  0.8308
  485TMC3    C4 7212   0.738   4.279  12.599  0.6125 -0.2475 -0.2368
  485TMC3    C5 7213   0.870   4.323  12.578  0.1995  0.4793 -0.4559
  485TMC3    C6 7214   0.977   4.245  12.612 -0.4039  0.3271 -0.2025
  485TMC3     C 7215   0.594   4.076  12.615  0.2237 -0.2703 -0.5281
  485TMC3     O 7216   0.573   3.958  12.646 -0.4624  0.3547 -0.1261
  485TMC3     H 7217   0.812   3.957  12.646  2.1863 -0.5457 -2.8525
  485TMC3    H1 7218   0.657   4.347  12.578 -0.9565 -2.3232 -0.8302
  485TMC3    H2 7219   1.074   4.292  12.602 -0.4182  0.0442 -1.7703
  485TMC3    C7 7220   0.888   4.377  12.446  0.0135  0.2095 -0.1178
  485TMC3    C8 7221   1.053   4.035  12.566  0.7233  0.0171 -0.2617
  485TMC3    O1 7222   0.790   4.435  12.406 -0.6719  0.3016 -0.1533
  485TMC3    O2 7223   1.118   4.096  12.483  0.6203 -0.2254  0.1935
  486MPD2     C 7224   2.396   3.014  13.000  0.2566  0.3980  0.3208
  486MPD2    C1 7225   2.417   2.964  12.874  0.5227  0.3979  0.4266
  486MPD2    C2 7226   2.341   3.012  12.766  0.2508  0.4008 -0.1844
  486MPD2    C3 7227   2.249   3.116  12.793  0.1898 -0.2745 -0.4732
  486MPD2    C4 7228   2.232   3.166  12.923 -0.0081 -0.2319 -0.0087
  486MPD2    C5 7229   2.310   3.112  13.019 -0.3340 -0.0563  0.0420
  486MPD2     H 7230   2.361   2.974  12.666 -0.4815 -1.0383  0.2138
  486MPD2    H1 7231   2.162   3.246  12.943  1.4002  0.9832  0.1104
  486MPD2    H2 7232   2.459   2.985  13.083  0.3174 -2.5351 -0.7439
  486MPD2    H3 7233   2.309   3.151  13.120 -0.0902  0.0336  0.0085
  486MPD2     N 7234   2.179   3.170  12.682 -0.0467 -0.0870  0.2032
  486MPD2    H5 7235   2.190   3.133  12.588 -0.4026  0.3527 -0.0134
  486MPD2    N1 7236   2.509   2.857  12.864  0.8299  0.3505  0.5192
  486MPD2    H7 7237   2.524   2.807  12.951 -0.7222  0.2267  0.7037
  487TMC3    C1 7238   2.615   2.672  12.746  0.0206  0.4901 -0.4958
  487TMC3    C2 7239   2.550   2.581  12.817  0.1159 -0.1734  0.0322
  487TMC3    C3 7240   2.624   2.468  12.843 -0.0338  0.0214  0.6497
  487TMC3    C4 7241   2.737   2.660  12.688 -0.0389 -0.1153 -0.7655
  487TMC3    C5 7242   2.808   2.558  12.734  0.2640 -0.4120 -1.2223
  487TMC3    C6 7243   2.746   2.451  12.788 -0.6354  0.0130 -0.1594
  487TMC3     C 7244   2.563   2.807  12.744 -0.3620 -0.3790 -0.5076
  487TMC3     O 7245   2.578   2.860  12.636  0.1851  0.2045 -0.2578
  487TMC3     H 7246   2.452   2.602  12.858  0.3034 -0.6295  0.7031
  487TMC3    H1 7247   2.779   2.742  12.631 -1.0358  0.3135 -0.8769
  487TMC3    H2 7248   2.814   2.387  12.842  0.8721  1.1706 -0.6908
  487TMC3    C7 7249   2.940   2.587  12.790 -0.1664 -0.3164 -0.2551
  487TMC3    C8 7250   2.621   2.422  12.982  0.0409 -0.2534 -0.1456
  487TMC3    O1 7251   2.957   2.700  12.841 -0.2958  0.4960  0.0177
  487TMC3    O2 7252   2.580   2.502  13.063 -0.3462  0.0584 -0.1969
  488MPD2     C 7253   3.357   4.476  16.795  0.0848  0.5218 -0.0182
  488MPD2    C1 7254   3.307   4.602  16.826 -0.5385 -0.3463  0.4904
  488MPD2    C2 7255   3.247   4.622  16.950  0.0675 -0.4142  0.1670
  488MPD2    C3 7256   3.231   4.517  17.041  0.4075 -0.6645 -0.4099
  488MPD2    C4 7257   3.282   4.396  17.006 -0.1297 -0.1189 -0.5192
  488MPD2    C5 7258   3.350   4.377  16.887 -0.0853  0.2564  0.6014
  488MPD2     H 7259   3.208   4.720  16.977  1.3239  0.1573 -0.0995
  488MPD2    H1 7260   3.270   4.310  17.070 -2.6023 -0.7057 -1.7526
  488MPD2    H2 7261   3.403   4.436  16.705  0.4150 -0.1180  0.4280
  488MPD2    H3 7262   3.393   4.278  16.872 -1.6360 -0.1200 -1.4704
  488MPD2     N 7263   3.171   4.539  17.162 -0.1871  0.3771  0.7512
  488MPD2    H5 7264   3.135   4.632  17.179  1.1341  1.2642 -1.1983
  488MPD2    N1 7265   3.317   4.712  16.741  0.2178  0.2301  0.3709
  488MPD2    H7 7266   3.269   0.066  16.784 -0.2495 -0.4508  1.0637
  489TMC3    C1 7267   3.077   4.507  17.369 -0.1464  0.4764 -0.1151
  489TMC3    C2 7268   3.060   4.645  17.363 -0.2088 -0.0011 -0.2278
  489TMC3    C3 7269   3.044   4.697  17.490 -0.7100  0.0401  0.2429
  489TMC3    C4 7270   3.055   4.430  17.483 -0.2892 -0.2216 -0.1283
  489TMC3    C5 7271   3.055   4.497  17.599  0.1618  0.2290  0.4135
  489TMC3    C6 7272   3.051   4.629  17.606 -0.7533  0.1698  0.1622
  489TMC3     C 7273   3.158   4.449  17.265  0.7110  0.1802 -0.1100
  489TMC3     O 7274   3.197   4.336  17.280  0.4632  0.1613  0.5211
  489TMC3     H 7275   3.041   4.702  17.274 -2.1050  1.2164  0.9648
  489TMC3    H1 7276   3.034   4.324  17.469 -2.5418  0.3450 -1.0660
  489TMC3    H2 7277   3.046   4.676   0.006 -1.7509  1.3665 -0.4711
  489TMC3    C7 7278   3.050   4.424   0.030 -0.1137  0.2581  0.2084
  489TMC3    C8 7279   3.049   0.114  17.484 -0.4220  0.3470  0.2131
  489TMC3    O1 7280   3.029   4.483   0.136 -0.2416  0.5192  0.0835
  489TMC3    O2 7281   3.116   0.158  17.389  0.2386  0.6488 -0.4260
  490MPD2     C 7282   3.998   4.390   0.186 -0.5711 -0.4941 -0.4801
  490MPD2    C1 7283   4.035   4.269   0.249 -0.2835  0.1735  0.3448
  490MPD2    C2 7284   4.150   4.267   0.320 -0.3125  0.1567  0.0484
  490MPD2    C3 7285   4.227   4.377   0.339 -0.9047 -0.3272  0.1862
  490MPD2    C4 7286   4.179   4.500   0.296  0.0361 -0.6274  0.2012
  490MPD2    C5 7287   4.080   4.502   0.201  0.7956 -0.1089  0.1491
  490MPD2     H 7288   4.187   4.175   0.365 -1.8500 -0.3016  0.3873
  490MPD2    H1 7289   4.236   4.592   0.308 -4.0908  2.0980 -1.0119
  490MPD2    H2 7290   3.909   4.393   0.124 -2.1115  0.7353  1.8358
  490MPD2    H3 7291   4.055   4.598   0.158  1.6824 -0.4398 -1.1241
  490MPD2     N 7292   4.346   4.359   0.409  0.8318 -0.1897  0.0234
  490MPD2    H5 7293   4.377   4.268   0.442 -0.5452 -0.8193 -0.4219
  490MPD2    N1 7294   3.976   4.148   0.215 -0.2762 -0.0177  0.0056
  490MPD2    H7 7295   4.014   4.061   0.249  0.1276  0.5386  0.9610
  491TMC3    C1 7296   3.841   3.989   0.091  0.1300 -0.2272  0.0009
  491TMC3    C2 7297   3.846   3.899   0.194 -0.1500 -0.3473  0.1755
  491TMC3    C3 7298   3.814   3.765   0.164 -0.8781 -0.2034 -0.2585
  491TMC3    C4 7299   3.794   3.948  17.668 -0.9417 -1.0312  0.2447
  491TMC3    C5 7300   3.745   3.823  17.651 -0.0196 -1.0609  0.5501
  491TMC3    C6 7301   3.762   3.726   0.046  0.4658 -0.4566  0.0549
  491TMC3     C 7302   3.888   4.128   0.107 -0.0137  0.4070 -0.3204
  491TMC3     O 7303   3.846   4.214   0.032 -0.1744  0.4789  0.3375
  491TMC3     H 7304   3.870   3.934   0.293  0.4453  1.2814 -0.5405
  491TMC3    H1 7305   3.795   4.020  17.587 -3.1564  1.4983  2.4504
  491TMC3    H2 7306   3.723   3.627   0.026  0.7733 -0.4235 -0.7348
  491TMC3    C7 7307   3.672   3.775  17.534 -0.3369 -0.3811  0.1322
  491TMC3    C8 7308   3.814   3.670   0.269  0.0365  0.2157 -0.1467
  491TMC3    O1 7309   3.665   3.660  17.520  0.1059 -0.3349  0.1772
  491TMC3    O2 7310   3.753   3.566   0.245  0.1997 -0.0897 -0.3777
  492MPD2     C 7311   3.812   3.939  11.581  0.3140 -0.2865  0.1844
  492MPD2    C1 7312   3.706   3.871  11.521 -0.2321  0.5779 -0.2489
  492MPD2    C2 7313   3.628   3.785  11.599  0.2721 -0.0452  0.0172
  492MPD2    C3 7314   3.667   3.750  11.726  0.0175  0.2098 -0.2501
  492MPD2    C4 7315   3.766   3.820  11.781  0.3512  0.0274 -0.4070
  492MPD2    C5 7316   3.844   3.908  11.710 -0.1515 -0.2626  0.9620
  492MPD2     H 7317   3.540   3.735  11.561  0.3447  0.9179 -1.4244
  492MPD2    H1 7318   3.789   3.805  11.886  2.0432 -0.5855 -0.8558
  492MPD2    H2 7319   3.866   4.020  11.532  1.0589  0.6529  2.5593
  492MPD2    H3 7320   3.934   3.945  11.758  0.4817 -0.0468 -0.3957
  492MPD2     N 7321   3.621   3.640  11.803  0.0192  0.3855  0.0336
  492MPD2    H5 7322   3.645   3.636  11.902 -0.3136  0.5772  0.1251
  492MPD2    N1 7323   3.673   3.892  11.386  0.3956  0.2852 -0.1075
  492MPD2    H7 7324   3.595   3.840  11.347 -0.9242  0.9192  1.6586
  493TMC3    C1 7325   3.694   3.946  11.159 -0.3943 -0.6487  0.6440
  493TMC3    C2 7326   3.727   4.041  11.066  0.5074 -0.2959  0.3126
  493TMC3    C3 7327   3.662   4.042  10.947 -1.1191  0.0188 -0.0251
  493TMC3    C4 7328   3.606   3.841  11.126  0.6885  0.3890  0.4557
  493TMC3    C5 7329   3.554   3.842  11.004 -0.1022 -0.4071 -0.1880
  493TMC3    C6 7330   3.572   3.943  10.913  0.5309  0.9355  1.0463
  493TMC3     C 7331   3.743   3.967  11.292  0.0066  0.8886  0.1918
  493TMC3     O 7332   3.834   4.046  11.312  0.2165  0.1930 -0.4089
  493TMC3     H 7333   3.792   4.122  11.097  0.2378 -0.0110  0.1337
  493TMC3    H1 7334   3.566   3.774  11.202  2.8685 -2.1232 -0.6152
  493TMC3    H2 7335   3.528   3.949  10.815  3.1057 -0.9064 -0.2201
  493TMC3    C7 7336   3.446   3.755  10.979  0.1236 -0.1911 -0.3069
  493TMC3    C8 7337   3.700   4.134  10.843 -0.1510  0.5418 -0.4619
  493TMC3    O1 7338   3.350   3.807  10.927 -0.8261 -0.6799 -0.1582
  493TMC3    O2 7339   3.664   4.106  10.727 -0.3975  0.0715  0.2230
  494TMC3    C1 7340   0.414   1.233   1.054  0.3631 -0.2100  0.2592
  494TMC3    C2 7341   0.465   1.120   1.113  0.5306  0.0386 -0.0392
  494TMC3    C3 7342   0.512   1.024   1.036 -0.0361 -0.3842  0.2081
  494TMC3    C4 7343   0.415   1.249   0.916  0.1519 -0.2656 -0.9014
  494TMC3    C5 7344   0.459   1.142   0.847  0.6302 -0.4235  0.1660
  494TMC3    C6 7345   0.509   1.026   0.901  0.1281  0.0379 -0.0743
  494TMC3     C 7346   0.351   1.334   1.148 -0.2908 -0.0656  0.1520
  494TMC3     O 7347   0.292   1.283   1.243  0.5567 -0.0979  0.4383
  494TMC3     H 7348   0.464   1.108   1.221  2.0261  0.8553  0.0661
  494TMC3    H1 7349   0.380   1.337   0.862 -0.7637 -0.0124  0.1107
  494TMC3    H2 7350   0.551   0.945   0.843  2.2423  1.2820 -0.2950
  494TMC3    C7 7351   0.409   1.137   0.712  0.2217  0.4232  0.5000
  494TMC3    C8 7352   0.563   0.908   1.102  0.3545  0.5567  0.4534
  494TMC3    O1 7353   0.436   1.235   0.643  0.7971  0.0944 -0.2024
  494TMC3    O2 7354   0.658   0.847   1.046 -0.5538 -0.1412  0.0199
  495TMC3    C1 7355   3.615   2.834  14.684  0.2022  0.1843 -0.3381
  495TMC3    C2 7356   3.624   2.939  14.603  0.4355 -0.5520  0.2439
  495TMC3    C3 7357   3.621   3.064  14.660 -0.7794 -0.0119  0.1161
  495TMC3    C4 7358   3.595   2.844  14.819  0.2022  0.4053 -0.7908
  495TMC3    C5 7359   3.603   2.965  14.870 -0.2332  0.7909 -1.2547
  495TMC3    C6 7360   3.612   3.078  14.795  0.3314 -0.4431  0.7817
  495TMC3     C 7361   3.558   2.715  14.627 -0.2852  0.4491 -0.1196
  495TMC3     O 7362   3.496   2.731  14.521 -0.5839  0.5115 -0.0005
  495TMC3     H 7363   3.637   2.925  14.496 -0.1578 -0.8873  0.2172
  495TMC3    H1 7364   3.582   2.758  14.882  2.6186 -0.1313 -1.0117
  495TMC3    H2 7365   3.596   3.172  14.846  1.2686  0.8782 -1.3537
  495TMC3    C7 7366   3.570   2.982  15.011 -0.4864  0.4390 -0.3173
  495TMC3    C8 7367   3.578   3.165  14.563  0.2608 -0.4310 -0.2535
  495TMC3    O1 7368   3.625   3.070  15.069 -0.2217 -0.3015 -0.0980
  495TMC3    O2 7369   3.524   3.117  14.465  0.0673 -0.4607  0.1897
  496MPD2     C 7370   0.565   3.129  15.493  0.1758 -0.1629 -0.0991
  496MPD2    C1 7371   0.527   3.013  15.557  0.1493 -0.2363  0.5128
  496MPD2    C2 7372   0.477   3.037  15.683  0.3979  0.2969  0.4757
  496MPD2    C3 7373   0.464   3.161  15.742 -0.1470 -0.0793  0.6151
  496MPD2    C4 7374   0.494   3.272  15.668  0.4622 -0.0799  0.1213
  496MPD2    C5 7375   0.552   3.258  15.546 -0.8327  0.0506  0.1466
  496MPD2     H 7376   0.444   2.948  15.734  1.5785 -1.4622 -1.7762
  496MPD2    H1 7377   0.498   3.372  15.710 -0.8173  0.7733 -1.7756
  496MPD2    H2 7378   0.608   3.118  15.394  3.0205 -2.1356  1.3682
  496MPD2    H3 7379   0.574   3.344  15.485  2.6584 -0.7651  0.2763
  496MPD2     N 7380   0.409   3.187  15.867  1.3112 -0.3527  0.0019
  496MPD2    H5 7381   0.393   3.285  15.890 -0.8238 -0.5481 -0.6370
  496MPD2    N1 7382   0.531   2.883  15.505 -0.5067  0.3309 -0.2206
  496MPD2    H7 7383   0.513   2.811  15.574  1.0858  0.8746  0.7579
  497TMC3    C1 7384   0.361   3.136  16.091 -1.6047  0.0290 -0.3503
  497TMC3    C2 7385   0.241   3.209  16.095 -0.2193  0.4523 -0.1596
  497TMC3    C3 7386   0.166   3.203  16.208  0.1345  0.2560  0.1605
  497TMC3    C4 7387   0.397   3.053  16.192 -0.3489 -0.1781  0.1268
  497TMC3    C5 7388   0.312   3.048  16.301  0.4804  0.1232 -0.0988
  497TMC3    C6 7389   0.197   3.120  16.313  0.5655 -0.6090 -0.2445
  497TMC3     C 7390   0.407   3.095  15.967  0.1275 -0.3645 -0.0366
  497TMC3     O 7391   0.452   2.982  15.957 -0.0292 -0.5461 -0.0512
  497TMC3     H 7392   0.219   3.273  16.011  2.8166 -0.3653 -1.5866
  497TMC3    H1 7393   0.482   2.987  16.182 -0.3056 -0.0056 -0.6119
  497TMC3    H2 7394   0.142   3.103  16.405 -1.8072  2.2755 -1.1566
  497TMC3    C7 7395   0.346   2.945  16.400  0.6649  0.3081  0.1273
  497TMC3    C8 7396   0.056   3.305  16.224 -0.9466 -0.4341 -0.8114
  497TMC3    O1 7397   0.259   2.890  16.466 -0.3993  0.3303 -0.2751
  497TMC3    O2 7398   0.004   3.354  16.127 -0.5177 -0.2275  0.3021
  498MPD2     C 7399   1.684   3.829   9.837  0.1403  0.0924  0.3696
  498MPD2    C1 7400   1.635   3.873   9.959 -0.5683 -0.3241  0.5821
  498MPD2    C2 7401   1.568   3.787  10.049 -0.1529 -0.1066  0.8882
  498MPD2    C3 7402   1.547   3.657  10.018  1.0891 -0.5459 -0.2805
  498MPD2    C4 7403   1.599   3.612   9.896  0.4440 -0.0156  0.4213
  498MPD2    C5 7404   1.672   3.698   9.814 -0.0279  0.1983 -0.1546
  498MPD2     H 7405   1.529   3.831  10.140  0.5850  0.0530  1.1343
  498MPD2    H1 7406   1.593   3.510   9.859 -0.8078 -0.0257  0.6397
  498MPD2    H2 7407   1.750   3.888   9.774 -0.6355 -1.5281 -1.9579
  498MPD2    H3 7408   1.728   3.654   9.732  1.0716  2.1630 -0.4479
  498MPD2     N 7409   1.454   3.588  10.100 -0.4684  1.0367  0.0380
  498MPD2    H5 7410   1.412   3.643  10.174 -1.1240  2.1131 -1.1516
  498MPD2    N1 7411   1.656   4.006  10.005  0.1559  0.8141 -0.7200
  498MPD2    H7 7412   1.609   4.035  10.091  1.0158  1.7998 -0.5824
  499TMC3    C1 7413   1.746   4.216  10.036 -1.2018  0.2997  0.4999
  499TMC3    C2 7414   1.754   4.199  10.169 -0.0419 -0.6247 -0.0735
  499TMC3    C3 7415   1.726   4.303  10.254 -0.9839 -0.4878  0.0337
  499TMC3    C4 7416   1.710   4.339   9.989 -0.0260  1.1558 -0.5785
  499TMC3    C5 7417   1.678   4.437  10.082 -0.4031  0.4328  0.7598
  499TMC3    C6 7418   1.686   4.421  10.212  0.3170  0.1866 -0.4481
  499TMC3     C 7419   1.731   4.104   9.950 -0.2147  0.3304  0.0652
  499TMC3     O 7420   1.773   4.122   9.838  0.1721 -0.8039 -0.3743
  499TMC3     H 7421   1.785   4.106  10.215 -0.7528 -1.6263 -1.6050
  499TMC3    H1 7422   1.700   4.353   9.882  0.0736  1.2886 -0.5706
  499TMC3    H2 7423   1.673   4.501  10.284 -0.1949 -1.0666  0.8583
  499TMC3    C7 7424   1.629   4.563  10.029 -0.1063  0.0541 -0.1464
  499TMC3    C8 7425   1.741   4.265  10.393 -0.3484 -0.6432 -0.4579
  499TMC3    O1 7426   1.661   4.670  10.071 -0.6355 -0.0415 -0.7102
  499TMC3    O2 7427   1.713   4.151  10.430 -0.0526  0.0857 -0.0544
  500MPD2     C 7428   2.893   4.648  10.731 -0.3259  0.0885 -0.5949
  500MPD2    C1 7429   2.901   0.037  10.654 -0.8928 -0.4464 -0.1867
  500MPD2    C2 7430   2.789   0.084  10.585  0.5097  0.5885  0.7579
  500MPD2    C3 7431   2.675   0.010  10.598  0.6574 -0.3391 -0.4386
  500MPD2    C4 7432   2.667   4.634  10.697 -0.0197 -0.3007 -0.2634
  500MPD2    C5 7433   2.774   4.595  10.761  0.0715  0.1725  0.2448
  500MPD2     H 7434   2.793   0.170  10.520 -1.1189 -1.2225 -1.7442
  500MPD2    H1 7435   2.579   4.574  10.713 -0.8208  1.1332  0.7216
  500MPD2    H2 7436   2.976   4.595  10.776  0.2202 -1.5020 -3.5093
  500MPD2    H3 7437   2.768   4.518  10.837  0.7822 -2.0263 -1.9685
  500MPD2     N 7438   2.557   0.035  10.523 -0.1337  0.2594 -0.4962
  500MPD2    H5 7439   2.479   4.700  10.551 -0.9740  1.4695 -0.2650
  500MPD2    N1 7440   3.023   0.103  10.638 -0.5106  0.8185  0.1529
  500MPD2    H7 7441   3.023   0.188  10.583 -4.0482  0.7361  0.0459
  501TMC3    C1 7442   3.254   0.156  10.649  0.8262  0.2227 -0.2509
  501TMC3    C2 7443   3.216   0.287  10.649 -0.2774  0.2864  0.3155
  501TMC3    C3 7444   3.316   0.378  10.653  0.1648  0.2057 -0.2841
  501TMC3    C4 7445   3.386   0.114  10.647  0.2536  0.2252  0.4609
  501TMC3    C5 7446   3.486   0.210  10.659  0.8965  0.2212 -0.9861
  501TMC3    C6 7447   3.451   0.341  10.659  0.7941  0.1565  0.1970
  501TMC3     C 7448   3.151   0.053  10.654 -0.0624 -0.1431 -0.4959
  501TMC3     O 7449   3.191   4.664  10.688 -0.3826 -0.2215  0.0148
  501TMC3     H 7450   3.114   0.319  10.667 -0.8187 -1.4732  0.3295
  501TMC3    H1 7451   3.411   0.009  10.650  2.8594  0.7685 -1.9497
  501TMC3    H2 7452   3.526   0.418  10.676  0.7413  0.2421  0.0457
  501TMC3    C7 7453   3.592   0.164  10.755 -0.3048  0.5157 -0.5228
  501TMC3    C8 7454   3.286   0.517  10.657  0.2843  0.7727 -0.7061
  501TMC3    O1 7455   3.583   0.047  10.800 -0.2495 -0.1376  0.0405
  501TMC3    O2 7456   3.375   0.580  10.710  0.1157 -0.3232  0.5755
  502TMC3    C1 7457   3.007   3.449  15.028  0.5992 -0.2464  0.2560
  502TMC3    C2 7458   2.978   3.551  14.944 -0.7258  0.7479 -0.1222
  502TMC3    C3 7459   2.843   3.596  14.947 -0.1613  0.7288 -0.4804
  502TMC3    C4 7460   2.912   3.397  15.114 -0.1895  0.2435  0.5137
  502TMC3    C5 7461   2.786   3.439  15.116 -0.2647  0.5154  0.0864
  502TMC3    C6 7462   2.754   3.547  15.043  1.0865  0.0189  0.2128
  502TMC3     C 7463   3.133   3.469  15.094  0.2976 -0.5112 -0.2343
  502TMC3     O 7464   3.237   3.500  15.034 -0.2198  0.1297  0.2765
  502TMC3     H 7465   3.056   3.606  14.892 -0.6250  0.3987 -0.3421
  502TMC3    H1 7466   2.936   3.324  15.190 -0.9670 -0.6793 -0.1162
  502TMC3    H2 7467   2.659   3.599  15.054  3.3266  4.5607 -2.0125
  502TMC3    C7 7468   2.703   3.402  15.230  0.3799  0.1597 -0.1947
  502TMC3    C8 7469   2.820   3.741  14.925  0.1010 -1.1034  0.2391
  502TMC3    O1 7470   2.770   3.359  15.324  0.5011  0.3965 -0.0471
  502TMC3    O2 7471   2.917   3.808  14.950 -0.7674 -0.2323 -0.9363
  503MPD2     C 7472   0.106   4.495  17.197  0.5003  0.1595 -0.1816
  503MPD2    C1 7473   0.196   4.546  17.292 -0.0451 -0.1053  0.4047
  503MPD2    C2 7474   0.279   4.462  17.369 -0.4309  0.6477  0.5189
  503MPD2    C3 7475   0.283   4.323  17.337  0.0018  0.2035  0.4306
  503MPD2    C4 7476   0.190   4.275  17.247 -0.4950 -0.2071 -0.5585
  503MPD2    C5 7477   0.099   4.360  17.182 -0.4050  0.0604  0.0816
  503MPD2     H 7478   0.336   4.497  17.454 -0.9752  1.8402  0.3820
  503MPD2    H1 7479   0.180   4.170  17.222 -1.5351 -0.0987 -0.6051
  503MPD2    H2 7480   0.032   4.554  17.145 -0.9564 -0.8084  0.7876
  503MPD2    H3 7481   0.027   4.314  17.115 -0.0214  2.2473 -1.8198
  503MPD2     N 7482   0.383   4.251  17.411  0.3819  0.0235 -0.2681
  503MPD2    H5 7483   0.461   4.301  17.453  0.0353 -1.0078  1.5969
  503MPD2    N1 7484   0.204   4.690  17.322  0.6631  0.2482  0.1844
  503MPD2    H7 7485   0.262   4.712  17.402  1.3642 -0.5290 -0.1093
  504TMC3    C1 7486   0.508   4.063  17.447 -0.0283 -0.2923 -0.0474
  504TMC3    C2 7487   0.497   3.932  17.491 -0.2472 -0.0743  0.5949
  504TMC3    C3 7488   0.594   3.883  17.573 -0.3129  0.1598 -0.0222
  504TMC3    C4 7489   0.623   4.134  17.455 -0.0034  0.7705 -0.4855
  504TMC3    C5 7490   0.725   4.077  17.524  0.0273 -0.0107 -0.0015
  504TMC3    C6 7491   0.715   3.955  17.590 -0.1323  0.3069  0.6959
  504TMC3     C 7492   0.388   4.118  17.399 -0.6307  0.7211 -0.0571
  504TMC3     O 7493   0.300   4.041  17.374 -0.0627 -0.1899  0.2306
  504TMC3     H 7494   0.420   3.859  17.469 -1.0718  1.2496 -0.8304
  504TMC3    H1 7495   0.638   4.230  17.407  3.4493  0.5106  0.0769
  504TMC3    H2 7496   0.807   3.908  17.622 -1.4167 -0.9726  2.4678
  504TMC3    C7 7497   0.862   4.132  17.518 -0.2503 -0.0907  0.0560
  504TMC3    C8 7498   0.594   3.747  17.611 -0.7630 -0.2208 -0.4948
  504TMC3    O1 7499   0.874   4.224  17.439 -0.5083  0.2549 -0.1775
  504TMC3    O2 7500   0.554   3.673  17.520 -0.4073 -0.2011 -0.0241
  505MPD2     C 7501   0.174   3.071  10.142  1.0627  0.0977 -0.7279
  505MPD2    C1 7502   0.201   3.049  10.277  0.1725  0.4318 -0.3740
  505MPD2    C2 7503   0.209   3.155  10.370  0.3542  0.7359  0.5737
  505MPD2    C3 7504   0.192   3.283  10.318  0.1046  0.1280  0.7948
  505MPD2    C4 7505   0.156   3.299  10.189  1.1109  0.4136 -0.7422
  505MPD2    C5 7506   0.147   3.198  10.098  0.1255 -0.2023 -0.2055
  505MPD2     H 7507   0.255   3.141  10.467 -0.3187 -2.5947  0.4338
  505MPD2    H1 7508   0.135   3.400  10.154 -0.6161  0.5096  0.5742
  505MPD2    H2 7509   0.162   2.989  10.072  2.3096  0.1255 -0.9821
  505MPD2    H3 7510   0.109   3.213   9.997  1.0039 -1.0465 -0.6609
  505MPD2     N 7511   0.211   3.402  10.398  0.2304 -0.3312  0.7987
  505MPD2    H5 7512   0.233   3.488  10.348 -1.2508 -0.8476 -0.7432
  505MPD2    N1 7513   0.239   2.915  10.307 -0.1781 -0.0427  0.5164
  505MPD2    H7 7514   0.262   2.848  10.234 -1.3421  0.3323 -0.2035
  506TMC3    C1 7515   0.300   2.745  10.472  0.0177  0.6333  0.0299
  506TMC3    C2 7516   0.419   2.727  10.406 -0.1099 -0.2413 -0.4968
  506TMC3    C3 7517   0.515   2.667  10.480 -0.1806 -0.4013  0.2395
  506TMC3    C4 7518   0.288   2.725  10.607  0.7005  0.5432  0.2629
  506TMC3    C5 7519   0.389   2.676  10.683 -0.2827 -0.0767 -0.4719
  506TMC3    C6 7520   0.503   2.636  10.616 -0.0458 -0.1337 -0.4864
  506TMC3     C 7521   0.244   2.872  10.438  0.3521  0.3591  0.3783
  506TMC3     O 7522   0.212   2.933  10.539  0.3342 -0.2220 -0.0996
  506TMC3     H 7523   0.433   2.757  10.303 -1.0858  1.3185 -0.1761
  506TMC3    H1 7524   0.195   2.756  10.654 -0.6025  0.1537 -2.0689
  506TMC3    H2 7525   0.584   2.604  10.681 -3.0774 -0.5227  3.1317
  506TMC3    C7 7526   0.409   2.743  10.813 -0.3588 -0.2778  0.0123
  506TMC3    C8 7527   0.651   2.644  10.429  0.3718  0.0790  0.1201
  506TMC3    O1 7528   0.492   2.694  10.892  0.5944 -0.2525  0.3657
  506TMC3    O2 7529   0.705   2.541  10.474 -0.5576  0.0955  0.0148
  507TMC3    C1 7530   1.704   4.177  15.052  0.0775 -0.9293  0.7525
  507TMC3    C2 7531   1.733   4.066  14.980  0.0786  0.5142  0.2988
  507TMC3    C3 7532   1.747   4.084  14.848 -0.0987  0.3362  0.0389
  507TMC3    C4 7533   1.674   4.300  15.001 -0.2262  0.1145 -0.0886
  507TMC3    C5 7534   1.691   4.317  14.866  0.6265  0.0042 -0.0607
  507TMC3    C6 7535   1.731   4.209  14.791  0.5442  0.0002 -0.6346
  507TMC3     C 7536   1.705   4.167  15.197  0.2492 -0.2662 -0.4108
  507TMC3     O 7537   1.759   4.259  15.257 -0.9560  0.0847 -0.3986
  507TMC3     H 7538   1.746   3.970  15.028 -3.9076 -1.1948 -2.0786
  507TMC3    H1 7539   1.648   4.385  15.064 -1.8947  0.2423 -0.9589
  507TMC3    H2 7540   1.757   4.227  14.687  1.4123 -3.4643 -1.0096
  507TMC3    C7 7541   1.570   4.369  14.804  0.0285 -0.2946  0.2817
  507TMC3    C8 7542   1.713   3.973  14.760 -0.0087  0.3094  0.5099
  507TMC3    O1 7543   1.537   4.320  14.697  0.2821 -0.4764  0.5434
  507TMC3    O2 7544   1.769   3.863  14.770  0.3943  0.3907 -0.0747
  508MPD2     C 7545   2.800   1.488  16.454  0.2920  0.3135  0.5975
  508MPD2    C1 7546   2.722   1.601  16.489 -0.4025 -0.1203  0.4573
  508MPD2    C2 7547   2.662   1.666  16.377 -0.8209  0.2333  0.3021
  508MPD2    C3 7548   2.674   1.614  16.244 -0.7816 -0.3376  0.2480
  508MPD2    C4 7549   2.741   1.499  16.222  0.3175 -0.8607  0.4433
  508MPD2    C5 7550   2.808   1.440  16.323  0.4345 -0.1483  0.8371
  508MPD2     H 7551   2.614   1.762  16.388  1.9070  1.6425  0.0427
  508MPD2    H1 7552   2.744   1.459  16.121  1.5694  0.0337  0.1205
  508MPD2    H2 7553   2.852   1.433  16.531 -0.8317 -0.2584  0.9528
  508MPD2    H3 7554   2.878   1.362  16.295  1.6371  1.0033  0.6305
  508MPD2     N 7555   2.611   1.698  16.143 -0.3026 -0.2764 -0.0213
  508MPD2    H5 7556   2.573   1.790  16.166 -1.1423 -1.2524  2.4671
  508MPD2    N1 7557   2.704   1.644  16.623 -0.7457 -0.2593  0.2606
  508MPD2    H7 7558   2.743   1.586  16.696  1.2253 -1.3742 -1.6753
  509TMC3    C1 7559   2.475   1.863  15.738  0.1629  0.4263  0.7737
  509TMC3    C2 7560   2.547   1.980  15.758  0.1062 -0.7026  0.6943
  509TMC3    C3 7561   2.615   1.996  15.873 -0.2532  0.7830  0.2445
  509TMC3    C4 7562   2.491   1.754  15.818 -0.6260 -0.4165 -0.2912
  509TMC3    C5 7563   2.549   1.776  15.939  0.0445 -0.7239  0.1713
  509TMC3    C6 7564   2.619   1.895  15.965  0.0073  0.2099 -0.1089
  509TMC3     C 7565   2.377   1.863  15.625 -0.6173 -0.4398 -0.5206
  509TMC3     O 7566   2.345   1.755  15.578 -0.1791  0.2721  0.3036
  509TMC3     H 7567   2.549   2.056  15.681 -0.9024 -0.4966  0.8778
  509TMC3    H1 7568   2.452   1.654  15.803 -0.6191  0.0665 -3.4023
  509TMC3    H2 7569   2.693   1.895  16.044 -1.4823  1.0535  1.2883
  509TMC3    C7 7570   2.573   1.659  16.023  0.0124  0.5544  0.0039
  509TMC3    C8 7571   2.732   2.069  15.855  0.5176 -0.4586 -0.1593
  509TMC3    O1 7572   2.563   1.542  15.982 -0.4972 -0.0759  0.2470
  509TMC3    O2 7573   2.830   1.990  15.846  0.1332  0.2261 -0.4182
  510MPD2     C 7574   0.260   3.503  14.949 -0.3427 -0.0664 -0.1435
  510MPD2    C1 7575   0.305   3.393  15.020  0.0974  0.5472  0.9332
  510MPD2    C2 7576   0.425   3.334  14.991  0.4417  0.1490 -0.3887
  510MPD2    C3 7577   0.497   3.384  14.885  0.3513 -0.0378 -0.3036
  510MPD2    C4 7578   0.462   3.500  14.824 -0.6953 -0.8019 -0.8613
  510MPD2    C5 7579   0.346   3.562  14.856  0.3137  0.4696  0.4818
  510MPD2     H 7580   0.456   3.241  15.037 -1.6043 -0.4526 -0.2362
  510MPD2    H1 7581   0.526   3.549  14.750 -0.6637  0.2467 -0.1429
  510MPD2    H2 7582   0.172   3.552  14.990  1.6480  2.4726  1.0856
  510MPD2    H3 7583   0.318   3.662  14.825 -1.3804 -0.3161 -0.5191
  510MPD2     N 7584   0.618   3.314  14.854 -0.3562 -0.7062  0.8236
  510MPD2    H5 7585   0.641   3.231  14.908 -1.7884  0.1884  2.7915
  510MPD2    N1 7586   0.214   3.360  15.126  0.3795 -0.1807  0.3930
  510MPD2    H7 7587   0.121   3.400  15.132 -0.6559 -2.1581 -2.6775
  511TMC3    C1 7588   0.150   3.241  15.324 -0.7158 -0.1706  0.0821
  511TMC3    C2 7589   0.174   3.212  15.457 -0.3840 -0.5330  0.6462
  511TMC3    C3 7590   0.124   3.100  15.526 -0.1877 -0.0765 -0.1964
  511TMC3    C4 7591   0.064   3.157  15.258 -0.4290 -0.1444  0.2777
  511TMC3    C5 7592   0.021   3.049  15.328 -0.4243 -0.1138 -0.8901
  511TMC3    C6 7593   0.043   3.019  15.461  0.0342  0.3002  0.5613
  511TMC3     C 7594   0.259   3.287  15.241 -0.9617 -0.7967 -0.2247
  511TMC3     O 7595   0.373   3.249  15.271 -0.4553  0.0881  0.3813
  511TMC3     H 7596   0.250   3.269  15.508  0.6764 -0.7943 -0.6217
  511TMC3    H1 7597   0.054   3.163  15.150  3.3620 -0.3594 -0.0894
  511TMC3    H2 7598   4.722   2.930  15.503  1.2795 -0.3818  0.4239
  511TMC3    C7 7599   4.684   2.950  15.239  0.4241  0.0196 -0.8936
  511TMC3    C8 7600   0.082   3.124  15.667  0.5680  0.5143  0.0761
  511TMC3    O1 7601   4.644   3.002  15.135  0.4176  0.1614 -0.4455
  511TMC3    O2 7602   0.021   3.225  15.694  0.2024  0.2187 -0.3182
  512TMC3    C1 7603   3.721   2.799  13.225 -0.5957  0.0204 -0.6001
  512TMC3    C2 7604   3.741   2.753  13.349 -0.4300 -0.2566  0.0001
  512TMC3    C3 7605   3.780   2.624  13.366  0.9793  0.4597  0.0100
  512TMC3    C4 7606   3.734   2.719  13.117 -0.2208 -0.4584 -0.1094
  512TMC3    C5 7607   3.777   2.590  13.141  0.2061  0.3382  0.1814
  512TMC3    C6 7608   3.800   2.545  13.265  0.5988 -0.2847  0.5016
  512TMC3     C 7609   3.737   2.946  13.199 -0.3484 -0.6718  0.1140
  512TMC3     O 7610   3.772   3.020  13.294 -0.2830 -0.5020  0.3621
  512TMC3     H 7611   3.726   2.817  13.435  0.0584  1.6105 -1.3138
  512TMC3    H1 7612   3.723   2.741  13.012 -2.7407  1.9811  0.6845
  512TMC3    H2 7613   3.859   2.458  13.291  1.0912  0.3441  1.4876
  512TMC3    C7 7614   3.781   2.503  13.026  0.4667  0.3403  0.9068
  512TMC3    C8 7615   3.806   2.573  13.502  0.0548  0.1192  0.5385
  512TMC3    O1 7616   3.806   2.550  12.914  0.0504  0.2832 -0.7075
  512TMC3    O2 7617   3.768   2.463  13.532 -0.1264  0.6348 -1.0162
  513MPD2     C 7618   0.880   2.971  13.514  0.6706  0.0914 -0.3884
  513MPD2    C1 7619   0.931   2.954  13.386  0.1294  0.8467 -0.1219
  513MPD2    C2 7620   1.068   2.993  13.367 -0.4099  0.7245 -0.8989
  513MPD2    C3 7621   1.143   3.054  13.470 -0.0713  0.4360  0.6495
  513MPD2    C4 7622   1.092   3.064  13.593  0.5965  0.0452 -0.2405
  513MPD2    C5 7623   0.964   3.026  13.610 -0.0201  0.0240 -0.5093
  513MPD2     H 7624   1.110   2.972  13.270  1.6674 -2.1324  0.6486
  513MPD2    H1 7625   1.144   3.106  13.678 -0.6234  0.2753  0.3865
  513MPD2    H2 7626   0.779   2.943  13.543  1.8121 -3.4286  0.1123
  513MPD2    H3 7627   0.923   3.040  13.710  3.2454  1.2805  0.6348
  513MPD2     N 7628   1.269   3.103  13.431  0.0678 -0.2638 -0.1331
  513MPD2    H5 7629   1.294   3.082  13.336 -0.3242 -1.2023 -0.0323
  513MPD2    N1 7630   0.862   2.887  13.282  0.3066  0.7908 -0.1141
  513MPD2    H7 7631   0.764   2.864  13.294  0.0956  2.3650  1.1366
  514TMC3    C1 7632   0.830   2.782  13.062  0.6075 -0.4177 -0.3844
  514TMC3    C2 7633   0.742   2.875  13.033 -0.4107 -0.1546 -0.2617
  514TMC3    C3 7634   0.709   2.889  12.899  0.1752  0.8379 -0.1939
  514TMC3    C4 7635   0.896   2.706  12.965 -0.3692 -0.7729 -0.0467
  514TMC3    C5 7636   0.870   2.734  12.834  0.2160  0.4160 -0.2908
  514TMC3    C6 7637   0.782   2.830  12.797  0.5577  0.5410  0.6833
  514TMC3     C 7638   0.921   2.819  13.172  0.2153 -0.1007  0.2882
  514TMC3     O 7639   1.037   2.808  13.151 -0.3324 -0.3404  0.1496
  514TMC3     H 7640   0.690   2.925  13.114  0.4963 -3.0059  2.0684
  514TMC3    H1 7641   0.969   2.635  13.002  2.3086  1.4748 -1.0523
  514TMC3    H2 7642   0.772   2.858  12.693 -1.8889 -0.1956  0.7101
  514TMC3    C7 7643   0.994   2.735  12.759  0.4325 -0.0769 -0.3787
  514TMC3    C8 7644   0.642   3.014  12.864  0.4499 -1.5390  0.6078
  514TMC3    O1 7645   0.991   2.747  12.636  0.8940  0.0398 -0.1025
  514TMC3    O2 7646   0.649   3.100  12.945 -0.0812 -0.0815 -0.3483
  515MPD2     C 7647   3.567   0.158  15.121  0.2685  0.1934 -0.5301
  515MPD2    C1 7648   3.668   0.082  15.062  0.6702  0.1946  0.6182
  515MPD2    C2 7649   3.791   0.084  15.124 -0.5291  0.0907  0.2953
  515MPD2    C3 7650   3.819   0.156  15.238  0.7135  0.1332 -0.0134
  515MPD2    C4 7651   3.720   0.229  15.295  0.0297 -0.3213  0.2062
  515MPD2    C5 7652   3.591   0.224  15.241 -0.2832  0.0340  0.2006
  515MPD2     H 7653   3.868   0.022  15.079 -0.5510  0.5714 -0.4026
  515MPD2    H1 7654   3.731   0.274  15.392 -2.9457  0.9040 -0.0181
  515MPD2    H2 7655   3.464   0.167  15.090  0.2754  1.3240 -0.2292
  515MPD2    H3 7656   3.507   0.273  15.289 -0.4374  1.9511 -1.9576
  515MPD2     N 7657   3.934   0.146  15.320  0.3289 -0.8481 -0.1650
  515MPD2    H5 7658   3.941   0.207  15.401  0.2613  0.6770 -1.3235
  515MPD2    N1 7659   3.650   4.715  14.961  0.4007 -0.0610  0.1924
  515MPD2    H7 7660   3.732   4.674  14.916  0.4863 -0.7424  0.9759
  516TMC3    C1 7661   3.520   4.561  14.841 -0.2072 -0.0299  0.5967
  516TMC3    C2 7662   3.421   4.554  14.748 -1.0549 -0.7129 -0.1015
  516TMC3    C3 7663   3.411   4.441  14.679  0.5824 -0.2214 -0.3907
  516TMC3    C4 7664   3.611   4.458  14.868  0.6730 -0.4740 -0.8062
  516TMC3    C5 7665   3.585   4.338  14.807  0.2320 -0.1399  0.3078
  516TMC3    C6 7666   3.482   4.324  14.705 -0.5238  0.5001  0.2195
  516TMC3     C 7667   3.528   4.684  14.911 -0.0666 -0.9285 -0.6368
  516TMC3     O 7668   3.419   0.016  14.924  0.1897 -0.0002 -1.0833
  516TMC3     H 7669   3.351   4.633  14.728  0.4055  0.1425 -1.7931
  516TMC3    H1 7670   3.688   4.479  14.942 -0.7391 -0.2842  0.6015
  516TMC3    H2 7671   3.477   4.237  14.642 -1.6125  1.2153 -0.6874
  516TMC3    C7 7672   3.611   4.209  14.877 -0.6841 -0.6177 -0.3279
  516TMC3    C8 7673   3.329   4.431  14.559  0.8024  0.5208  0.1960
  516TMC3    O1 7674   3.702   4.209  14.957 -0.0395  0.1676 -0.2643
  516TMC3    O2 7675   3.306   4.323  14.511  0.2367  0.6308 -0.4106
  517MPD2     C 7676   2.989   1.183   0.341 -0.5155 -0.4814  0.4856
  517MPD2    C1 7677   3.125   1.172   0.357  0.0316  0.5641 -0.0997
  517MPD2    C2 7678   3.183   1.260   0.447 -0.1148 -0.6958  0.4164
  517MPD2    C3 7679   3.106   1.347   0.525 -0.1091  0.2521 -0.0836
  517MPD2    C4 7680   2.971   1.354   0.502 -0.2294 -0.5883  0.3911
  517MPD2    C5 7681   2.917   1.272   0.406 -0.1190  0.6840 -0.1781
  517MPD2     H 7682   3.290   1.252   0.459 -0.1555  1.5667  2.3799
  517MPD2    H1 7683   2.909   1.421   0.560 -0.5138  0.5821 -1.2806
  517MPD2    H2 7684   2.939   1.122   0.267 -1.4250  1.5283 -0.5705
  517MPD2    H3 7685   2.815   1.287   0.373 -0.7347 -0.4314  1.2089
  517MPD2     N 7686   3.162   1.435   0.617  0.0050 -0.0107 -0.1679
  517MPD2    H5 7687   3.108   1.512   0.656  0.1216 -0.4145  0.7945
  517MPD2    N1 7688   3.196   1.077   0.294  0.3696 -0.2496  0.3919
  517MPD2    H7 7689   3.294   1.076   0.318  0.1421  0.4888  1.3663
  518TMC3    C1 7690   3.249   0.898   0.153 -0.0390 -0.1981  0.4021
  518TMC3    C2 7691   3.214   0.771   0.108  0.0523 -0.1250  0.2778
  518TMC3    C3 7692   3.323   0.689   0.079 -0.1592  0.2848  0.6223
  518TMC3    C4 7693   3.377   0.937   0.131  0.4170  0.7083 -0.2499
  518TMC3    C5 7694   3.479   0.870   0.071  0.9088 -0.3837  0.4019
  518TMC3    C6 7695   3.450   0.737   0.047 -0.1063 -0.1295  0.1927
  518TMC3     C 7696   3.145   0.983   0.207  0.2324  0.1855 -0.2412
  518TMC3     O 7697   3.030   0.946   0.192  0.3899 -0.2130 -0.1581
  518TMC3     H 7698   3.117   0.727   0.126 -0.5843  2.7294  3.6822
  518TMC3    H1 7699   3.405   1.038   0.160  0.7756  1.0160 -1.6520
  518TMC3    H2 7700   3.530   0.666   0.032  0.1448  0.1515  0.2129
  518TMC3    C7 7701   3.612   0.913   0.096 -1.2598  0.6853 -0.5871
  518TMC3    C8 7702   3.307   0.547   0.048  0.0516  0.0913  0.3182
  518TMC3    O1 7703   3.626   1.005   0.175 -0.4772 -0.1700  0.1777
  518TMC3    O2 7704   3.375   0.496  17.659 -0.2095 -0.5625 -0.3560
  519MPD2     C 7705   0.396   4.122  14.904  0.4794  0.2011  0.0415
  519MPD2    C1 7706   0.306   4.029  14.861  0.3484 -0.4619 -0.2645
  519MPD2    C2 7707   0.341   3.932  14.769  0.2026 -0.7607  0.0282
  519MPD2    C3 7708   0.469   3.917  14.728  0.3182 -0.2563  0.2400
  519MPD2    C4 7709   0.566   3.999  14.789  0.0158  0.6374  0.5260
  519MPD2    C5 7710   0.528   4.103  14.870  0.0154  0.4127 -0.1600
  519MPD2     H 7711   0.271   3.857  14.733  1.0468 -1.5380 -0.0098
  519MPD2    H1 7712   0.665   4.003  14.744  0.0430  0.6280  0.5854
  519MPD2    H2 7713   0.374   4.209  14.965  2.8790  1.2059 -0.5262
  519MPD2    H3 7714   0.595   4.180  14.908 -0.7606  1.0652 -0.1098
  519MPD2     N 7715   0.525   3.837  14.625  0.5452  0.2288  0.6080
  519MPD2    H5 7716   0.625   3.830  14.610  0.2074  1.7915 -2.2016
  519MPD2    N1 7717   0.174   4.047  14.904  0.8542  0.2836  0.1227
  519MPD2    H7 7718   0.158   4.131  14.959 -0.4224 -0.8276  1.4565
  520TMC3    C1 7719   0.520   3.667  14.462  0.0233  0.0545  0.1368
  520TMC3    C2 7720   0.450   3.577  14.374  0.5318  0.3841  0.0960
  520TMC3    C3 7721   0.526   3.487  14.304  0.2837 -0.6283  0.1821
  520TMC3    C4 7722   0.657   3.693  14.447 -0.3575  0.2130  0.2853
  520TMC3    C5 7723   0.722   3.607  14.366 -0.1895 -0.4133 -0.2745
  520TMC3    C6 7724   0.661   3.500  14.302 -0.0358  0.1466 -0.9264
  520TMC3     C 7725   0.444   3.747  14.559  0.5607 -0.5801 -0.3765
  520TMC3     O 7726   0.328   3.713  14.586 -0.3854 -0.2811  0.2175
  520TMC3     H 7727   0.343   3.566  14.390  0.4530  1.0675  0.0555
  520TMC3    H1 7728   0.708   3.774  14.498  0.2903  1.2716 -2.0473
  520TMC3    H2 7729   0.716   3.433  14.238 -1.1616 -0.4823 -1.2384
  520TMC3    C7 7730   0.866   3.598  14.375  0.2659 -0.5700  0.4386
  520TMC3    C8 7731   0.470   3.450  14.178  0.1582 -0.5171 -0.2546
  520TMC3    O1 7732   0.908   3.603  14.490 -0.5474 -0.3799 -0.3485
  520TMC3    O2 7733   0.509   3.356  14.107 -0.4398  0.0666 -0.0596
  521MPD2     C 7734   1.263   2.592  17.613 -0.2766  0.1228 -0.1724
  521MPD2    C1 7735   1.356   2.501  17.661 -0.9469  0.0316  0.8144
  521MPD2    C2 7736   1.490   2.518  17.644  0.3324 -0.7808 -0.2071
  521MPD2    C3 7737   1.530   2.631  17.566 -0.2810 -0.5704 -0.0457
  521MPD2    C4 7738   1.439   2.720  17.515  0.1839 -0.3685 -0.5434
  521MPD2    C5 7739   1.309   2.697  17.540 -0.0666 -0.1718 -0.2258
  521MPD2     H 7740   1.564   2.441  17.666 -0.6769 -1.2414  1.5572
  521MPD2    H1 7741   1.457   2.818  17.471  1.3540 -0.0013  0.7547
  521MPD2    H2 7742   1.160   2.577  17.645  0.0735 -0.6218  0.6098
  521MPD2    H3 7743   1.242   2.776  17.507 -0.3018 -1.1452 -2.1164
  521MPD2     N 7744   1.672   2.643  17.544 -0.2679  0.0151  0.1489
  521MPD2    H5 7745   1.736   2.585  17.597  0.4265  0.1598 -0.5278
  521MPD2    N1 7746   1.301   2.396   0.037 -0.3325 -0.7305  0.4964
  521MPD2    H7 7747   1.201   2.381   0.035 -0.3904 -0.7386  2.9154
  522TMC3    C1 7748   1.857   2.682  17.389  0.0812 -0.1398 -0.1458
  522TMC3    C2 7749   1.883   2.549  17.388 -0.8926 -0.5912 -0.0316
  522TMC3    C3 7750   1.976   2.505  17.301 -0.3427  0.7851  0.0459
  522TMC3    C4 7751   1.895   2.765  17.285  0.0818  0.7047 -0.1546
  522TMC3    C5 7752   1.980   2.718  17.195  0.0635  0.0106 -0.4677
  522TMC3    C6 7753   2.032   2.584  17.204  0.3571  0.4775 -0.6615
  522TMC3     C 7754   1.726   2.726  17.445 -0.1469  0.0461 -0.0974
  522TMC3     O 7755   1.675   2.821  17.387 -0.3679 -0.3251  0.5661
  522TMC3     H 7756   1.843   2.478  17.460 -0.4210 -2.3873 -1.5236
  522TMC3    H1 7757   1.865   2.869  17.291  0.3634  0.9471 -2.7818
  522TMC3    H2 7758   2.093   2.541  17.125  1.1119 -0.2143  0.3013
  522TMC3    C7 7759   1.964   2.769  17.060 -0.0420  0.3652  0.2534
  522TMC3    C8 7760   1.964   2.362  17.280  0.1844  0.6940  0.3403
  522TMC3    O1 7761   2.059   2.771  16.983 -0.1274 -0.1217 -0.1031
  522TMC3    O2 7762   1.858   2.305  17.310  0.8359  0.3313 -0.0453
  523MPD2     C 7763   3.302   1.921   9.909  0.3095 -0.0631  0.2470
  523MPD2    C1 7764   3.292   2.007  10.022 -0.4686  0.0058 -0.0087
  523MPD2    C2 7765   3.252   2.134  10.004 -0.5486  0.0466 -0.1773
  523MPD2    C3 7766   3.230   2.185   9.869  0.4385  1.2369  0.5888
  523MPD2    C4 7767   3.257   2.097   9.761 -0.3058  0.3999 -0.1295
  523MPD2    C5 7768   3.290   1.965   9.783 -0.5014 -0.5561  0.1375
  523MPD2     H 7769   3.243   2.203  10.087  1.0076 -1.4191  1.2017
  523MPD2    H1 7770   3.248   2.126   9.657  2.3099  0.0825 -0.4302
  523MPD2    H2 7771   3.330   1.817   9.917 -1.2003 -0.4935 -0.0053
  523MPD2    H3 7772   3.312   1.898   9.701  1.8996 -0.2079  0.4884
  523MPD2     N 7773   3.184   2.314   9.836 -0.1625  0.4387 -0.0275
  523MPD2    H5 7774   3.170   2.333   9.737 -1.7792  0.6436  0.2405
  523MPD2    N1 7775   3.318   1.942  10.147 -0.0903 -0.5626  0.2022
  523MPD2    H7 7776   3.331   1.841  10.143 -0.6450 -0.6573  0.8044
  524TMC3    C1 7777   3.094   2.533   9.876  0.0371 -0.2579  0.9230
  524TMC3    C2 7778   3.061   2.535   9.739 -0.1636  0.3934 -0.3583
  524TMC3    C3 7779   3.006   2.651   9.691  0.4254 -0.0901 -0.3569
  524TMC3    C4 7780   3.083   2.641   9.966 -0.6419  0.8688  0.5130
  524TMC3    C5 7781   3.028   2.750   9.911  0.6127 -0.4443  0.5980
  524TMC3    C6 7782   2.988   2.752   9.780 -0.2657 -0.2818  0.5937
  524TMC3     C 7783   3.128   2.404   9.929 -0.1226  0.3542 -0.5877
  524TMC3     O 7784   3.115   2.392  10.050 -0.2407  0.0797  0.4692
  524TMC3     H 7785   3.042   2.450   9.675  2.4737 -0.5834  0.1340
  524TMC3    H1 7786   3.118   2.639  10.068 -1.6147  0.8903  0.8420
  524TMC3    H2 7787   2.942   2.843   9.743  0.4885 -0.2716 -0.3296
  524TMC3    C7 7788   2.982   2.851  10.005 -0.1778 -0.1769  0.2632
  524TMC3    C8 7789   2.973   2.662   9.548  0.1548  0.5624 -0.1657
  524TMC3    O1 7790   2.972   2.820  10.123 -0.0064  0.0468  0.5766
  524TMC3    O2 7791   2.970   2.561   9.480  0.0999 -0.2213 -0.3180
  525MPD2     C 7792   1.759   3.467  14.649 -0.1100 -0.4335 -0.6540
  525MPD2    C1 7793   1.893   3.461  14.700 -0.6373  0.5087 -0.1530
  525MPD2    C2 7794   1.987   3.538  14.635  0.6641 -0.3155  0.1546
  525MPD2    C3 7795   1.954   3.622  14.525 -0.2797  0.3837  0.2693
  525MPD2    C4 7796   1.824   3.616  14.474  0.7599  1.0354 -0.7258
  525MPD2    C5 7797   1.736   3.535  14.534 -0.2517  0.1725 -0.5060
  525MPD2     H 7798   2.080   3.543  14.691  2.2113  0.9239 -2.5062
  525MPD2    H1 7799   1.793   3.659  14.379 -0.2341  0.7423 -0.5229
  525MPD2    H2 7800   1.680   3.402  14.685  0.5484  0.1981  1.8969
  525MPD2    H3 7801   1.635   3.529  14.497  0.6568 -0.1611 -2.9576
  525MPD2     N 7802   2.042   3.716  14.464  0.0760  0.3400 -0.1208
  525MPD2    H5 7803   1.996   3.780  14.400  0.7238 -0.3780 -1.2929
  525MPD2    N1 7804   1.935   3.380  14.814  0.2120  0.1513  0.8041
  525MPD2    H7 7805   2.032   3.383  14.842 -0.6258 -1.4875  3.8815
  526TMC3    C1 7806   1.904   3.206  14.978  0.5880 -0.2999  0.8613
  526TMC3    C2 7807   1.828   3.166  15.085  0.6391 -0.0104  0.4389
  526TMC3    C3 7808   1.893   3.098  15.184  0.3814  0.0613 -0.5183
  526TMC3    C4 7809   2.035   3.167  14.960  0.0622  0.4020 -0.0482
  526TMC3    C5 7810   2.091   3.092  15.055 -0.3950  0.0171 -0.1015
  526TMC3    C6 7811   2.019   3.063  15.170 -0.0675  0.1155  0.4220
  526TMC3     C 7812   1.844   3.301  14.888  0.9761 -0.5244  0.0786
  526TMC3     O 7813   1.723   3.300  14.883 -0.5331  0.3452 -0.7100
  526TMC3     H 7814   1.728   3.205  15.097  1.5380  2.3229  0.3860
  526TMC3    H1 7815   2.082   3.214  14.874  0.1467 -1.4031 -0.9825
  526TMC3    H2 7816   2.059   2.996  15.246 -1.0343 -0.7432  0.1721
  526TMC3    C7 7817   2.236   3.092  15.072 -0.5458  0.4674  0.2743
  526TMC3    C8 7818   1.861   3.142  15.318  0.0753 -0.3924 -0.2394
  526TMC3    O1 7819   2.270   3.078  15.188  0.9287 -0.1437 -0.4983
  526TMC3    O2 7820   1.952   3.160  15.396 -0.3267  0.2633  0.3457
  527MPD2     C 7821   0.592   0.864   1.569  0.0199  0.7159  0.7281
  527MPD2    C1 7822   0.643   0.958   1.482 -0.3218  0.2532 -0.0640
  527MPD2    C2 7823   0.757   0.941   1.411  0.5558  0.2019 -0.0311
  527MPD2    C3 7824   0.830   0.826   1.437  0.4031  0.0472 -0.1510
  527MPD2    C4 7825   0.784   0.740   1.530 -0.2286 -0.4764 -0.2839
  527MPD2    C5 7826   0.663   0.752   1.592  0.6439  0.2934 -0.5453
  527MPD2     H 7827   0.796   1.027   1.358  2.1880 -0.9551 -0.7211
  527MPD2    H1 7828   0.825   0.643   1.557 -0.3728 -0.4454  0.0442
  527MPD2    H2 7829   0.492   0.868   1.612 -0.3388  1.2098 -0.1600
  527MPD2    H3 7830   0.621   0.686   1.666 -0.3497  0.0417 -1.3345
  527MPD2     N 7831   0.960   0.810   1.370  0.0102  0.1273  0.1212
  527MPD2    H5 7832   0.985   0.885   1.307 -1.3320  0.3673 -0.1303
  527MPD2    N1 7833   0.583   1.083   1.469 -0.6567 -0.0857 -0.0535
  527MPD2    H7 7834   0.633   1.153   1.417  1.9743 -1.1343  1.0527
  528TMC3    C1 7835   0.466   1.276   1.524  0.7518  0.4551 -1.1915
  528TMC3    C2 7836   0.552   1.336   1.438 -0.7199  0.1712 -1.0379
  528TMC3    C3 7837   0.594   1.460   1.482  0.3839  0.2211 -0.0787
  528TMC3    C4 7838   0.403   1.341   1.630  0.0623  0.2266  0.4895
  528TMC3    C5 7839   0.442   1.462   1.661 -0.2942 -0.2951 -0.1623
  528TMC3    C6 7840   0.537   1.534   1.587  0.0112 -0.4760 -0.5784
  528TMC3     C 7841   0.476   1.133   1.545 -1.5007  0.1445 -0.4464
  528TMC3     O 7842   0.409   1.083   1.633 -0.0008 -0.7527 -0.3731
  528TMC3     H 7843   0.588   1.281   1.352  0.9498 -1.8845  0.9602
  528TMC3    H1 7844   0.327   1.286   1.684  0.2380  0.2331  0.7401
  528TMC3    H2 7845   0.563   1.635   1.616  0.1840 -0.7468  0.2046
  528TMC3    C7 7846   0.384   1.548   1.766 -0.2610 -0.4429 -0.6939
  528TMC3    C8 7847   0.738   1.447   1.506 -0.2506 -0.0538  0.3039
  528TMC3    O1 7848   0.381   1.670   1.742  0.2646  0.1593  0.7389
  528TMC3    O2 7849   0.776   1.480   1.617 -0.0953 -0.4777 -0.2918
  529MPD2     C 7850   3.025   4.425   1.222  0.4868  0.6918 -0.0753
  529MPD2    C1 7851   2.889   4.458   1.219 -0.4764  0.3276  0.2769
  529MPD2    C2 7852   2.844   4.540   1.113 -0.5841  0.5341 -0.6184
  529MPD2    C3 7853   2.927   4.576   1.009 -0.7429 -0.0137  0.0963
  529MPD2    C4 7854   3.065   4.545   1.017  0.0769 -0.2403  0.5884
  529MPD2    C5 7855   3.101   4.459   1.117 -0.0535 -0.6942  0.4411
  529MPD2     H 7856   2.736   4.553   1.110 -1.0486 -2.9550  1.3722
  529MPD2    H1 7857   3.133   4.561   0.934 -0.0129  0.0053  0.5630
  529MPD2    H2 7858   3.064   4.350   1.289 -1.1239 -0.1113 -0.0392
  529MPD2    H3 7859   3.202   4.419   1.111 -0.1796 -0.7149 -1.6367
  529MPD2     N 7860   2.873   4.653   0.901  0.0770  0.0084  0.2039
  529MPD2    H5 7861   2.944   4.671   0.830 -1.9188  2.6109 -1.1303
  529MPD2    N1 7862   2.802   4.415   1.321  0.6297 -0.4165  0.5788
  529MPD2    H7 7863   2.704   4.442   1.328  0.3742 -1.5210  1.0972
  530TMC3    C1 7864   2.731   4.300   1.512 -0.0411  0.4591 -0.3917
  530TMC3    C2 7865   2.761   4.264   1.644 -0.1129 -0.0009  0.3444
  530TMC3    C3 7866   2.668   4.199   1.715  0.4067  0.4846  0.2046
  530TMC3    C4 7867   2.620   4.247   1.450 -0.0640  0.4138 -0.1718
  530TMC3    C5 7868   2.533   4.168   1.524  0.2629  0.2139  0.8001
  530TMC3    C6 7869   2.550   4.151   1.655  0.1024  0.5243 -0.2584
  530TMC3     C 7870   2.840   4.355   1.434  0.7979  0.3138  0.3521
  530TMC3     O 7871   2.954   4.344   1.479  0.1326 -0.3299 -0.0605
  530TMC3     H 7872   2.847   4.309   1.690 -1.3210  0.6549  1.9596
  530TMC3    H1 7873   2.605   4.271   1.345 -1.0317  1.2020  0.1540
  530TMC3    H2 7874   2.483   4.091   1.716 -0.4762  1.5686  0.1241
  530TMC3    C7 7875   2.411   4.132   1.447 -0.2239  0.7522  0.1569
  530TMC3    C8 7876   2.680   4.185   1.861 -0.4709  0.2520  0.3143
  530TMC3    O1 7877   2.398   4.164   1.330  0.3000  0.1214  0.8698
  530TMC3    O2 7878   2.580   4.202   1.926  0.1264 -0.4391 -0.0132
  531MPD2     C 7879   1.472   2.902  12.780  0.4901  0.1941  0.7530
  531MPD2    C1 7880   1.402   2.952  12.892  0.0783 -0.5708  0.1240
  531MPD2    C2 7881   1.269   2.920  12.908  0.3956  0.1428 -0.5719
  531MPD2    C3 7882   1.214   2.832  12.819 -0.6372 -0.5448  0.0904
  531MPD2    C4 7883   1.286   2.769  12.716  0.4093  0.3779 -0.2680
  531MPD2    C5 7884   1.414   2.813  12.694  0.5881  0.7139 -0.1051
  531MPD2     H 7885   1.202   2.961  12.983  0.1984 -2.8852  0.8906
  531MPD2    H1 7886   1.236   2.698  12.651 -1.5148  0.0807  1.5501
  531MPD2    H2 7887   1.573   2.926  12.749  0.2405 -2.2595 -1.9557
  531MPD2    H3 7888   1.465   2.785  12.602  2.0869  2.9171  0.0518
  531MPD2     N 7889   1.085   2.788  12.852  0.0570 -0.3979 -0.1748
  531MPD2    H5 7890   1.045   2.807  12.943 -0.5896  0.1713 -0.5722
  531MPD2    N1 7891   1.468   3.033  12.984 -0.3689 -0.1118 -0.1490
  531MPD2    H7 7892   1.566   3.047  12.962 -0.8313 -0.1812 -2.2834
  532TMC3    C1 7893   1.498   3.131  13.203 -0.2113 -0.2625 -0.3110
  532TMC3    C2 7894   1.440   3.205  13.301  0.7225 -0.0997 -0.1881
  532TMC3    C3 7895   1.480   3.186  13.432  0.9899  0.7076 -0.2188
  532TMC3    C4 7896   1.604   3.045  13.236 -0.5757 -0.5009  0.4518
  532TMC3    C5 7897   1.639   3.037  13.367 -0.5303 -0.1357  0.6080
  532TMC3    C6 7898   1.588   3.109  13.469 -0.1002  0.0038 -0.3523
  532TMC3     C 7899   1.411   3.086  13.101 -0.3708 -0.3996  0.1331
  532TMC3     O 7900   1.291   3.087  13.125 -0.5966 -0.6069 -0.1629
  532TMC3     H 7901   1.374   3.281  13.263  2.1743  2.2877  2.0777
  532TMC3    H1 7902   1.663   3.005  13.154  1.4625  0.2660  1.5611
  532TMC3    H2 7903   1.599   3.075  13.571 -0.3883  0.2924 -0.2261
  532TMC3    C7 7904   1.705   2.909  13.403 -0.6868  0.2396 -0.5243
  532TMC3    C8 7905   1.368   3.156  13.515 -0.9129  0.4996  0.1960
  532TMC3    O1 7906   1.771   2.911  13.506 -0.4428 -0.4186 -0.4330
  532TMC3    O2 7907   1.374   3.156  13.638  0.1737 -0.2350  0.2577
  533TMC3    C1 7908   2.222   3.870  14.461 -0.3310 -0.4798 -0.0599
  533TMC3    C2 7909   2.360   3.886  14.488 -0.0756 -0.0842 -0.5402
  533TMC3    C3 7910   2.390   4.010  14.532  0.4555  0.6186  0.7682
  533TMC3    C4 7911   2.125   3.966  14.474  0.0323 -0.7486  0.2985
  533TMC3    C5 7912   2.170   4.089  14.517  0.0003 -0.2236 -0.1468
  533TMC3    C6 7913   2.303   4.113  14.539 -0.4543 -0.3024 -0.2785
  533TMC3     C 7914   2.169   3.738  14.494 -0.5169 -0.9710 -0.2727
  533TMC3     O 7915   2.246   3.662  14.551 -0.3234  0.7285  0.2446
  533TMC3     H 7916   2.425   3.800  14.484 -0.6236 -0.5865  1.5677
  533TMC3    H1 7917   2.018   3.955  14.461  0.4755 -3.3578 -1.0538
  533TMC3    H2 7918   2.337   4.212  14.564  0.3017 -0.6403  0.0514
  533TMC3    C7 7919   2.087   4.125  14.632 -1.0461 -0.2552  0.6094
  533TMC3    C8 7920   2.526   4.054  14.546 -0.1206 -0.2776 -0.1131
  533TMC3    O1 7921   2.004   4.042  14.666 -0.2660  0.1005 -0.2337
  533TMC3    O2 7922   2.549   4.173  14.532  0.5547 -0.0125 -0.2099
  534MPD2     C 7923   0.147   0.460   2.664 -0.1243  0.0192  0.1215
  534MPD2    C1 7924   0.103   0.473   2.540  0.1340  0.3800 -0.4279
  534MPD2    C2 7925   4.718   0.405   2.484 -0.0661 -0.1136  1.0464
  534MPD2    C3 7926   4.649   0.311   2.565  0.3577 -0.0144  0.0497
  534MPD2    C4 7927   4.703   0.288   2.691  0.0663 -0.6081 -0.3376
  534MPD2    C5 7928   0.079   0.365   2.740  0.4176 -0.1062 -0.3249
  534MPD2     H 7929   4.694   0.414   2.379 -1.1086 -0.3239  1.2663
  534MPD2    H1 7930   4.648   0.224   2.759 -1.3206  0.2996 -0.6051
  534MPD2    H2 7931   0.227   0.517   2.710  2.1634 -0.8509 -2.8065
  534MPD2    H3 7932   0.093   0.355   2.847 -0.0783 -1.0151 -0.3365
  534MPD2     N 7933   4.541   0.232   2.514  0.2513  0.0762  0.3988
  534MPD2    H5 7934   4.517   0.267   2.421 -0.8315 -1.3796  0.1449
  534MPD2    N1 7935   0.162   0.572   2.452  0.0313  0.1581  0.2840
  534MPD2    H7 7936   0.112   0.593   2.365  0.6183  0.4175  0.0143
  535TMC3    C1 7937   4.397   0.057   2.489 -0.3994 -0.3690  0.2612
  535TMC3    C2 7938   4.285   4.720   2.529 -0.5114  0.7962 -0.6819
  535TMC3    C3 7939   4.220   4.637   2.443  0.2538 -0.4907  0.1395
  535TMC3    C4 7940   4.454   0.045   2.360  0.2066 -0.6349 -0.1051
  535TMC3    C5 7941   4.372   4.702   2.273  0.6869  0.7280  0.2442
  535TMC3    C6 7942   4.268   4.625   2.315  0.7611 -0.6912 -0.0921
  535TMC3     C 7943   4.476   0.131   2.585  0.0130  0.0953 -0.4929
  535TMC3     O 7944   4.485   0.085   2.694  0.6380 -0.0076  0.8609
  535TMC3     H 7945   4.251   0.018   2.629  1.2110  0.2758  0.0259
  535TMC3    H1 7946   4.544   0.093   2.325  1.2633 -2.3718  0.2610
  535TMC3    H2 7947   4.209   4.563   2.248 -2.2766  0.1202  1.8358
  535TMC3    C7 7948   4.411   4.719   2.132 -0.6947 -0.0649  0.3092
  535TMC3    C8 7949   4.097   4.572   2.474  0.5038 -0.7902  0.6293
  535TMC3    O1 7950   4.531   0.009   2.104 -0.3863  0.2369  0.2518
  535TMC3    O2 7951   4.037   4.547   2.370 -0.8841  0.2126 -0.2596
  536MPD2     C 7952   3.673   3.579  16.416  0.2764  0.7889  0.1754
  536MPD2    C1 7953   3.576   3.495  16.465  0.1287 -0.6511 -0.5241
  536MPD2    C2 7954   3.470   3.466  16.374 -0.6038 -0.1086 -1.0330
  536MPD2    C3 7955   3.459   3.529  16.251  0.2252  1.3323 -0.6517
  536MPD2    C4 7956   3.569   3.611  16.209  0.7278 -0.3642 -0.3445
  536MPD2    C5 7957   3.677   3.633  16.289 -0.1651  0.6214 -0.2474
  536MPD2     H 7958   3.395   3.397  16.410  1.6652 -1.9748  0.1682
  536MPD2    H1 7959   3.573   3.659  16.112 -2.8812  0.2800 -0.2113
  536MPD2    H2 7960   3.757   3.608  16.477  0.7125 -0.5307  0.2041
  536MPD2    H3 7961   3.760   3.700  16.269  1.0473 -1.6324 -2.6663
  536MPD2     N 7962   3.347   3.503  16.163  0.2065  0.1853  0.6860
  536MPD2    H5 7963   3.358   3.531  16.066 -0.8003 -0.8247  0.2727
  536MPD2    N1 7964   3.573   3.453  16.595  0.4871  0.9243  0.1829
  536MPD2    H7 7965   3.652   3.472  16.655  1.4829 -0.3310 -0.7434
  537TMC3    C1 7966   3.509   3.318  16.777  0.2910  0.2511  0.2355
  537TMC3    C2 7967   3.542   3.408  16.873  0.0297  0.5338 -0.5290
  537TMC3    C3 7968   3.501   3.381  17.003 -1.1369  0.5931 -0.2948
  537TMC3    C4 7969   3.439   3.204  16.806  0.0440 -0.3175  0.0611
  537TMC3    C5 7970   3.421   3.178  16.937 -0.5978 -0.3189 -0.3734
  537TMC3    C6 7971   3.438   3.265  17.044  0.0845  0.0859 -1.0127
  537TMC3     C 7972   3.476   3.371  16.648 -0.2923 -0.5323 -0.0750
  537TMC3     O 7973   3.364   3.341  16.618  0.3166  0.2319 -0.3200
  537TMC3     H 7974   3.594   3.497  16.841  2.5286 -1.3850 -1.8328
  537TMC3    H1 7975   3.427   3.125  16.731 -0.4616  0.7006 -0.9309
  537TMC3    H2 7976   3.405   3.244  17.145  1.0971  0.9037 -0.5221
  537TMC3    C7 7977   3.327   3.067  16.961  0.5248  0.2960  0.6970
  537TMC3    C8 7978   3.505   3.482  17.109  0.0492  0.6333  0.3362
  537TMC3    O1 7979   3.241   3.044  16.874 -0.1391 -0.0986  0.1810
  537TMC3    O2 7980   3.509   3.431  17.221 -0.3507  0.6435 -0.4473
  538TMC3    C1 7981   3.973   1.973  11.113  0.4575  0.5976 -0.5653
  538TMC3    C2 7982   4.106   1.983  11.087  0.4862  0.1447 -0.1029
  538TMC3    C3 7983   4.137   2.005  10.957  0.7012 -0.5233  0.4549
  538TMC3    C4 7984   3.875   2.016  11.029 -0.3882 -0.8854 -0.1787
  538TMC3    C5 7985   3.915   2.072  10.906  0.6531  0.3167  0.3557
  538TMC3    C6 7986   4.052   2.069  10.869  0.0920  0.0673 -0.1609
  538TMC3     C 7987   3.924   1.985  11.250  0.3945  0.2997 -0.3152
  538TMC3     O 7988   3.809   2.026  11.262  0.2305 -0.3627  0.3670
  538TMC3     H 7989   4.181   1.948  11.157  0.4904  0.4787  0.0575
  538TMC3    H1 7990   3.769   2.006  11.051 -0.4689 -1.1506 -0.6723
  538TMC3    H2 7991   4.092   2.099  10.773  0.5363  0.6246  0.2023
  538TMC3    C7 7992   3.822   2.127  10.805 -0.5376 -0.2831 -0.2613
  538TMC3    C8 7993   4.285   2.017  10.939  0.0241  0.1284 -0.0796
  538TMC3    O1 7994   3.876   2.140  10.697  0.5740 -0.1587 -0.1976
  538TMC3    O2 7995   4.352   1.960  11.026  0.4477 -0.1765  0.7966
  539MPD2     C 7996   3.464   1.096  12.113 -0.2765  0.3722  0.4504
  539MPD2    C1 7997   3.507   1.140  11.991  0.3820  0.4925 -0.6945
  539MPD2    C2 7998   3.443   1.250  11.932 -0.0427  0.1098  0.6720
  539MPD2    C3 7999   3.354   1.330  12.002 -0.2127 -0.0116 -0.6445
  539MPD2    C4 8000   3.317   1.285  12.132  0.2802  0.1768  0.8043
  539MPD2    C5 8001   3.377   1.171  12.187 -0.1454 -0.7180 -0.0581
  539MPD2     H 8002   3.468   1.288  11.833 -1.7750 -0.6879 -0.0766
  539MPD2    H1 8003   3.250   1.342  12.196 -0.0144  1.1035 -0.3472
  539MPD2    H2 8004   3.503   1.007  12.162  0.9049  0.1596 -0.8869
  539MPD2    H3 8005   3.360   1.137  12.289 -0.9030 -0.2801 -0.0420
  539MPD2     N 8006   3.297   1.450  11.957  0.0261 -0.2368 -0.6748
  539MPD2    H5 8007   3.223   1.495  12.010  2.1592  0.8098  1.4111
  539MPD2    N1 8008   3.607   1.071  11.925 -0.0967  0.9398  0.5871
  539MPD2    H7 8009   3.633   1.102  11.832 -1.4492  0.7121  0.1459
  540TMC3    C1 8010   3.257   1.650  11.858 -0.1326 -0.3217  0.2033
  540TMC3    C2 8011   3.257   1.710  11.735  0.0884 -0.3814 -0.6662
  540TMC3    C3 8012   3.180   1.824  11.731  0.3708 -0.3384 -0.2730
  540TMC3    C4 8013   3.213   1.704  11.975 -0.5612  0.7025  0.0756
  540TMC3    C5 8014   3.146   1.824  11.958  0.6242  0.0448  0.7655
  540TMC3    C6 8015   3.122   1.880  11.838  0.5886 -0.1324  0.5380
  540TMC3     C 8016   3.323   1.520  11.848 -0.2960  0.3294  0.1599
  540TMC3     O 8017   3.412   1.498  11.766  0.3953  0.1243 -0.0212
  540TMC3     H 8018   3.316   1.673  11.651  1.9477 -1.4120  1.0957
  540TMC3    H1 8019   3.223   1.658  12.073 -0.3146  0.2498 -0.1622
  540TMC3    H2 8020   3.099   1.985  11.822  2.4170  0.7258  3.5445
  540TMC3    C7 8021   3.049   1.846  12.064 -0.4933 -0.4122  0.5182
  540TMC3    C8 8022   3.201   1.894  11.607  0.1580 -0.2525  0.4529
  540TMC3    O1 8023   2.939   1.876  12.035 -0.3896 -0.2078  0.1927
  540TMC3    O2 8024   3.220   2.014  11.606 -0.7691 -0.0142 -0.0118
  541MPD2     C 8025   2.249   2.638  13.666 -0.0009  0.4557 -0.8243
  541MPD2    C1 8026   2.360   2.647  13.584  0.2150  0.0015 -0.8043
  541MPD2    C2 8027   2.352   2.727  13.470  0.7225  0.6031  0.0715
  541MPD2    C3 8028   2.230   2.774  13.427  0.7363  0.0881 -0.2775
  541MPD2    C4 8029   2.122   2.759  13.504  0.7910 -0.1345 -0.8991
  541MPD2    C5 8030   2.134   2.691  13.619 -0.2538 -0.3211  0.3236
  541MPD2     H 8031   2.439   2.734  13.406  1.1157 -1.0986  0.3958
  541MPD2    H1 8032   2.019   2.788  13.488 -0.1947 -2.2037  1.7555
  541MPD2    H2 8033   2.250   2.580  13.758 -0.8574 -0.4349 -1.3729
  541MPD2    H3 8034   2.039   2.669  13.666 -0.6860 -1.0793 -0.9357
  541MPD2     N 8035   2.211   2.821  13.294 -0.4554 -0.1420  0.1879
  541MPD2    H5 8036   2.286   2.799  13.229  1.0268 -1.9020  2.4856
  541MPD2    N1 8037   2.476   2.595  13.635  0.7710 -0.3168  0.1667
  541MPD2    H7 8038   2.455   2.521  13.701 -1.2255 -0.1664 -0.3090
  542TMC3    C1 8039   2.065   2.859  13.114  1.3388 -0.2325  0.2736
  542TMC3    C2 8040   2.137   2.764  13.044 -0.4171 -0.4924  0.1178
  542TMC3    C3 8041   2.105   2.758  12.910 -0.4724 -0.1431  0.3453
  542TMC3    C4 8042   1.960   2.926  13.059 -0.0885  0.3309  0.1831
  542TMC3    C5 8043   1.932   2.912  12.930  0.1882 -0.6720  0.1857
  542TMC3    C6 8044   2.010   2.832  12.849 -0.3147 -0.5295  0.0411
  542TMC3     C 8045   2.095   2.881  13.253 -0.8665 -0.1625 -0.7060
  542TMC3     O 8046   2.014   2.947  13.317 -0.1260  0.2195 -0.0818
  542TMC3     H 8047   2.203   2.691  13.090 -1.4675 -0.2718  1.9829
  542TMC3    H1 8048   1.900   2.991  13.122  0.4330  1.2816 -0.2997
  542TMC3    H2 8049   1.988   2.827  12.742 -2.2604 -2.4718  0.5335
  542TMC3    C7 8050   1.843   3.011  12.872  0.5959 -0.0582 -0.0585
  542TMC3    C8 8051   2.173   2.666  12.815  0.0978 -0.1738  0.6190
  542TMC3    O1 8052   1.751   3.040  12.946  0.2249  0.1278  0.2936
  542TMC3    O2 8053   2.168   2.697  12.698 -0.1068  0.1713 -0.1807
  543TMC3    C1 8054   1.923   4.272  17.517  0.6034  0.3044  0.0624
  543TMC3    C2 8055   1.855   4.153  17.522  0.7288 -0.2063 -0.4038
  543TMC3    C3 8056   1.896   4.052  17.604 -0.4146  0.5061  0.2763
  543TMC3    C4 8057   2.024   4.306  17.600 -0.4497  0.1033 -0.2007
  543TMC3    C5 8058   2.062   4.199  17.678  0.0735 -0.5788  0.3804
  543TMC3    C6 8059   2.000   4.081  17.686 -0.4837  0.4128 -0.1028
  543TMC3     C 8060   1.936   4.308  17.378  0.2423  0.3093  0.7334
  543TMC3     O 8061   1.880   4.409  17.338  0.1886  0.0050 -0.3132
  543TMC3     H 8062   1.795   4.134  17.433 -2.5069 -0.2913  1.7662
  543TMC3    H1 8063   2.077   4.399  17.584 -0.0964  0.5527  3.6547
  543TMC3    H2 8064   2.043   4.002   0.050 -0.6857  1.0186  0.8080
  543TMC3    C7 8065   2.198   4.193   0.027  0.0318  0.4400  0.1855
  543TMC3    C8 8066   1.894   3.917  17.556  0.2631  0.2967  0.6404
  543TMC3    O1 8067   2.215   4.117   0.117 -0.4824  0.3954  0.3213
  543TMC3    O2 8068   1.993   3.856  17.592 -0.4083  0.3707  0.7418
  544MPD2     C 8069   1.695   3.510  17.286  0.9667  0.4027 -0.3662
  544MPD2    C1 8070   1.824   3.544  17.324 -0.0347 -0.0228 -0.3839
  544MPD2    C2 8071   1.848   3.661  17.395  0.6162 -0.2167  0.8279
  544MPD2    C3 8072   1.754   3.762  17.416 -0.8880 -0.2132  0.2352
  544MPD2    C4 8073   1.629   3.727  17.359  0.1232 -0.6832  0.9749
  544MPD2    C5 8074   1.597   3.609  17.300 -0.4276  0.2488  0.2018
  544MPD2     H 8075   1.951   3.684  17.421  1.9484 -2.9027 -2.2674
  544MPD2    H1 8076   1.543   3.793  17.363  2.1866  1.9865  1.0479
  544MPD2    H2 8077   1.668   3.412  17.248 -0.0107  0.0703  1.1309
  544MPD2    H3 8078   1.498   3.578  17.267 -1.4665  2.1303  1.5359
  544MPD2     N 8079   1.780   3.886  17.481 -0.4546  0.0138 -0.3777
  544MPD2    H5 8080   1.718   3.967  17.479 -1.0449 -0.3676  2.0035
  544MPD2    N1 8081   1.928   3.444  17.307 -0.2332  0.8756 -0.1881
  544MPD2    H7 8082   1.891   3.354  17.279 -0.3425  1.0810 -0.7021
  545TMC3    C1 8083   2.149   3.369  17.274  0.7822 -0.7957  0.1066
  545TMC3    C2 8084   2.265   3.389  17.205 -0.4201 -0.4432 -0.6966
  545TMC3    C3 8085   2.351   3.290  17.212  0.5673  0.0160  0.1359
  545TMC3    C4 8086   2.106   3.251  17.333 -0.2296 -0.3981 -0.3808
  545TMC3    C5 8087   2.207   3.163  17.342  0.0666 -0.7050 -0.0196
  545TMC3    C6 8088   2.332   3.171  17.281  0.0908 -0.2710  0.4032
  545TMC3     C 8089   2.057   3.485  17.277  0.0482  0.0861 -0.2536
  545TMC3     O 8090   2.104   3.594  17.243 -0.2994  0.1132  0.0551
  545TMC3     H 8091   2.291   3.478  17.148 -2.0681  0.1919 -0.4735
  545TMC3    H1 8092   2.011   3.235  17.382 -0.7561  1.8198 -0.6523
  545TMC3    H2 8093   2.400   3.087  17.281  0.9927  0.4682  1.4276
  545TMC3    C7 8094   2.175   3.037  17.413  1.2055 -0.3402 -0.2162
  545TMC3    C8 8095   2.473   3.305  17.135  0.1929 -0.3226 -0.1723
  545TMC3    O1 8096   2.057   3.005  17.414  0.6673 -0.0614 -0.2284
  545TMC3    O2 8097   2.472   3.372  17.036 -0.3336  0.0864  0.1730
  546MPD2     C 8098   3.386   3.822   0.263  0.0501 -0.4161  0.0404
  546MPD2    C1 8099   3.383   3.814   0.128 -0.1758 -0.2634  0.1649
  546MPD2    C2 8100   3.405   3.928   0.055 -0.0679 -0.4348 -0.8038
  546MPD2    C3 8101   3.424   4.048   0.122 -0.5393  0.5227 -0.3986
  546MPD2    C4 8102   3.427   4.058   0.258 -0.3287  0.3498 -0.6163
  546MPD2    C5 8103   3.407   3.941   0.330  1.1370  0.8978 -0.4995
  546MPD2     H 8104   3.405   3.925  17.644 -2.4736  1.3524 -0.8519
  546MPD2    H1 8105   3.454   4.147   0.314  0.4176  1.8572 -3.3819
  546MPD2    H2 8106   3.377   3.727   0.314 -0.9254  0.3304  1.2460
  546MPD2    H3 8107   3.415   3.942   0.438  2.4763  0.3845 -0.6014
  546MPD2     N 8108   3.457   4.168   0.061 -0.1003 -0.1460 -0.0765
  546MPD2    H5 8109   3.477   4.237   0.133  1.6032 -0.6080 -0.1191
  546MPD2    N1 8110   3.350   3.683   0.080 -0.3093  0.5447  0.4193
  546MPD2    H7 8111   3.344   3.607   0.147  2.2356  2.6161  2.9637
  547TMC3    C1 8112   3.265   3.510  17.642 -0.4778 -0.2860 -0.3187
  547TMC3    C2 8113   3.174   3.501  17.533 -0.5918  0.6053 -0.1578
  547TMC3    C3 8114   3.060   3.424  17.553  0.2364 -0.2012  0.7724
  547TMC3    C4 8115   3.258   3.446   0.060  0.5184  0.4095 -0.2854
  547TMC3    C5 8116   3.157   3.355   0.064 -0.1434 -0.5345 -0.0226
  547TMC3    C6 8117   3.057   3.342  17.667  0.0334  0.3080 -0.8312
  547TMC3     C 8118   3.324   3.644  17.649 -0.2282 -0.6685  0.4593
  547TMC3     O 8119   3.294   3.717  17.556 -0.3589  0.4086  0.4443
  547TMC3     H 8120   3.180   3.564  17.445 -0.1243 -0.2118 -0.7133
  547TMC3    H1 8121   3.325   3.450   0.144  0.8919  3.0221 -0.7202
  547TMC3    H2 8122   2.974   3.273  17.676 -0.1468  0.7601  0.8465
  547TMC3    C7 8123   3.129   3.295   0.192  0.0154  0.9357  0.3247
  547TMC3    C8 8124   2.945   3.452  17.464  0.4280  0.0946 -0.7942
  547TMC3    O1 8125   3.012   3.287   0.223 -0.2934  0.3397  0.0072
  547TMC3    O2 8126   2.975   3.503  17.354  0.2802  0.2178 -0.0510
  548MPD2     C 8127   2.786   4.514  12.548  0.5316  0.7794 -0.6256
  548MPD2    C1 8128   2.702   4.406  12.523 -0.1741  0.3759  0.9710
  548MPD2    C2 8129   2.753   4.276  12.503  0.8017  0.3213 -0.8058
  548MPD2    C3 8130   2.888   4.256  12.527 -0.4278 -1.3232  0.5529
  548MPD2    C4 8131   2.968   4.360  12.572 -0.6644  0.6929  1.4873
  548MPD2    C5 8132   2.920   4.485  12.558 -0.2896  0.3063 -0.3081
  548MPD2     H 8133   2.683   4.196  12.481  3.9927 -1.9589 -2.5018
  548MPD2    H1 8134   3.072   4.344  12.597  0.0010  0.8762 -1.1749
  548MPD2    H2 8135   2.749   4.613  12.567 -1.3831  0.7542 -4.1020
  548MPD2    H3 8136   2.992   4.561  12.588 -0.6828  1.1481 -1.4972
  548MPD2     N 8137   2.949   4.129  12.510  0.1841  0.1392 -0.0917
  548MPD2    H5 8138   3.047   4.111  12.530 -0.3079 -0.7161  1.4460
  548MPD2    N1 8139   2.563   4.434  12.529  0.1529 -0.5425 -0.4386
  548MPD2    H7 8140   2.533   4.528  12.555  0.8293 -0.5163  0.2606
  549TMC3    C1 8141   2.329   4.400  12.541 -0.2546 -0.4162  0.7669
  549TMC3    C2 8142   2.283   4.505  12.468  0.4796 -0.4641  0.0600
  549TMC3    C3 8143   2.146   4.519  12.446 -0.1405 -0.0648 -0.5505
  549TMC3    C4 8144   2.243   4.302  12.575  0.1638 -0.8400  0.1530
  549TMC3    C5 8145   2.110   4.309  12.527 -0.2768 -0.2601  0.6368
  549TMC3    C6 8146   2.056   4.419  12.467  0.4328 -0.9464 -0.5961
  549TMC3     C 8147   2.460   4.347  12.508  0.0436  0.8675  0.6041
  549TMC3     O 8148   2.455   4.233  12.466 -0.0519 -0.1349 -0.5057
  549TMC3     H 8149   2.351   4.575  12.422 -1.7910  1.8657  0.2928
  549TMC3    H1 8150   2.278   4.214  12.627  0.6144 -0.5996  0.2583
  549TMC3    H2 8151   1.951   4.437  12.447  0.1426  0.5861  2.2370
  549TMC3    C7 8152   2.045   4.177  12.534  0.2172 -0.0458  0.5094
  549TMC3    C8 8153   2.086   4.634  12.373 -0.4546 -0.0384 -0.2030
  549TMC3    O1 8154   2.100   4.087  12.598  0.3332  0.1067 -0.2028
  549TMC3    O2 8155   1.996   4.612  12.297  0.4028 -0.4079  0.7733
  550TMC3    C1 8156   1.153   2.557  11.533 -0.6450  0.1718 -0.2369
  550TMC3    C2 8157   1.191   2.572  11.666  0.0915  0.2115  0.5802
  550TMC3    C3 8158   1.134   2.670  11.732 -0.0703 -0.5089 -0.1024
  550TMC3    C4 8159   1.053   2.627  11.473 -0.4486  0.3503  0.3070
  550TMC3    C5 8160   0.993   2.727  11.548 -0.0920  0.0459  0.4578
  550TMC3    C6 8161   1.043   2.759  11.673  0.7271 -0.1795 -0.0280
  550TMC3     C 8162   1.223   2.465  11.450  0.1952 -0.1998 -0.3368
  550TMC3     O 8163   1.278   2.368  11.505 -0.2528  0.4781  0.4486
  550TMC3     H 8164   1.272   2.522  11.718 -0.4409 -0.4462  0.7844
  550TMC3    H1 8165   1.017   2.601  11.373  2.2092  0.0044 -0.5451
  550TMC3    H2 8166   0.990   2.838  11.726  0.7640 -0.9179  1.1021
  550TMC3    C7 8167   0.890   2.810  11.491  0.0724  0.5056 -0.0746
  550TMC3    C8 8168   1.202   2.736  11.835  0.5126 -0.3355  0.0955
  550TMC3    O1 8169   0.872   2.812  11.367  1.0400 -0.0321  0.1291
  550TMC3    O2 8170   1.205   2.859  11.826  0.6602  0.2679  0.1691
  551TMC3    C1 8171   3.740   4.637  13.778 -0.3620 -0.0305 -0.4334
  551TMC3    C2 8172   3.849   4.629  13.694  1.0593 -0.4583  0.5826
  551TMC3    C3 8173   3.959   4.708  13.726 -0.5800  0.1417  0.1178
  551TMC3    C4 8174   3.742   4.724  13.886 -0.7206  0.2292 -0.1476
  551TMC3    C5 8175   3.862   0.058  13.922  0.2662 -0.4300 -0.0616
  551TMC3    C6 8176   3.971   0.059  13.840  0.3806  0.3231  0.1805
  551TMC3     C 8177   3.620   4.605  13.699 -0.2987  0.5049  0.5601
  551TMC3     O 8178   3.634   4.581  13.581 -0.1024 -0.2522  0.7509
  551TMC3     H 8179   3.851   4.560  13.611 -0.1299 -1.1258  1.1031
  551TMC3    H1 8180   3.648   0.033  13.928 -0.7429  0.4745 -0.3878
  551TMC3    H2 8181   4.052   0.127  13.865 -1.8063  2.2867  1.9255
  551TMC3    C7 8182   3.877   0.117  14.049  0.2228 -0.1796  0.4304
  551TMC3    C8 8183   4.062   4.714  13.633 -0.4562  0.3848  0.4223
  551TMC3    O1 8184   3.963   0.200  14.066  0.2292 -0.9577 -0.2377
  551TMC3    O2 8185   4.062   4.624  13.549 -0.1297 -0.5533 -0.3425
  552MPD2     C 8186   1.304   2.386  13.977  0.1667  0.1248 -0.0917
  552MPD2    C1 8187   1.433   2.377  13.929  0.0650 -0.3099 -0.0945
  552MPD2    C2 8188   1.537   2.415  14.005  0.4025  0.3053 -0.4252
  552MPD2    C3 8189   1.524   2.441  14.140 -0.0458 -0.2558 -0.1106
  552MPD2    C4 8190   1.401   2.420  14.196  0.4673  0.4206 -0.4237
  552MPD2    C5 8191   1.290   2.399  14.116 -0.7028 -0.2488 -0.5638
  552MPD2     H 8192   1.634   2.415  13.957  0.2685 -2.7155 -0.6843
  552MPD2    H1 8193   1.388   2.412  14.303 -0.5018 -0.0839 -0.5830
  552MPD2    H2 8194   1.222   2.356  13.914 -0.7645  1.3000  0.5613
  552MPD2    H3 8195   1.191   2.395  14.160  0.4473  0.3470  2.0689
  552MPD2     N 8196   1.637   2.483  14.225 -0.1413 -0.4103 -0.1257
  552MPD2    H5 8197   1.607   2.507  14.319  1.8747 -2.3547  0.9873
  552MPD2    N1 8198   1.454   2.349  13.786 -0.1632  0.1975 -0.3805
  552MPD2    H7 8199   1.549   2.353  13.751 -0.0279  1.7374  0.1507
  553TMC3    C1 8200   1.414   2.288  13.554  0.8848  0.0535 -0.2038
  553TMC3    C2 8201   1.363   2.347  13.443 -0.2435  0.3137 -0.6515
  553TMC3    C3 8202   1.445   2.361  13.334  0.4886  0.1473 -0.2204
  553TMC3    C4 8203   1.539   2.236  13.555 -0.1581 -0.0496 -0.2800
  553TMC3    C5 8204   1.616   2.251  13.443  0.1433  0.2304 -0.2036
  553TMC3    C6 8205   1.573   2.316  13.329 -0.2013  0.7179  0.2045
  553TMC3     C 8206   1.357   2.326  13.689 -0.6536 -0.0336  0.1106
  553TMC3     O 8207   1.232   2.322  13.694  0.1242  0.1104 -0.0534
  553TMC3     H 8208   1.264   2.392  13.450  0.0260  0.9788 -1.1659
  553TMC3    H1 8209   1.572   2.184  13.644 -0.1248 -2.0728 -1.4745
  553TMC3    H2 8210   1.631   2.309  13.238  1.5245 -0.8804  1.4391
  553TMC3    C7 8211   1.736   2.170  13.429 -0.4852  0.9712  0.0668
  553TMC3    C8 8212   1.400   2.411  13.204  0.2379  0.2703  0.1823
  553TMC3    O1 8213   1.756   2.110  13.324  0.1670  0.0564 -0.2459
  553TMC3    O2 8214   1.478   2.463  13.127  0.8011  0.1704 -0.6715
  554TMC3    C1 8215   2.519   1.213  11.712  0.0806 -0.2778 -0.8616
  554TMC3    C2 8216   2.493   1.179  11.583  0.5047  1.0223  0.6812
  554TMC3    C3 8217   2.551   1.265  11.490 -0.5421 -0.0043  0.2352
  554TMC3    C4 8218   2.591   1.324  11.755  0.0941 -0.0063 -0.6630
  554TMC3    C5 8219   2.634   1.406  11.659 -0.2281 -0.0544 -0.3939
  554TMC3    C6 8220   2.622   1.380  11.530 -0.3593 -0.6430 -0.1279
  554TMC3     C 8221   2.460   1.120  11.813 -0.7886  0.4411  0.4343
  554TMC3     O 8222   2.383   1.040  11.771 -0.4400 -0.1697  0.0871
  554TMC3     H 8223   2.456   1.085  11.545  0.0377  1.0835  0.9880
  554TMC3    H1 8224   2.599   1.358  11.858 -3.1724  1.0975 -0.7739
  554TMC3    H2 8225   2.645   1.455  11.456  1.7396  0.3329  1.5212
  554TMC3    C7 8226   2.694   1.531  11.710  0.5001  0.1889 -1.1872
  554TMC3    C8 8227   2.517   1.253  11.351  0.8405  0.6176 -0.3407
  554TMC3    O1 8228   2.691   1.559  11.828  0.1113 -0.2931  1.0026
  554TMC3    O2 8229   2.574   1.321  11.270  0.1290  0.0003 -0.4593
  555TMC3    C1 8230   2.166   0.931  15.188 -0.1970  0.2474 -0.3787
  555TMC3    C2 8231   2.184   1.058  15.246  0.2373 -0.0480 -0.4701
  555TMC3    C3 8232   2.189   1.053  15.382 -0.2966 -1.0126 -0.3667
  555TMC3    C4 8233   2.177   0.814  15.253 -0.5055  0.5215  0.2517
  555TMC3    C5 8234   2.200   0.818  15.388  0.5429  0.1307  0.1046
  555TMC3    C6 8235   2.193   0.936  15.454  0.7251  0.2121  0.0801
  555TMC3     C 8236   2.191   0.919  15.052  0.3402 -0.2010  0.3774
  555TMC3     O 8237   2.241   0.811  15.014 -0.4146 -0.1585  1.0896
  555TMC3     H 8238   2.173   1.151  15.192  0.0673  0.7887  1.0274
  555TMC3    H1 8239   2.172   0.722  15.195  0.4832  0.9256 -0.4628
  555TMC3    H2 8240   2.218   0.933  15.559  0.3366 -1.6655  0.1250
  555TMC3    C7 8241   2.246   0.697  15.447 -0.2680 -0.3948 -0.0493
  555TMC3    C8 8242   2.194   1.179  15.458 -0.3215  0.2211 -0.4112
  555TMC3    O1 8243   2.255   0.693  15.567  0.0851 -0.4887 -0.5197
  555TMC3    O2 8244   2.153   1.271  15.391  0.0798 -0.5981 -1.0309
  556MPD2     C 8245   4.596   3.413  10.848 -0.1537 -0.1062  0.8136
  556MPD2    C1 8246   4.662   3.312  10.906  0.0835 -0.7712  0.2639
  556MPD2    C2 8247   4.676   3.187  10.838  0.0987 -0.1806 -0.1482
  556MPD2    C3 8248   4.628   3.174  10.708 -0.7147  0.3687 -0.0849
  556MPD2    C4 8249   4.573   3.280  10.641 -0.1686 -0.4093 -0.1192
  556MPD2    C5 8250   4.558   3.398  10.712 -0.7548  0.2756  0.4811
  556MPD2     H 8251   0.008   3.108  10.887  0.9869  1.5381  1.6026
  556MPD2    H1 8252   4.528   3.275  10.542 -0.0288 -1.4612 -0.1246
  556MPD2    H2 8253   4.575   3.504  10.902 -0.0281  1.6642 -2.0944
  556MPD2    H3 8254   4.503   3.474  10.657  0.4042 -0.1889 -1.3006
  556MPD2     N 8255   4.650   3.048  10.638  0.4490  0.6091  0.1774
  556MPD2    H5 8256   4.707   2.975  10.680 -1.5116 -2.4918 -2.5367
  556MPD2    N1 8257   0.003   3.329  11.034 -1.1883 -0.2505  0.2564
  556MPD2    H7 8258   0.049   3.245  11.065  0.7105 -0.0882 -2.0953
  557TMC3    C1 8259   4.637   2.885  10.468  0.6646 -0.1464  0.6128
  557TMC3    C2 8260   4.595   2.862  10.342  0.2597 -0.1727 -0.6402
  557TMC3    C3 8261   4.553   2.738  10.308 -0.4335 -0.1809 -0.9424
  557TMC3    C4 8262   4.641   2.784  10.559  0.0063 -0.7571  0.7611
  557TMC3    C5 8263   4.585   2.663  10.529 -0.0793  0.9444  0.4081
  557TMC3    C6 8264   4.545   2.638  10.402  0.0789 -0.3854 -0.1844
  557TMC3     C 8265   4.605   3.018  10.513  0.2923 -0.7666 -0.3194
  557TMC3     O 8266   4.545   3.076  10.428 -0.5427 -0.1700 -0.7179
  557TMC3     H 8267   4.593   2.940  10.267 -3.2758 -0.8575 -1.2740
  557TMC3    H1 8268   4.678   2.803  10.659  0.6352 -1.2959  0.6333
  557TMC3    H2 8269   4.514   2.535  10.384 -1.5931 -0.1203  1.1306
  557TMC3    C7 8270   4.631   2.553  10.611  0.7727 -0.1061  0.0347
  557TMC3    C8 8271   4.550   2.712  10.163  0.6144  0.4606 -0.0016
  557TMC3    O1 8272   0.016   2.563  10.669  0.0273  0.0285  0.4660
  557TMC3    O2 8273   4.614   2.779  10.089 -0.5884  1.0042  0.3240
  558TMC3    C1 8274   2.407   0.152  10.385  0.0362 -0.3036 -0.0809
  558TMC3    C2 8275   2.307   0.104  10.467  0.4292 -0.0517 -0.6588
  558TMC3    C3 8276   2.187   0.164  10.449 -0.8666 -0.3508 -0.9896
  558TMC3    C4 8277   2.389   0.259  10.298  0.5796  0.4918  0.2212
  558TMC3    C5 8278   2.266   0.317  10.288  0.2814  0.0154  0.3848
  558TMC3    C6 8279   2.159   0.266  10.360 -0.7472 -0.2600 -0.4657
  558TMC3     C 8280   2.541   0.124  10.420  0.1872 -0.1519 -0.4510
  558TMC3     O 8281   2.628   0.193  10.367 -0.7849  0.6586 -0.6745
  558TMC3     H 8282   2.310   0.012  10.524  0.1326  0.6783  0.5485
  558TMC3    H1 8283   2.474   0.306  10.252  2.1123 -1.6160  0.8948
  558TMC3    H2 8284   2.059   0.306  10.346 -0.8126 -0.3084 -0.1418
  558TMC3    C7 8285   2.253   0.421  10.197 -0.2225  0.5622  0.8333
  558TMC3    C8 8286   2.075   0.126  10.537  0.5686  0.1722  0.6557
  558TMC3    O1 8287   2.341   0.500  10.188 -0.4679  0.2604 -0.2697
  558TMC3    O2 8288   1.964   0.132  10.490  0.1894 -0.3426  0.1865
  559MPD2     C 8289   2.360   1.105  10.597 -0.0844 -0.2177  0.6780
  559MPD2    C1 8290   2.319   1.002  10.679 -0.9093 -0.3246 -0.2032
  559MPD2    C2 8291   2.416   0.926  10.741 -0.3403 -0.1411  0.5520
  559MPD2    C3 8292   2.551   0.975  10.747  0.3782 -0.4010  0.0344
  559MPD2    C4 8293   2.589   1.083  10.668  0.5375 -0.2187 -0.2436
  559MPD2    C5 8294   2.492   1.141  10.587 -0.2146 -0.2139  0.9854
  559MPD2     H 8295   2.391   0.835  10.795 -0.2842 -0.7893 -0.5194
  559MPD2    H1 8296   2.691   1.112  10.648  0.8936 -1.5720 -0.3586
  559MPD2    H2 8297   2.281   1.148  10.536 -0.9793 -2.1934  0.4556
  559MPD2    H3 8298   2.513   1.212  10.508 -1.3553 -0.5713  0.3581
  559MPD2     N 8299   2.644   0.900  10.820  0.0165 -0.5090 -1.3301
  559MPD2    H5 8300   2.603   0.820  10.868  0.9557 -2.1993 -3.3432
  559MPD2    N1 8301   2.183   0.962  10.683 -0.1741  0.1356  0.2169
  559MPD2    H7 8302   2.118   1.020  10.630 -0.6172  0.4964  1.1509
  560TMC3    C1 8303   2.853   0.835  10.904 -0.3506  0.2024 -0.1457
  560TMC3    C2 8304   2.834   0.702  10.891 -0.4046  0.3194 -0.5519
  560TMC3    C3 8305   2.911   0.612  10.959 -0.3460  0.1482  0.8230
  560TMC3    C4 8306   2.957   0.880  10.984 -0.3746 -0.3729 -0.0714
  560TMC3    C5 8307   3.021   0.784  11.062  0.7944 -0.1528 -0.0212
  560TMC3    C6 8308   3.002   0.651  11.047  0.3019  0.0435 -0.6172
  560TMC3     C 8309   2.765   0.940  10.856 -0.5817  0.1110  0.1620
  560TMC3     O 8310   2.815   1.054  10.837  0.8014  0.0428 -0.3045
  560TMC3     H 8311   2.756   0.675  10.820  0.7812  0.8508 -2.0549
  560TMC3    H1 8312   2.969   0.987  10.998 -0.7728 -0.3656  0.1926
  560TMC3    H2 8313   3.046   0.582  11.118  3.1320 -0.2477 -2.6770
  560TMC3    C7 8314   3.054   0.821  11.203 -0.7866 -0.3283 -0.9843
  560TMC3    C8 8315   2.846   0.481  10.978 -1.2074 -0.1293 -0.4034
  560TMC3    O1 8316   3.034   0.730  11.285  0.1905  0.2770  0.4036
  560TMC3    O2 8317   2.727   0.473  10.969  0.0182 -0.0237  0.6774
  561TMC3    C1 8318   0.253   4.699  11.366  0.5765  0.6932 -0.3342
  561TMC3    C2 8319   0.185   4.628  11.460  0.1709 -0.3417  0.7052
  561TMC3    C3 8320   0.126   4.684  11.567 -0.0289 -0.9779  0.4941
  561TMC3    C4 8321   0.253   0.116  11.377  0.6260 -0.5080 -0.7175
  561TMC3    C5 8322   0.191   0.171  11.486 -0.3336 -0.0227 -0.4650
  561TMC3    C6 8323   0.134   0.095  11.586 -0.0667 -0.7255 -0.9197
  561TMC3     C 8324   0.295   4.620  11.250 -0.1168 -0.8822 -0.0583
  561TMC3     O 8325   0.272   4.499  11.240  0.2485  0.0566 -0.4046
  561TMC3     H 8326   0.190   4.520  11.445 -2.2354 -0.6845  2.2862
  561TMC3    H1 8327   0.297   0.177  11.299 -1.4960  2.5444  0.4687
  561TMC3    H2 8328   0.105   0.140  11.681  1.0977 -0.3336 -0.7532
  561TMC3    C7 8329   0.183   0.315  11.501 -0.0248 -0.0859  0.0003
  561TMC3    C8 8330   0.073   4.592  11.667  0.2867 -0.2187 -0.3313
  561TMC3    O1 8331   0.110   0.356  11.590  0.5026  0.4398  0.3739
  561TMC3    O2 8332   0.091   4.469  11.653  0.8969 -0.1467 -0.5673
  562TMC3    C1 8333   1.810   1.712  16.235 -0.0340 -0.2677  0.4703
  562TMC3    C2 8334   1.721   1.811  16.188  0.2943  0.3239  0.2501
  562TMC3    C3 8335   1.667   1.795  16.066  0.8643  0.3457  0.1839
  562TMC3    C4 8336   1.847   1.602  16.163  0.0156 -0.1599 -0.1346
  562TMC3    C5 8337   1.789   1.600  16.035 -0.1771 -1.0218 -0.1062
  562TMC3    C6 8338   1.701   1.690  15.982  0.2663 -0.3207 -0.1168
  562TMC3     C 8339   1.860   1.725  16.376  0.3943 -0.0474  0.0504
  562TMC3     O 8340   1.786   1.778  16.460  0.0075 -0.0394  0.8016
  562TMC3     H 8341   1.683   1.886  16.256 -1.1006 -1.5807  1.5769
  562TMC3    H1 8342   1.923   1.535  16.202 -1.0279  0.6445  3.2501
  562TMC3    H2 8343   1.649   1.673  15.889 -1.5355 -2.9096  1.3504
  562TMC3    C7 8344   1.837   1.495  15.946  0.1398  0.7373  0.2768
  562TMC3    C8 8345   1.555   1.871  16.027 -0.0189 -0.1337  0.3968
  562TMC3    O1 8346   1.814   1.514  15.825  0.5999  0.5027 -0.2970
  562TMC3    O2 8347   1.486   1.918  16.117 -0.1069 -0.0618  0.1351
  563MPD2     C 8348   4.272   2.420  16.084 -0.0668 -0.7086 -0.9689
  563MPD2    C1 8349   4.267   2.521  16.184  0.5436 -0.2774  0.0587
  563MPD2    C2 8350   4.381   2.578  16.237 -0.2005 -0.3683 -0.6137
  563MPD2    C3 8351   4.503   2.518  16.198 -0.1047 -0.2113  0.0233
  563MPD2    C4 8352   4.499   2.414  16.115  0.1609  0.3521  0.3113
  563MPD2    C5 8353   4.391   2.368  16.053  0.0131 -0.6278  0.0583
  563MPD2     H 8354   4.380   2.648  16.319  0.6416 -0.4836 -0.5006
  563MPD2    H1 8355   4.585   2.348  16.103 -1.1151 -1.1295 -0.5634
  563MPD2    H2 8356   4.182   2.381  16.039  1.0239 -1.7923 -2.1870
  563MPD2    H3 8357   4.401   2.294  15.975 -1.0033  0.2021 -0.8695
  563MPD2     N 8358   4.613   2.555  16.272  0.5140 -1.2979 -0.1218
  563MPD2    H5 8359   4.595   2.620  16.348  0.1623  0.0425 -1.3501
  563MPD2    N1 8360   4.140   2.573  16.226  0.2476 -0.3600 -0.0521
  563MPD2    H7 8361   4.146   2.636  16.305  2.1313  0.2830 -0.7222
  564TMC3    C1 8362   3.925   2.557  16.294 -0.4362 -0.5590 -0.3918
  564TMC3    C2 8363   3.821   2.469  16.285 -0.0487 -0.2777  0.3519
  564TMC3    C3 8364   3.813   2.361  16.374 -0.4454 -0.3282  0.8165
  564TMC3    C4 8365   3.998   2.567  16.408  0.0305  0.4641  0.2948
  564TMC3    C5 8366   3.990   2.464  16.501  0.6360  0.0706  0.2512
  564TMC3    C6 8367   3.893   2.364  16.485 -0.0802  0.7049 -1.1613
  564TMC3     C 8368   4.017   2.535  16.180  0.1877  0.1755 -0.6625
  564TMC3     O 8369   3.978   2.473  16.087 -0.1525 -0.4938 -0.1605
  564TMC3     H 8370   3.758   2.468  16.197  0.5528 -0.0264 -0.0851
  564TMC3    H1 8371   4.083   2.633  16.426 -1.1161  2.1069 -0.3115
  564TMC3    H2 8372   3.882   2.285  16.558 -0.6676  2.6976  0.8909
  564TMC3    C7 8373   4.122   2.407  16.535  0.2952  0.3234 -0.0628
  564TMC3    C8 8374   3.836   2.235  16.316  0.0950  0.3876  0.9142
  564TMC3    O1 8375   4.218   2.475  16.555 -0.0494 -0.1752  0.1021
  564TMC3    O2 8376   3.835   2.140  16.393 -0.2097  0.0536  0.7697
  565TMC3    C1 8377   3.810   3.534  10.495 -0.4896 -0.0325 -0.2025
  565TMC3    C2 8378   3.890   3.441  10.553 -0.5039  0.4637  0.1370
  565TMC3    C3 8379   3.859   3.309  10.549  0.3074  0.0215 -1.0124
  565TMC3    C4 8380   3.705   3.501  10.422 -0.1959 -0.4100 -0.1887
  565TMC3    C5 8381   3.665   3.365  10.431 -0.1066 -0.4583  0.8970
  565TMC3    C6 8382   3.743   3.268  10.485 -0.0827  0.7931  0.1491
  565TMC3     C 8383   3.833   3.675  10.529 -0.4180  0.0581 -0.3000
  565TMC3     O 8384   3.814   3.754  10.438  0.1914  0.3314  0.7081
  565TMC3     H 8385   3.982   3.468  10.603  2.2002  0.5544 -4.7866
  565TMC3    H1 8386   3.639   3.584  10.397 -0.3760 -0.1997  0.9737
  565TMC3    H2 8387   3.703   3.171  10.512  1.0501  0.5412  0.9112
  565TMC3    C7 8388   3.528   3.331  10.411 -0.7627  0.0009 -1.6737
  565TMC3    C8 8389   3.914   3.234  10.664  0.3225  0.5165 -0.5241
  565TMC3    O1 8390   3.493   3.225  10.465  0.1528 -0.3355 -0.6153
  565TMC3    O2 8391   3.972   3.299  10.752  0.3568  0.4130 -0.3356
  566MPD2     C 8392   1.255   1.282  14.717  1.0685  0.2064  0.3801
  566MPD2    C1 8393   1.257   1.234  14.590  0.3746  0.1064  0.3363
  566MPD2    C2 8394   1.184   1.119  14.563  0.3707 -0.0966 -0.4746
  566MPD2    C3 8395   1.114   1.047  14.660  0.4794  0.1106  0.0113
  566MPD2    C4 8396   1.111   1.090  14.789 -0.5920  0.0650  0.6432
  566MPD2    C5 8397   1.186   1.208  14.812  0.0371  0.1834  0.1300
  566MPD2     H 8398   1.187   1.080  14.462 -1.9765 -0.5252 -0.3806
  566MPD2    H1 8399   1.058   1.035  14.865 -1.1535  0.6102  0.6513
  566MPD2    H2 8400   1.322   1.356  14.759  0.5701  0.9221 -0.0804
  566MPD2    H3 8401   1.187   1.249  14.912  0.7948  0.1234  0.1452
  566MPD2     N 8402   1.062   0.920  14.621  1.0768 -0.3300  0.5728
  566MPD2    H5 8403   1.076   0.891  14.525 -0.4571  0.5612  0.0791
  566MPD2    N1 8404   1.338   1.296  14.498  0.6549  0.7890  0.5062
  566MPD2    H7 8405   1.407   1.366  14.525  0.7243  0.3025  1.6148
  567TMC3    C1 8406   1.471   1.323  14.307  0.8756  0.3196  0.3404
  567TMC3    C2 8407   1.434   1.325  14.174 -0.1318 -0.2787  0.1099
  567TMC3    C3 8408   1.500   1.246  14.081  0.3592 -0.7197 -0.5891
  567TMC3    C4 8409   1.574   1.249  14.345 -0.2780  0.8985  0.2176
  567TMC3    C5 8410   1.650   1.184  14.251 -0.0321  0.3310  0.4543
  567TMC3    C6 8411   1.610   1.175  14.121  0.5279  0.1144  0.1608
  567TMC3     C 8412   1.349   1.260  14.361  0.3225  0.0862 -0.1599
  567TMC3     O 8413   1.281   1.183  14.287 -0.1874  0.7618  0.0813
  567TMC3     H 8414   1.334   1.362  14.155 -0.3046  0.4257  2.3996
  567TMC3    H1 8415   1.614   1.259  14.446 -1.0176  1.6579  0.4357
  567TMC3    H2 8416   1.667   1.117  14.049 -0.1471  0.7285 -0.8750
  567TMC3    C7 8417   1.768   1.108  14.288  0.1994 -0.7418 -0.0090
  567TMC3    C8 8418   1.415   1.192  13.979 -0.5220  0.4341  0.9002
  567TMC3    O1 8419   1.840   1.069  14.198  0.0233  0.1746 -0.1444
  567TMC3    O2 8420   1.295   1.226  13.976  0.5035  0.2288 -0.3428
  568MPD2     C 8421   3.641   0.923  16.713  0.0773 -0.0298 -0.1883
  568MPD2    C1 8422   3.762   0.970  16.762  0.2954  0.5190  0.4840
  568MPD2    C2 8423   3.838   1.047  16.682  0.3249  0.1768  0.7031
  568MPD2    C3 8424   3.791   1.077  16.552 -0.1490  0.0581 -0.4612
  568MPD2    C4 8425   3.672   1.028  16.505 -0.1534  0.2206  0.3961
  568MPD2    C5 8426   3.598   0.946  16.584 -0.3494  0.1306  0.6655
  568MPD2     H 8427   3.923   1.104  16.718  0.8312  0.6387 -1.2260
  568MPD2    H1 8428   3.640   1.059  16.407  1.3222  0.8419  0.1160
  568MPD2    H2 8429   3.582   0.873  16.789 -1.4134  2.6843  0.4327
  568MPD2    H3 8430   3.499   0.909  16.559 -0.6382  1.3377  0.0166
  568MPD2     N 8431   3.865   1.178  16.484 -0.1470 -0.2693  0.4676
  568MPD2    H5 8432   3.947   1.216  16.531 -1.0986 -0.1364  2.0197
  568MPD2    N1 8433   3.797   0.938  16.899 -0.2744 -0.2669 -0.0504
  568MPD2    H7 8434   3.728   0.901  16.963  0.6175  0.5019  1.3655
  569TMC3    C1 8435   3.910   1.378  16.380  0.0834  0.1369  0.1891
  569TMC3    C2 8436   3.966   1.422  16.498 -0.4075  0.2494  0.3795
  569TMC3    C3 8437   4.033   1.543  16.496 -0.1695  0.2790  0.7085
  569TMC3    C4 8438   3.923   1.433  16.261  0.9646 -0.0043  0.5189
  569TMC3    C5 8439   3.996   1.549  16.263 -0.4787  0.5426  0.7254
  569TMC3    C6 8440   4.058   1.600  16.375 -0.0503 -0.3827 -0.1586
  569TMC3     C 8441   3.829   1.261  16.376  0.3596 -0.6069  0.4631
  569TMC3     O 8442   3.739   1.255  16.292  0.1557  0.0030 -0.8651
  569TMC3     H 8443   3.953   1.377  16.596  0.5014  0.6372  0.6765
  569TMC3    H1 8444   3.883   1.386  16.172 -0.1050  2.1118 -0.1275
  569TMC3    H2 8445   4.114   1.692  16.361  0.6911 -1.2333 -2.7970
  569TMC3    C7 8446   4.003   1.633  16.141  0.7307  0.3660 -0.1040
  569TMC3    C8 8447   4.000   1.633  16.601 -0.1992 -0.3140 -0.2681
  569TMC3    O1 8448   3.986   1.575  16.035 -0.0002  0.2467  0.0994
  569TMC3    O2 8449   3.902   1.606  16.669 -0.0587  0.3071 -0.5916
  570TMC3    C1 8450   3.400   0.135  16.574 -0.0519  0.4347 -0.1771
  570TMC3    C2 8451   3.475   0.139  16.457 -0.2005  0.0461 -0.5817
  570TMC3    C3 8452   3.457   0.250  16.371  0.8615 -0.1447  0.2890
  570TMC3    C4 8453   3.295   0.230  16.590  0.6388 -0.2420 -0.7470
  570TMC3    C5 8454   3.274   0.329  16.495 -0.3516  0.5684  0.1413
  570TMC3    C6 8455   3.363   0.349  16.386  0.2834 -0.0527  0.5685
  570TMC3     C 8456   3.382   4.720  16.620  0.0760 -0.5424 -0.1262
  570TMC3     O 8457   3.440   4.636  16.555  0.5020  0.8895 -0.0680
  570TMC3     H 8458   3.568   0.083  16.449  0.1475  0.7357 -1.4291
  570TMC3    H1 8459   3.217   0.205  16.660  2.3045 -1.2536  0.7457
  570TMC3    H2 8460   3.350   0.432  16.318 -0.3645 -0.1740  0.5452
  570TMC3    C7 8461   3.186   0.445  16.535  0.6140  0.0720 -0.5158
  570TMC3    C8 8462   3.560   0.277  16.266 -0.4266  0.3499  0.0306
  570TMC3    O1 8463   3.127   0.428  16.643 -0.2257 -0.1649 -0.2296
  570TMC3    O2 8464   3.538   0.382  16.208  0.2975 -0.3220 -0.0843
  571MPD2     C 8465   1.467   1.763  17.693 -0.2742 -0.0317  0.0015
  571MPD2    C1 8466   1.474   1.683   0.106 -0.0634 -0.5181  0.4638
  571MPD2    C2 8467   1.497   1.753   0.226 -0.4695  0.6433  0.4270
  571MPD2    C3 8468   1.546   1.881   0.235  0.0539  0.0736  0.4315
  571MPD2    C4 8469   1.539   1.958   0.121 -0.2728 -0.4247  0.9146
  571MPD2    C5 8470   1.498   1.898   0.004 -0.1597  0.1398 -0.0546
  571MPD2     H 8471   1.490   1.688   0.313  2.6049 -0.2401  0.0467
  571MPD2    H1 8472   1.583   2.057   0.112  3.0130 -1.8116  1.6660
  571MPD2    H2 8473   1.436   1.713  17.602 -2.2436  1.1326  0.0193
  571MPD2    H3 8474   1.501   1.959  17.612 -3.0016  0.9140  0.3990
  571MPD2     N 8475   1.595   1.934   0.358  0.2319 -0.1599 -0.2911
  571MPD2    H5 8476   1.627   2.030   0.364  0.5070 -0.1890 -1.2245
  571MPD2    N1 8477   1.444   1.543   0.090 -0.0324  0.3973 -0.4611
  571MPD2    H7 8478   1.425   1.512  17.693  1.3103  0.2586 -0.6848
  572TMC3    C1 8479   1.699   1.952   0.570 -0.6818  0.4549 -0.5746
  572TMC3    C2 8480   1.670   1.937   0.700  0.9244  0.3593 -0.6523
  572TMC3    C3 8481   1.695   2.055   0.770  1.0891  0.0043 -0.8662
  572TMC3    C4 8482   1.773   2.053   0.515  0.3514 -0.0530 -0.0870
  572TMC3    C5 8483   1.815   2.149   0.598  0.4854 -0.9741 -0.1753
  572TMC3    C6 8484   1.774   2.161   0.726  0.0363 -0.3455 -0.2111
  572TMC3     C 8485   1.620   1.870   0.478 -0.2725  0.0915  0.4797
  572TMC3     O 8486   1.590   1.757   0.513 -0.6297 -0.1833 -0.0971
  572TMC3     H 8487   1.592   1.870   0.734  0.0222  0.8019 -1.8633
  572TMC3    H1 8488   1.798   2.061   0.410  0.6448 -1.3441 -0.1127
  572TMC3    H2 8489   1.808   2.248   0.780 -2.0082  0.8548 -0.8740
  572TMC3    C7 8490   1.826   2.267   0.521  0.0766 -0.0617  0.4079
  572TMC3    C8 8491   1.642   2.072   0.903  0.1352  0.1187 -0.0748
  572TMC3    O1 8492   1.731   2.293   0.448 -0.1165 -0.2489 -0.3012
  572TMC3    O2 8493   1.625   2.183   0.953 -0.3000 -0.0783 -0.3225
  573MPD2     C 8494   2.472   2.201   0.962 -0.4780 -0.5574 -0.1268
  573MPD2    C1 8495   2.563   2.302   0.967  0.6679 -0.6549  0.4748
  573MPD2    C2 8496   2.611   2.359   0.855  0.1028  0.0739  0.7335
  573MPD2    C3 8497   2.568   2.322   0.730 -0.5952 -0.3800  0.0057
  573MPD2    C4 8498   2.467   2.220   0.722 -0.4701  0.1195 -0.3691
  573MPD2    C5 8499   2.421   2.168   0.838 -0.5485 -0.1729  0.0589
  573MPD2     H 8500   2.688   2.435   0.860 -0.1446  0.2060  2.3761
  573MPD2    H1 8501   2.437   2.181   0.626  0.8647  2.0086 -1.5550
  573MPD2    H2 8502   2.441   2.134   1.041  0.5883 -1.4930 -0.5042
  573MPD2    H3 8503   2.348   2.089   0.842 -1.6373  0.7919 -0.5059
  573MPD2     N 8504   2.616   2.373   0.606 -0.0089  0.1377 -0.2092
  573MPD2    H5 8505   2.569   2.341   0.522  0.8915  0.0063 -0.6635
  573MPD2    N1 8506   2.598   2.343   1.094 -0.2603 -0.7220  0.1879
  573MPD2    H7 8507   2.561   2.287   1.170  1.7725 -3.2695 -0.6986
  574TMC3    C1 8508   2.731   2.512   0.447 -0.8420  0.0067 -0.3791
  574TMC3    C2 8509   2.619   2.504   0.366  0.0669  0.3688 -0.0439
  574TMC3    C3 8510   2.630   2.556   0.243 -0.5758 -0.2309  0.3220
  574TMC3    C4 8511   2.854   2.574   0.414 -0.5358 -0.1418  0.1118
  574TMC3    C5 8512   2.854   2.627   0.286 -0.5922  0.8763 -0.2991
  574TMC3    C6 8513   2.745   2.617   0.203 -0.3691  0.4444 -0.1772
  574TMC3     C 8514   2.718   2.465   0.585 -0.4746 -0.0338 -0.0056
  574TMC3     O 8515   2.813   2.490   0.658 -0.4164 -0.2199 -0.2037
  574TMC3     H 8516   2.523   2.462   0.393  1.1438 -1.6119  0.6904
  574TMC3    H1 8517   2.936   2.577   0.484 -0.6861  1.0811  0.2402
  574TMC3    H2 8518   2.754   2.648   0.100  0.0825  0.2120 -0.2082
  574TMC3    C7 8519   2.961   2.709   0.253  0.1656  0.4017  0.0916
  574TMC3    C8 8520   2.508   2.572   0.176  0.5773  0.4050  0.7526
  574TMC3    O1 8521   3.059   2.698   0.322  0.2442  0.0379  0.2011
  574TMC3    O2 8522   2.419   2.492   0.207 -0.2143  0.4743  0.4181
  575TMC3    C1 8523   4.169   3.157  11.489  0.4066  0.0959  0.0414
  575TMC3    C2 8524   4.198   3.033  11.542  0.3619  0.1397 -0.0516
  575TMC3    C3 8525   4.180   2.924  11.463  0.6021  0.1942 -0.3598
  575TMC3    C4 8526   4.126   3.168  11.357 -1.2139 -0.2087  0.2230
  575TMC3    C5 8527   4.100   3.055  11.287 -0.2240 -0.0798  0.7361
  575TMC3    C6 8528   4.134   2.934  11.335  0.1874  0.6229 -0.8157
  575TMC3     C 8529   4.212   3.283  11.567  0.2357 -0.6898 -0.4852
  575TMC3     O 8530   4.252   3.261  11.678  0.1460  0.2531  0.0334
  575TMC3     H 8531   4.223   3.017  11.646  1.4665 -3.7897 -0.9285
  575TMC3    H1 8532   4.107   3.267  11.318  1.9179 -0.4865 -2.0088
  575TMC3    H2 8533   4.116   2.840  11.284 -2.1316  0.3792  0.4706
  575TMC3    C7 8534   4.042   3.075  11.158 -1.2804 -0.4674 -0.4148
  575TMC3    C8 8535   4.247   2.805  11.510  0.3448  0.6339  0.0277
  575TMC3    O1 8536   4.013   3.189  11.127  0.2146 -0.2970  0.2545
  575TMC3    O2 8537   4.244   2.783  11.632  0.5977  0.1609 -0.1327
  576MPD2     C 8538   4.174   4.636  12.984 -0.5144 -0.1084 -0.5620
  576MPD2    C1 8539   4.151   0.038  12.935 -0.4194 -0.5584  0.1035
  576MPD2    C2 8540   4.080   0.127  13.014  0.9215 -0.2172  0.2162
  576MPD2    C3 8541   4.023   0.091  13.138  0.1135  0.3238  0.6350
  576MPD2    C4 8542   4.034   4.687  13.181 -0.3636  0.7352 -0.0243
  576MPD2    C5 8543   4.107   4.600  13.100  0.0805 -0.2344  0.3704
  576MPD2     H 8544   4.083   0.231  12.982  3.5831 -0.0666  0.9974
  576MPD2    H1 8545   3.989   4.658  13.276  0.4724  0.7962  0.3897
  576MPD2    H2 8546   4.230   4.557  12.936  0.5581 -0.3155  1.0259
  576MPD2    H3 8547   4.124   4.498  13.133 -0.2758 -0.9371 -1.6342
  576MPD2     N 8548   3.972   0.192  13.222 -0.9324 -0.5645 -0.1481
  576MPD2    H5 8549   3.985   0.286  13.187  2.1208 -1.3683 -1.2129
  576MPD2    N1 8550   4.211   0.083  12.813 -0.2305 -0.1628  0.0101
  576MPD2    H7 8551   4.222   0.183  12.800 -0.4194 -0.1110  0.2457
  577TMC3    C1 8552   4.286   0.070  12.589  0.5046 -0.0371  0.1524
  577TMC3    C2 8553   4.311   4.705  12.490 -0.4331 -0.7448  0.0142
  577TMC3    C3 8554   4.353   0.023  12.372  0.3790  0.0816  0.0976
  577TMC3    C4 8555   4.311   0.203  12.572 -0.3904 -0.6067 -0.5312
  577TMC3    C5 8556   4.349   0.240  12.448 -1.0019  0.1063  0.3573
  577TMC3    C6 8557   4.367   0.157  12.340 -0.4564 -0.4486 -0.2088
  577TMC3     C 8558   4.254   0.003  12.711  0.2563  0.1736  0.3987
  577TMC3     O 8559   4.243   4.599  12.711 -0.4016 -0.2845  0.6748
  577TMC3     H 8560   4.300   4.597  12.489  0.9999 -0.8742 -3.9798
  577TMC3    H1 8561   4.322   0.275  12.652 -1.0182 -0.4597 -0.5797
  577TMC3    H2 8562   4.405   0.199  12.247  0.7267 -0.8237  0.1022
  577TMC3    C7 8563   4.391   0.376  12.435  0.4237 -0.1001 -0.7434
  577TMC3    C8 8564   4.434   4.655  12.295  0.5681 -0.7635 -0.2163
  577TMC3    O1 8565   4.455   0.420  12.532  0.4367  0.1179  0.2967
  577TMC3    O2 8566   4.487   4.575  12.368  0.1930 -0.0342 -0.1615
  578MPD2     C 8567   2.633   4.545   2.090  0.0164  0.1859 -0.0276
  578MPD2    C1 8568   2.736   4.557   1.999 -0.5345  0.0145 -0.1011
  578MPD2    C2 8569   2.866   4.516   2.041 -0.1226  0.6186  0.2180
  578MPD2    C3 8570   2.883   4.474   2.176 -0.1478  0.6625 -0.8115
  578MPD2    C4 8571   2.775   4.477   2.264  0.6290 -0.5923 -0.2494
  578MPD2    C5 8572   2.649   4.500   2.215  0.5509 -0.1695 -0.4548
  578MPD2     H 8573   2.944   4.513   1.966  0.3903  0.0982  0.7764
  578MPD2    H1 8574   2.787   4.442   2.366 -1.5937  2.0419  0.9036
  578MPD2    H2 8575   2.529   4.570   2.068 -0.2036 -0.4506  0.2797
  578MPD2    H3 8576   2.568   4.487   2.286 -0.5784  1.8596 -1.3705
  578MPD2     N 8577   3.014   4.438   2.216 -0.5555 -0.1435  0.0387
  578MPD2    H5 8578   3.083   4.434   2.142 -0.9364  0.2773 -0.3322
  578MPD2    N1 8579   2.706   4.607   1.873  0.5066  0.0081 -0.2477
  578MPD2    H7 8580   2.610   4.638   1.860  0.4815 -0.8535 -1.9930
  579TMC3    C1 8581   3.183   4.354   2.347 -0.7993  0.0566 -0.4539
  579TMC3    C2 8582   3.259   4.365   2.464  0.6219  0.0770 -0.5458
  579TMC3    C3 8583   3.393   4.335   2.459  0.5441 -0.1584 -0.3242
  579TMC3    C4 8584   3.236   4.294   2.229 -0.7693 -0.0618 -0.2897
  579TMC3    C5 8585   3.366   4.246   2.238  0.3750 -0.2006  0.4041
  579TMC3    C6 8586   3.444   4.270   2.355  0.2719 -0.6067 -0.4509
  579TMC3     C 8587   3.047   4.405   2.344  0.5167  0.1631  0.9770
  579TMC3     O 8588   2.995   4.438   2.453  0.3437  0.4038  0.2458
  579TMC3     H 8589   3.206   4.407   2.548  0.5378 -0.3192 -0.4016
  579TMC3    H1 8590   3.177   4.274   2.140  0.9185 -0.9353 -1.2077
  579TMC3    H2 8591   3.549   4.243   2.349  0.0445 -1.1171 -1.9096
  579TMC3    C7 8592   3.433   4.181   2.129  0.1137 -0.1883 -1.0673
  579TMC3    C8 8593   3.477   4.378   2.574 -0.0001  0.2224 -0.4163
  579TMC3    O1 8594   3.543   4.124   2.145  0.2666  0.0211  0.0087
  579TMC3    O2 8595   3.419   4.405   2.676 -0.2945  0.6904  0.5706
  580TMC3    C1 8596   2.076   4.367  12.126 -0.1623  0.2235  1.2032
  580TMC3    C2 8597   2.183   4.453  12.108 -0.3653 -0.1511 -0.2547
  580TMC3    C3 8598   2.306   4.402  12.134  0.0730 -0.5787 -0.0355
  580TMC3    C4 8599   2.099   4.236  12.163  0.1091 -1.2325 -0.0036
  580TMC3    C5 8600   2.225   4.196  12.182  0.2017 -0.1566  0.0653
  580TMC3    C6 8601   2.333   4.275  12.167 -0.1431  0.4321  0.0557
  580TMC3     C 8602   1.975   4.378  12.022  0.0879 -0.3317 -0.5858
  580TMC3     O 8603   1.923   4.279  11.982  0.3246  0.1287 -0.6445
  580TMC3     H 8604   2.171   4.556  12.078 -0.0039 -0.4823 -1.5320
  580TMC3    H1 8605   2.015   4.168  12.173  0.2825 -1.2419  1.2971
  580TMC3    H2 8606   2.436   4.252  12.192 -0.3297  0.9674  1.2852
  580TMC3    C7 8607   2.239   4.051  12.209 -0.0426 -0.3866  0.1502
  580TMC3    C8 8608   2.409   4.497  12.110 -0.2209 -0.3248  0.5339
  580TMC3    O1 8609   2.135   3.995  12.214 -0.4763 -0.4519 -0.3205
  580TMC3    O2 8610   2.393   4.606  12.165  0.5412  0.3530 -0.6402
  581MPD2     C 8611   0.353   3.850  15.230  0.7378  0.2460 -0.1298
  581MPD2    C1 8612   0.331   3.937  15.335 -0.4661 -0.2498  0.0634
  581MPD2    C2 8613   0.200   3.984  15.353  0.1203 -0.8985 -1.0271
  581MPD2    C3 8614   0.092   3.940  15.277  0.7659 -0.2110  0.0569
  581MPD2    C4 8615   0.113   3.833  15.191 -0.5909  1.2352 -0.1761
  581MPD2    C5 8616   0.246   3.796  15.157 -0.7543  0.7791  0.9933
  581MPD2     H 8617   0.196   4.055  15.435  0.5786 -1.7099 -0.3063
  581MPD2    H1 8618   0.040   3.783  15.129 -0.2834  2.6843 -1.7069
  581MPD2    H2 8619   0.453   3.810  15.216  0.7138  0.5796 -1.2527
  581MPD2    H3 8620   0.267   3.732  15.072 -0.0970  0.3902  1.4441
  581MPD2     N 8621   4.687   3.996  15.292  0.3852 -0.9476  0.2666
  581MPD2    H5 8622   4.683   4.082  15.346 -0.4428 -1.0397  0.3549
  581MPD2    N1 8623   0.441   3.973  15.419 -0.0906 -0.0647 -0.3209
  581MPD2    H7 8624   0.522   3.919  15.389 -0.7495 -1.3757  0.2338
  582TMC3    C1 8625   0.586   4.050  15.575  0.3117  0.0876  0.1325
  582TMC3    C2 8626   0.610   4.090  15.707 -0.0817 -0.8689 -0.0533
  582TMC3    C3 8627   0.722   4.039  15.767  0.1810 -0.2329  0.1398
  582TMC3    C4 8628   0.668   3.958  15.514 -0.7580 -1.4638 -0.0105
  582TMC3    C5 8629   0.772   3.904  15.583  0.4857  0.4328  0.3315
  582TMC3    C6 8630   0.803   3.940  15.710  0.1740 -0.1191  0.1867
  582TMC3     C 8631   0.450   4.057  15.526  0.6267  0.6981 -0.3172
  582TMC3     O 8632   0.369   4.121  15.590  0.5435 -0.4963 -0.0808
  582TMC3     H 8633   0.546   4.155  15.765  1.1432 -0.2472  0.6161
  582TMC3    H1 8634   0.678   3.944  15.407  0.0709 -1.3693  0.0551
  582TMC3    H2 8635   0.872   3.882  15.770  1.6275 -3.0216 -4.2138
  582TMC3    C7 8636   0.851   3.793  15.528  0.5119 -1.0194  0.2444
  582TMC3    C8 8637   0.765   4.098  15.897 -0.2141 -0.3637  0.5378
  582TMC3    O1 8638   0.969   3.810  15.539  0.8968  0.3212 -0.0463
  582TMC3    O2 8639   0.695   4.188  15.946 -0.1317 -0.5304 -0.4187
  583MPD2     C 8640   0.558   0.780  16.941  0.3180  0.1626  0.1159
  583MPD2    C1 8641   0.539   0.917  16.921 -0.0098  0.1361  0.1644
  583MPD2    C2 8642   0.513   0.999  17.030 -0.0961 -0.8248 -0.4153
  583MPD2    C3 8643   0.493   0.942  17.153  0.3890 -0.8721  0.4930
  583MPD2    C4 8644   0.507   0.808  17.177  0.4317  0.5071  0.0376
  583MPD2    C5 8645   0.544   0.727  17.068 -0.2431 -0.0928 -0.7241
  583MPD2     H 8646   0.499   1.103  17.007  0.1180 -0.8191 -0.5268
  583MPD2    H1 8647   0.516   0.760  17.274 -0.5662 -2.5447 -1.3901
  583MPD2    H2 8648   0.587   0.716  16.859 -1.3062 -0.0625 -0.2658
  583MPD2    H3 8649   0.576   0.624  17.083 -1.4533 -0.5058 -0.9860
  583MPD2     N 8650   0.499   1.034  17.264 -0.0057  0.6952  0.1544
  583MPD2    H5 8651   0.501   1.134  17.250  0.7853  0.6388 -0.1311
  583MPD2    N1 8652   0.559   0.967  16.794  0.4910  0.9709  0.3898
  583MPD2    H7 8653   0.534   1.065  16.783 -1.2124  0.5694  0.7001
  584TMC3    C1 8654   0.502   1.098  17.496 -0.2780 -0.0484 -0.5275
  584TMC3    C2 8655   0.595   1.195  17.466 -0.0726  0.7750 -0.7101
  584TMC3    C3 8656   0.603   1.299  17.552 -0.0264 -0.0257  0.4425
  584TMC3    C4 8657   0.439   1.079  17.619 -0.5069  0.9002  0.1359
  584TMC3    C5 8658   0.465   1.185   0.010 -0.5046 -0.5502 -0.0959
  584TMC3    C6 8659   0.536   1.301  17.671  0.0622 -0.2392  0.2997
  584TMC3     C 8660   0.490   0.990  17.396 -1.0742  0.2048  0.2276
  584TMC3     O 8661   0.434   0.892  17.441 -0.3239 -0.8697  0.1341
  584TMC3     H 8662   0.648   1.190  17.372  0.2701  1.3577 -0.5451
  584TMC3    H1 8663   0.348   1.019  17.619  0.3871 -0.4453 -0.4244
  584TMC3    H2 8664   0.548   1.387   0.038  0.4733  0.1109 -0.2490
  584TMC3    C7 8665   0.433   1.167   0.148 -0.0956 -0.5613  0.3508
  584TMC3    C8 8666   0.664   1.421  17.495  0.5976 -0.3755  0.1502
  584TMC3    O1 8667   0.472   1.244   0.235  0.9385 -0.6545  0.4904
  584TMC3    O2 8668   0.667   1.421  17.369 -0.4142  0.0155 -0.9178
  585MPD2     C 8669   4.632   4.251   1.384  0.3190  0.7449  0.2847
  585MPD2    C1 8670   4.687   4.351   1.308  0.2400 -0.0191 -0.5777
  585MPD2    C2 8671   4.670   4.337   1.170  0.0880  0.4841 -0.2158
  585MPD2    C3 8672   4.599   4.232   1.105  0.4156 -0.1323  0.4840
  585MPD2    C4 8673   4.556   4.130   1.191  0.0556 -0.2376 -0.4955
  585MPD2    C5 8674   4.575   4.135   1.326  0.9719 -0.1491  0.4025
  585MPD2     H 8675   4.705   4.420   1.110  0.7920  0.3387 -0.0158
  585MPD2    H1 8676   4.503   4.045   1.150  0.2126 -1.2986  1.5224
  585MPD2    H2 8677   4.632   4.264   1.492 -1.4027  0.0293  0.3698
  585MPD2    H3 8678   4.549   4.054   1.393  0.3139 -0.1141  0.1886
  585MPD2     N 8679   4.580   4.225   0.964 -0.3651  0.0136 -0.1046
  585MPD2    H5 8680   4.537   4.140   0.928 -2.6788  0.1009  2.4559
  585MPD2    N1 8681   0.020   4.463   1.366 -0.4397 -0.1183  0.0570
  585MPD2    H7 8682   0.012   4.484   1.465 -1.9945 -0.3864 -0.0083
  586TMC3    C1 8683   4.591   4.300   0.737  0.8265  0.2978  0.4500
  586TMC3    C2 8684   4.646   4.182   0.684 -0.2687 -0.3384  0.3000
  586TMC3    C3 8685   4.649   4.181   0.541  0.1920  0.4349  0.3270
  586TMC3    C4 8686   4.539   4.406   0.660 -0.5856 -0.5530 -0.2729
  586TMC3    C5 8687   4.536   4.385   0.521 -0.1105  0.0597 -0.0317
  586TMC3    C6 8688   4.579   4.274   0.458  0.2887 -0.3645  0.0395
  586TMC3     C 8689   4.614   4.329   0.876 -0.0379  0.1158  0.2873
  586TMC3     O 8690   4.656   4.441   0.902  0.3261  0.4811  0.4241
  586TMC3     H 8691   4.687   4.110   0.754  0.0943 -0.8221 -0.4103
  586TMC3    H1 8692   4.488   4.494   0.696  0.3896  0.2885 -0.9598
  586TMC3    H2 8693   4.565   4.264   0.351 -2.3239  1.2031  0.2402
  586TMC3    C7 8694   4.431   4.455   0.458 -0.3951 -0.4203 -0.0997
  586TMC3    C8 8695   4.718   4.073   0.475  0.4994 -0.2665 -0.0823
  586TMC3    O1 8696   4.428   4.576   0.474  0.3078  0.2482 -0.2551
  586TMC3    O2 8697   0.024   3.974   0.536  0.7519 -0.1264  0.9582
  587TMC3    C1 8698   2.156   3.301  16.863  0.3930  0.3744  0.3576
  587TMC3    C2 8699   2.126   3.427  16.817  0.0657 -0.1516  0.0370
  587TMC3    C3 8700   2.205   3.476  16.716 -0.0260 -0.2849  0.1599
  587TMC3    C4 8701   2.267   3.234  16.838  0.5501  0.3446 -0.8170
  587TMC3    C5 8702   2.349   3.294  16.742 -0.5961  0.5812 -0.1080
  587TMC3    C6 8703   2.314   3.400  16.668  0.1524  0.3522 -0.1994
  587TMC3     C 8704   2.067   3.232  16.957 -0.6985  0.5543 -0.5226
  587TMC3     O 8705   2.113   3.138  17.023  0.2352  0.0666  0.6723
  587TMC3     H 8706   2.033   3.483  16.829 -0.2094 -1.0858  2.3379
  587TMC3    H1 8707   2.298   3.146  16.893 -0.2432  2.0323  2.3157
  587TMC3    H2 8708   2.375   3.435  16.586  0.2874 -0.0984 -0.2902
  587TMC3    C7 8709   2.478   3.243  16.717  0.3069  0.6409 -0.3969
  587TMC3    C8 8710   2.175   3.597  16.641  0.1181 -0.3862  0.5486
  587TMC3    O1 8711   2.559   3.309  16.655  0.0044  0.1713  0.1859
  587TMC3    O2 8712   2.248   3.612  16.547 -0.5722  0.0313  0.5998
  588TMC3    C1 8713   3.790   1.204  10.333  0.7464  0.3070 -0.1356
  588TMC3    C2 8714   3.797   1.069  10.351  0.9391 -0.5042 -0.1472
  588TMC3    C3 8715   3.896   1.010  10.427 -0.1372  0.0967 -0.5153
  588TMC3    C4 8716   3.885   1.284  10.387  0.0507  0.0379 -0.2375
  588TMC3    C5 8717   3.977   1.226  10.479  0.3970  0.1330 -0.2660
  588TMC3    C6 8718   3.982   1.088  10.502  0.3876  0.3419  0.1318
  588TMC3     C 8719   3.672   1.260  10.260 -0.4889 -0.1971  0.3928
  588TMC3     O 8720   3.609   1.193  10.179 -0.1664 -0.0653 -0.2931
  588TMC3     H 8721   3.729   1.005  10.296  1.1553 -0.5766 -0.3337
  588TMC3    H1 8722   3.879   1.390  10.363  0.2770  0.3066  0.9100
  588TMC3    H2 8723   4.061   1.040  10.558 -1.8152  0.0555  3.0375
  588TMC3    C7 8724   4.076   1.314  10.547  0.3447 -0.0039 -0.1472
  588TMC3    C8 8725   3.941   0.887  10.380  0.7917 -0.2124 -0.5263
  588TMC3    O1 8726   4.134   1.270  10.645  0.8087  0.4429  0.1481
  588TMC3    O2 8727   3.926   0.864  10.259  0.2401 -0.6352 -0.0741
  589TMC3    C1 8728   3.407   2.678   1.703 -0.2523  0.4484  0.0189
  589TMC3    C2 8729   3.488   2.693   1.814  0.2011 -0.5812 -0.6739
  589TMC3    C3 8730   3.593   2.602   1.814 -0.4379  0.2749  0.2501
  589TMC3    C4 8731   3.421   2.600   1.594  0.1427 -0.0570  0.1332
  589TMC3    C5 8732   3.518   2.513   1.606  0.2030  0.1488  0.5567
  589TMC3    C6 8733   3.608   2.508   1.718  0.2752  0.6731  0.1057
  589TMC3     C 8734   3.274   2.727   1.721 -0.8942 -0.8548  0.4560
  589TMC3     O 8735   3.180   2.667   1.670  0.0454  0.0266 -0.6574
  589TMC3     H 8736   3.472   2.756   1.901 -0.7409 -1.6610 -0.0701
  589TMC3    H1 8737   3.347   2.601   1.515  1.2337  0.4441 -0.8887
  589TMC3    H2 8738   3.693   2.440   1.713  0.4890  0.8593  1.1509
  589TMC3    C7 8739   3.520   2.412   1.509  0.1285  0.3754 -0.0088
  589TMC3    C8 8740   3.689   2.611   1.922  0.8078 -0.5736  0.3641
  589TMC3    O1 8741   3.576   2.311   1.549 -0.2514 -0.6153  0.2240
  589TMC3    O2 8742   3.645   2.662   2.024  0.6949  0.5287  0.9346
  590MPD2     C 8743   3.194   1.632  17.003 -0.6469  0.4160  0.1635
  590MPD2    C1 8744   3.135   1.758  16.973  0.7780  0.1186 -0.4404
  590MPD2    C2 8745   3.219   1.853  16.902 -0.3390 -0.3226  0.3737
  590MPD2    C3 8746   3.344   1.817  16.855  0.3985 -0.2003  0.2856
  590MPD2    C4 8747   3.397   1.694  16.888 -0.2296 -0.1612  0.6317
  590MPD2    C5 8748   3.322   1.602  16.966 -0.3516  0.1426  0.4904
  590MPD2     H 8749   3.187   1.947  16.860 -1.0736 -0.6122  0.2797
  590MPD2    H1 8750   3.491   1.652  16.856 -0.9075 -0.2789 -1.1677
  590MPD2    H2 8751   3.144   1.563  17.069  0.0363 -0.1291  0.1115
  590MPD2    H3 8752   3.369   1.509  16.993 -0.7150  0.0049  0.6479
  590MPD2     N 8753   3.416   1.910  16.780  0.3864 -0.4140 -0.3782
  590MPD2    H5 8754   3.369   1.998  16.761 -1.5733 -0.7826  2.6640
  590MPD2    N1 8755   3.001   1.780  17.004  0.0970 -0.2702 -0.2778
  590MPD2    H7 8756   2.943   1.702  17.034 -0.5782  0.5730  0.5916
  591TMC3    C1 8757   3.535   1.959  16.589  0.7080  0.0372 -0.1645
  591TMC3    C2 8758   3.592   1.891  16.482 -0.5069  0.9000  0.6142
  591TMC3    C3 8759   3.576   1.954  16.362  0.2059  0.1651 -0.3933
  591TMC3    C4 8760   3.463   2.071  16.585 -0.1546 -0.5149 -0.0506
  591TMC3    C5 8761   3.460   2.133  16.464 -0.2977 -0.0353 -0.0980
  591TMC3    C6 8762   3.516   2.080  16.353  0.1495  0.5727  0.5368
  591TMC3     C 8763   3.533   1.885  16.719  0.2576 -0.2594  0.6508
  591TMC3     O 8764   3.616   1.797  16.743 -0.5329 -0.4489 -0.5873
  591TMC3     H 8765   3.646   1.799  16.497  0.8399  1.2322 -2.1077
  591TMC3    H1 8766   3.446   2.136  16.670 -0.5228 -1.8981  0.9306
  591TMC3    H2 8767   3.511   2.134  16.259 -3.3624  0.9149  0.9336
  591TMC3    C7 8768   3.396   2.266  16.459  0.5048  0.1325 -0.7077
  591TMC3    C8 8769   3.619   1.875  16.254 -0.0708  0.1262  0.3093
  591TMC3    O1 8770   3.330   2.298  16.554  0.0834 -0.1289 -0.4994
  591TMC3    O2 8771   3.665   1.763  16.276  0.5636 -0.7864  0.1616
  592MPD2     C 8772   3.102   3.328  11.582 -0.0602 -0.7885  0.5132
  592MPD2    C1 8773   3.094   3.365  11.713 -0.0264  0.0243  0.6903
  592MPD2    C2 8774   3.049   3.269  11.798  0.6760  0.4979 -0.2151
  592MPD2    C3 8775   2.994   3.149  11.765 -0.2986 -0.0618 -0.1834
  592MPD2    C4 8776   2.992   3.121  11.634  0.6167 -0.9316 -0.0347
  592MPD2    C5 8777   3.049   3.209  11.546  0.5498  0.2104  0.6095
  592MPD2     H 8778   3.049   3.288  11.905 -0.2675 -2.7984  0.3893
  592MPD2    H1 8779   2.959   3.027  11.592  0.4733 -0.8914 -0.0120
  592MPD2    H2 8780   3.131   3.396  11.503 -0.7363  0.4200  1.3040
  592MPD2    H3 8781   3.042   3.192  11.440 -0.3489  1.1481  0.5148
  592MPD2     N 8782   2.951   3.057  11.867 -0.3118  0.0692  0.1242
  592MPD2    H5 8783   2.961   3.081  11.966  0.4481 -0.4327  0.1726
  592MPD2    N1 8784   3.151   3.489  11.757  0.5455  0.3292  0.1358
  592MPD2    H7 8785   3.177   3.561  11.691 -1.9787 -0.9234 -2.1939
  593TMC3    C1 8786   3.230   3.655  11.913 -0.6725  0.0915 -0.0774
  593TMC3    C2 8787   3.229   3.699  12.037 -0.2329  0.6245 -0.2571
  593TMC3    C3 8788   3.283   3.824  12.064 -0.2843  1.1030 -0.1723
  593TMC3    C4 8789   3.273   3.726  11.803  0.5537 -0.1831 -0.1432
  593TMC3    C5 8790   3.322   3.848  11.835 -0.4404 -0.1356 -0.3651
  593TMC3    C6 8791   3.326   3.898  11.962 -0.2068  0.5739 -0.1966
  593TMC3     C 8792   3.174   3.524  11.891  0.6557  0.0743 -0.3154
  593TMC3     O 8793   3.164   3.455  11.990 -0.0961 -0.6196 -0.0594
  593TMC3     H 8794   3.179   3.645  12.116 -0.3320 -1.0008 -1.4354
  593TMC3    H1 8795   3.276   3.679  11.705 -2.5934  3.4126 -1.9797
  593TMC3    H2 8796   3.350   4.003  11.974 -0.1895  0.4690  0.6527
  593TMC3    C7 8797   3.365   3.947  11.734  0.4041 -0.2943 -0.2311
  593TMC3    C8 8798   3.276   3.884  12.195 -0.0459 -0.3019  0.1103
  593TMC3    O1 8799   3.441   4.035  11.771 -0.3335  0.5379  0.4631
  593TMC3    O2 8800   3.204   3.822  12.279  0.5538 -0.3088  0.3939
  594MPD2     C 8801   2.354   2.731  14.009 -0.2351 -0.1133 -0.4192
  594MPD2    C1 8802   2.323   2.766  14.140 -0.1349 -0.3139 -0.7912
  594MPD2    C2 8803   2.422   2.840  14.208  0.1779 -0.2284  0.0153
  594MPD2    C3 8804   2.523   2.904  14.144  0.6333 -0.3751  0.4591
  594MPD2    C4 8805   2.548   2.879  14.017  0.5512  0.1429  0.5505
  594MPD2    C5 8806   2.462   2.793  13.946  0.2905 -0.0032 -0.0371
  594MPD2     H 8807   2.402   2.875  14.309  4.5815 -1.6339  1.3614
  594MPD2    H1 8808   2.627   2.920  13.955  0.2595  2.0371  1.4560
  594MPD2    H2 8809   2.283   2.674  13.950  1.0484 -1.1144 -1.0129
  594MPD2    H3 8810   2.471   2.773  13.840  0.6963 -0.3918  0.0688
  594MPD2     N 8811   2.603   2.995  14.210  0.0815 -0.0908 -0.3057
  594MPD2    H5 8812   2.584   3.023  14.305  2.2110  0.0791  0.0849
  594MPD2    N1 8813   2.202   2.719  14.199 -0.7201 -0.2037  0.3404
  594MPD2    H7 8814   2.141   2.666  14.137  1.4941 -1.2385 -0.9431
  595TMC3    C1 8815   2.939   3.253  14.386  0.4857 -0.0781  0.6170
  595TMC3    C2 8816   2.900   3.182  14.277 -0.6609  0.1907 -0.0499
  595TMC3    C3 8817   2.765   3.156  14.257  0.4008  0.0542 -0.2748
  595TMC3    C4 8818   2.847   3.302  14.478  0.1026  0.3804  0.1095
  595TMC3    C5 8819   2.717   3.274  14.456 -0.0371 -0.1045 -0.2930
  595TMC3    C6 8820   2.676   3.202  14.349 -0.0013 -0.4137  0.4645
  595TMC3     C 8821   3.081   3.276  14.399  0.3661  0.6552 -0.4916
  595TMC3     O 8822   3.155   3.186  14.357  0.2203  0.2979 -0.6738
  595TMC3     H 8823   2.980   3.138  14.219  1.1630  2.2323  0.9109
  595TMC3    H1 8824   2.883   3.370  14.554 -2.2089  0.9303  0.7240
  595TMC3    H2 8825   2.572   3.186  14.323 -0.1852  0.4369  0.6790
  595TMC3    C7 8826   2.629   3.261  14.573 -0.2149 -0.2794  0.2537
  595TMC3    C8 8827   2.721   3.052  14.161  0.3378 -0.2034  0.3056
  595TMC3    O1 8828   2.509   3.235  14.543 -0.4946  0.2629  0.1039
  595TMC3    O2 8829   2.783   3.046  14.055 -0.3637  0.7041 -0.3181
  596MPD2     C 8830   1.342   0.568  16.987 -0.0596 -0.4990  0.2449
  596MPD2    C1 8831   1.343   0.687  16.922 -0.2982 -0.3376 -0.5287
  596MPD2    C2 8832   1.356   0.684  16.786  0.3507  0.2085  0.7283
  596MPD2    C3 8833   1.363   0.572  16.710  0.0710 -0.7583  0.3153
  596MPD2    C4 8834   1.352   0.449  16.774  0.2722  0.5273  0.2018
  596MPD2    C5 8835   1.347   0.450  16.907  0.4742  0.6247 -0.0609
  596MPD2     H 8836   1.363   0.783  16.744 -1.3954  1.0438  2.4151
  596MPD2    H1 8837   1.353   0.352  16.727  0.1184  0.6456 -0.0456
  596MPD2    H2 8838   1.331   0.555  17.094 -1.2478  0.7521  0.2617
  596MPD2    H3 8839   1.347   0.353  16.957  3.6274  0.6713  0.0504
  596MPD2     N 8840   1.373   0.572  16.569  0.0612  0.5100 -0.4795
  596MPD2    H5 8841   1.367   0.481  16.524 -0.1710  0.3112 -0.0423
  596MPD2    N1 8842   1.350   0.811  16.996 -0.8569 -0.2464 -0.5410
  596MPD2    H7 8843   1.376   0.897  16.948 -0.9840  0.6369  0.9566
  597TMC3    C1 8844   1.332   0.961  17.180 -0.2314  0.1025 -0.2857
  597TMC3    C2 8845   1.425   1.048  17.126 -0.1572  0.1206 -0.2049
  597TMC3    C3 8846   1.432   1.182  17.176 -0.0132 -0.4368 -0.1503
  597TMC3    C4 8847   1.250   0.999  17.284  0.8214  0.1577  0.9817
  597TMC3    C5 8848   1.249   1.130  17.319 -0.0764 -0.3911  0.6839
  597TMC3    C6 8849   1.332   1.226  17.260  0.3913 -0.2213  0.7831
  597TMC3     C 8850   1.304   0.827  17.123 -0.1258 -0.8394 -0.0052
  597TMC3     O 8851   1.239   0.752  17.197  0.4745 -0.7436 -0.8457
  597TMC3     H 8852   1.496   1.007  17.056 -2.0033 -2.3585 -0.5965
  597TMC3    H1 8853   1.184   0.921  17.321 -0.6194  0.5411 -0.7979
  597TMC3    H2 8854   1.345   1.328  17.294  1.0840 -0.9704  2.7915
  597TMC3    C7 8855   1.185   1.159  17.447 -0.0516 -0.0632  0.1983
  597TMC3    C8 8856   1.518   1.276  17.108 -0.9685 -0.5668  0.6823
  597TMC3    O1 8857   1.152   1.069  17.521  0.1949  0.3719  0.3300
  597TMC3    O2 8858   1.481   1.392  17.100  0.1877  0.0048 -0.2143
  598TMC3    C1 8859   4.227   2.152  15.392  0.1568  0.1312 -0.4918
  598TMC3    C2 8860   4.114   2.089  15.336  0.3068 -0.2802  0.0114
  598TMC3    C3 8861   4.106   2.105  15.199 -0.0418 -0.0020  0.0810
  598TMC3    C4 8862   4.316   2.230  15.324 -0.3205  0.1586  0.3564
  598TMC3    C5 8863   4.295   2.240  15.190 -0.5859  0.0081 -0.5268
  598TMC3    C6 8864   4.199   2.173  15.120  0.2181  0.3255  0.5819
  598TMC3     C 8865   4.252   2.139  15.533 -0.0114 -0.1788  0.1166
  598TMC3     O 8866   4.254   2.245  15.593  0.8803  0.3291  0.5532
  598TMC3     H 8867   4.039   2.059  15.409 -1.0939  2.7534 -0.1742
  598TMC3    H1 8868   4.402   2.266  15.380  0.8908 -0.2177 -1.2811
  598TMC3    H2 8869   4.193   2.169  15.012  0.4779 -1.4028  0.6387
  598TMC3    C7 8870   4.378   2.338  15.120  0.6327 -0.2549 -0.3413
  598TMC3    C8 8871   3.993   2.036  15.139 -0.1140 -1.0046 -0.3058
  598TMC3    O1 8872   4.357   2.352  14.999  0.1824  0.2534  0.1379
  598TMC3    O2 8873   3.965   2.057  15.021 -0.6621  0.1646  0.1993
  599MPD2     C 8874   4.235   0.117  16.122 -0.3761 -0.5391 -0.2749
  599MPD2    C1 8875   4.250   4.719  16.183  0.8448 -0.2508 -0.2755
  599MPD2    C2 8876   4.148   4.685  16.270  0.4596  0.3522 -0.0154
  599MPD2    C3 8877   4.048   0.043  16.313 -0.1640 -0.3599  0.6446
  599MPD2    C4 8878   4.043   0.171  16.261 -0.3513 -0.3887 -0.3104
  599MPD2    C5 8879   4.132   0.200  16.164  0.5802  0.2000  0.2068
  599MPD2     H 8880   4.153   4.589  16.321  0.2516  0.4994  0.2818
  599MPD2    H1 8881   3.959   0.232  16.291 -0.4601 -0.6244 -0.1377
  599MPD2    H2 8882   4.304   0.155  16.047  0.0468 -0.8688 -0.0557
  599MPD2    H3 8883   4.128   0.292  16.108  1.7244 -1.1067 -2.0194
  599MPD2     N 8884   3.939   0.025  16.400 -0.3132  0.2148 -0.0775
  599MPD2    H5 8885   3.887   0.104  16.438  2.0157  0.8373  1.7735
  599MPD2    N1 8886   4.359   4.632  16.148 -0.4696  0.0822  0.2958
  599MPD2    H7 8887   4.431   4.677  16.093 -0.8094  0.1765 -0.0721
  600TMC3    C1 8888   3.803   4.629  16.554 -0.0634 -0.4424  0.1724
  600TMC3    C2 8889   3.751   4.511  16.597  0.0037  0.1576 -0.1271
  600TMC3    C3 8890   3.689   4.503  16.717  0.4743  0.7809  0.6416
  600TMC3    C4 8891   3.797   0.008  16.646  0.4946  0.0790 -0.0247
  600TMC3    C5 8892   3.731   4.718  16.766  0.5560 -0.2902  0.1342
  600TMC3    C6 8893   3.674   4.609  16.809 -0.4039  0.4522 -0.7905
  600TMC3     C 8894   3.913   4.628  16.459  0.1486 -0.3437 -0.4122
  600TMC3     O 8895   3.962   4.518  16.435 -0.2083  0.2807  0.2831
  600TMC3     H 8896   3.752   4.426  16.530  1.4572  0.5532 -0.6223
  600TMC3    H1 8897   3.851   0.098  16.621  0.3605  0.6861  1.9060
  600TMC3    H2 8898   3.628   4.596  16.907  1.1838 -1.8692 -0.3433
  600TMC3    C7 8899   3.719   0.107  16.851 -0.5389  0.2233 -0.8711
  600TMC3    C8 8900   3.691   4.376  16.788  1.1999  0.0838 -0.2385
  600TMC3    O1 8901   3.623   0.104  16.929  0.4332  0.9887 -0.5179
  600TMC3    O2 8902   3.722   4.369  16.906 -0.1857 -0.3065  0.1688
  601MPD2     C 8903   2.099   2.668   0.363  0.4634 -0.2420 -0.2923
  601MPD2    C1 8904   1.968   2.647   0.349  0.0500  0.1881 -0.2238
  601MPD2    C2 8905   1.909   2.531   0.397  0.2157 -0.2561  0.4980
  601MPD2    C3 8906   1.990   2.432   0.456  0.1194  0.1537  0.3041
  601MPD2    C4 8907   2.124   2.460   0.471 -0.2673 -0.1462  0.5764
  601MPD2    C5 8908   2.179   2.577   0.427  0.3750 -0.0606 -0.2352
  601MPD2     H 8909   1.801   2.528   0.393  0.1610  0.4310  1.5686
  601MPD2    H1 8910   2.187   2.401   0.535 -0.3906  1.0912  1.8387
  601MPD2    H2 8911   2.151   2.752   0.317 -1.9815  1.6935  0.5290
  601MPD2    H3 8912   2.287   2.591   0.432  0.5258 -1.6913  1.0319
  601MPD2     N 8913   1.954   2.319   0.520  0.2497  0.6505 -0.1588
  601MPD2    H5 8914   2.022   2.267   0.575  0.6271  1.3793  0.0659
  601MPD2    N1 8915   1.882   2.750   0.303  0.5088 -0.7820 -0.3274
  601MPD2    H7 8916   1.784   2.730   0.290  0.4519  1.1937 -3.0335
  602TMC3    C1 8917   1.821   2.951   0.218  0.2648  0.0525 -0.1154
  602TMC3    C2 8918   1.838   3.088   0.236  0.1660  0.3377 -0.4029
  602TMC3    C3 8919   1.731   3.167   0.226  0.0190 -0.1862 -0.0864
  602TMC3    C4 8920   1.699   2.893   0.186 -0.0860  0.3054  0.0281
  602TMC3    C5 8921   1.598   2.978   0.164  0.4221  0.4638  0.0211
  602TMC3    C6 8922   1.610   3.116   0.193  0.6674  0.8531  0.5461
  602TMC3     C 8923   1.928   2.878   0.264  0.8625  0.0219  0.9731
  602TMC3     O 8924   2.038   2.928   0.274  0.6493 -0.2453 -0.4045
  602TMC3     H 8925   1.928   3.133   0.275  1.1218 -2.0947  0.2196
  602TMC3    H1 8926   1.675   2.790   0.164  1.0142 -0.4640  2.3759
  602TMC3    H2 8927   1.523   3.180   0.203 -0.9789 -0.8182 -3.2158
  602TMC3    C7 8928   1.462   2.938   0.132  0.1423  0.5845 -0.2749
  602TMC3    C8 8929   1.755   3.310   0.227 -0.1130  0.0078  0.2543
  602TMC3    O1 8930   1.418   2.837   0.182 -0.0365 -0.5136 -0.4395
  602TMC3    O2 8931   1.865   3.358   0.234  0.7097  0.1654  0.1080
  603TMC3    C1 8932   3.521   3.078  10.918 -0.4081  0.6050  0.0885
  603TMC3    C2 8933   3.571   3.077  11.045 -0.1225 -0.2049  0.3157
  603TMC3    C3 8934   3.663   3.169  11.085  0.6930 -0.2223  0.4303
  603TMC3    C4 8935   3.557   3.181  10.831 -0.5470 -0.2240 -0.9040
  603TMC3    C5 8936   3.651   3.274  10.875  0.5198  0.1750 -0.3018
  603TMC3    C6 8937   3.706   3.268  11.003  0.4773  0.0626  0.8766
  603TMC3     C 8938   3.413   2.994  10.881 -0.0134 -0.5697 -0.1311
  603TMC3     O 8939   3.341   2.978  10.981 -0.0960  0.0398 -0.2532
  603TMC3     H 8940   3.532   3.011  11.121 -0.5364  0.1660  0.4214
  603TMC3    H1 8941   3.525   3.180  10.727 -1.4190 -0.6052 -0.6338
  603TMC3    H2 8942   3.792   3.329  11.027  1.3480 -0.1222 -1.7821
  603TMC3    C7 8943   3.644   3.401  10.809  0.2327 -0.7472 -0.1009
  603TMC3    C8 8944   3.706   3.172  11.222 -0.2187 -0.4820  0.3402
  603TMC3    O1 8945   3.730   3.476  10.855 -0.0438  0.3130 -0.0777
  603TMC3    O2 8946   3.743   3.062  11.267 -0.0160 -0.2257 -0.5836
  604MPD2     C 8947   0.749   2.269  16.445 -0.3246 -0.6770 -0.1761
  604MPD2    C1 8948   0.640   2.202  16.388 -0.3902 -0.8344 -0.0016
  604MPD2    C2 8949   0.649   2.115  16.282  0.1473  0.6263 -0.3519
  604MPD2    C3 8950   0.776   2.088  16.228 -0.8278 -0.5821  0.1353
  604MPD2    C4 8951   0.882   2.166  16.267  0.9907 -0.3619 -0.5826
  604MPD2    C5 8952   0.868   2.256  16.371 -0.4650  0.5859 -0.6551
  604MPD2     H 8953   0.565   2.054  16.250  1.3904 -0.7098 -1.0624
  604MPD2    H1 8954   0.983   2.163  16.226  0.5711 -1.0747 -1.5623
  604MPD2    H2 8955   0.747   2.326  16.537  3.1365  0.9894 -1.1159
  604MPD2    H3 8956   0.957   2.311  16.397  0.1149 -0.9335  0.5323
  604MPD2     N 8957   0.790   1.992  16.125  0.3004  0.3922 -0.1681
  604MPD2    H5 8958   0.709   1.937  16.099  2.1476 -1.7230 -1.5150
  604MPD2    N1 8959   0.514   2.230  16.450 -0.6830  0.0067 -0.6305
  604MPD2    H7 8960   0.519   2.302  16.521 -1.2396 -1.7402  1.2042
  605TMC3    C1 8961   0.289   2.200  16.529  0.1393 -0.0255  0.4598
  605TMC3    C2 8962   0.341   2.240  16.647 -0.5109  0.3231  1.0085
  605TMC3    C3 8963   0.258   2.282  16.741  0.1360  1.1801 -0.3483
  605TMC3    C4 8964   0.156   2.193  16.510 -0.6393 -0.7290 -0.3475
  605TMC3    C5 8965   0.067   2.225  16.612 -0.9560 -0.1828  0.1621
  605TMC3    C6 8966   0.120   2.282  16.721 -0.4031  0.5769 -0.1433
  605TMC3     C 8967   0.392   2.163  16.426 -0.9486 -0.1854  0.5264
  605TMC3     O 8968   0.363   2.085  16.338  0.4047 -0.1955  0.4276
  605TMC3     H 8969   0.447   2.226  16.665 -0.4701  1.4691  1.6254
  605TMC3    H1 8970   0.123   2.161  16.411 -0.2604 -1.4998 -0.2265
  605TMC3    H2 8971   0.049   2.298  16.802 -0.7821 -0.0169 -0.3592
  605TMC3    C7 8972   4.655   2.250  16.585  0.6822 -0.9340  0.3835
  605TMC3    C8 8973   0.307   2.326  16.872 -0.6179  0.6699  0.4687
  605TMC3    O1 8974   4.599   2.327  16.658 -0.0421  0.0100  0.2250
  605TMC3    O2 8975   0.228   2.329  16.960 -0.7529  0.5153  0.0894
  606TMC3    C1 8976   1.809   0.170   0.535 -0.1587  0.8489  0.4357
  606TMC3    C2 8977   1.927   0.106   0.562  0.1007  0.5993  0.1229
  606TMC3    C3 8978   1.982   0.033   0.463 -0.1678  0.3999 -0.3673
  606TMC3    C4 8979   1.738   0.138   0.420  0.1106  0.1070  0.4793
  606TMC3    C5 8980   1.793   0.054   0.330 -0.5889  0.0571  0.2709
  606TMC3    C6 8981   1.916   4.722   0.347 -0.4489  0.0852 -0.7103
  606TMC3     C 8982   1.735   0.253   0.631  0.6703  0.3305  0.8810
  606TMC3     O 8983   1.624   0.305   0.599 -0.6090  0.1109 -0.1167
  606TMC3     H 8984   1.998   0.150   0.631 -0.2299  0.1729  0.7303
  606TMC3    H1 8985   1.643   0.188   0.407  0.3833  0.4519 -0.1611
  606TMC3    H2 8986   1.953   4.649   0.276 -0.3328 -0.0329 -0.5281
  606TMC3    C7 8987   1.723   0.020   0.209 -0.0709 -0.7178  1.0283
  606TMC3    C8 8988   2.129   0.012   0.469 -0.1177  0.9974  0.8662
  606TMC3    O1 8989   1.799   4.687   0.129  0.1854  0.4872  0.0748
  606TMC3    O2 8990   2.196   0.102   0.518  0.4509 -0.2400 -0.2822
  607MPD2     C 8991   3.310   2.819  11.949 -0.4320  0.3295  0.2944
  607MPD2    C1 8992   3.270   2.925  12.027 -0.4429  0.3190  0.3917
  607MPD2    C2 8993   3.223   2.898  12.155  0.2226  0.0900 -0.4375
  607MPD2    C3 8994   3.213   2.768  12.207 -0.0130  0.4978  0.1927
  607MPD2    C4 8995   3.236   2.668  12.120  0.0938 -0.4974  0.2464
  607MPD2    C5 8996   3.283   2.695  11.995 -0.1323  0.2511 -0.1395
  607MPD2     H 8997   3.213   2.978  12.228  1.7171  1.2056 -1.4597
  607MPD2    H1 8998   3.229   2.564  12.150 -0.9216 -0.2542  0.8507
  607MPD2    H2 8999   3.339   2.842  11.847 -0.2281 -0.5944  0.1428
  607MPD2    H3 9000   3.301   2.603  11.941 -0.6051 -0.5340  1.0548
  607MPD2     N 9001   3.199   2.756  12.343  0.6681 -0.5247  0.2719
  607MPD2    H5 9002   3.192   2.849  12.382 -2.5242 -1.2862  1.5276
  607MPD2    N1 9003   3.292   3.053  11.991  0.3221  0.0594 -0.2991
  607MPD2    H7 9004   3.243   3.122  12.047 -2.1110 -1.3103 -0.7485
  608TMC3    C1 9005   3.426   3.238  11.925  0.1057  0.0910 -0.2788
  608TMC3    C2 9006   3.431   3.282  12.056 -0.3332 -0.6225 -0.5632
  608TMC3    C3 9007   3.480   3.405  12.081 -0.2685 -1.1732 -0.4187
  608TMC3    C4 9008   3.451   3.327  11.825 -0.3912  0.1303 -0.3543
  608TMC3    C5 9009   3.520   3.445  11.855 -0.1552  0.4540  0.4040
  608TMC3    C6 9010   3.532   3.493  11.985  0.5584 -0.5933  0.2789
  608TMC3     C 9011   3.386   3.101  11.898 -0.0566  0.1485 -0.0173
  608TMC3     O 9012   3.433   3.044  11.798 -0.0480 -0.0513  0.2200
  608TMC3     H 9013   3.411   3.206  12.131  1.1958  0.7478  1.2475
  608TMC3    H1 9014   3.450   3.291  11.723  2.9848 -2.0800  0.3652
  608TMC3    H2 9015   3.577   3.584  12.022 -2.2429  0.7678  0.3708
  608TMC3    C7 9016   3.534   3.540  11.753 -0.5262  0.0347  0.5489
  608TMC3    C8 9017   3.461   3.464  12.212  0.3295  0.6450  0.2005
  608TMC3    O1 9018   3.465   3.536  11.651 -0.0311 -0.0492  0.1193
  608TMC3    O2 9019   3.529   3.562  12.241 -0.0910  0.3052 -0.5968
  609TMC3    C1 9020   2.215   2.429   9.442 -0.4729  0.1124  0.0815
  609TMC3    C2 9021   2.150   2.382   9.337 -0.6202 -0.3055  1.0205
  609TMC3    C3 9022   2.171   2.252   9.297  0.0959 -0.7580 -0.3894
  609TMC3    C4 9023   2.298   2.352   9.517 -0.0054  0.4998  0.1061
  609TMC3    C5 9024   2.317   2.220   9.474  0.9352  0.6404 -0.0138
  609TMC3    C6 9025   2.259   2.167   9.362  0.3325 -0.6445  0.3571
  609TMC3     C 9026   2.202   2.570   9.481  0.4176  0.3371 -1.0018
  609TMC3     O 9027   2.132   2.640   9.404  0.5744  0.8146  0.3887
  609TMC3     H 9028   2.083   2.446   9.281 -0.8504  0.2536  1.9465
  609TMC3    H1 9029   2.351   2.392   9.603 -1.4974 -0.2839  1.3945
  609TMC3    H2 9030   2.286   2.074   9.313  1.0528  0.5187 -1.4599
  609TMC3    C7 9031   2.420   2.147   9.543  0.4955 -0.4274 -0.7559
  609TMC3    C8 9032   2.088   2.210   9.181  0.4302  0.4809 -0.9819
  609TMC3    O1 9033   2.476   2.206   9.630  0.2002  0.2786 -0.1869
  609TMC3    O2 9034   2.055   2.301   9.103  0.3403 -0.0424 -0.4180
  610TMC3    C1 9035   3.994   3.425  12.818 -0.4417 -0.0194 -0.1022
  610TMC3    C2 9036   4.058   3.402  12.696 -0.4375 -0.9128  1.4549
  610TMC3    C3 9037   4.137   3.287  12.693  0.1751  0.1654  0.3480
  610TMC3    C4 9038   4.000   3.332  12.924  0.5188  0.9866 -0.0168
  610TMC3    C5 9039   4.079   3.219  12.909  0.2092 -0.6142 -0.5359
  610TMC3    C6 9040   4.146   3.194  12.793  0.3324 -0.0590  0.3897
  610TMC3     C 9041   3.898   3.537  12.831 -0.6700 -0.2785  0.0018
  610TMC3     O 9042   3.870   3.572  12.943  0.5524  0.2447  0.4133
  610TMC3     H 9043   4.069   3.484  12.626 -1.0594 -0.7529  1.5412
  610TMC3    H1 9044   3.942   3.342  13.015 -1.4200 -0.9038 -1.0437
  610TMC3    H2 9045   4.216   3.112  12.790  0.3002 -0.1252  1.3101
  610TMC3    C7 9046   4.126   3.144  13.023  0.2083 -0.3722 -0.1528
  610TMC3    C8 9047   4.211   3.246  12.572 -0.6937 -0.1933  0.3823
  610TMC3    O1 9048   4.156   3.028  13.017 -0.8592 -0.5491 -0.6486
  610TMC3    O2 9049   4.295   3.159  12.578 -1.0476 -0.0481  0.0912
  611MPD2     C 9050   2.640   3.041  10.664 -0.5144 -0.1064  0.3847
  611MPD2    C1 9051   2.559   3.110  10.576  0.3698  0.5698 -1.0094
  611MPD2    C2 9052   2.603   3.222  10.514  0.3841 -1.4275 -0.1372
  611MPD2    C3 9053   2.728   3.274  10.549 -0.0212 -0.3574  0.7201
  611MPD2    C4 9054   2.805   3.208  10.642 -0.8776 -0.8563  0.0078
  611MPD2    C5 9055   2.756   3.095  10.708 -0.0443 -0.4717  0.0701
  611MPD2     H 9056   2.537   3.274  10.446  1.5830 -0.3286 -0.4694
  611MPD2    H1 9057   2.900   3.248  10.674 -0.8106 -2.1029  1.3649
  611MPD2    H2 9058   2.611   2.943  10.702  1.1730 -0.2370  1.3386
  611MPD2    H3 9059   2.807   3.039  10.786  0.2529  0.3319  0.4538
  611MPD2     N 9060   2.785   3.392  10.500 -0.0732  0.0814  0.0491
  611MPD2    H5 9061   2.885   3.407  10.502 -0.2599  1.3705 -0.5837
  611MPD2    N1 9062   2.438   3.046  10.551 -0.3199 -0.7002  0.0538
  611MPD2    H7 9063   2.414   2.970  10.614  0.7551 -1.4171 -0.4012
  612TMC3    C1 9064   2.789   3.603  10.396 -0.1555 -0.4964  0.0209
  612TMC3    C2 9065   2.920   3.605  10.425 -0.0396 -0.7126  0.5058
  612TMC3    C3 9066   3.002   3.680  10.344 -0.1433 -0.4693 -0.1228
  612TMC3    C4 9067   2.740   3.671  10.287  0.1802  0.3740 -0.3224
  612TMC3    C5 9068   2.821   3.754  10.213 -0.1968 -0.2316 -0.1562
  612TMC3    C6 9069   2.957   3.748  10.232 -0.3101 -0.9634  0.6539
  612TMC3     C 9070   2.708   3.492  10.444  0.3066 -0.3657  0.6220
  612TMC3     O 9071   2.590   3.483  10.413  0.1813 -0.4342  0.0708
  612TMC3     H 9072   2.943   3.574  10.526 -0.6621  0.3436  0.9758
  612TMC3    H1 9073   2.632   3.674  10.278  0.2642  2.2653 -0.7210
  612TMC3    H2 9074   3.022   3.818  10.181 -0.7150 -0.1171  1.2953
  612TMC3    C7 9075   2.758   3.841  10.112  0.8632  0.6494 -0.4138
  612TMC3    C8 9076   3.135   3.710  10.387 -0.0438  0.4802 -0.2058
  612TMC3    O1 9077   2.637   3.862  10.119  0.5990 -0.1278 -0.1013
  612TMC3    O2 9078   3.161   3.827  10.355 -0.3459 -0.0589 -0.3109
  613MPD2     C 9079   2.258   1.047  16.853 -0.5075  0.9521  0.3644
  613MPD2    C1 9080   2.228   1.081  16.726 -0.0394  1.5696 -0.0523
  613MPD2    C2 9081   2.145   1.000  16.651 -0.8157 -0.6817 -0.9586
  613MPD2    C3 9082   2.121   0.867  16.694 -0.1349 -0.0291  0.0250
  613MPD2    C4 9083   2.148   0.841  16.832 -0.0302  0.5858 -0.1246
  613MPD2    C5 9084   2.218   0.931  16.910 -0.2161 -0.8557 -0.6529
  613MPD2     H 9085   2.124   1.026  16.547 -1.2760 -0.2839 -0.7634
  613MPD2    H1 9086   2.131   0.744  16.878  2.0283  1.4192  2.4437
  613MPD2    H2 9087   2.326   1.110  16.910 -0.9624  1.9029 -0.1493
  613MPD2    H3 9088   2.267   0.905  17.003 -2.1318  0.6651  0.7793
  613MPD2     N 9089   2.073   0.768  16.606 -0.2041  0.2354 -0.0446
  613MPD2    H5 9090   2.070   0.671  16.634  3.4522 -0.5302 -2.3943
  613MPD2    N1 9091   2.279   1.199  16.682  0.1087  0.1633  0.1230
  613MPD2    H7 9092   2.344   1.253  16.738  0.5005 -1.9104  1.6609
  614TMC3    C1 9093   2.335   1.346  16.511 -0.1249  0.2716  0.3184
  614TMC3    C2 9094   2.456   1.276  16.496  0.3169  0.0616  0.1875
  614TMC3    C3 9095   2.499   1.247  16.369  0.3382 -0.4028 -0.1069
  614TMC3    C4 9096   2.274   1.403  16.402  0.6890  0.5707  0.4480
  614TMC3    C5 9097   2.328   1.365  16.277  0.2641  0.6270 -0.1257
  614TMC3    C6 9098   2.435   1.285  16.261  0.2602  0.4394  0.6322
  614TMC3     C 9099   2.234   1.266  16.572 -0.9764  0.6875  0.3566
  614TMC3     O 9100   2.146   1.236  16.494  0.2845 -1.0872 -0.2804
  614TMC3     H 9101   2.517   1.253  16.583  1.2673 -0.8622 -0.7208
  614TMC3    H1 9102   2.177   1.450  16.411  0.3847 -0.4386  2.3526
  614TMC3    H2 9103   2.477   1.295  16.161 -2.6818 -0.3964 -0.7000
  614TMC3    C7 9104   2.256   1.410  16.153 -0.0856 -0.0122  0.0505
  614TMC3    C8 9105   2.563   1.121  16.360  0.0435 -0.8130  0.0359
  614TMC3    O1 9106   2.184   1.508  16.160 -0.2989  0.3713  0.0933
  614TMC3    O2 9107   2.598   1.050  16.456  0.5161 -0.2519  0.6976
  615MPD2     C 9108   2.200   1.873  16.017  0.3715  0.4681 -0.8089
  615MPD2    C1 9109   2.129   1.962  16.098  0.1300 -0.2296  0.1556
  615MPD2    C2 9110   2.013   2.016  16.054 -0.0019  0.2350  0.2183
  615MPD2    C3 9111   1.967   1.990  15.923  0.2350 -0.7832  0.2626
  615MPD2    C4 9112   2.039   1.903  15.846 -0.1808  0.7583  0.0321
  615MPD2    C5 9113   2.147   1.836  15.894 -0.1195 -0.9434 -0.5726
  615MPD2     H 9114   1.955   2.084  16.114 -0.6211  0.2292 -0.3660
  615MPD2    H1 9115   1.990   1.877  15.753  2.3053 -2.7300 -0.3373
  615MPD2    H2 9116   2.289   1.823  16.052 -0.6675  0.4928  1.8708
  615MPD2    H3 9117   2.196   1.762  15.832  1.0719 -0.2454 -0.4624
  615MPD2     N 9118   1.853   2.053  15.865  0.0687 -0.0407 -0.8220
  615MPD2    H5 9119   1.841   2.041  15.765 -0.4441 -0.9999 -0.6398
  615MPD2    N1 9120   2.182   2.000  16.224  0.3905 -0.2310 -0.0229
  615MPD2    H7 9121   2.121   2.066  16.271 -0.3133 -0.2153 -0.9653
  616TMC3    C1 9122   2.320   2.014  16.405  0.0437  0.7778 -0.6853
  616TMC3    C2 9123   2.441   2.075  16.419  1.0101  0.6971 -0.8024
  616TMC3    C3 9124   2.444   2.159  16.532 -0.2183  0.6382  0.6048
  616TMC3    C4 9125   2.207   2.046  16.468  0.3731  0.4215  0.2078
  616TMC3    C5 9126   2.218   2.140  16.572 -0.3587 -1.1667 -0.6422
  616TMC3    C6 9127   2.340   2.182  16.611  0.1049 -0.2789  0.8953
  616TMC3     C 9128   2.302   1.953  16.280  0.0476 -0.5005 -0.0060
  616TMC3     O 9129   2.400   1.889  16.236  0.4869  0.6445  0.2713
  616TMC3     H 9130   2.533   2.056  16.365  0.7705 -0.2852 -0.8617
  616TMC3    H1 9131   2.114   1.992  16.456  0.6981 -0.0944  0.0247
  616TMC3    H2 9132   2.360   2.250  16.693 -0.2294  2.8657 -1.6213
  616TMC3    C7 9133   2.108   2.146  16.673  0.1365  0.4725 -0.1090
  616TMC3    C8 9134   2.578   2.209  16.579 -0.9285  0.9647 -0.2401
  616TMC3    O1 9135   2.145   2.205  16.774  0.5006 -0.3874  0.1459
  616TMC3    O2 9136   2.597   2.323  16.619 -0.0936 -0.3163 -0.1189
  617MPD2     C 9137   0.259   0.444  14.588 -0.3948 -0.2530  0.6070
  617MPD2    C1 9138   0.246   0.367  14.474  0.1896 -0.4592  0.3504
  617MPD2    C2 9139   0.120   0.308  14.446  0.5716 -0.4616  0.2904
  617MPD2    C3 9140   0.011   0.330  14.539 -0.0536 -0.1066 -0.9607
  617MPD2    C4 9141   0.037   0.390  14.655 -0.4790 -0.4898  0.4555
  617MPD2    C5 9142   0.156   0.449  14.684 -0.5705  0.3528 -0.0578
  617MPD2     H 9143   0.102   0.247  14.358  0.7250  1.3817 -1.0168
  617MPD2    H1 9144   4.679   0.406  14.725  0.4313  2.7679  0.7531
  617MPD2    H2 9145   0.357   0.487  14.605 -0.3874 -0.4549  1.0928
  617MPD2    H3 9146   0.164   0.520  14.765 -0.0008 -0.1778  0.3555
  617MPD2     N 9147   4.602   0.287  14.516  0.1253 -0.3235  0.7998
  617MPD2    H5 9148   4.545   0.285  14.600 -2.0542 -1.5266 -0.7224
  617MPD2    N1 9149   0.358   0.361  14.391  0.7256  0.1816 -0.1848
  617MPD2    H7 9150   0.448   0.391  14.427  0.8755  0.1082 -0.4944
  618TMC3    C1 9151   0.487   0.329  14.186  0.4538 -0.9272 -0.3293
  618TMC3    C2 9152   0.602   0.280  14.234 -0.3815 -0.0908  0.2662
  618TMC3    C3 9153   0.698   0.230  14.157 -0.1113 -0.1633  0.5594
  618TMC3    C4 9154   0.483   0.358  14.055 -0.5056  0.1295 -0.3516
  618TMC3    C5 9155   0.589   0.318  13.982 -0.2734  0.2619 -0.3153
  618TMC3    C6 9156   0.704   0.253  14.025  0.3536 -0.3910  0.1503
  618TMC3     C 9157   0.356   0.335  14.255  1.2994  0.2048 -0.2130
  618TMC3     O 9158   0.261   0.339  14.183  0.0664 -0.0227 -0.1410
  618TMC3     H 9159   0.617   0.260  14.340  0.8699  0.5290  0.2136
  618TMC3    H1 9160   0.399   0.415  14.016  0.5925  2.1829  0.3029
  618TMC3    H2 9161   0.785   0.218  13.962 -0.3498  2.9290 -2.6035
  618TMC3    C7 9162   0.564   0.275  13.850  0.1751  0.1632  0.0450
  618TMC3    C8 9163   0.816   0.174  14.226 -0.0897 -0.0718  0.3968
  618TMC3    O1 9164   0.632   0.306  13.758 -0.0819  0.1481 -0.1034
  618TMC3    O2 9165   0.830   0.200  14.343 -0.7654 -0.0433 -0.1701
  619MPD2     C 9166   1.513   1.922  13.207  0.4812  0.6394  0.6162
  619MPD2    C1 9167   1.425   2.021  13.164 -0.3677 -0.1999 -0.3758
  619MPD2    C2 9168   1.316   2.045  13.242  0.5001 -0.6944 -0.1692
  619MPD2    C3 9169   1.307   1.982  13.366  0.2543 -0.1564 -0.1933
  619MPD2    C4 9170   1.401   1.898  13.420 -0.5132  0.1023 -0.1209
  619MPD2    C5 9171   1.503   1.869  13.337  0.3561  0.0047 -0.6611
  619MPD2     H 9172   1.230   2.096  13.200  1.1408  0.3578 -0.1985
  619MPD2    H1 9173   1.383   1.843  13.512  1.3985  1.0351  0.8115
  619MPD2    H2 9174   1.599   1.881  13.154  1.4051  0.2025  2.4361
  619MPD2    H3 9175   1.574   1.792  13.365 -2.0660 -2.2873 -0.8742
  619MPD2     N 9176   1.192   2.005  13.448 -0.3855 -0.3112 -0.8265
  619MPD2    H5 9177   1.172   1.948  13.530  0.8835  0.5774  0.1129
  619MPD2    N1 9178   1.441   2.096  13.049 -0.4012 -0.4773  0.2442
  619MPD2    H7 9179   1.382   2.176  13.025 -2.3038 -1.3601  1.9587
  620TMC3    C1 9180   1.557   2.213  12.893  0.8514 -0.0012 -0.6799
  620TMC3    C2 9181   1.451   2.265  12.824  0.3153  0.5539 -0.8244
  620TMC3    C3 9182   1.472   2.383  12.761 -0.1451  0.4328  0.1798
  620TMC3    C4 9183   1.684   2.271  12.892 -0.5162  0.3534 -0.5588
  620TMC3    C5 9184   1.694   2.390  12.826  0.4340 -0.1622 -0.2734
  620TMC3    C6 9185   1.592   2.447  12.755 -0.1754 -0.4364  0.2888
  620TMC3     C 9186   1.549   2.095  12.971  0.3466 -0.3907  0.3972
  620TMC3     O 9187   1.638   2.010  12.969 -0.2864  0.5752 -0.3581
  620TMC3     H 9188   1.358   2.210  12.820  0.3294  0.4585  0.3772
  620TMC3    H1 9189   1.763   2.214  12.939  1.2304  1.4455 -2.1893
  620TMC3    H2 9190   1.609   2.537  12.698  1.2735 -1.2469 -0.5465
  620TMC3    C7 9191   1.764   2.499  12.901  0.3965  0.2447  0.0089
  620TMC3    C8 9192   1.374   2.434  12.676 -0.5714  0.0151  0.0500
  620TMC3    O1 9193   1.731   2.610  12.873  0.0616  0.3365  0.1817
  620TMC3    O2 9194   1.415   2.473  12.570  0.3796  0.2201  0.1474
  621MPD2     C 9195   1.636   2.961   9.126 -0.6950 -0.0802  0.5188
  621MPD2    C1 9196   1.649   2.828   9.162  0.0856 -0.0289 -0.0374
  621MPD2    C2 9197   1.707   2.805   9.290 -0.2639  0.4623  0.2204
  621MPD2    C3 9198   1.754   2.895   9.372  0.3514 -0.0217  0.0375
  621MPD2    C4 9199   1.743   3.023   9.328  0.2454  0.4615 -0.4558
  621MPD2    C5 9200   1.690   3.059   9.207 -0.4171  0.2130  0.5421
  621MPD2     H 9201   1.710   2.701   9.320 -0.4515  0.9544  1.9285
  621MPD2    H1 9202   1.777   3.103   9.392  1.3960  0.5927 -1.2231
  621MPD2    H2 9203   1.587   2.996   9.036  0.9656 -0.0575 -0.3864
  621MPD2    H3 9204   1.683   3.165   9.188  1.3823 -0.1599 -2.0844
  621MPD2     N 9205   1.796   2.871   9.507 -0.1132 -0.4158 -0.3017
  621MPD2    H5 9206   1.840   2.781   9.519 -0.8496 -0.7106  0.1683
  621MPD2    N1 9207   1.600   2.717   9.091 -0.6974  0.2165  0.3777
  621MPD2    H7 9208   1.618   2.625   9.128 -2.1691 -0.4323 -0.5163
  622TMC3    C1 9209   1.451   2.605   8.948 -0.0054  0.5393 -0.3811
  622TMC3    C2 9210   1.392   2.538   9.053  0.6846 -0.0080  0.5588
  622TMC3    C3 9211   1.298   2.441   9.021  0.1588 -0.0475  0.5639
  622TMC3    C4 9212   1.409   2.587   8.815  0.4567  0.4175 -0.3475
  622TMC3    C5 9213   1.305   2.497   8.794 -0.7859 -0.4077  0.7574
  622TMC3    C6 9214   1.252   2.418   8.895 -0.1183  0.0693  0.1860
  622TMC3     C 9215   1.533   2.724   8.973 -0.2779  0.0950 -0.8275
  622TMC3     O 9216   1.529   2.815   8.892 -0.1205  0.2589 -0.1355
  622TMC3     H 9217   1.419   2.556   9.157  1.6907  2.0097 -0.0491
  622TMC3    H1 9218   1.448   2.639   8.728 -1.2056  0.7590 -0.8994
  622TMC3    H2 9219   1.163   2.359   8.875  3.0643 -3.4678 -3.4034
  622TMC3    C7 9220   1.252   2.485   8.654  0.5251 -0.3046 -0.3437
  622TMC3    C8 9221   1.231   2.362   9.122  0.8316 -0.3849 -0.1588
  622TMC3    O1 9222   1.323   2.524   8.566 -0.4153  0.9060  0.5605
  622TMC3    O2 9223   1.175   2.262   9.083  0.7950  0.1056  0.2370
  623MPD2     C 9224   0.671   2.671  16.191 -0.3949  0.1878  0.2014
  623MPD2    C1 9225   0.636   2.636  16.321  0.0644  0.7373  0.4819
  623MPD2    C2 9226   0.736   2.609  16.414 -0.3631 -0.1906 -0.4430
  623MPD2    C3 9227   0.865   2.623  16.372  0.0458 -0.5802  0.3271
  623MPD2    C4 9228   0.894   2.664  16.239  0.5219  0.2464 -0.3198
  623MPD2    C5 9229   0.796   2.694  16.152  0.8710 -0.6658  0.7380
  623MPD2     H 9230   0.716   2.579  16.516  2.2390  2.7164  0.9047
  623MPD2    H1 9231   0.998   2.683  16.214  0.8538 -0.7358  0.2994
  623MPD2    H2 9232   0.594   2.693  16.118 -1.2023  1.6244  1.4825
  623MPD2    H3 9233   0.812   2.729  16.051  0.9799 -0.1617  0.9253
  623MPD2     N 9234   0.966   2.579  16.461 -0.4769  0.2396  0.3642
  623MPD2    H5 9235   0.934   2.531  16.544 -1.2782  0.5924  0.2596
  623MPD2    N1 9236   0.503   2.605  16.353 -0.2441  0.3069 -0.5261
  623MPD2    H7 9237   0.431   2.638  16.290 -0.5755  1.9761  0.7295
  624TMC3    C1 9238   1.245   2.649  16.756 -0.1235 -0.2404 -0.1315
  624TMC3    C2 9239   1.152   2.590  16.832  0.5342  0.0966  0.2867
  624TMC3    C3 9240   1.071   2.503  16.765 -0.6277 -0.0797 -0.3808
  624TMC3    C4 9241   1.264   2.624  16.618  0.2258  0.0661 -0.7136
  624TMC3    C5 9242   1.179   2.531  16.560 -0.2437  0.2599 -0.8068
  624TMC3    C6 9243   1.090   2.464  16.636 -0.4988 -0.4728 -1.0812
  624TMC3     C 9244   1.351   2.701  16.839  0.6596 -0.3703  0.2972
  624TMC3     O 9245   1.364   2.652  16.951  0.1785  0.6504  0.0444
  624TMC3     H 9246   1.133   2.624  16.933  3.3563 -1.0276  1.2122
  624TMC3    H1 9247   1.333   2.681  16.557 -1.8930  0.2595 -2.9087
  624TMC3    H2 9248   1.037   2.378  16.596 -3.0663 -0.2423  1.8009
  624TMC3    C7 9249   1.103   2.587  16.446 -0.1619 -1.1075  0.0143
  624TMC3    C8 9250   0.927   2.490  16.806 -0.4742  0.4026 -0.4013
  624TMC3    O1 9251   1.167   2.656  16.366  0.2242  0.3658  0.4508
  624TMC3    O2 9252   0.854   2.458  16.714 -0.0718  0.1267  0.0746
  625MPD2     C 9253   1.255   2.975   0.788 -0.0558  0.8678  0.1123
  625MPD2    C1 9254   1.327   3.094   0.792 -0.6517 -0.0191 -0.2266
  625MPD2    C2 9255   1.446   3.095   0.862 -0.5352  0.3687 -1.0353
  625MPD2    C3 9256   1.493   2.978   0.926  0.4522 -0.1165 -0.8661
  625MPD2    C4 9257   1.422   2.860   0.924  0.1618 -0.2770 -0.2674
  625MPD2    C5 9258   1.296   2.861   0.862  0.6461 -0.7110 -0.2404
  625MPD2     H 9259   1.503   3.188   0.857  1.3185 -0.7644 -1.1893
  625MPD2    H1 9260   1.444   2.765   0.971 -2.4480  0.4911  2.5289
  625MPD2    H2 9261   1.153   2.971   0.752 -0.6970 -0.5154  2.1417
  625MPD2    H3 9262   1.232   2.774   0.871  0.6171 -0.9342 -2.5691
  625MPD2     N 9263   1.619   2.986   0.993 -0.2097  0.0250  0.0373
  625MPD2    H5 9264   1.674   3.071   0.982  0.9197 -0.7946 -0.7050
  625MPD2    N1 9265   1.282   3.219   0.745 -0.1072 -0.5754  0.3964
  625MPD2    H7 9266   1.324   3.304   0.782 -1.8913  0.8366 -0.7895
  626TMC3    C1 9267   1.124   3.373   0.659 -0.0794  0.0603  0.2308
  626TMC3    C2 9268   1.024   3.400   0.573 -0.0803  0.1639  0.4241
  626TMC3    C3 9269   0.959   3.520   0.583 -0.1915 -0.5661 -0.2759
  626TMC3    C4 9270   1.155   3.457   0.762  0.0087 -0.1674 -0.8708
  626TMC3    C5 9271   1.086   3.579   0.772  0.0197 -0.0895 -0.6055
  626TMC3    C6 9272   0.993   3.613   0.679  0.2061 -0.4119 -0.1047
  626TMC3     C 9273   1.168   3.238   0.665  0.4073 -0.8597  0.8121
  626TMC3     O 9274   1.106   3.152   0.605 -0.0539 -0.4193  0.0234
  626TMC3     H 9275   1.005   3.339   0.486 -1.7750 -1.9174  2.2526
  626TMC3    H1 9276   1.219   3.421   0.842  0.0450 -1.9137 -1.6913
  626TMC3    H2 9277   0.950   3.713   0.683  2.0709  0.1933  4.3377
  626TMC3    C7 9278   1.081   3.642   0.904 -0.4037 -0.0164 -0.0424
  626TMC3    C8 9279   0.869   3.564   0.478 -0.3530 -0.1678 -0.6812
  626TMC3    O1 9280   1.172   3.615   0.980  0.1868  0.5197  0.2625
  626TMC3    O2 9281   0.843   3.685   0.485 -0.3132  0.2934  0.0301
  627MPD2     C 9282   3.938   3.810  14.876 -0.4884  0.5618 -0.5247
  627MPD2    C1 9283   4.044   3.763  14.951  0.1171 -0.7387  0.1159
  627MPD2    C2 9284   4.051   3.620  14.967  0.3373  0.5870  0.2624
  627MPD2    C3 9285   3.967   3.531  14.912 -0.5675 -0.5782  0.6110
  627MPD2    C4 9286   3.873   3.585  14.829  0.4494 -0.7806 -0.1081
  627MPD2    C5 9287   3.863   3.721  14.812 -0.2841  0.2162  0.0627
  627MPD2     H 9288   4.124   3.584  15.039  1.7847 -1.5296 -2.2804
  627MPD2    H1 9289   3.810   3.518  14.774  2.3248  0.0380 -3.2348
  627MPD2    H2 9290   3.913   3.913  14.857 -0.5534  0.5877 -0.3091
  627MPD2    H3 9291   3.789   3.762  14.744 -2.2406 -2.4464  0.5952
  627MPD2     N 9292   3.979   3.397  14.949 -0.0563  0.1779  0.3356
  627MPD2    H5 9293   4.057   3.360  15.003 -0.2160 -1.4519 -0.5499
  627MPD2    N1 9294   4.124   3.843  15.035 -0.5098 -0.2696 -1.3154
  627MPD2    H7 9295   4.184   3.798  15.103 -2.4870  1.2343  1.4459
  628TMC3    C1 9296   4.241   4.035  15.120  0.3930 -0.2749  0.5864
  628TMC3    C2 9297   4.340   3.948  15.178  0.2499  0.2216  0.2875
  628TMC3    C3 9298   4.450   4.012  15.229 -0.6244 -0.9572 -0.2402
  628TMC3    C4 9299   4.241   4.174  15.144 -0.5956  0.0457 -0.3697
  628TMC3    C5 9300   4.351   4.226  15.197 -0.0478 -0.3399 -0.0920
  628TMC3    C6 9301   4.450   4.150  15.250 -0.1661 -0.7096 -0.5436
  628TMC3     C 9302   4.124   3.977  15.046  0.1568 -0.2737  0.7374
  628TMC3     O 9303   4.072   4.062  14.974  0.3623  0.3350 -0.1355
  628TMC3     H 9304   4.319   3.843  15.190 -2.8624  0.7449 -0.6251
  628TMC3    H1 9305   4.165   4.239  15.105 -1.1505 -1.5804 -1.9961
  628TMC3    H2 9306   4.540   4.208  15.271  0.0860 -1.3451  0.1143
  628TMC3    C7 9307   4.372   4.367  15.206  0.3759  0.7120  0.3168
  628TMC3    C8 9308   4.572   3.932  15.251  0.5406 -0.6075  0.3061
  628TMC3    O1 9309   4.457   4.403  15.286  0.0432  0.1008 -0.0925
  628TMC3    O2 9310   4.553   3.814  15.226  0.0960  0.5836 -0.0014
  629MPD2     C 9311   3.077   2.090  16.669 -0.9217  0.8273 -0.4140
  629MPD2    C1 9312   3.009   2.211  16.666 -0.4539  0.0926 -0.0422
  629MPD2    C2 9313   2.879   2.221  16.626  0.1132  1.2303 -0.1259
  629MPD2    C3 9314   2.805   2.110  16.600 -0.5315  0.4733 -0.4162
  629MPD2    C4 9315   2.870   1.986  16.594 -0.3459  0.0215 -0.1738
  629MPD2    C5 9316   3.002   1.983  16.632 -0.0225  0.2799 -0.3537
  629MPD2     H 9317   2.833   2.319  16.617  0.1280  1.3469  1.0574
  629MPD2    H1 9318   2.831   1.895  16.551  0.9703 -1.0283  0.8493
  629MPD2    H2 9319   3.181   2.069  16.692 -1.1784  0.5729  0.5264
  629MPD2    H3 9320   3.050   1.885  16.632  0.4978  0.5323  2.8851
  629MPD2     N 9321   2.665   2.106  16.572 -0.2259  0.0807 -0.0588
  629MPD2    H5 9322   2.631   2.014  16.545 -2.6987  1.2723 -0.9757
  629MPD2    N1 9323   3.080   2.323  16.713  0.0471  0.2193 -0.1875
  629MPD2    H7 9324   3.172   2.318  16.756 -0.4784 -1.6365  0.7350
  630TMC3    C1 9325   3.146   2.546  16.741 -0.0141 -0.4392  0.2439
  630TMC3    C2 9326   3.190   2.647  16.657  0.5187  1.1375 -0.0912
  630TMC3    C3 9327   3.285   2.733  16.708  1.0844 -1.0314 -0.2584
  630TMC3    C4 9328   3.199   2.521  16.860  0.2244  0.1000 -0.3579
  630TMC3    C5 9329   3.279   2.614  16.923 -0.4373  0.1480  0.0407
  630TMC3    C6 9330   3.326   2.714  16.839  0.0951  0.1448  0.4145
  630TMC3     C 9331   3.054   2.451  16.675  0.5410 -0.0066  0.1816
  630TMC3     O 9332   2.969   2.499  16.599  1.3192  1.0250  0.6208
  630TMC3     H 9333   3.153   2.661  16.556  1.6010  0.9791 -0.5020
  630TMC3    H1 9334   3.135   2.467  16.929  1.9212 -0.6284  0.6602
  630TMC3    H2 9335   3.376   2.798  16.887 -0.4012  1.7097 -1.7583
  630TMC3    C7 9336   3.348   2.569  17.044  0.1029 -0.2133 -0.4168
  630TMC3    C8 9337   3.366   2.825  16.637 -0.3516  0.0621 -0.5155
  630TMC3    O1 9338   3.314   2.467  17.102 -0.4289  0.4081 -0.4841
  630TMC3    O2 9339   3.470   2.870  16.686 -0.0580  0.8323  0.1032
  631MPD2     C 9340   0.850   2.417  15.859 -0.2002  0.2166  0.2639
  631MPD2    C1 9341   0.892   2.422  15.725  0.0790  0.1456  0.0909
  631MPD2    C2 9342   1.028   2.396  15.703 -0.2492 -0.6964  0.9909
  631MPD2    C3 9343   1.117   2.371  15.809 -0.1257  0.1447  0.2732
  631MPD2    C4 9344   1.064   2.358  15.938  0.6241 -0.0138  0.3889
  631MPD2    C5 9345   0.930   2.381  15.968  0.2153 -0.1076 -0.0349
  631MPD2     H 9346   1.069   2.402  15.603 -2.6945 -3.8071 -0.1901
  631MPD2    H1 9347   1.131   2.323  16.016  1.9016 -2.1087 -1.6293
  631MPD2    H2 9348   0.744   2.428  15.877 -0.1892 -2.2863  1.8900
  631MPD2    H3 9349   0.883   2.382  16.066 -0.0890  1.5621 -0.2052
  631MPD2     N 9350   1.252   2.361  15.775  0.2482  0.4312  0.1841
  631MPD2    H5 9351   1.280   2.378  15.679 -1.2440  0.7059 -0.2042
  631MPD2    N1 9352   0.801   2.452  15.631  0.1358  1.3022 -0.6433
  631MPD2    H7 9353   0.707   2.471  15.663  0.4915 -1.1432  1.8567
  632TMC3    C1 9354   0.712   2.510  15.420 -0.4816 -0.3522  0.3055
  632TMC3    C2 9355   0.656   2.630  15.461  0.3174  0.1912  0.6679
  632TMC3    C3 9356   0.607   2.709  15.361  0.1200 -0.4486 -0.0115
  632TMC3    C4 9357   0.719   2.462  15.295  0.2513  0.4216 -1.2500
  632TMC3    C5 9358   0.677   2.543  15.201  0.0121  0.0576  0.0873
  632TMC3    C6 9359   0.619   2.664  15.227  0.6635 -0.3444 -0.3036
  632TMC3     C 9360   0.823   2.456  15.494  0.0318  0.2011  0.6122
  632TMC3     O 9361   0.917   2.432  15.419 -0.0755  0.1119  0.4576
  632TMC3     H 9362   0.671   2.675  15.558  0.1808  0.8844  0.3646
  632TMC3    H1 9363   0.752   2.361  15.275  0.0526 -0.0136  0.6148
  632TMC3    H2 9364   0.576   2.724  15.148  0.8631 -0.8538 -0.8029
  632TMC3    C7 9365   0.761   2.544  15.078 -0.5463  0.3886  0.6477
  632TMC3    C8 9366   0.572   2.853  15.378 -0.8428  0.9104 -0.1510
  632TMC3    O1 9367   0.722   2.616  14.987  0.2422 -0.5897 -0.3304
  632TMC3    O2 9368   0.560   2.922  15.281 -0.2318  0.5027 -0.0490
  633MPD2     C 9369   0.913   0.878  17.584 -0.5097  0.2543 -0.3667
  633MPD2    C1 9370   0.882   0.780  17.490 -0.2391  0.3869  0.2778
  633MPD2    C2 9371   0.847   0.652  17.529  0.0230  0.0737  1.0305
  633MPD2    C3 9372   0.855   0.624  17.668  0.2888 -0.4902 -0.1477
  633MPD2    C4 9373   0.892   0.716   0.061 -0.3971  0.3020  0.1666
  633MPD2    C5 9374   0.912   0.845   0.019  0.6059 -0.3599  0.1554
  633MPD2     H 9375   0.815   0.572  17.463  1.7086 -0.1312  0.4456
  633MPD2    H1 9376   0.902   0.691   0.166 -1.4397  0.4091  0.2884
  633MPD2    H2 9377   0.933   0.981  17.558 -1.2569  0.2511 -0.9349
  633MPD2    H3 9378   0.943   0.914   0.097  3.9187  0.4539 -1.8986
  633MPD2     N 9379   0.818   0.493   0.023 -0.0888 -0.0326 -0.6856
  633MPD2    H5 9380   0.842   0.468   0.118  2.1689  1.2950 -0.9135
  633MPD2    N1 9381   0.859   0.800  17.349  0.6875 -0.1247 -0.0868
  633MPD2    H7 9382   0.836   0.713  17.302  1.6562 -0.9224  0.9120
  634TMC3    C1 9383   0.867   0.925  17.149  0.2057  1.0909 -0.1748
  634TMC3    C2 9384   0.940   0.829  17.089  0.3351 -0.1794  0.2941
  634TMC3    C3 9385   0.977   0.842  16.954  0.2094  0.4665 -0.0046
  634TMC3    C4 9386   0.833   1.045  17.089  1.0101  0.3867 -0.4491
  634TMC3    C5 9387   0.868   1.051  16.954  0.7187 -0.2447 -0.3380
  634TMC3    C6 9388   0.941   0.955  16.886  0.4429 -0.1139 -0.5729
  634TMC3     C 9389   0.863   0.928  17.290 -0.1777  0.1973 -0.0709
  634TMC3     O 9390   0.862   1.044  17.330 -0.1508  0.0362  0.1300
  634TMC3     H 9391   0.948   0.734  17.141  2.1019  0.9022  2.0227
  634TMC3    H1 9392   0.746   1.096  17.131 -0.4861 -1.2662 -1.5591
  634TMC3    H2 9393   0.971   0.970  16.783  1.8519  0.6355 -0.0531
  634TMC3    C7 9394   0.855   1.175  16.888  0.5538  0.4593  0.2134
  634TMC3    C8 9395   1.003   0.716  16.894  0.8568 -0.3326 -0.3927
  634TMC3    O1 9396   0.890   1.179  16.768 -0.2277 -0.4787  0.0187
  634TMC3    O2 9397   0.970   0.617  16.953  0.2315 -0.0147 -0.0138
  635TMC3    C1 9398   1.365   1.336   0.137  0.3741 -0.2626  0.5620
  635TMC3    C2 9399   1.440   1.278   0.042  0.0631 -0.0615  0.5224
  635TMC3    C3 9400   1.414   1.149   0.005  0.0079 -0.4716  0.7578
  635TMC3    C4 9401   1.285   1.261   0.216  0.4089  0.3821  0.2483
  635TMC3    C5 9402   1.274   1.128   0.187  0.1745  0.2808  0.0285
  635TMC3    C6 9403   1.331   1.073   0.079 -0.4630 -0.5229  0.3881
  635TMC3     C 9404   1.420   1.457   0.191  0.3923  0.0898  0.4124
  635TMC3     O 9405   1.419   1.467   0.318 -0.0834 -0.3527 -0.3707
  635TMC3     H 9406   1.512   1.339  17.686  0.1835  0.8511  1.7390
  635TMC3    H1 9407   1.247   1.311   0.304  1.0542  3.3466 -1.1786
  635TMC3    H2 9408   1.324   0.968   0.053  0.4602 -0.5631  0.3049
  635TMC3    C7 9409   1.202   1.048   0.279 -0.0435 -0.1063  0.2366
  635TMC3    C8 9410   1.492   1.094  17.592  0.9008 -0.5312  0.2859
  635TMC3    O1 9411   1.137   1.112   0.362  0.1275 -0.2699  0.1555
  635TMC3    O2 9412   1.559   1.174  17.529  0.3839 -1.3794  0.1904
  636MPD2     C 9413   1.916   1.239  15.831  0.2136 -0.0444  0.2855
  636MPD2    C1 9414   1.910   1.257  15.968  0.4682  0.3389 -0.1520
  636MPD2    C2 9415   1.938   1.156  16.058  0.2303 -0.0586 -0.2760
  636MPD2    C3 9416   1.953   1.035  16.006  0.2879  0.2215 -0.1966
  636MPD2    C4 9417   1.962   1.013  15.869 -0.6928  0.3405  0.4110
  636MPD2    C5 9418   1.951   1.115  15.783  0.5149 -0.0131 -0.3172
  636MPD2     H 9419   1.947   1.161  16.165 -1.5201  0.6785 -0.1518
  636MPD2    H1 9420   1.983   0.914  15.831 -1.1694 -0.2152  1.5874
  636MPD2    H2 9421   1.890   1.313  15.756  2.3966 -1.1656 -1.6008
  636MPD2    H3 9422   1.964   1.110  15.676 -0.0689 -0.3558 -0.3752
  636MPD2     N 9423   1.960   0.926  16.096 -0.3668  0.1467  0.9315
  636MPD2    H5 9424   1.942   0.941  16.195 -1.3377  0.8368  0.6582
  636MPD2    N1 9425   1.864   1.382  16.023  0.2756 -0.4320 -0.2882
  636MPD2    H7 9426   1.851   1.386  16.123  1.2132 -0.8488 -0.1492
  637TMC3    C1 9427   2.039   0.716  16.174 -0.1013  0.4237 -0.9246
  637TMC3    C2 9428   1.965   0.733  16.285 -0.4403  0.9907 -0.4174
  637TMC3    C3 9429   2.015   0.687  16.402  0.4094 -0.1655  0.7521
  637TMC3    C4 9430   2.162   0.643  16.174  0.2315 -0.1812  0.3863
  637TMC3    C5 9431   2.216   0.599  16.295 -0.4460  0.0877 -0.1801
  637TMC3    C6 9432   2.134   0.615  16.404  0.1535  0.5392 -0.3084
  637TMC3     C 9433   1.994   0.795  16.062  0.3131  0.2998  0.0935
  637TMC3     O 9434   2.014   0.740  15.956 -0.5771  0.6236 -0.1267
  637TMC3     H 9435   1.864   0.770  16.293 -0.3903  1.1228 -0.3985
  637TMC3    H1 9436   2.220   0.632  16.083 -1.6209  0.3802 -0.8777
  637TMC3    H2 9437   2.171   0.574  16.497 -0.9055 -0.4940 -0.3336
  637TMC3    C7 9438   2.342   0.667  16.317  0.2914  0.5431 -0.6220
  637TMC3    C8 9439   2.017   0.801  16.486 -0.3079  0.1930 -0.1875
  637TMC3    O1 9440   2.341   0.739  16.416 -0.3310  0.6124  0.4060
  637TMC3    O2 9441   1.978   0.908  16.429 -1.2432  0.0221 -0.2786
  638MPD2     C 9442   2.176   4.338  14.917 -0.1140  0.3200 -0.0770
  638MPD2    C1 9443   2.128   4.220  14.859 -0.1490  0.5600  0.0659
  638MPD2    C2 9444   2.083   4.110  14.935  0.8105 -0.2006 -0.2361
  638MPD2    C3 9445   2.082   4.118  15.072  0.2299 -0.6209 -0.0734
  638MPD2    C4 9446   2.117   4.239  15.128 -0.3150  0.3038 -0.3320
  638MPD2    C5 9447   2.160   4.346  15.053 -0.3817  0.7090  0.3225
  638MPD2     H 9448   2.038   4.029  14.880 -1.3155  1.4028 -0.8541
  638MPD2    H1 9449   2.118   4.248  15.236  0.9394  0.3234 -0.3484
  638MPD2    H2 9450   2.209   4.419  14.853  0.2209  1.2115  1.2211
  638MPD2    H3 9451   2.180   4.437  15.108 -0.3347  2.3048 -2.3378
  638MPD2     N 9452   2.039   3.999  15.138 -0.1892  0.1570  0.0436
  638MPD2    H5 9453   2.012   3.924  15.076  0.0332  0.3167 -0.2487
  638MPD2    N1 9454   2.140   4.211  14.716  0.2249  0.2789 -0.0336
  638MPD2    H7 9455   2.215   4.273  14.689  0.4381  0.8367  1.8647
  639TMC3    C1 9456   1.987   3.853  15.306 -0.1347  0.3037 -0.2164
  639TMC3    C2 9457   1.907   3.780  15.226 -0.4841 -0.6052  0.0927
  639TMC3    C3 9458   1.842   3.677  15.296  0.2089  0.7078  0.0386
  639TMC3    C4 9459   2.022   3.815  15.436 -0.0981 -0.4270 -0.2338
  639TMC3    C5 9460   1.969   3.705  15.495  0.3036  0.9005  0.8310
  639TMC3    C6 9461   1.866   3.643  15.430  0.2328  0.3024  1.0464
  639TMC3     C 9462   2.036   3.981  15.269 -0.2213 -0.5037 -0.2521
  639TMC3     O 9463   2.086   4.056  15.352  0.9965 -0.0724  0.0489
  639TMC3     H 9464   1.879   3.816  15.128  0.9226 -1.8435 -0.7778
  639TMC3    H1 9465   2.094   3.875  15.491 -1.5519  0.1231  1.0601
  639TMC3    H2 9466   1.819   3.559  15.478 -0.8090  0.4634  0.2894
  639TMC3    C7 9467   2.071   3.608  15.537 -0.4518  0.0473 -0.1783
  639TMC3    C8 9468   1.746   3.599  15.226 -0.3292  0.1288  1.0012
  639TMC3    O1 9469   2.035   3.518  15.609  0.2964  0.7978  0.3318
  639TMC3    O2 9470   1.777   3.597  15.111 -0.5717 -0.5072 -0.1939
  640MPD2     C 9471   2.277   3.571   9.545 -0.4351 -0.1326  0.0889
  640MPD2    C1 9472   2.301   3.484   9.648 -0.0959 -0.1743  0.5714
  640MPD2    C2 9473   2.249   3.519   9.777  0.4010  0.2975  0.6856
  640MPD2    C3 9474   2.172   3.630   9.794  0.0982 -1.0143 -0.4936
  640MPD2    C4 9475   2.147   3.712   9.684  0.4080  0.4827  0.0099
  640MPD2    C5 9476   2.197   3.676   9.559 -0.2052 -0.3317 -0.2282
  640MPD2     H 9477   2.283   3.462   9.864  0.8679 -1.2494 -0.4976
  640MPD2    H1 9478   2.079   3.796   9.687  0.7842  0.8364 -1.4279
  640MPD2    H2 9479   2.322   3.550   9.448  1.3722  0.2046  0.8599
  640MPD2    H3 9480   2.170   3.733   9.471 -1.6832 -0.6840 -0.0038
  640MPD2     N 9481   2.103   3.645   9.919 -0.4362  0.4971  0.0713
  640MPD2    H5 9482   2.119   3.573   9.989 -0.9434  0.8502  0.5551
  640MPD2    N1 9483   2.380   3.363   9.620  0.1442 -0.1306  0.6749
  640MPD2    H7 9484   2.407   3.339   9.525 -0.8281  0.2343  0.3016
  641TMC3    C1 9485   2.483   3.156   9.662 -0.2553 -0.4028  0.0550
  641TMC3    C2 9486   2.551   3.081   9.758  0.3272  0.6784  0.1605
  641TMC3    C3 9487   2.610   2.969   9.706  0.2547  0.3291  0.5496
  641TMC3    C4 9488   2.482   3.131   9.528  0.2086  0.0351 -0.0227
  641TMC3    C5 9489   2.536   3.012   9.477 -0.4360 -0.0367  0.3107
  641TMC3    C6 9490   2.598   2.935   9.575 -0.3924 -0.1723  0.3725
  641TMC3     C 9491   2.417   3.273   9.713  0.1154 -0.2983 -0.1904
  641TMC3     O 9492   2.397   3.277   9.834  0.2414 -0.2691 -0.1404
  641TMC3     H 9493   2.558   3.130   9.855  2.8134  1.6569 -0.5132
  641TMC3    H1 9494   2.417   3.182   9.458 -0.5915  1.9199  2.1242
  641TMC3    H2 9495   2.643   2.842   9.543 -0.1393 -0.1248  0.5861
  641TMC3    C7 9496   2.490   2.954   9.349 -0.4187  0.1762  0.9842
  641TMC3    C8 9497   2.648   2.858   9.793 -0.1272  0.1963  0.1473
  641TMC3    O1 9498   2.435   3.023   9.261 -0.3856  0.0250  0.2344
  641TMC3    O2 9499   2.712   2.766   9.745 -0.3675  0.3247 -0.0352
  642TMC3    C1 9500   2.962   3.898  12.525 -0.4949 -0.5362  0.3909
  642TMC3    C2 9501   3.057   3.907  12.625 -0.1251 -0.0985 -0.1206
  642TMC3    C3 9502   3.120   3.792  12.662 -0.6932 -0.5705 -0.2908
  642TMC3    C4 9503   2.929   3.779  12.460  0.1203 -0.4060 -0.0182
  642TMC3    C5 9504   2.998   3.668  12.499 -0.0540 -0.1908  0.1018
  642TMC3    C6 9505   3.087   3.675  12.605 -0.6045  0.3082 -0.4866
  642TMC3     C 9506   2.889   4.011  12.473 -0.1826 -0.0571 -0.3497
  642TMC3     O 9507   2.782   4.001  12.417 -0.0468 -0.1273 -0.4159
  642TMC3     H 9508   3.065   3.988  12.697  0.4617 -0.0938 -0.1849
  642TMC3    H1 9509   2.850   3.771  12.386  0.4122  0.9144 -0.4839
  642TMC3    H2 9510   3.143   3.586  12.632 -0.9227 -0.0003 -0.8687
  642TMC3    C7 9511   2.951   3.535  12.452  0.1328  0.0025  0.0695
  642TMC3    C8 9512   3.178   3.792  12.790 -0.3865  0.6355 -0.8602
  642TMC3    O1 9513   2.914   3.510  12.338 -0.1538 -0.3058  0.3440
  642TMC3    O2 9514   3.227   3.895  12.827 -0.0901 -0.5783 -0.8539
  643TMC3    C1 9515   2.805   2.981   0.957 -0.5878  0.2364 -0.2488
  643TMC3    C2 9516   2.682   3.031   0.960  0.2630 -0.3988 -0.0043
  643TMC3    C3 9517   2.624   3.046   0.837  0.3681 -0.1622  0.5038
  643TMC3    C4 9518   2.884   2.966   0.850  0.9669 -0.1797  1.0231
  643TMC3    C5 9519   2.824   2.983   0.723 -0.4771 -0.9559  0.5440
  643TMC3    C6 9520   2.693   3.027   0.719  0.4029  0.2219  0.0656
  643TMC3     C 9521   2.869   2.953   1.086  0.3176 -0.2332  0.4898
  643TMC3     O 9522   2.804   2.905   1.177  0.0870  0.9234 -0.2145
  643TMC3     H 9523   2.629   3.045   1.054  0.6968  0.4112  0.1231
  643TMC3    H1 9524   2.982   2.923   0.861  0.8286 -0.7014  0.2423
  643TMC3    H2 9525   2.652   3.034   0.619  3.3187 -1.1116 -1.2149
  643TMC3    C7 9526   2.914   3.047   0.626 -0.3343  0.2990 -0.3614
  643TMC3    C8 9527   2.499   3.109   0.840 -0.6377  0.2604 -0.0343
  643TMC3    O1 9528   2.874   3.147   0.572 -0.6623 -0.2978  0.2671
  643TMC3    O2 9529   2.445   3.121   0.950 -0.2887  0.4040  0.2423
  644MPD2     C 9530   2.369   4.065  10.059 -0.1460 -0.1926  0.0862
  644MPD2    C1 9531   2.345   4.036   9.922 -0.3556 -1.1784 -0.8808
  644MPD2    C2 9532   2.262   4.119   9.850  0.1921 -0.3008 -0.2024
  644MPD2    C3 9533   2.208   4.229   9.913 -0.6416 -0.5678  0.2797
  644MPD2    C4 9534   2.229   4.246  10.047  0.4586  0.1339  0.0029
  644MPD2    C5 9535   2.312   4.164  10.124 -0.2852  0.0315 -0.7016
  644MPD2     H 9536   2.241   4.103   9.745  0.2290 -0.5405 -0.1747
  644MPD2    H1 9537   2.186   4.329  10.101  2.3451  0.6113  0.7799
  644MPD2    H2 9538   2.426   3.992  10.115 -0.3011  0.3057  0.9045
  644MPD2    H3 9539   2.321   4.169  10.232  1.9378 -1.2561 -0.8138
  644MPD2     N 9540   2.124   4.318   9.838 -0.2494  0.4049  0.0526
  644MPD2    H5 9541   2.125   4.313   9.737  0.7971  0.7496  0.0472
  644MPD2    N1 9542   2.406   3.922   9.874 -0.4798 -1.0663 -0.5677
  644MPD2    H7 9543   2.453   3.863   9.942 -0.7785 -1.0360 -0.3367
  645TMC3    C1 9544   1.967   4.489   9.788  0.2532 -0.6987  0.5984
  645TMC3    C2 9545   1.902   4.408   9.705 -0.6464 -0.2232  0.1552
  645TMC3    C3 9546   1.805   4.469   9.633  0.0329 -0.4388 -0.0298
  645TMC3    C4 9547   1.938   4.625   9.805  0.6208 -0.4160  0.4685
  645TMC3    C5 9548   1.849   4.677   9.722  0.3433  0.8444 -0.2022
  645TMC3    C6 9549   1.780   4.602   9.632  0.4660 -0.0945  0.2801
  645TMC3     C 9550   2.061   4.433   9.886  0.1958  0.2598 -0.1920
  645TMC3     O 9551   2.069   4.492   9.991 -0.1570 -0.0432  0.1003
  645TMC3     H 9552   1.914   4.302   9.726 -2.7719 -0.0766  2.0396
  645TMC3    H1 9553   1.995   4.690   9.869  3.3778 -1.5127 -0.8512
  645TMC3    H2 9554   1.699   4.645   9.574  0.7624  2.3753  1.6772
  645TMC3    C7 9555   1.842   0.098   9.707 -0.6066 -0.0198 -0.2539
  645TMC3    C8 9556   1.706   4.384   9.565 -0.8669 -0.5894 -0.2495
  645TMC3    O1 9557   1.894   0.166   9.792 -0.3913 -0.3552 -0.1997
  645TMC3    O2 9558   1.600   4.432   9.523  0.5965 -0.1620 -0.5153
  646MPD2     C 9559   2.165   2.800  14.860  0.0074 -0.2141  0.4172
  646MPD2    C1 9560   2.056   2.769  14.935  0.2653  0.1718  0.0719
  646MPD2    C2 9561   1.936   2.819  14.905 -0.3593  0.1161  0.2620
  646MPD2    C3 9562   1.922   2.895  14.795 -0.1886  0.1635 -0.2288
  646MPD2    C4 9563   2.030   2.926  14.724 -0.8373 -0.1303  0.4988
  646MPD2    C5 9564   2.153   2.872  14.747  0.4753  0.2849  0.1231
  646MPD2     H 9565   1.839   2.806  14.952 -0.3985 -1.7495 -0.3058
  646MPD2    H1 9566   2.023   3.006  14.651 -2.7212 -1.2253 -0.5104
  646MPD2    H2 9567   2.261   2.769  14.901  0.5117  1.6227  0.6234
  646MPD2    H3 9568   2.239   2.905  14.689  0.9016 -0.3236  0.4180
  646MPD2     N 9569   1.788   2.940  14.767 -0.4805  0.0078  0.7482
  646MPD2    H5 9570   1.711   2.896  14.815  0.4796 -0.7315  1.6210
  646MPD2    N1 9571   2.084   2.714  15.061 -0.0991  0.5131 -0.6498
  646MPD2    H7 9572   2.180   2.707  15.092 -0.2251  1.3612 -0.0787
  647TMC3    C1 9573   2.037   2.652  15.287  0.4539 -0.3079 -0.4888
  647TMC3    C2 9574   1.977   2.555  15.361  0.2804 -0.0755  0.9615
  647TMC3    C3 9575   2.048   2.514  15.471  0.0260 -0.0906 -0.5222
  647TMC3    C4 9576   2.162   2.706  15.322  0.5768  0.1190  0.5432
  647TMC3    C5 9577   2.218   2.668  15.443  0.0828 -0.3719 -0.7162
  647TMC3    C6 9578   2.163   2.569  15.520 -0.1671  0.1352 -0.3311
  647TMC3     C 9579   1.993   2.660  15.147 -0.4023 -0.2403  0.5246
  647TMC3     O 9580   1.879   2.625  15.128 -0.0665 -0.3397 -0.0277
  647TMC3     H 9581   1.888   2.506  15.322  2.0575 -0.8271 -2.2129
  647TMC3    H1 9582   2.216   2.773  15.257 -2.4090  2.2074  0.1997
  647TMC3    H2 9583   2.204   2.545  15.617  0.2633 -0.9372 -0.7766
  647TMC3    C7 9584   2.360   2.648  15.458 -0.5806 -0.7382 -1.0395
  647TMC3    C8 9585   2.013   2.396  15.540 -0.1559 -0.2288  0.4865
  647TMC3    O1 9586   2.405   2.539  15.491 -0.6450  0.1234  0.9122
  647TMC3    O2 9587   2.059   2.382  15.651 -0.1563 -0.1881 -0.4065
  648TMC3    C1 9588   1.354   0.663  16.346  0.6389 -0.6264 -0.1424
  648TMC3    C2 9589   1.383   0.548  16.285  0.2725  0.1846 -0.5066
  648TMC3    C3 9590   1.331   0.519  16.160  0.2673 -0.4453  0.7287
  648TMC3    C4 9591   1.272   0.755  16.281 -0.0469 -0.2233  0.4851
  648TMC3    C5 9592   1.212   0.729  16.159  0.3264 -0.0178  0.0960
  648TMC3    C6 9593   1.231   0.600  16.105  0.0403 -0.3589 -0.4737
  648TMC3     C 9594   1.382   0.685  16.488  0.7788 -0.2617  0.0911
  648TMC3     O 9595   1.372   0.801  16.516  0.0696 -0.5094 -0.4805
  648TMC3     H 9596   1.450   0.476  16.331 -0.8260  0.1956  1.1043
  648TMC3    H1 9597   1.256   0.850  16.332  0.0480 -0.5051  1.0429
  648TMC3    H2 9598   1.176   0.575  16.015 -2.1292 -0.4309  0.8814
  648TMC3    C7 9599   1.175   0.833  16.061 -0.2661 -0.8098 -0.1676
  648TMC3    C8 9600   1.345   0.396  16.097 -0.0763 -0.0689 -0.4142
  648TMC3    O1 9601   1.179   0.810  15.941  0.4459  0.4748  0.2034
  648TMC3    O2 9602   1.265   0.360  16.011 -0.2480 -0.2183  0.5060
  649TMC3    C1 9603   0.040   1.619  12.877 -0.6911  0.1221 -0.6344
  649TMC3    C2 9604   0.090   1.738  12.824 -0.5570  0.1884  0.5736
  649TMC3    C3 9605   0.193   1.791  12.892 -0.3187 -0.3759 -0.1757
  649TMC3    C4 9606   0.082   1.566  12.996  0.1875  0.3029  0.5047
  649TMC3    C5 9607   0.177   1.635  13.069 -0.2447  0.2188 -0.5554
  649TMC3    C6 9608   0.241   1.744  13.017  0.8214  0.5159 -0.3584
  649TMC3     C 9609   4.629   1.574  12.836 -0.4312 -0.2868  0.2578
  649TMC3     O 9610   4.578   1.657  12.763 -0.0174 -0.3292  0.1380
  649TMC3     H 9611   0.061   1.781  12.729  1.6046  0.7146  0.1683
  649TMC3    H1 9612   0.022   1.492  13.047  1.1629 -1.2976 -0.6612
  649TMC3    H2 9613   0.336   1.781  13.055  2.1884 -2.0631 -1.2227
  649TMC3    C7 9614   0.209   1.593  13.199  0.2598 -0.4269  0.3199
  649TMC3    C8 9615   0.257   1.920  12.845  0.3088  0.6811 -0.1492
  649TMC3    O1 9616   0.260   1.676  13.271 -0.6263 -0.0616  0.0151
  649TMC3    O2 9617   0.373   1.944  12.885  0.0322 -0.9207 -0.0956
  650TMC3    C1 9618   2.066   3.325  12.550  0.6005 -0.6518 -0.4373
  650TMC3    C2 9619   1.975   3.431  12.543 -0.2449 -0.9720  0.3450
  650TMC3    C3 9620   1.946   3.474  12.419 -0.1775  0.0758 -0.6809
  650TMC3    C4 9621   2.131   3.272  12.437  0.6015 -0.4679 -0.5245
  650TMC3    C5 9622   2.116   3.337  12.321 -0.0392 -1.2222 -0.5060
  650TMC3    C6 9623   2.013   3.428  12.308  0.1061  0.3704  0.3435
  650TMC3     C 9624   2.120   3.295  12.682  0.0487  0.6372  0.7384
  650TMC3     O 9625   2.108   3.377  12.772 -0.0808  0.1303 -0.5844
  650TMC3     H 9626   1.919   3.460  12.632 -2.4852  3.0576 -2.3804
  650TMC3    H1 9627   2.219   3.212  12.454  0.0423  0.0203  4.0089
  650TMC3    H2 9628   2.007   3.480  12.213 -0.4157  0.2025  0.2870
  650TMC3    C7 9629   2.238   3.399  12.278 -0.6537  1.0677  0.6448
  650TMC3    C8 9630   1.855   3.581  12.398 -0.3199 -0.3031 -0.3995
  650TMC3    O1 9631   2.334   3.328  12.278  0.0230 -0.0021  0.5807
  650TMC3    O2 9632   1.762   3.555  12.323  0.1860 -0.0082 -0.1241
  651MPD2     C 9633   1.249   0.600  11.130 -0.1766  0.6989  0.4236
  651MPD2    C1 9634   1.233   0.726  11.068 -0.1221  0.2197 -0.2474
  651MPD2    C2 9635   1.343   0.795  11.025 -0.4554 -0.1177  0.7259
  651MPD2    C3 9636   1.468   0.723  11.027  0.8407 -0.1105  0.5115
  651MPD2    C4 9637   1.486   0.591  11.077  0.2745 -0.4317  0.7903
  651MPD2    C5 9638   1.369   0.535  11.122  0.4948  0.8552  0.3042
  651MPD2     H 9639   1.336   0.894  10.982 -1.7889 -0.2534  0.6429
  651MPD2    H1 9640   1.581   0.540  11.087  0.5663  0.2139  1.2732
  651MPD2    H2 9641   1.163   0.563  11.183 -0.4916 -2.4593 -2.2746
  651MPD2    H3 9642   1.381   0.440  11.173 -1.3992 -0.2029 -1.2392
  651MPD2     N 9643   1.574   0.795  10.974  0.2408 -0.2041  0.6684
  651MPD2    H5 9644   1.548   0.868  10.909  0.0942 -1.2235 -0.4205
  651MPD2    N1 9645   1.111   0.793  11.062 -0.2425 -0.1703  0.1773
  651MPD2    H7 9646   1.112   0.885  11.020 -2.2767 -1.0404 -1.7956
  652TMC3    C1 9647   1.980   0.857  10.750 -0.1534  0.3214  0.2698
  652TMC3    C2 9648   1.910   0.808  10.858  0.3146  1.1484  0.4498
  652TMC3    C3 9649   1.772   0.808  10.852  0.1749  0.0687  0.4677
  652TMC3    C4 9650   1.923   0.895  10.629 -0.3965 -0.3204  0.0765
  652TMC3    C5 9651   1.787   0.879  10.620 -0.2909 -0.0326 -0.7920
  652TMC3    C6 9652   1.715   0.836  10.732  0.4049  0.4350  0.2114
  652TMC3     C 9653   2.125   0.869  10.774  0.5381 -1.2381  0.5345
  652TMC3     O 9654   2.183   0.813  10.867 -0.1020 -0.0186  0.5845
  652TMC3     H 9655   1.965   0.779  10.947  0.1201 -0.4298  0.0528
  652TMC3    H1 9656   1.988   0.939  10.553 -0.4730 -0.8414 -0.2921
  652TMC3    H2 9657   1.607   0.835  10.725  0.3424  0.6492  1.2236
  652TMC3    C7 9658   1.708   0.942  10.514 -0.0721 -0.2925 -0.1625
  652TMC3    C8 9659   1.701   0.751  10.965 -0.2004  0.1988  0.2479
  652TMC3    O1 9660   1.588   0.916  10.508 -0.0365 -0.2849  0.0129
  652TMC3    O2 9661   1.768   0.692  11.051  0.2845  0.0058 -0.1309
  653MPD2     C 9662   0.569   0.461   0.361  0.7241 -0.4928  0.1028
  653MPD2    C1 9663   0.543   0.566   0.272 -0.4858  0.1665 -0.8662
  653MPD2    C2 9664   0.474   0.536   0.159 -0.5455  0.3707 -0.0313
  653MPD2    C3 9665   0.429   0.411   0.128  0.4925  0.1054 -0.2825
  653MPD2    C4 9666   0.461   0.309   0.211 -0.5085 -0.3735  0.0367
  653MPD2    C5 9667   0.538   0.331   0.322  0.5447  1.0230 -0.5655
  653MPD2     H 9668   0.452   0.620   0.094  2.1320  1.2867  0.2792
  653MPD2    H1 9669   0.440   0.206   0.186 -0.8967 -0.2291 -0.2417
  653MPD2    H2 9670   0.634   0.471   0.447  0.1169  1.3336  0.3486
  653MPD2    H3 9671   0.583   0.246   0.371 -1.0290  1.3458  1.4558
  653MPD2     N 9672   0.366   0.399   0.004  0.5944  0.1279  0.2372
  653MPD2    H5 9673   0.353   0.484  17.647 -0.8248  1.1399  2.1645
  653MPD2    N1 9674   0.586   0.705   0.288 -0.3081  0.3719  0.1697
  653MPD2    H7 9675   0.569   0.765   0.208  2.2550 -0.1725 -0.7888
  654TMC3    C1 9676   0.246   0.307  17.526  0.4083 -0.1266  0.2780
  654TMC3    C2 9677   0.159   0.413  17.502  0.2716  0.7944  0.1324
  654TMC3    C3 9678   0.070   0.403  17.396 -0.3668 -1.0827 -0.2712
  654TMC3    C4 9679   0.249   0.198  17.453  0.8404  0.3420 -0.2008
  654TMC3    C5 9680   0.162   0.194  17.346  0.2489 -0.2220 -0.7565
  654TMC3    C6 9681   0.074   0.295  17.317  0.4151 -0.5244 -0.5928
  654TMC3     C 9682   0.308   0.288  17.657 -0.1776  0.2040 -0.3042
  654TMC3     O 9683   0.317   0.177  17.696 -0.1134  0.3987  0.7598
  654TMC3     H 9684   0.168   0.494  17.572 -2.0509  3.4410 -2.6330
  654TMC3    H1 9685   0.314   0.116  17.481  0.5384  0.6909  1.5725
  654TMC3    H2 9686   4.717   0.282  17.246 -0.4024  0.1753  0.1942
  654TMC3    C7 9687   0.144   0.073  17.267  0.1133 -0.1617  0.6044
  654TMC3    C8 9688   4.689   0.486  17.388  0.1720 -0.5162  0.1410
  654TMC3    O1 9689   0.067   0.072  17.175 -0.5506 -0.1398 -0.0457
  654TMC3    O2 9690   4.618   0.467  17.294 -0.0283 -0.1175  0.1784
  655MPD2     C 9691   1.593   0.503  15.848 -0.1608 -0.3355  0.1885
  655MPD2    C1 9692   1.622   0.621  15.781 -0.1810 -0.2436  0.0076
  655MPD2    C2 9693   1.655   0.624  15.649  0.3498 -1.0547 -0.3666
  655MPD2    C3 9694   1.651   0.505  15.576  0.0138 -0.4583 -0.0585
  655MPD2    C4 9695   1.612   0.388  15.634 -0.0772 -0.3446  0.8624
  655MPD2    C5 9696   1.580   0.384  15.773 -0.6957 -0.3558  0.3506
  655MPD2     H 9697   1.683   0.718  15.604  2.6369  0.0756  3.3746
  655MPD2    H1 9698   1.604   0.295  15.578 -0.2618  0.0015  0.3169
  655MPD2    H2 9699   1.570   0.495  15.953 -1.2642 -1.6544 -0.1437
  655MPD2    H3 9700   1.566   0.291  15.826 -2.1584  0.4584  1.4082
  655MPD2     N 9701   1.700   0.505  15.444 -0.3391 -0.1714 -0.2382
  655MPD2    H5 9702   1.684   0.418  15.393  2.5919 -0.6693 -0.3092
  655MPD2    N1 9703   1.623   0.751  15.845  0.0143  0.2056  0.1706
  655MPD2    H7 9704   1.636   0.834  15.788  0.7501  0.1959  0.3213
  656TMC3    C1 9705   1.608   0.915  16.004  0.1473 -0.4100  0.6868
  656TMC3    C2 9706   1.598   0.951  16.137  0.4396 -0.3726  0.2939
  656TMC3    C3 9707   1.595   1.083  16.166 -0.6501  0.5334  0.3095
  656TMC3    C4 9708   1.597   1.009  15.906  0.0468 -0.1963 -0.1692
  656TMC3    C5 9709   1.601   1.142  15.938 -0.5605  0.3453 -0.1813
  656TMC3    C6 9710   1.603   1.182  16.069 -0.4640 -0.0029  0.0438
  656TMC3     C 9711   1.622   0.769  15.978 -0.3298  0.3409  0.2332
  656TMC3     O 9712   1.624   0.689  16.070  0.2962 -0.3528 -0.0075
  656TMC3     H 9713   1.593   0.871  16.210  0.5790 -1.2309 -0.6454
  656TMC3    H1 9714   1.589   0.983  15.801 -2.2221  1.5222 -0.4206
  656TMC3    H2 9715   1.620   1.286  16.094 -0.8434 -0.5678  2.7268
  656TMC3    C7 9716   1.578   1.243  15.830  0.6250  0.9433 -0.6435
  656TMC3    C8 9717   1.498   1.098  16.279  0.7299  0.1704  0.7117
  656TMC3    O1 9718   1.584   1.190  15.717  1.2350 -0.4896 -0.2369
  656TMC3    O2 9719   1.444   1.005  16.329  0.7612  0.0305  0.0633
  657TMC3    C1 9720   0.562   0.061  15.439  0.5070  0.1423 -0.2934
  657TMC3    C2 9721   0.694   0.090  15.430 -0.3935  0.6406  0.2482
  657TMC3    C3 9722   0.730   0.208  15.495  1.2678  0.2806  0.1714
  657TMC3    C4 9723   0.466   0.137  15.504  0.2778 -0.0389  0.4697
  657TMC3    C5 9724   0.513   0.243  15.567  0.0616  0.6571  0.0292
  657TMC3    C6 9725   0.640   0.283  15.559  0.0287 -0.0407  0.4958
  657TMC3     C 9726   0.514   4.655  15.387 -0.3840 -0.6240 -0.0429
  657TMC3     O 9727   0.391   4.629  15.391 -0.0174 -0.1514  0.2773
  657TMC3     H 9728   0.773   0.034  15.381  0.2353  0.4292  1.5081
  657TMC3    H1 9729   0.364   0.104  15.518  0.1694  0.0695 -0.0610
  657TMC3    H2 9730   0.676   0.380  15.589  0.8876 -0.7850  1.8860
  657TMC3    C7 9731   0.410   0.328  15.630 -0.0560  1.0192  0.0176
  657TMC3    C8 9732   0.871   0.223  15.536 -1.1153  0.1003 -0.1777
  657TMC3    O1 9733   0.297   0.305  15.592  0.2916  0.0409  0.1565
  657TMC3    O2 9734   0.907   0.335  15.569  0.0422 -0.0630  0.2174
  658MPD2     C 9735   1.992   0.804  14.646  0.1682 -0.2083  0.4671
  658MPD2    C1 9736   1.882   0.855  14.699  0.2827 -0.4084  0.4342
  658MPD2    C2 9737   1.795   0.934  14.619  0.0784  0.0992  0.6509
  658MPD2    C3 9738   1.830   0.971  14.489 -0.1633  0.4741 -0.1090
  658MPD2    C4 9739   1.954   0.927  14.445  1.3538 -0.2387 -0.1945
  658MPD2    C5 9740   2.030   0.846  14.519 -0.0577 -0.2308  0.0290
  658MPD2     H 9741   1.695   0.961  14.650  0.2358  1.0913  0.3186
  658MPD2    H1 9742   1.993   0.949  14.347  1.3065 -0.8450 -0.3528
  658MPD2    H2 9743   2.065   0.744  14.698  1.6695  0.5355 -0.7579
  658MPD2    H3 9744   2.118   0.797  14.479  0.0613 -0.4074  0.5086
  658MPD2     N 9745   1.747   1.056  14.415  0.1620 -0.5641  0.7032
  658MPD2    H5 9746   1.657   1.084  14.451 -0.9625  0.6181 -3.0472
  658MPD2    N1 9747   1.826   0.817  14.822 -0.1359 -0.3825 -0.4736
  658MPD2    H7 9748   1.748   0.870  14.859  1.6181  3.2531 -2.0814
  659TMC3    C1 9749   1.786   0.690  15.010 -0.4145  0.2215 -0.7978
  659TMC3    C2 9750   1.835   0.660  15.136 -0.8133 -1.1495 -0.2715
  659TMC3    C3 9751   1.755   0.580  15.219  0.9139  0.3703  0.1726
  659TMC3    C4 9752   1.672   0.632  14.966  0.2342  0.2550 -0.0346
  659TMC3    C5 9753   1.597   0.555  15.055 -0.0222 -0.3675 -0.5822
  659TMC3    C6 9754   1.634   0.519  15.179 -0.3001  0.0753 -0.6784
  659TMC3     C 9755   1.881   0.718  14.899  0.4463  0.0316 -0.2710
  659TMC3     O 9756   1.984   0.658  14.902  0.2966 -0.2163  0.2874
  659TMC3     H 9757   1.921   0.712  15.176  0.2905 -1.7413 -1.9058
  659TMC3    H1 9758   1.629   0.652  14.869  0.4487 -2.8381 -0.7707
  659TMC3    H2 9759   1.561   0.474  15.244 -1.2399  0.1446 -1.6738
  659TMC3    C7 9760   1.468   0.500  15.011  0.4682  0.0895 -0.8486
  659TMC3    C8 9761   1.751   0.605  15.368  0.0516  0.4079  0.5246
  659TMC3    O1 9762   1.378   0.494  15.097  0.3724  0.4246  0.4722
  659TMC3    O2 9763   1.812   0.708  15.402 -0.0440  0.0502 -0.2731
  660MPD2     C 9764   4.300   4.210  12.876 -0.3354  0.2539  0.0099
  660MPD2    C1 9765   4.173   4.257  12.885  0.3177  0.2902 -0.3718
  660MPD2    C2 9766   4.092   4.202  12.988  0.1741 -0.3713 -0.1169
  660MPD2    C3 9767   4.134   4.106  13.076 -0.4785 -0.2165  0.0392
  660MPD2    C4 9768   4.260   4.053  13.054  0.2213  0.0302  0.3132
  660MPD2    C5 9769   4.340   4.108  12.957  0.1298  0.1641 -0.0831
  660MPD2     H 9770   3.986   4.224  13.000  0.3099 -0.5098  1.2738
  660MPD2    H1 9771   4.303   3.980  13.122 -0.1172 -1.6165 -1.2516
  660MPD2    H2 9772   4.372   4.223  12.796 -0.8161 -2.2133 -0.8172
  660MPD2    H3 9773   4.437   4.064  12.942 -0.4039 -2.1820  3.3038
  660MPD2     N 9774   4.073   4.054  13.193  0.3140  0.0246  0.1823
  660MPD2    H5 9775   4.114   3.978  13.246  0.9171 -0.8267 -1.5319
  660MPD2    N1 9776   4.120   4.339  12.781  0.3670 -0.6776  0.0382
  660MPD2    H7 9777   4.189   4.374  12.716  1.6428  1.2228  2.3862
  661TMC3    C1 9778   3.927   4.422  12.645  0.0827  0.2364 -0.2958
  661TMC3    C2 9779   4.010   4.451  12.542 -0.1065  0.0169  0.1141
  661TMC3    C3 9780   3.950   4.477  12.422 -0.3435  0.3580  0.3417
  661TMC3    C4 9781   3.794   4.450  12.645  0.5690  0.1701 -0.1151
  661TMC3    C5 9782   3.741   4.482  12.524 -0.1248 -0.5782  0.4433
  661TMC3    C6 9783   3.813   4.487  12.411 -0.4986 -0.2542 -0.4549
  661TMC3     C 9784   3.988   4.392  12.780  0.1383  0.4642 -0.0500
  661TMC3     O 9785   3.906   4.378  12.874  0.3166  0.1093  0.3452
  661TMC3     H 9786   4.118   4.450  12.547  0.0179 -1.0810 -2.4821
  661TMC3    H1 9787   3.729   4.417  12.724  2.1088  1.6225  1.7497
  661TMC3    H2 9788   3.765   4.521  12.320 -2.1567  0.1222  0.5532
  661TMC3    C7 9789   3.597   4.460  12.512 -0.2458 -0.3095 -0.7265
  661TMC3    C8 9790   4.027   4.517  12.314 -0.3494  0.0716 -0.0694
  661TMC3    O1 9791   3.527   4.502  12.605  0.6876 -0.2054  0.1903
  661TMC3    O2 9792   4.144   4.476  12.310 -0.4488  0.1304  0.0372
  662MPD2     C 9793   0.303   3.931   0.086  0.2637 -0.3779  0.1650
  662MPD2    C1 9794   0.236   3.859   0.180 -0.5491  0.4606  0.0192
  662MPD2    C2 9795   0.160   3.919   0.276 -0.1327  0.4344  0.4571
  662MPD2    C3 9796   0.142   4.055   0.270 -0.6720 -0.1258  0.2043
  662MPD2    C4 9797   0.205   4.126   0.175  0.1672 -0.0824 -0.1289
  662MPD2    C5 9798   0.281   4.067   0.079 -0.0412  0.2370 -0.7949
  662MPD2     H 9799   0.114   3.860   0.355  2.3201  0.5801  2.0004
  662MPD2    H1 9800   0.195   4.232   0.154 -0.1727 -0.7649 -3.4941
  662MPD2    H2 9801   0.358   3.881   0.007 -0.2102 -1.4811  0.5360
  662MPD2    H3 9802   0.313   4.116  17.685  0.5461  0.1550 -0.6338
  662MPD2     N 9803   0.052   4.126   0.357  0.2497  0.0627 -0.0440
  662MPD2    H5 9804   0.028   4.220   0.329  1.2494  0.5275  0.6792
  662MPD2    N1 9805   0.250   3.717   0.188  0.0344 -0.0082  0.2275
  662MPD2    H7 9806   0.229   3.686   0.282 -1.3836  0.4155  0.0586
  663TMC3    C1 9807   0.309   3.505   0.082 -0.8856  0.3196  1.0118
  663TMC3    C2 9808   0.294   3.441   0.205 -0.0683 -0.0624 -0.1879
  663TMC3    C3 9809   0.315   3.304   0.205  0.5518  0.1123  0.5582
  663TMC3    C4 9810   0.331   3.437  17.665 -1.1014  0.1325  0.6284
  663TMC3    C5 9811   0.329   3.305  17.668 -0.1973 -0.0310 -0.1515
  663TMC3    C6 9812   0.316   3.235   0.088 -0.0866 -1.0420  0.6640
  663TMC3     C 9813   0.277   3.644   0.069  0.2361  0.4266 -0.0804
  663TMC3     O 9814   0.268   3.681  17.648 -0.1681  0.0888  0.0083
  663TMC3     H 9815   0.308   3.486   0.302  1.3750 -1.0706  0.0710
  663TMC3    H1 9816   0.373   3.475  17.572 -1.0344  0.3583  0.7494
  663TMC3    H2 9817   0.350   3.132   0.090 -0.7728 -1.2972 -1.1095
  663TMC3    C7 9818   0.384   3.230  17.558 -0.0799  1.0634  0.0097
  663TMC3    C8 9819   0.389   3.248   0.324 -0.5098  0.0598 -0.5586
  663TMC3    O1 9820   0.470   3.285  17.492  0.2136 -0.5671 -0.1458
  663TMC3    O2 9821   0.470   3.158   0.308 -0.3249 -0.1089  0.2911
  664MPD2     C 9822   2.868   2.257   0.160 -0.0483  0.1158  0.3817
  664MPD2    C1 9823   2.982   2.287   0.237  0.9845  0.3198  0.7511
  664MPD2    C2 9824   3.000   2.226   0.360  0.6333  0.3052  0.1399
  664MPD2    C3 9825   2.900   2.150   0.420  0.2119 -0.0076 -0.3621
  664MPD2    C4 9826   2.785   2.135   0.347 -0.0072 -0.1223  0.3734
  664MPD2    C5 9827   2.766   2.184   0.216 -0.4631  0.6064 -0.5193
  664MPD2     H 9828   3.092   2.242   0.415 -0.8066 -1.8104  3.1445
  664MPD2    H1 9829   2.705   2.070   0.380 -0.4532  0.9460  1.3938
  664MPD2    H2 9830   2.853   2.279   0.055  1.8867  0.0650  0.0979
  664MPD2    H3 9831   2.676   2.162   0.161  0.1277 -1.2579 -0.7508
  664MPD2     N 9832   2.918   2.108   0.553 -0.1530 -0.5861  0.8456
  664MPD2    H5 9833   3.009   2.128   0.595  0.8819  0.5097 -1.9702
  664MPD2    N1 9834   3.103   2.347   0.174  0.1578  0.0475  0.6183
  664MPD2    H7 9835   3.197   2.339   0.212  0.5716  1.6759 -0.0391
  665TMC3    C1 9836   2.862   1.988   0.761 -0.3246 -0.3425  0.1901
  665TMC3    C2 9837   2.760   1.945   0.837 -0.3215  0.8171  0.7448
  665TMC3    C3 9838   2.764   1.975   0.971  0.0425 -0.7713 -0.2476
  665TMC3    C4 9839   2.972   2.056   0.809  0.3791  0.4414 -0.8007
  665TMC3    C5 9840   2.966   2.085   0.942 -0.6391 -0.0065  0.4026
  665TMC3    C6 9841   2.863   2.052   1.027  0.4419  0.1524 -0.1028
  665TMC3     C 9842   2.823   2.028   0.623  0.7617  0.8008  0.0542
  665TMC3     O 9843   2.708   1.998   0.591 -0.1972 -0.5604 -0.1955
  665TMC3     H 9844   2.667   1.904   0.798 -0.2643 -0.1113  1.5704
  665TMC3    H1 9845   3.051   2.093   0.744  1.3196  2.0424  1.2363
  665TMC3    H2 9846   2.856   2.092   1.127  0.3194 -1.8398  0.6826
  665TMC3    C7 9847   3.033   2.206   0.990 -0.7887  0.7415  0.0461
  665TMC3    C8 9848   2.653   1.942   1.055 -0.0303 -0.7521  0.0245
  665TMC3    O1 9849   3.047   2.285   0.895  0.8639 -0.4548  0.3257
  665TMC3    O2 9850   2.657   1.986   1.170  0.0613 -0.0239 -0.0021
  666TMC3    C1 9851   1.834   2.883   9.745 -0.7165 -0.1312 -0.1392
  666TMC3    C2 9852   1.832   2.744   9.748 -0.4046  0.4224  0.3131
  666TMC3    C3 9853   1.867   2.684   9.864  0.6478  0.0207  0.1926
  666TMC3    C4 9854   1.865   2.958   9.851 -0.1601 -0.3097  0.0562
  666TMC3    C5 9855   1.903   2.892   9.967 -0.6714  0.1369 -0.7822
  666TMC3    C6 9856   1.907   2.751   9.978 -1.0451 -0.0363  0.6494
  666TMC3     C 9857   1.780   2.943   9.626  0.4754 -0.5765  0.0843
  666TMC3     O 9858   1.723   3.052   9.622  0.2742  0.0071  0.9468
  666TMC3     H 9859   1.797   2.684   9.664 -0.8390  2.9178 -1.2967
  666TMC3    H1 9860   1.864   3.065   9.836 -2.4752 -0.3730 -0.2944
  666TMC3    H2 9861   1.945   2.708  10.070 -0.4715 -2.3416 -0.6638
  666TMC3    C7 9862   1.951   2.973  10.078 -0.6791  0.0558  0.1859
  666TMC3    C8 9863   1.799   2.555   9.886 -0.3958 -0.0539  1.3233
  666TMC3    O1 9864   1.907   2.936  10.188  0.0160 -0.0231 -0.4376
  666TMC3    O2 9865   1.831   2.513   9.996  0.6338 -0.0012  0.1976
  667MPD2     C 9866   3.149   2.504  14.872  0.1052 -0.1507 -0.3636
  667MPD2    C1 9867   3.150   2.369  14.844  0.6169 -0.3153 -0.5575
  667MPD2    C2 9868   3.043   2.317  14.774 -0.1652  0.6574  0.7204
  667MPD2    C3 9869   2.948   2.404  14.721  0.3899  0.5345  0.0158
  667MPD2    C4 9870   2.954   2.539  14.748  0.2337  0.1513  0.4481
  667MPD2    C5 9871   3.051   2.588  14.828 -0.6603  0.3407 -0.4959
  667MPD2     H 9872   3.040   2.208  14.771 -2.1526  0.8279 -3.3588
  667MPD2    H1 9873   2.883   2.604  14.700  2.1823  0.9372 -1.3535
  667MPD2    H2 9874   3.232   2.550  14.925 -1.0132 -0.5388  1.7477
  667MPD2    H3 9875   3.055   2.693  14.854  1.0911  0.2639 -0.4880
  667MPD2     N 9876   2.830   2.358  14.655  0.0520  0.2951  0.2041
  667MPD2    H5 9877   2.768   2.434  14.632 -0.7098 -0.7321 -1.1834
  667MPD2    N1 9878   3.244   2.281  14.898 -0.2739 -0.1214  0.0399
  667MPD2    H7 9879   3.223   2.185  14.874  1.0942 -0.5251  0.4425
  668TMC3    C1 9880   3.451   2.214  15.009 -0.1308 -0.5291  0.4007
  668TMC3    C2 9881   3.560   2.260  15.074 -0.6390 -0.3020 -0.4463
  668TMC3    C3 9882   3.613   2.179  15.175 -0.0797  0.0258  0.5110
  668TMC3    C4 9883   3.385   2.103  15.054 -0.1714 -0.2652 -0.1701
  668TMC3    C5 9884   3.430   2.039  15.165  0.0963  0.2532  0.2735
  668TMC3    C6 9885   3.549   2.069  15.227  0.7129  0.2213 -0.3438
  668TMC3     C 9886   3.362   2.319  14.966 -0.2123 -0.0367  0.2710
  668TMC3     O 9887   3.390   2.424  15.021  0.3916 -0.4374  0.5087
  668TMC3     H 9888   3.615   2.349  15.047 -2.4810 -0.7706 -5.6352
  668TMC3    H1 9889   3.288   2.072  15.015 -0.8722 -1.7631  2.7566
  668TMC3    H2 9890   3.595   2.019  15.311 -0.3764 -0.8085 -0.3533
  668TMC3    C7 9891   3.346   1.937  15.236  0.5717 -0.1917  0.0723
  668TMC3    C8 9892   3.728   2.225  15.258  0.2162  0.3619 -0.3585
  668TMC3    O1 9893   3.229   1.942  15.215 -0.1506  0.9352  0.8689
  668TMC3    O2 9894   3.742   2.173  15.365  0.4615  0.3185 -0.1653
  669TMC3    C1 9895   1.915   2.530  14.506 -0.5977  0.0242 -0.3287
  669TMC3    C2 9896   1.836   2.494  14.403 -0.1144  0.7392 -0.9111
  669TMC3    C3 9897   1.851   2.550  14.279 -0.4719  0.0949 -0.3031
  669TMC3    C4 9898   2.022   2.613  14.483 -0.0665  0.3122 -0.1472
  669TMC3    C5 9899   2.045   2.657  14.358 -0.0201 -0.0483 -0.6972
  669TMC3    C6 9900   1.959   2.630  14.252  0.3706 -0.8844  0.2732
  669TMC3     C 9901   1.882   2.489  14.640  0.1762  0.2754 -0.0378
  669TMC3     O 9902   1.764   2.462  14.648 -0.1756  0.3317  0.1751
  669TMC3     H 9903   1.770   2.410  14.421  0.4694  0.6195  0.6387
  669TMC3    H1 9904   2.097   2.636  14.558  0.3541  1.6341 -0.9733
  669TMC3    H2 9905   1.968   2.676  14.155 -1.2381 -0.7112  0.2089
  669TMC3    C7 9906   2.169   2.726  14.335 -0.4437  0.4687  0.1498
  669TMC3    C8 9907   1.760   2.514  14.179 -0.2566 -0.4137  0.3341
  669TMC3    O1 9908   2.235   2.776  14.428  0.4591 -0.7159 -0.3269
  669TMC3    O2 9909   1.804   2.517  14.064  0.4676 -0.4214  0.6173
  670MPD2     C 9910   4.646   4.632  14.402  0.6884  0.3817  0.0847
  670MPD2    C1 9911   4.589   4.513  14.356  0.2829  0.4222  0.4382
  670MPD2    C2 9912   4.521   4.428  14.443  0.0614  0.4103 -0.0939
  670MPD2    C3 9913   4.529   4.450  14.580  0.0879 -0.2255 -0.4172
  670MPD2    C4 9914   4.577   4.572  14.626 -0.7478  0.6267  0.0770
  670MPD2    C5 9915   4.639   4.660  14.534  0.2015 -0.0538 -0.7631
  670MPD2     H 9916   4.484   4.332  14.409  2.9325 -1.0468  0.9674
  670MPD2    H1 9917   4.570   4.602  14.730  0.2905 -0.6165  0.5053
  670MPD2    H2 9918   4.700   4.700  14.336  2.3648  0.8689  1.9616
  670MPD2    H3 9919   4.687   0.023  14.577 -0.2842 -0.5729  0.8198
  670MPD2     N 9920   4.501   4.346  14.669 -0.0587 -0.5495 -0.5781
  670MPD2    H5 9921   4.453   4.266  14.629 -0.6672 -1.2194  1.4774
  670MPD2    N1 9922   4.596   4.474  14.221  0.1319  0.6294  0.1164
  670MPD2    H7 9923   4.551   4.387  14.196 -1.5983  1.2394  1.0727
  671TMC3    C1 9924   4.530   4.210  14.843  0.3147  0.3231  0.6816
  671TMC3    C2 9925   4.651   4.156  14.885  0.8993 -0.8708 -0.2425
  671TMC3    C3 9926   4.657   4.020  14.885  0.1837  0.3934 -0.4022
  671TMC3    C4 9927   4.425   4.132  14.807 -0.0703 -0.1865  1.0042
  671TMC3    C5 9928   4.436   3.997  14.819  0.4634 -0.0139  0.5278
  671TMC3    C6 9929   4.557   3.946  14.849 -0.0229  0.0120 -0.2308
  671TMC3     C 9930   4.533   4.346  14.804 -0.5037 -0.6115  0.7530
  671TMC3     O 9931   4.593   4.431  14.871  0.0931 -0.2682 -0.3156
  671TMC3     H 9932   0.013   4.222  14.879 -1.5141  2.5004  2.6326
  671TMC3    H1 9933   4.340   4.184  14.765 -0.9425 -2.7176 -0.3355
  671TMC3    H2 9934   4.568   3.839  14.835 -0.4442  0.1283 -1.5104
  671TMC3    C7 9935   4.348   3.923  14.729  0.3387 -0.7910  0.6194
  671TMC3    C8 9936   0.068   3.963  14.869  0.0147  0.3442  0.0108
  671TMC3    O1 9937   4.293   3.990  14.643 -0.7030  0.1597 -0.1476
  671TMC3    O2 9938   0.069   3.846  14.829 -0.1285  0.4259  0.6196
  672MPD2     C 9939   1.106   0.090   1.862 -0.6568  0.1355  0.5971
  672MPD2    C1 9940   1.147   0.047   1.743 -0.1311 -0.8939 -0.1497
  672MPD2    C2 9941   1.285   0.033   1.721 -0.2356 -0.1433  0.0660
  672MPD2    C3 9942   1.378   0.050   1.821  0.4857 -0.4579 -0.3466
  672MPD2    C4 9943   1.325   0.076   1.949  0.0588 -0.1645  0.0290
  672MPD2    C5 9944   1.195   0.114   1.966  0.4202  0.4033 -0.3307
  672MPD2     H 9945   1.319   0.003   1.622 -1.1283  0.3627 -0.3954
  672MPD2    H1 9946   1.376   0.102   2.042  0.0136 -1.0780  0.3050
  672MPD2    H2 9947   1.000   0.109   1.876 -0.8120  0.7198 -1.3611
  672MPD2    H3 9948   1.163   0.138   2.067  1.1166  0.2634 -0.0755
  672MPD2     N 9949   1.523   0.038   1.804  0.2467 -0.1004  0.7909
  672MPD2    H5 9950   1.581   0.064   1.884 -0.8163  4.2098  0.1490
  672MPD2    N1 9951   1.055   0.023   1.640 -0.0895 -0.0219 -0.4213
  672MPD2    H7 9952   1.084   0.011   1.544 -0.4409  0.9294 -0.6510
  673TMC3    C1 9953   0.844   0.057   1.526  0.2162  0.5427 -0.2566
  673TMC3    C2 9954   0.890   0.007   1.407  0.7957  0.9992  0.8792
  673TMC3    C3 9955   0.868   0.075   1.292  0.1227 -0.1681 -0.0960
  673TMC3    C4 9956   0.792   0.184   1.528  0.8327 -0.0361  0.4702
  673TMC3    C5 9957   0.769   0.246   1.410  0.3527 -0.0034 -0.3884
  673TMC3    C6 9958   0.799   0.189   1.287 -0.0250 -0.4762  0.5311
  673TMC3     C 9959   0.914   0.038   1.647  0.0949 -0.2372  0.9597
  673TMC3     O 9960   0.850   0.044   1.748 -0.5194  0.4777  0.8880
  673TMC3     H 9961   0.930   4.630   1.406 -0.9818  0.3266 -1.3771
  673TMC3    H1 9962   0.783   0.228   1.627  0.6795 -0.2570  0.5550
  673TMC3    H2 9963   0.755   0.224   1.194  1.7226 -1.0304 -0.4992
  673TMC3    C7 9964   0.649   0.328   1.417 -0.4656 -0.5458  0.2387
  673TMC3    C8 9965   0.858   4.715   1.179  0.1194  0.1117 -0.7605
  673TMC3    O1 9966   0.580   0.307   1.519  0.2209 -0.6913  0.2873
  673TMC3    O2 9967   0.764   0.013   1.103  0.7705  0.0308 -0.6441
  674MPD2     C 9968   0.458   0.313   0.750 -0.5797 -0.0672 -0.1577
  674MPD2    C1 9969   0.428   0.174   0.771  0.3240 -0.1211 -0.1889
  674MPD2    C2 9970   0.349   0.140   0.875  0.5295 -0.5682 -0.5726
  674MPD2    C3 9971   0.301   0.231   0.966 -0.3154  0.3424  0.1887
  674MPD2    C4 9972   0.338   0.363   0.950 -0.1656  0.1089 -0.4357
  674MPD2    C5 9973   0.402   0.402   0.838  0.6112  0.5045 -0.2142
  674MPD2     H 9974   0.333   0.033   0.888  1.7687 -0.7323 -0.4219
  674MPD2    H1 9975   0.305   0.440   1.019 -0.7732 -1.4291  1.0138
  674MPD2    H2 9976   0.526   0.347   0.672  0.4624 -1.9718 -0.0787
  674MPD2    H3 9977   0.422   0.508   0.827 -1.6799  0.6912 -2.7182
  674MPD2     N 9978   0.232   0.184   1.074  0.3554 -0.1465  0.5305
  674MPD2    H5 9979   0.231   0.084   1.095  2.9718 -0.7078 -2.0248
  674MPD2    N1 9980   0.488   0.072   0.696  0.2684  0.0372 -0.7539
  674MPD2    H7 9981   0.457   4.700   0.709 -0.3228  0.0974 -1.8178
  675TMC3    C1 9982   0.678   4.690   0.599 -0.6611  0.0616  0.0227
  675TMC3    C2 9983   0.609   4.571   0.598  0.1008 -0.0689 -0.3022
  675TMC3    C3 9984   0.679   4.460   0.561 -0.6548 -0.2228 -0.6946
  675TMC3    C4 9985   0.813   4.694   0.580 -0.0606  0.0065 -0.5056
  675TMC3    C5 9986   0.881   4.576   0.562 -0.8646  0.1002  1.1533
  675TMC3    C6 9987   0.815   4.457   0.532  0.9193  0.1414 -0.4807
  675TMC3     C 9988   0.615   0.093   0.639 -0.3416  0.3466 -0.0260
  675TMC3     O 9989   0.691   0.188   0.630  0.1238  0.5756  0.3853
  675TMC3     H 9990   0.501   4.564   0.601  0.1745 -0.8411  0.5066
  675TMC3    H1 9991   0.869   0.062   0.589 -1.3830  0.6525  1.2272
  675TMC3    H2 9992   0.864   4.369   0.490  2.5543  0.5310  0.6629
  675TMC3    C7 9993   1.010   4.563   0.633  0.3843  0.0492  0.0779
  675TMC3    C8 9994   0.609   4.328   0.566 -0.1931  0.1181 -0.5417
  675TMC3    O1 9995   1.024   4.655   0.712 -0.8565 -0.7077  0.1686
  675TMC3    O2 9996   0.669   4.240   0.505  0.5682  0.0559  0.6775
  676MPD2     C 9997   2.912   3.025  11.150  0.0349 -0.2072 -1.0383
  676MPD2    C1 9998   2.806   2.974  11.224 -0.2928 -0.8829 -0.2528
  676MPD2    C2 9999   2.775   2.844  11.199 -0.3721 -0.5115  0.4260
  676MPD2    C310000   2.841   2.764  11.103  0.1524 -0.3887 -0.3120
  676MPD2    C410001   2.942   2.821  11.028  0.3709  0.7092  0.1983
  676MPD2    C510002   2.974   2.953  11.060 -0.1154  0.1399  0.6357
  676MPD2     H10003   2.687   2.799  11.243 -0.2170 -0.1872  1.0648
  676MPD2    H110004   3.000   2.771  10.951 -0.2485  0.3363 -0.0297
  676MPD2    H210005   2.945   3.127  11.164 -0.0940 -0.2909 -0.1361
  676MPD2    H310006   3.062   2.991  11.009 -1.1697  3.2454  1.1383
  676MPD2     N10007   2.809   2.627  11.078 -0.0982  0.2992  0.1550
  676MPD2    H510008   2.854   2.580  11.000  2.6733  1.0437  1.2808
  676MPD2    N110009   2.735   3.052  11.326  0.3235 -0.6956 -0.7401
  676MPD2    H710010   2.678   2.987  11.380 -2.8744  2.3744 -0.4715
  677TMC3    C110011   2.664   3.207  11.473  0.1409 -0.4532 -0.1610
  677TMC3    C210012   2.560   3.122  11.501 -0.5461  0.3856 -0.5137
  677TMC3    C310013   2.490   3.136  11.616  0.1887  0.0679 -0.0490
  677TMC3    C410014   2.709   3.306  11.556  0.3367  0.9408  0.6441
  677TMC3    C510015   2.655   3.294  11.684 -0.6199 -0.6020  0.0785
  677TMC3    C610016   2.548   3.213  11.711  0.6514  0.5127  0.0230
  677TMC3     C10017   2.741   3.178  11.359 -0.0638  0.7463 -1.1050
  677TMC3     O10018   2.821   3.262  11.314  0.0464 -0.0367 -0.2048
  677TMC3     H10019   2.519   3.049  11.431  1.0457  0.5154 -1.5731
  677TMC3    H110020   2.799   3.362  11.533  0.6217  1.1913  2.3829
  677TMC3    H210021   2.517   3.196  11.814 -1.9369 -0.0037 -0.8523
  677TMC3    C710022   2.699   3.389  11.791 -0.2155  0.7003  0.4073
  677TMC3    C810023   2.429   3.021  11.678  0.0025 -0.6585 -0.5431
  677TMC3    O110024   2.664   3.366  11.906  0.2430  0.0090  0.0049
  677TMC3    O210025   2.464   2.908  11.650 -0.4685  0.4029 -0.3276
  678MPD2     C10026   4.158   2.604   2.112 -0.2220  0.0728  0.2898
  678MPD2    C110027   4.179   2.582   1.976 -0.6929 -0.4407  0.6796
  678MPD2    C210028   4.063   2.566   1.904 -0.9702 -0.6158  0.2272
  678MPD2    C310029   3.930   2.584   1.957  0.5994 -0.5912  0.5255
  678MPD2    C410030   3.920   2.610   2.087 -0.2886  0.3248  0.5442
  678MPD2    C510031   4.033   2.624   2.165 -0.4466  0.1448  0.4481
  678MPD2     H10032   4.067   2.547   1.798 -0.2773  0.8753 -0.0045
  678MPD2    H110033   3.824   2.618   2.136  0.1549 -1.5070  1.7248
  678MPD2    H210034   4.242   2.634   2.174 -0.6058 -0.8911  1.2734
  678MPD2    H310035   4.018   2.639   2.271 -1.3138  0.6399  0.2558
  678MPD2     N10036   3.815   2.580   1.880  0.2771  0.6225  0.3293
  678MPD2    H510037   3.832   2.551   1.784  0.3557 -0.4994  0.6847
  678MPD2    N110038   4.303   2.574   1.915 -0.0346  0.4970 -0.3185
  678MPD2    H710039   4.311   2.525   1.826  1.1829  2.3483 -1.2282
  679TMC3    C110040   4.673   2.509   1.726 -0.4069 -1.0334 -0.1389
  679TMC3    C210041   4.566   2.508   1.818 -0.0182 -0.7532  0.3981
  679TMC3    C310042   4.528   2.626   1.866  0.1163  0.8307 -0.0523
  679TMC3    C410043   0.017   2.629   1.702 -0.4471  0.1740  0.2127
  679TMC3    C510044   4.693   2.743   1.761  0.5109 -0.4979  0.4220
  679TMC3    C610045   4.600   2.741   1.855 -0.3522 -0.4413  0.1698
  679TMC3     C10046   0.013   2.391   1.691 -0.2515 -0.1655 -0.2462
  679TMC3     O10047   0.106   2.394   1.612 -0.8084 -0.0234  0.7459
  679TMC3     H10048   4.507   2.421   1.845 -3.1887  1.0329 -0.8413
  679TMC3    H110049   0.098   2.625   1.630 -0.6746 -0.2139 -0.0198
  679TMC3    H210050   4.577   2.835   1.905  1.9333 -0.7388  1.7886
  679TMC3    C710051   0.021   2.877   1.722  0.4034  0.1936  0.6026
  679TMC3    C810052   4.416   2.630   1.954  0.6527  0.4833 -0.3135
  679TMC3    O110053   4.676   2.976   1.723 -0.5863 -0.5038  0.0410
  679TMC3    O210054   4.424   2.714   2.038 -0.0929 -0.4203 -0.3462
  680MPD2     C10055   0.586   2.012  14.022 -0.3777  0.0458 -0.2805
  680MPD2    C110056   0.466   2.008  14.082 -0.4624  0.5003  0.2779
  680MPD2    C210057   0.421   2.120  14.149  0.2472 -0.7953 -1.7222
  680MPD2    C310058   0.503   2.235  14.170  0.5650 -0.3807  0.8041
  680MPD2    C410059   0.627   2.235  14.116  0.1380 -0.5768  0.8213
  680MPD2    C510060   0.665   2.126  14.037  0.6640 -0.2434 -0.3907
  680MPD2     H10061   0.321   2.124  14.192  0.9502  2.2130 -0.3797
  680MPD2    H110062   0.702   2.311  14.131 -1.1325  0.6379  1.0287
  680MPD2    H210063   0.632   1.922  13.985 -1.0878  0.1019 -1.3063
  680MPD2    H310064   0.763   2.129  13.992 -0.3841 -0.9456 -2.7055
  680MPD2     N10065   0.465   2.346  14.247 -0.1855  0.1305 -0.4302
  680MPD2    H510066   0.521   2.430  14.233  2.6802 -1.4520  1.7949
  680MPD2    N110067   0.385   1.895  14.084 -0.2406 -0.1431  0.9593
  680MPD2    H710068   0.300   1.915  14.134 -0.5877 -0.2879  0.4282
  681TMC3    C110069   0.310   1.674  14.034 -0.1415 -0.7277  0.9435
  681TMC3    C210070   0.217   1.684  14.133  0.3959 -0.2376  0.6891
  681TMC3    C310071   0.110   1.601  14.126  0.1848  0.5735 -0.0010
  681TMC3    C410072   0.306   1.583  13.935  0.4332  0.3991  0.5294
  681TMC3    C510073   0.197   1.503  13.934  0.2398  0.1056 -0.1707
  681TMC3    C610074   0.103   1.507  14.031 -0.4600  0.4158  0.5619
  681TMC3     C10075   0.413   1.769  14.030  0.4608  0.0792 -0.5053
  681TMC3     O10076   0.508   1.748  13.954  0.2932 -0.1538 -0.2476
  681TMC3     H10077   0.238   1.750  14.217 -1.4394  2.2306 -0.7925
  681TMC3    H110078   0.383   1.584  13.859 -0.1905  0.7869 -0.1016
  681TMC3    H210079   0.023   1.434  14.029  0.3686 -0.4210 -2.4387
  681TMC3    C710080   0.179   1.402  13.834 -0.0690  0.3598  0.7867
  681TMC3    C810081   4.724   1.605  14.216 -0.4975 -0.0089 -0.5294
  681TMC3    O110082   0.096   1.313  13.850  0.5978  0.0114 -0.2478
  681TMC3    O210083   4.623   1.540  14.187  0.0234 -0.6008  0.5678
  682MPD2     C10084   1.599   3.941  10.775  0.8939  0.1027  0.3490
  682MPD2    C110085   1.560   3.807  10.782 -0.1814 -0.0366 -0.9372
  682MPD2    C210086   1.426   3.767  10.798 -0.9065  0.1037  0.3383
  682MPD2    C310087   1.329   3.866  10.803  0.0137  0.1730  0.3007
  682MPD2    C410088   1.373   3.996  10.785  0.2658 -0.8345  0.3194
  682MPD2    C510089   1.507   4.035  10.772  0.1337 -0.0998  0.0306
  682MPD2     H10090   1.402   3.661  10.807 -0.0460 -0.1990 -0.7907
  682MPD2    H110091   1.292   4.068  10.781 -1.7239 -3.2575 -2.5578
  682MPD2    H210092   1.702   3.972  10.764  1.3328 -1.6399 -0.4933
  682MPD2    H310093   1.541   4.137  10.758  1.0234 -0.3442  0.4102
  682MPD2     N10094   1.196   3.845  10.832  0.6006  0.7942 -0.1647
  682MPD2    H510095   1.131   3.922  10.844 -0.7195 -0.1951 -0.9724
  682MPD2    N110096   1.652   3.702  10.784 -0.2233 -0.0699  0.4462
  682MPD2    H710097   1.629   3.606  10.809 -0.2315 -0.7484 -2.1729
  683TMC3    C110098   0.893   3.689  11.066  0.4334 -0.5340  0.1570
  683TMC3    C210099   0.825   3.581  11.028  0.5418  0.4366  0.0900
  683TMC3    C310100   0.857   3.530  10.904  0.2964  0.4668  0.2063
  683TMC3    C410101   0.982   3.749  10.980  0.7290 -0.1444  0.3812
  683TMC3    C510102   1.001   3.708  10.858  0.0083 -0.1485  1.3726
  683TMC3    C610103   0.946   3.589  10.820  0.5608  0.1659  0.0846
  683TMC3     C10104   0.947   3.676  11.208 -0.2301 -0.2627 -0.5081
  683TMC3     O10105   1.063   3.708  11.221 -0.1667  0.0250 -0.5765
  683TMC3     H10106   0.772   3.515  11.095 -1.1906  3.1969  1.4342
  683TMC3    H110107   1.045   3.826  11.023  2.4912 -1.6981  0.5799
  683TMC3    H210108   0.963   3.554  10.719 -0.9864 -1.6023  0.4389
  683TMC3    C710109   1.137   3.718  10.814  0.0334  0.0702  0.2605
  683TMC3    C810110   0.789   3.416  10.857 -0.1696  0.2428  0.9059
  683TMC3    O110111   1.175   3.621  10.751 -0.7837 -0.2792 -0.2388
  683TMC3    O210112   0.672   3.405  10.885  0.3224  0.0535 -0.3026
  684MPD2     C10113   0.119   2.872  16.937  1.1649 -0.7053  0.0801
  684MPD2    C110114   0.150   2.894  16.801  0.1250 -0.0899 -0.2375
  684MPD2    C210115   0.171   3.026  16.762  0.4034 -0.9527 -0.6288
  684MPD2    C310116   0.182   3.134  16.854 -0.0078  0.2818 -0.5572
  684MPD2    C410117   0.157   3.111  16.988 -0.0221  0.0342  0.0174
  684MPD2    C510118   0.124   2.978  17.022  0.3554 -0.0795 -0.0187
  684MPD2     H10119   0.199   3.036  16.658 -0.3551 -1.5001 -0.8811
  684MPD2    H110120   0.171   3.184  17.066  1.1597  1.2468 -1.3527
  684MPD2    H210121   0.094   2.773  16.975  0.0742 -0.4308  0.0912
  684MPD2    H310122   0.114   2.960  17.129  1.4536 -3.4965 -0.4841
  684MPD2     N10123   0.246   3.251  16.813 -0.3958  0.1046 -0.1219
  684MPD2    H510124   0.256   3.325  16.882  0.6107 -0.7348  0.6114
  684MPD2    N110125   0.144   2.799  16.695 -0.2111  0.1790  0.0137
  684MPD2    H710126   0.161   2.833  16.601  1.0429  0.3555  0.3002
  685TMC3    C110127   0.126   2.591  16.605  0.7958  1.4812  0.1324
  685TMC3    C210128   0.044   2.584  16.492  0.5771  0.4296 -0.0264
  685TMC3    C310129   0.102   2.544  16.376  0.6760 -0.3074  0.0829
  685TMC3    C410130   0.259   2.589  16.593  0.1699 -0.3376  0.2710
  685TMC3    C510131   0.312   2.568  16.471 -0.2932 -0.3604  0.1532
  685TMC3    C610132   0.238   2.534  16.360  0.0161  0.2997  0.6798
  685TMC3     C10133   0.090   2.676  16.712 -0.1634 -0.9543 -0.1068
  685TMC3     O10134   0.026   2.631  16.811  0.1535  0.3918 -0.1539
  685TMC3     H10135   4.661   2.593  16.510  0.6944  2.0241 -0.2017
  685TMC3    H110136   0.328   2.602  16.676 -2.0724  0.0339  2.0712
  685TMC3    H210137   0.279   2.500  16.267 -0.0233 -2.2780  1.6132
  685TMC3    C710138   0.457   2.547  16.470 -0.0003 -0.4074 -0.0791
  685TMC3    C810139   0.017   2.500  16.259  0.0675 -0.3185 -0.4202
  685TMC3    O110140   0.512   2.498  16.569  0.2682  0.0184  0.3589
  685TMC3    O210141   0.073   2.434  16.173  0.1108  0.2989 -0.1951
  686MPD2     C10142   1.607   2.840  15.626 -0.0189 -0.9332  0.3369
  686MPD2    C110143   1.663   2.729  15.691 -0.1742  0.2315  0.1062
  686MPD2    C210144   1.690   2.603  15.632 -0.3614  1.1864 -0.1768
  686MPD2    C310145   1.639   2.582  15.501 -0.3436  0.5159  0.3443
  686MPD2    C410146   1.587   2.693  15.431 -0.0802 -1.1511 -0.4881
  686MPD2    C510147   1.571   2.817  15.497  1.2223 -0.5106 -0.6122
  686MPD2     H10148   1.743   2.523  15.682  1.9664  2.1068 -1.1510
  686MPD2    H110149   1.555   2.692  15.328  0.8347 -0.9132 -0.7733
  686MPD2    H210150   1.587   2.932  15.680  0.6419 -1.4449  1.4602
  686MPD2    H310151   1.529   2.899  15.440 -0.0170 -1.3895 -0.9774
  686MPD2     N10152   1.632   2.461  15.430  0.0707  0.1233  0.4364
  686MPD2    H510153   1.627   2.469  15.328 -0.8695 -0.3496  0.4419
  686MPD2    N110154   1.668   2.749  15.830  0.0505 -0.1301 -0.3218
  686MPD2    H710155   1.639   2.843  15.855 -0.8349 -0.8140  1.1974
  687TMC3    C110156   1.622   2.309  15.619  0.5390  0.3450 -0.0358
  687TMC3    C210157   1.511   2.364  15.674  0.1142  0.2339 -0.3204
  687TMC3    C310158   1.489   2.338  15.802  0.5359 -0.1902  0.0904
  687TMC3    C410159   1.713   2.228  15.692  0.1097  0.0796 -0.5416
  687TMC3    C510160   1.679   2.206  15.825 -0.3737  0.4821 -0.2824
  687TMC3    C610161   1.571   2.262  15.881 -0.7833 -0.2372  0.0219
  687TMC3     C10162   1.656   2.336  15.482  0.0129 -0.2415 -0.0038
  687TMC3     O10163   1.690   2.244  15.408  0.2955 -0.0108  0.5691
  687TMC3     H10164   1.446   2.438  15.629  0.8440  0.1289 -1.5378
  687TMC3    H110165   1.797   2.179  15.645 -1.5991 -1.2792 -2.1704
  687TMC3    H210166   1.534   2.235  15.979  0.6170  0.8705  0.8687
  687TMC3    C710167   1.767   2.145  15.916  0.1047  0.8223 -0.0143
  687TMC3    C810168   1.353   2.359  15.867  0.6199  0.9602 -0.8062
  687TMC3    O110169   1.760   2.173  16.035 -0.6125  0.7673 -0.0854
  687TMC3    O210170   1.356   2.358  15.989 -0.5884 -0.6264  0.0227
  688MPD2     C10171   1.002   1.455   0.122  0.8222 -0.6641  0.1563
  688MPD2    C110172   0.969   1.330   0.092  0.2550 -0.0294 -0.9456
  688MPD2    C210173   1.026   1.275  17.676 -0.4626  0.0314 -0.6244
  688MPD2    C310174   1.099   1.348  17.582 -0.2378 -0.3731 -0.4924
  688MPD2    C410175   1.116   1.481  17.611  0.7760 -0.2277 -0.0559
  688MPD2    C510176   1.079   1.526   0.041  0.9223 -0.6899 -0.2172
  688MPD2     H10177   1.008   1.173  17.645  1.8276 -0.6806  0.4029
  688MPD2    H110178   1.164   1.554  17.547  1.0765  0.8641  1.4318
  688MPD2    H210179   0.963   1.503   0.211  0.4288  1.2973 -1.0698
  688MPD2    H310180   1.105   1.628   0.066 -0.8807 -0.2715  0.0036
  688MPD2     N10181   1.165   1.295  17.461 -0.3420 -0.2690  0.4512
  688MPD2    H510182   1.172   1.350  17.376 -2.7281 -1.3582 -0.4563
  688MPD2    N110183   0.891   1.262   0.188  0.2430 -0.1110 -0.1724
  688MPD2    H710184   0.887   1.305   0.280 -0.7607 -2.0777  0.7034
  689TMC3    C110185   0.783   1.078   0.292  0.1001  0.3323  0.3131
  689TMC3    C210186   0.817   1.133   0.414  0.0093  0.2026 -0.0088
  689TMC3    C310187   0.788   1.063   0.528 -0.3581 -0.2056 -0.3369
  689TMC3    C410188   0.719   0.960   0.281 -0.4662 -0.3865 -0.5632
  689TMC3    C510189   0.689   0.889   0.396 -0.1465 -0.1034 -0.3814
  689TMC3    C610190   0.730   0.937   0.519  0.0275  0.5848  0.2682
  689TMC3     C10191   0.824   1.146   0.170 -0.9961  0.3268  0.5131
  689TMC3     O10192   0.779   1.101   0.066  0.0523 -0.7034 -0.0313
  689TMC3     H10193   0.847   1.236   0.431  1.0307 -0.2227  0.8290
  689TMC3    H110194   0.691   0.907   0.190 -0.1654 -0.1817 -0.7753
  689TMC3    H210195   0.723   0.869   0.603 -0.2613 -0.0691 -0.2837
  689TMC3    C710196   0.639   0.753   0.403 -0.0238  0.3158  0.5830
  689TMC3    C810197   0.873   1.082   0.645  0.0004 -0.6220 -0.2657
  689TMC3    O110198   0.644   0.695   0.509 -0.5323 -0.4576 -0.3656
  689TMC3    O210199   0.831   1.050   0.755  0.2628 -0.2518 -0.1188
  690MPD2     C10200   3.349   3.213  15.841  0.2150  0.3718  0.0416
  690MPD2    C110201   3.307   3.215  15.709  0.6269 -0.4872  0.0862
  690MPD2    C210202   3.391   3.259  15.615  0.2808 -0.2713  0.2343
  690MPD2    C310203   3.517   3.296  15.648  0.1493 -0.7828 -0.2492
  690MPD2    C410204   3.565   3.292  15.776 -0.1385 -0.1807 -0.1941
  690MPD2    C510205   3.478   3.252  15.870 -0.1016 -0.3797  0.1423
  690MPD2     H10206   3.350   3.254  15.515 -0.6835 -1.0319  0.6666
  690MPD2    H110207   3.668   3.309  15.805  0.0704  1.1479 -1.7025
  690MPD2    H210208   3.286   3.180  15.923  0.0565 -0.4574 -0.4126
  690MPD2    H310209   3.511   3.261  15.973 -0.6426  0.2676  0.2594
  690MPD2     N10210   3.606   3.345  15.545  0.0352 -0.1595 -0.2023
  690MPD2    H510211   3.581   3.324  15.449 -0.3063  1.2237 -0.4147
  690MPD2    N110212   3.191   3.155  15.658  0.2012 -0.1457 -0.3536
  690MPD2    H710213   3.171   3.148  15.559 -0.9938  0.9267 -0.1902
  691TMC3    C110214   2.972   3.086  15.673 -0.7685  0.2748 -0.4961
  691TMC3    C210215   2.850   3.101  15.739 -0.1486  0.1263  0.1089
  691TMC3    C310216   2.753   3.015  15.730 -0.2014 -0.2195 -0.1639
  691TMC3    C410217   3.000   2.963  15.618  0.5471  0.1682  0.4288
  691TMC3    C510218   2.901   2.874  15.626 -0.1961 -0.4520 -0.2469
  691TMC3    C610219   2.769   2.894  15.661  0.1523  0.5226  0.3916
  691TMC3     C10220   3.082   3.135  15.737 -0.0886  0.5974 -0.7009
  691TMC3     O10221   3.077   3.143  15.859  0.1695  0.1598  0.0503
  691TMC3     H10222   2.835   3.185  15.806  1.3769  0.1025  0.4832
  691TMC3    H110223   3.104   2.939  15.599  0.6419 -0.0229  1.2303
  691TMC3    H210224   2.686   2.831  15.629  0.3346  0.8670 -0.7682
  691TMC3    C710225   2.945   2.735  15.612  0.5038  0.1925  0.1670
  691TMC3    C810226   2.623   3.066  15.772 -0.4202  0.7664  0.2197
  691TMC3    O110227   3.063   2.720  15.580  0.1829 -0.0193  0.7577
  691TMC3    O210228   2.609   3.180  15.813 -0.2490  0.5824 -0.3384
  692TMC3    C110229   4.505   4.445  16.157  0.3382  0.3783  0.2018
  692TMC3    C210230   4.614   4.521  16.200 -0.5632 -0.3201  0.3001
  692TMC3    C310231   4.720   4.455  16.254 -0.6420 -0.1547  0.0251
  692TMC3    C410232   4.505   4.314  16.156  1.1058  0.0003 -0.2279
  692TMC3    C510233   4.609   4.247  16.207 -0.1083  0.6024 -0.7573
  692TMC3    C610234   4.713   4.319  16.262  0.1951  0.4737  0.3061
  692TMC3     C10235   4.375   4.502  16.185 -0.1530  0.3647  0.1218
  692TMC3     O10236   4.305   4.419  16.243  0.0722  0.0290  0.3307
  692TMC3     H10237   4.594   4.620  16.240 -0.2695 -0.5191  0.9398
  692TMC3    H110238   4.416   4.261  16.125  2.5973 -0.8616 -3.0705
  692TMC3    H210239   0.083   4.270  16.285  1.1519  3.0055  1.7647
  692TMC3    C710240   4.626   4.112  16.152  0.1677 -0.4151  0.6833
  692TMC3    C810241   0.038   4.515  16.377 -1.3258 -0.2489 -0.0214
  692TMC3    O110242   4.545   4.075  16.066 -0.1908  0.0332 -0.0798
  692TMC3    O210243   0.066   4.633  16.373 -0.0027  0.2466 -0.0774
  693MPD2     C10244   3.354   2.237  10.645 -0.2304  0.2116  0.5366
  693MPD2    C110245   3.347   2.234  10.782 -0.3691  0.1502  0.0291
  693MPD2    C210246   3.462   2.203  10.852 -0.3454  0.0378 -0.3833
  693MPD2    C310247   3.585   2.185  10.774 -0.2681  0.5308  0.1228
  693MPD2    C410248   3.591   2.196  10.640  0.4163  0.4547  0.0427
  693MPD2    C510249   3.471   2.225  10.581  0.2798  0.0173 -0.2005
  693MPD2     H10250   3.462   2.185  10.958 -1.7955 -2.6515 -0.8261
  693MPD2    H110251   3.680   2.226  10.586  0.6599 -0.5110 -0.0853
  693MPD2    H210252   3.264   2.270  10.593 -0.0276  1.3552  0.9064
  693MPD2    H310253   3.470   2.245  10.475 -0.9202 -1.0902 -0.3941
  693MPD2     N10254   3.695   2.156  10.852  0.2859  0.1664 -0.3260
  693MPD2    H510255   3.677   2.158  10.952 -1.2974  0.3634 -0.6097
  693MPD2    N110256   3.221   2.258  10.849  0.3259  0.0772  0.3364
  693MPD2    H710257   3.149   2.260  10.777  0.4361 -3.3179  0.1362
  694TMC3    C110258   3.059   2.230  11.028  0.1741 -0.4319  0.3285
  694TMC3    C210259   2.985   2.154  10.941  0.1941  0.7484 -0.5597
  694TMC3    C310260   2.896   2.062  10.985 -0.7333 -0.7206  0.3683
  694TMC3    C410261   3.024   2.232  11.164 -0.3295  0.9187  1.1329
  694TMC3    C510262   2.930   2.140  11.202 -0.4003  0.0141 -0.1294
  694TMC3    C610263   2.853   2.063  11.117  0.0271  0.2633 -0.0014
  694TMC3     C10264   3.197   2.267  10.982 -0.2772  0.3048  0.2645
  694TMC3     O10265   3.274   2.279  11.077  0.1054  0.1151 -0.1849
  694TMC3     H10266   3.025   2.138  10.841 -1.1301  1.4045 -1.1959
  694TMC3    H110267   3.075   2.294  11.236  1.7965  0.3543  0.1214
  694TMC3    H210268   2.775   1.995  11.150 -1.1610  1.0131 -1.2685
  694TMC3    C710269   2.932   2.111  11.343  0.2574  0.5962  0.0587
  694TMC3    C810270   2.796   2.017  10.891  0.3723  0.3996  0.8427
  694TMC3    O110271   2.957   2.202  11.419 -0.4076  0.2043  0.2445
  694TMC3    O210272   2.718   1.932  10.934 -0.7971 -0.5695 -0.3539
  695MPD2     C10273   0.288   3.448  13.929  0.3656  0.3460 -0.6515
  695MPD2    C110274   0.274   3.522  14.045  0.1417 -0.3850  0.1635
  695MPD2    C210275   0.156   3.596  14.055  0.5695 -0.8636 -0.1048
  695MPD2    C310276   0.063   3.609  13.949  0.0301  0.0923 -0.3322
  695MPD2    C410277   0.089   3.533  13.838  0.2393 -0.1107 -0.6728
  695MPD2    C510278   0.201   3.455  13.827 -0.4294 -0.0694  0.0423
  695MPD2     H10279   0.141   3.665  14.138 -1.0197 -1.1807 -0.1258
  695MPD2    H110280   0.017   3.531  13.757 -1.0227 -0.7085  0.4550
  695MPD2    H210281   0.371   3.379  13.916 -0.6996 -1.1069  0.2365
  695MPD2    H310282   0.214   3.397  13.736  0.0194 -1.9512  1.3097
  695MPD2     N10283   4.677   3.694  13.966 -0.1909 -0.0429 -0.3896
  695MPD2    H510284   4.663   3.724  14.062 -0.1569  0.3535 -0.5084
  695MPD2    N110285   0.363   3.531  14.152  0.2047 -0.4812  0.0124
  695MPD2    H710286   0.351   3.606  14.220  1.5369  0.1309 -0.4161
  696TMC3    C110287   4.483   3.807  13.910 -0.4297 -0.3111 -0.7055
  696TMC3    C210288   4.413   3.755  14.018 -1.0853  0.1736 -0.8756
  696TMC3    C310289   4.316   3.832  14.075  0.2001  0.1916 -1.0594
  696TMC3    C410290   4.444   3.923  13.845 -0.1542 -0.0678 -0.2745
  696TMC3    C510291   4.347   3.995  13.905 -0.1764 -0.2139  0.0083
  696TMC3    C610292   4.277   3.949  14.011  0.2556 -0.3363 -0.2547
  696TMC3     C10293   4.598   3.738  13.860 -1.0371  0.3293  0.7579
  696TMC3     O10294   4.622   3.728  13.740  0.0986 -0.0028 -0.7183
  696TMC3     H10295   4.453   3.671  14.073 -1.7624 -0.6789 -1.6914
  696TMC3    H110296   4.495   3.970  13.761  1.2482  0.4690  0.8859
  696TMC3    H210297   4.211   4.019  14.062  3.6952  4.0225 -1.8140
  696TMC3    C710298   4.319   4.117  13.835 -0.1229 -0.6213 -0.5025
  696TMC3    C810299   4.292   3.823  14.220 -0.6038 -0.2349 -0.6247
  696TMC3    O110300   4.338   4.127  13.716 -0.3550  0.1289  0.3037
  696TMC3    O210301   4.249   3.921  14.277  0.3405  0.4258  0.2045
  697MPD2     C10302   4.200   1.192  15.826 -1.0015 -0.1748 -0.5327
  697MPD2    C110303   4.171   1.109  15.718  0.3404 -1.0280 -0.5706
  697MPD2    C210304   4.171   1.155  15.587  0.3100 -0.0137 -0.2377
  697MPD2    C310305   4.205   1.286  15.564 -0.3673 -0.1302  0.7975
  697MPD2    C410306   4.234   1.368  15.666  0.1408  0.5054  0.7782
  697MPD2    C510307   4.231   1.322  15.797  0.4313  0.5131  0.8080
  697MPD2     H10308   4.155   1.081  15.509  0.4633  1.6926 -1.8767
  697MPD2    H110309   4.271   1.468  15.647  1.6832 -0.2087  0.0608
  697MPD2    H210310   4.179   1.167  15.929  0.4874  0.1155 -0.1507
  697MPD2    H310311   4.262   1.381  15.882 -2.1773  0.8189  1.5571
  697MPD2     N10312   4.204   1.324  15.425  0.4709 -0.6250  0.2238
  697MPD2    H510313   4.180   1.245  15.365  0.6343 -2.1409  2.1494
  697MPD2    N110314   4.139   0.974  15.732 -0.7551  0.4267  0.0646
  697MPD2    H710315   4.112   0.925  15.647  2.9989 -2.5535  0.5775
  698TMC3    C110316   4.168   1.461  15.234 -0.2918  0.6377 -0.6603
  698TMC3    C210317   4.225   1.567  15.168  0.5674 -0.0001  0.0542
  698TMC3    C310318   4.151   1.633  15.070  0.1612 -0.0894  0.3500
  698TMC3    C410319   4.044   1.414  15.203  0.3501 -0.0095 -0.3734
  698TMC3    C510320   3.987   1.464  15.094  0.3981 -0.4054 -0.4104
  698TMC3    C610321   4.035   1.577  15.029 -0.0141 -0.3147 -0.4568
  698TMC3     C10322   4.207   1.448  15.374 -0.1148 -0.8925  0.0799
  698TMC3     O10323   4.227   1.552  15.435  0.0443  0.3072  0.2437
  698TMC3     H10324   4.325   1.592  15.202  0.4710 -0.0839  0.3928
  698TMC3    H110325   4.003   1.328  15.254  0.4931 -0.0376 -0.3083
  698TMC3    H210326   3.980   1.613  14.943 -0.8174 -1.6195 -0.4927
  698TMC3    C710327   3.918   1.371  15.007  0.2771  0.1219 -0.2245
  698TMC3    C810328   4.213   1.736  14.982 -0.3557 -0.8295  0.1191
  698TMC3    O110329   3.892   1.408  14.891 -0.1069 -0.3983 -0.0271
  698TMC3    O210330   4.178   1.740  14.865 -0.7567  0.2624  0.7136
  699TMC3    C110331   3.912   4.030  13.366  0.3040  0.5464 -0.0002
  699TMC3    C210332   4.002   3.980  13.459 -0.0686 -0.2884  0.0533
  699TMC3    C310333   3.954   3.934  13.576  1.0243 -0.1367 -0.4829
  699TMC3    C410334   3.774   4.021  13.389  0.5027 -0.9636 -0.4896
  699TMC3    C510335   3.738   3.949  13.492  0.2594 -0.1145 -0.3416
  699TMC3    C610336   3.822   3.924  13.598  0.0771  0.0564 -0.0439
  699TMC3     C10337   3.959   4.107  13.249  0.0669  0.1734  0.1122
  699TMC3     O10338   3.873   4.176  13.198 -0.4640  0.3694  0.5500
  699TMC3     H10339   4.107   4.004  13.451 -0.4316  0.9000 -1.1589
  699TMC3    H110340   3.701   4.061  13.319  2.3856  1.9132 -0.8352
  699TMC3    H210341   3.790   3.881  13.692 -2.4898  0.0176 -0.9265
  699TMC3    C710342   3.599   3.915  13.504 -0.5075  0.6293  0.1830
  699TMC3    C810343   4.040   3.854  13.666 -0.4396 -0.6761 -0.1562
  699TMC3    O110344   3.519   3.967  13.430  0.2213 -0.1368  0.6558
  699TMC3    O210345   3.994   3.834  13.777 -0.3970  0.5095 -0.6680
  700TMC3    C110346   3.041   1.525  17.462  0.6795 -0.2544  0.3255
  700TMC3    C210347   3.136   1.439  17.409 -0.0196  0.1550 -0.3274
  700TMC3    C310348   3.164   1.328  17.479 -0.3359 -0.4700  0.3112
  700TMC3    C410349   2.995   1.509  17.588  0.2580 -0.1908 -0.1171
  700TMC3    C510350   3.046   1.404  17.667  0.6449 -0.7247 -0.3158
  700TMC3    C610351   3.125   1.309  17.613  0.4905 -0.2485 -0.4874
  700TMC3     C10352   3.020   1.649  17.395 -0.3380 -0.1814  0.5426
  700TMC3     O10353   2.928   1.721  17.431  0.2397 -0.5888 -0.4370
  700TMC3     H10354   3.161   1.444  17.303 -0.7225  1.0161 -0.4567
  700TMC3    H110355   2.924   1.581  17.625  1.2855  0.7516  0.0336
  700TMC3    H210356   3.158   1.225  17.673  0.8836 -1.2778 -2.1343
  700TMC3    C710357   3.098   1.436   0.098  0.3592 -0.2222  0.3397
  700TMC3    C810358   3.250   1.220  17.420  0.5587  0.6410 -0.4517
  700TMC3    O110359   3.217   1.420   0.119  0.3384 -0.3429 -0.7951
  700TMC3    O210360   3.333   1.246  17.336 -0.5868  0.0263 -0.2523
  701TMC3    C110361   3.391   0.186  15.918  0.1946 -0.1371  0.4671
  701TMC3    C210362   3.426   0.113  15.814  0.3973  0.0208  0.5158
  701TMC3    C310363   3.483   0.177  15.710  0.0099 -0.1332  1.0322
  701TMC3    C410364   3.424   0.316  15.925  0.0010  0.0183  0.0736
  701TMC3    C510365   3.492   0.378  15.830 -0.4705 -0.0727  0.4723
  701TMC3    C610366   3.519   0.307  15.717 -0.7012  0.6878  0.6014
  701TMC3     C10367   3.321   0.119  16.020  0.0009  0.6053 -0.6798
  701TMC3     O10368   3.342   4.722  16.036 -0.4424  1.0946 -0.2536
  701TMC3     H10369   3.407   0.007  15.802  0.4927  0.1218 -0.5126
  701TMC3    H110370   3.367   0.376  15.995 -2.2510 -1.4618 -0.4719
  701TMC3    H210371   3.577   0.349  15.635 -0.9926  1.1503  0.6295
  701TMC3    C710372   3.544   0.509  15.841 -0.0938  0.3326  0.4512
  701TMC3    C810373   3.546   0.105  15.605 -0.4388  0.4254  0.0565
  701TMC3    O110374   3.556   0.579  15.735  0.0435 -0.3722 -0.3236
  701TMC3    O210375   3.658   0.141  15.574 -0.1984  0.0903  0.1353
  702MPD2     C10376   2.285   2.205  10.546 -0.0148  0.1374 -0.1343
  702MPD2    C110377   2.349   2.301  10.625 -0.0578 -0.2174  0.1640
  702MPD2    C210378   2.334   2.438  10.583  0.2030 -0.0284 -0.3339
  702MPD2    C310379   2.260   2.479  10.473 -0.0438 -0.0008 -0.0101
  702MPD2    C410380   2.211   2.384  10.392  0.4295 -0.8382  0.3098
  702MPD2    C510381   2.219   2.251  10.433 -0.1809  0.5821  0.4925
  702MPD2     H10382   2.382   2.515  10.641 -0.3142  2.5776 -3.4008
  702MPD2    H110383   2.160   2.394  10.296  1.2054  0.6650  0.0617
  702MPD2    H210384   2.278   2.099  10.566 -1.9897  0.1234 -0.9404
  702MPD2    H310385   2.168   2.180  10.369  0.1894 -1.1232  2.0733
  702MPD2     N10386   2.238   2.622  10.446 -0.8601  0.3343  0.0774
  702MPD2    H510387   2.282   2.682  10.515  1.3237 -1.0824 -0.0701
  702MPD2    N110388   2.423   2.267  10.738  0.2906 -0.3625  0.0698
  702MPD2    H710389   2.405   2.175  10.777 -1.2346  0.3312  0.9814
  703TMC3    C110390   2.137   2.805  10.376  0.0255 -0.2608  0.0857
  703TMC3    C210391   2.061   2.808  10.492  0.0330 -0.4832  0.1250
  703TMC3    C310392   2.079   2.909  10.583 -0.2068 -0.2857  0.1365
  703TMC3    C410393   2.229   2.898  10.345 -0.0975  0.0239 -0.8439
  703TMC3    C510394   2.236   2.999  10.437  0.4452  0.0997  0.3183
  703TMC3    C610395   2.174   3.009  10.560 -0.0147  0.4997 -0.0165
  703TMC3     C10396   2.176   2.673  10.338  0.0742 -0.3567  0.4122
  703TMC3     O10397   2.163   2.629  10.225  0.4725  0.1556 -0.5282
  703TMC3     H10398   1.992   2.727  10.516 -3.2458  2.1847 -0.3093
  703TMC3    H110399   2.312   2.883  10.276  1.5242 -0.2244  1.1676
  703TMC3    H210400   2.189   3.090  10.631  2.3938  0.6023 -0.6563
  703TMC3    C710401   2.360   3.067  10.438  0.0042  0.5693  1.2596
  703TMC3    C810402   2.032   2.868  10.715  0.3262 -0.1684 -0.0222
  703TMC3    O110403   2.382   3.122  10.332 -0.0260  0.5503 -0.3670
  703TMC3    O210404   1.953   2.776  10.713 -0.8011  0.4380 -0.0277
  704TMC3    C110405   0.498   0.781  12.433  0.8954 -0.5684  0.1538
  704TMC3    C210406   0.594   0.879  12.421 -0.7577 -0.0627 -0.3195
  704TMC3    C310407   0.726   0.843  12.460  1.0062 -0.6459 -0.0880
  704TMC3    C410408   0.525   0.654  12.478 -0.4520 -0.1395  0.2640
  704TMC3    C510409   0.657   0.625  12.512 -0.4779 -0.3254 -0.4889
  704TMC3    C610410   0.757   0.718  12.497 -0.3794 -0.2457  0.8762
  704TMC3     C10411   0.356   0.818  12.419  0.1128 -0.1204 -0.5915
  704TMC3     O10412   0.274   0.761  12.491  0.5336 -0.0043  0.3072
  704TMC3     H10413   0.574   0.976  12.377 -2.1481  1.5709  3.9222
  704TMC3    H110414   0.452   0.575  12.479 -2.1408  1.4342  3.0126
  704TMC3    H210415   0.860   0.685  12.496  0.1080  1.3827 -3.0564
  704TMC3    C710416   0.698   0.507  12.449  0.0534  0.0561 -0.6585
  704TMC3    C810417   0.826   0.906  12.374 -0.1536 -0.2347 -0.1089
  704TMC3    O110418   0.793   0.504  12.377  0.0431 -0.2420 -0.2424
  704TMC3    O210419   0.783   0.945  12.265 -0.6278  0.8719  0.2278
  705MPD2     C10420   0.494   3.798  17.101  0.4597 -0.0753 -0.3907
  705MPD2    C110421   0.417   3.901  17.040  0.5549  0.7318 -0.0190
  705MPD2    C210422   0.280   3.906  17.064  0.9927  0.1382 -0.1287
  705MPD2    C310423   0.224   3.829  17.165  0.0751 -0.2487  0.0805
  705MPD2    C410424   0.300   3.726  17.222  0.5507  0.1488 -0.4054
  705MPD2    C510425   0.427   3.705  17.177  0.6170  0.6561 -0.3125
  705MPD2     H10426   0.221   3.979  17.010 -1.9838 -0.7198  1.9511
  705MPD2    H110427   0.260   3.658  17.296 -0.7261  2.2814  0.8443
  705MPD2    H210428   0.599   3.780  17.085  0.4848  1.1359 -1.6816
  705MPD2    H310429   0.483   3.623  17.219 -0.0107 -0.0458 -0.8451
  705MPD2     N10430   0.095   3.856  17.214 -0.2500  0.2950  0.2398
  705MPD2    H510431   0.070   3.795  17.290  0.9873 -1.2547 -0.5953
  705MPD2    N110432   0.472   4.002  16.954 -0.2128  0.2686 -0.7577
  705MPD2    H710433   0.408   4.059  16.899  1.1895 -0.3278 -3.0307
  706TMC3    C110434   0.731   4.106  16.616 -0.3824 -0.2168  0.2679
  706TMC3    C210435   0.630   4.185  16.568 -0.1945 -0.3848 -0.5714
  706TMC3    C310436   0.535   4.229  16.653 -0.3602 -0.7890 -0.1477
  706TMC3    C410437   0.739   4.055  16.739  0.1902 -0.2470 -0.1745
  706TMC3    C510438   0.639   4.100  16.825  0.0057 -0.1409 -0.0443
  706TMC3    C610439   0.545   4.190  16.785 -0.6342  0.3129 -0.5714
  706TMC3     C10440   0.850   4.077  16.535  0.0366 -0.0963  0.3135
  706TMC3     O10441   0.951   4.035  16.586 -0.2779  0.4069 -0.0534
  706TMC3     H10442   0.622   4.219  16.466 -2.3930  0.2424 -0.1779
  706TMC3    H110443   0.809   3.974  16.752  1.6934  1.1929  0.7210
  706TMC3    H210444   0.478   4.233  16.859  0.3934 -0.4730  0.8133
  706TMC3    C710445   0.605   4.007  16.931  0.1269  0.3129  0.0379
  706TMC3    C810446   0.481   4.362  16.611 -0.2209 -0.8376 -0.2252
  706TMC3    O110447   0.697   3.946  16.984 -0.1447  0.3667  0.1399
  706TMC3    O210448   0.476   4.379  16.492 -0.4637  0.1121  0.1877
  707TMC3    C110449   2.306   2.974   1.928 -0.4423  0.1710 -0.3295
  707TMC3    C210450   2.242   2.864   1.983  0.1393  0.5362  0.1715
  707TMC3    C310451   2.120   2.869   2.037  0.1579 -0.8634 -0.3452
  707TMC3    C410452   2.243   3.098   1.936 -0.5034  0.6805  0.1844
  707TMC3    C510453   2.114   3.106   1.992 -0.1097  0.0477 -0.1921
  707TMC3    C610454   2.054   2.993   2.043  0.1286  0.5948  0.4440
  707TMC3     C10455   2.424   2.955   1.853  0.4262 -0.5206 -0.2275
  707TMC3     O10456   2.495   2.857   1.876 -0.3627  0.4483 -0.4897
  707TMC3     H10457   2.302   2.775   2.000  0.5756  0.7060 -0.4850
  707TMC3    H110458   2.282   3.186   1.886 -1.9884  0.7935 -0.7733
  707TMC3    H210459   1.952   2.997   2.079  0.7664 -0.4010  2.3852
  707TMC3    C710460   2.039   3.226   1.968 -0.0104 -0.3818  0.6192
  707TMC3    C810461   2.069   2.753   2.110  0.1045  0.1507 -1.0537
  707TMC3    O110462   2.099   3.327   1.931  0.0610 -0.3742  0.3181
  707TMC3    O210463   1.969   2.769   2.182  0.0483  0.0391 -0.1571
  708MPD2     C10464   3.615   2.241  13.811 -0.0615 -0.1432 -0.4583
  708MPD2    C110465   3.512   2.328  13.798  0.0619  0.2921 -0.1731
  708MPD2    C210466   3.396   2.315  13.880 -0.2258  0.1817  0.0141
  708MPD2    C310467   3.381   2.214  13.972 -0.7610  0.1810 -0.4890
  708MPD2    C410468   3.491   2.136  13.987 -0.1659 -0.3782 -0.1739
  708MPD2    C510469   3.603   2.155  13.914 -0.1058  1.1863  0.3615
  708MPD2     H10470   3.316   2.387  13.865 -0.6747 -0.0150  1.5266
  708MPD2    H110471   3.484   2.066  14.070 -0.8983  0.6001  0.5911
  708MPD2    H210472   3.711   2.255  13.763 -0.0108  0.0316 -0.3079
  708MPD2    H310473   3.697   2.107  13.941 -1.8209 -2.2314  0.2575
  708MPD2     N10474   3.269   2.194  14.061 -0.0582  0.6416 -0.1415
  708MPD2    H510475   3.276   2.133  14.142  0.8964 -0.8782 -1.3603
  708MPD2    N110476   3.526   2.440  13.709 -0.1015  0.6720  0.2585
  708MPD2    H710477   3.603   2.439  13.643 -1.5668  1.5621 -1.4874
  709TMC3    C110478   3.470   2.629  13.588 -0.1170  0.0347  0.3267
  709TMC3    C210479   3.469   2.554  13.474  0.4084 -0.7185  0.3939
  709TMC3    C310480   3.389   2.593  13.371  0.2008 -0.2475  0.3282
  709TMC3    C410481   3.406   2.747  13.597  0.2229 -0.2377  0.3137
  709TMC3    C510482   3.325   2.786  13.489 -0.7592  0.2029 -0.1509
  709TMC3    C610483   3.318   2.712  13.375  0.3822 -0.2306 -0.0039
  709TMC3     C10484   3.459   2.560  13.712  0.6548  0.5761  0.0830
  709TMC3     O10485   3.390   2.606  13.800 -0.2856 -0.1149 -0.1647
  709TMC3     H10486   3.501   2.451  13.486  2.3843 -0.1561 -0.1178
  709TMC3    H110487   3.409   2.804  13.689 -1.7532  0.2966  0.0443
  709TMC3    H210488   3.254   2.742  13.293  0.6904  0.4731  0.0098
  709TMC3    C710489   3.197   2.825  13.542  0.3707  0.2319 -0.4989
  709TMC3    C810490   3.383   2.505  13.257  0.2651  0.3112  0.3981
  709TMC3    O110491   3.110   2.878  13.473 -0.3391 -0.2814 -0.1244
  709TMC3    O210492   3.438   2.395  13.257  0.0117 -0.0075  0.2962
  710TMC3    C110493   4.624   3.533   1.149  0.5033 -0.2307  0.2506
  710TMC3    C210494   4.697   3.506   1.038 -0.1024  0.3477 -0.3930
  710TMC3    C310495   0.083   3.424   1.046  0.3981  0.0405  0.0937
  710TMC3    C410496   4.657   3.483   1.274 -0.5760  0.1100  0.3758
  710TMC3    C510497   0.045   3.403   1.275 -0.1764  0.1052  0.7873
  710TMC3    C610498   0.108   3.359   1.159  0.1891  0.2622  0.1828
  710TMC3     C10499   4.514   3.625   1.135  0.3817 -0.9422 -0.3427
  710TMC3     O10500   4.479   3.631   1.016  0.3462  0.0884 -0.3352
  710TMC3     H10501   4.675   3.570   0.953 -2.2864 -1.0636 -0.8913
  710TMC3    H110502   4.597   3.506   1.362  0.9598  0.4232  1.3460
  710TMC3    H210503   0.200   3.302   1.171  0.8273  1.5381  1.3157
  710TMC3    C710504   0.055   3.301   1.383 -0.3037 -0.4707  0.4321
  710TMC3    C810505   0.148   3.399   0.917 -0.6049 -0.0525  0.3077
  710TMC3    O110506   4.680   3.286   1.451 -0.3981  0.6609  0.4656
  710TMC3    O210507   0.098   3.458   0.819  0.3198 -0.5658 -0.6817
  711TMC3    C110508   4.117   0.051  15.410  0.5591 -0.1828 -0.4736
  711TMC3    C210509   4.122   0.151  15.504 -0.0763  0.1418  0.1080
  711TMC3    C310510   4.199   0.126  15.610  0.3339  0.3460  0.1875
  711TMC3    C410511   4.163   4.645  15.430 -0.1763  0.3211 -0.5204
  711TMC3    C510512   4.207   4.618  15.557 -0.1578  0.1426  0.1384
  711TMC3    C610513   4.229   4.720  15.647  0.4956  0.1732 -0.3262
  711TMC3     C10514   4.030   0.056  15.297 -0.4121 -0.1053 -0.2525
  711TMC3     O10515   4.043   4.687  15.223 -0.2525  0.2685  0.2387
  711TMC3     H10516   4.112   0.257  15.481  2.3792  0.7648  1.8410
  711TMC3    H110517   4.170   4.563  15.360 -1.6083 -1.5939  1.5621
  711TMC3    H210518   4.274   4.692  15.741  2.5203 -1.6460 -1.8232
  711TMC3    C710519   4.254   4.484  15.583 -0.7980  0.3900 -0.0282
  711TMC3    C810520   4.206   0.235  15.700 -0.0640 -0.5993 -0.6620
  711TMC3    O110521   4.342   4.471  15.669 -0.4751 -0.4308 -0.1748
  711TMC3    O210522   4.113   0.317  15.696 -0.2865  0.2108  1.1399
  712MPD2     C10523   0.846   1.277  13.569  0.0975 -0.6240 -0.0918
  712MPD2    C110524   0.771   1.357  13.645 -0.3005  0.5011  0.3770
  712MPD2    C210525   0.775   1.498  13.633 -0.3069  0.4546  0.3165
  712MPD2    C310526   0.851   1.551  13.534 -0.0790  0.1662  0.1622
  712MPD2    C410527   0.931   1.469  13.461 -0.0353 -0.2415  0.0388
  712MPD2    C510528   0.932   1.339  13.482 -0.5138 -0.2178 -0.2905
  712MPD2     H10529   0.707   1.553  13.697 -1.4676  1.7040 -1.9608
  712MPD2    H110530   0.998   1.511  13.387  0.2211 -1.8121 -0.6252
  712MPD2    H210531   0.843   1.169  13.580 -1.2530 -0.6127 -0.2792
  712MPD2    H310532   1.002   1.283  13.421 -1.7022  1.0249 -2.8085
  712MPD2     N10533   0.853   1.693  13.501  0.5786 -0.1923 -0.1673
  712MPD2    H510534   0.919   1.722  13.430  1.9577 -1.2601  0.7002
  712MPD2    N110535   0.677   1.312  13.745  0.0755  0.3503 -0.1321
  712MPD2    H710536   0.637   1.376  13.813 -0.5631  0.7920 -0.9294
  713TMC3    C110537   0.827   1.921  13.546  0.5730  0.0291 -0.3977
  713TMC3    C210538   0.955   1.938  13.505 -0.1994 -0.1125 -0.3617
  713TMC3    C310539   0.985   2.072  13.501 -0.0646  0.0458 -0.0685
  713TMC3    C410540   0.733   2.011  13.590  0.2252 -0.2446 -0.1585
  713TMC3    C510541   0.774   2.141  13.568  0.4656  0.3209  0.1360
  713TMC3    C610542   0.903   2.178  13.528 -0.7407  0.3835 -0.4921
  713TMC3     C10543   0.785   1.786  13.579  0.3059  0.2381 -0.2122
  713TMC3     O10544   0.723   1.768  13.680  0.3823 -0.2831  0.3354
  713TMC3     H10545   1.022   1.856  13.482  0.4671 -0.3562  2.5181
  713TMC3    H110546   0.640   1.976  13.631 -0.9356  0.5568 -2.1000
  713TMC3    H210547   0.946   2.278  13.533 -0.0970  0.0504  0.4648
  713TMC3    C710548   0.671   2.238  13.547 -0.1225  0.2390  0.9420
  713TMC3    C810549   1.099   2.100  13.428  0.4068 -0.4818  0.0970
  713TMC3    O110550   0.708   2.356  13.530 -0.2251  0.3473  0.0956
  713TMC3    O210551   1.107   2.198  13.357  0.0390  0.7803 -0.1242
  714MPD2     C10552   2.932   4.031   2.275  0.3002 -0.2154  0.3170
  714MPD2    C110553   3.013   4.002   2.169  0.4055 -0.2088  0.1043
  714MPD2    C210554   2.966   4.040   2.039  0.7548  0.3986 -0.4646
  714MPD2    C310555   2.848   4.102   2.026  0.5236 -0.3443 -0.2482
  714MPD2    C410556   2.768   4.121   2.132 -0.4099  0.2673 -0.3417
  714MPD2    C510557   2.809   4.085   2.257  0.1577  0.3246 -0.1734
  714MPD2     H10558   3.032   4.030   1.953 -0.3182 -2.3453 -0.9438
  714MPD2    H110559   2.675   4.176   2.125 -0.3296  0.5295  0.6836
  714MPD2    H210560   2.959   4.003   2.376  1.0454 -1.3321 -0.2048
  714MPD2    H310561   2.756   4.113   2.347 -0.0462 -1.5804  0.3124
  714MPD2     N10562   2.808   4.150   1.898  0.3816 -0.1126  0.1675
  714MPD2    H510563   2.877   4.134   1.825  0.8143  1.5389  0.2163
  714MPD2    N110564   3.138   3.932   2.190 -1.2650  0.0641 -0.3875
  714MPD2    H710565   3.177   3.916   2.282 -2.4423 -2.5795 -0.3438
  715TMC3    C110566   3.327   3.803   2.132 -0.1076 -0.4844  0.7359
  715TMC3    C210567   3.379   3.706   2.050 -0.5217 -0.1620  0.0567
  715TMC3    C310568   3.503   3.652   2.083  0.1073  0.4108 -0.4859
  715TMC3    C410569   3.396   3.858   2.236 -0.4670  0.2584  0.0411
  715TMC3    C510570   3.523   3.812   2.253 -0.4243 -0.1691 -0.2720
  715TMC3    C610571   3.578   3.710   2.181  1.0440  0.0883 -0.3400
  715TMC3     C10572   3.200   3.860   2.092  0.5759  0.5062  0.4138
  715TMC3     O10573   3.159   3.832   1.981  0.0768  0.4454 -0.1570
  715TMC3     H10574   3.336   3.673   1.956  2.5641  0.5788 -1.6314
  715TMC3    H110575   3.359   3.945   2.290 -2.0424  1.2234 -2.6040
  715TMC3    H210576   3.676   3.669   2.204  0.6402  0.6730  2.5088
  715TMC3    C710577   3.610   3.864   2.362  0.7270 -0.1807 -0.1735
  715TMC3    C810578   3.548   3.544   2.000 -0.2017 -0.1950 -0.4593
  715TMC3    O110579   3.730   3.832   2.375  0.1955  0.0542 -0.2599
  715TMC3    O210580   3.489   3.532   1.892 -0.2924 -0.8618  0.2222
  716MPD2     C10581   2.564   2.802  10.153  0.7750  0.4305 -0.2167
  716MPD2    C110582   2.616   2.773  10.026  0.0601  0.5803 -0.2758
  716MPD2    C210583   2.670   2.647  10.007  0.5210 -0.5592 -0.0459
  716MPD2    C310584   2.674   2.551  10.110  0.0196  0.3668 -0.2716
  716MPD2    C410585   2.615   2.583  10.233  0.2668 -0.1001 -0.1236
  716MPD2    C510586   2.568   2.709  10.257  0.3902  0.4874 -0.4557
  716MPD2     H10587   2.719   2.621   9.914  1.1603  1.0987 -0.1796
  716MPD2    H110588   2.627   2.520  10.321 -0.6696 -1.0431 -0.6618
  716MPD2    H210589   2.528   2.902  10.176  1.0189  0.3084  0.6949
  716MPD2    H310590   2.538   2.745  10.355 -1.2602 -0.1862 -0.7329
  716MPD2     N10591   2.739   2.431  10.076 -0.5763  0.2012  0.2662
  716MPD2    H510592   2.748   2.388   9.985  0.5233  2.2546 -0.6012
  716MPD2    N110593   2.613   2.875   9.929 -0.2408  0.5263 -0.8071
  716MPD2    H710594   2.567   2.959   9.964 -0.7248 -0.1105  0.1043
  717TMC3    C110595   2.849   2.221  10.125 -0.5107 -0.4581 -0.2892
  717TMC3    C210596   2.862   2.191   9.993 -0.1530  0.3030 -0.4266
  717TMC3    C310597   2.903   2.065   9.950 -0.4556 -0.3256  0.9061
  717TMC3    C410598   2.870   2.114  10.208 -0.2067  0.2498 -0.3283
  717TMC3    C510599   2.895   1.986  10.169 -0.1536  0.9905 -0.7010
  717TMC3    C610600   2.915   1.959  10.032 -0.3467 -0.4697  0.4733
  717TMC3     C10601   2.788   2.346  10.176 -0.4969  0.0044  1.2488
  717TMC3     O10602   2.801   2.367  10.295 -0.1591  0.0738 -0.0579
  717TMC3     H10603   2.851   2.274   9.924  1.6851  0.7756 -0.1546
  717TMC3    H110604   2.862   2.137  10.313 -1.6173 -1.6739 -0.0302
  717TMC3    H210605   2.942   1.856  10.013 -0.9212 -0.3628 -0.9119
  717TMC3    C710606   2.922   1.888  10.266 -1.1557 -0.2160  0.0977
  717TMC3    C810607   2.856   2.032   9.811 -0.1509 -0.1293 -0.6108
  717TMC3    O110608   2.945   1.777  10.222  0.2342 -0.2306 -0.7591
  717TMC3    O210609   2.830   2.134   9.746 -0.0947  0.2837  0.1637
  718MPD2     C10610   1.760   1.064  13.454  0.6006 -0.3414 -0.8991
  718MPD2    C110611   1.682   1.123  13.353  0.0114 -0.2243  0.2872
  718MPD2    C210612   1.609   1.042  13.267  0.0515  0.3307 -0.4875
  718MPD2    C310613   1.614   0.902  13.272 -0.4048  0.2700  0.8457
  718MPD2    C410614   1.699   0.844  13.369 -0.2570  0.1143 -0.1708
  718MPD2    C510615   1.759   0.928  13.461  0.5014 -0.3455 -0.0170
  718MPD2     H10616   1.556   1.093  13.187  0.5516  2.0263  0.2574
  718MPD2    H110617   1.699   0.737  13.388  0.1322  0.3118  0.9130
  718MPD2    H210618   1.808   1.115  13.536 -4.3225  0.5236  1.4505
  718MPD2    H310619   1.800   0.880  13.549  0.0224  1.1739  1.0290
  718MPD2     N10620   1.559   0.825  13.170 -0.2734  0.1287 -0.6971
  718MPD2    H510621   1.507   0.872  13.096 -0.4722 -0.3168 -0.8403
  718MPD2    N110622   1.655   1.263  13.342  0.6513  0.4387 -1.0181
  718MPD2    H710623   1.595   1.284  13.262 -0.2672 -1.3287 -0.7694
  719TMC3    C110624   1.695   1.483  13.349  0.2231 -0.0670 -0.9150
  719TMC3    C210625   1.585   1.478  13.266  0.0317  0.5857 -1.3927
  719TMC3    C310626   1.590   1.534  13.144 -0.3376 -0.0512 -0.4697
  719TMC3    C410627   1.816   1.524  13.301  0.2929 -0.1172  1.1356
  719TMC3    C510628   1.810   1.578  13.175 -0.0957 -1.2287  0.2472
  719TMC3    C610629   1.701   1.600  13.096  0.0511  0.0419 -0.4185
  719TMC3     C10630   1.702   1.363  13.419  0.2482  0.0182 -0.1673
  719TMC3     O10631   1.787   1.361  13.506  0.0662 -0.1155 -0.5765
  719TMC3     H10632   1.490   1.453  13.310  0.3896  0.3492 -0.7615
  719TMC3    H110633   1.904   1.498  13.358  0.9239 -3.1463 -1.2034
  719TMC3    H210634   1.694   1.654  13.003 -3.1545  1.1300  0.4369
  719TMC3    C710635   1.915   1.538  13.096 -0.0740  0.2470  0.6255
  719TMC3    C810636   1.551   1.431  13.050 -0.4505 -0.6389  0.0930
  719TMC3    O110637   1.965   1.628  13.029 -0.2551 -0.0458  0.0754
  719TMC3    O210638   1.522   1.328  13.112  0.8876  0.5949 -0.0929
  720MPD2     C10639   0.517   3.026  13.956  0.0037  0.1097  0.0785
  720MPD2    C110640   0.598   2.949  13.870 -0.7067 -0.1971 -0.6786
  720MPD2    C210641   0.693   2.863  13.920  0.7367 -0.0191 -0.2527
  720MPD2    C310642   0.712   2.863  14.060  1.1497 -0.2117 -0.5084
  720MPD2    C410643   0.636   2.940  14.146 -0.8559 -0.3129 -0.2131
  720MPD2    C510644   0.537   3.021  14.089  0.3945 -0.2502  0.2262
  720MPD2     H10645   0.758   2.809  13.852  0.4037  1.0414 -1.4149
  720MPD2    H110646   0.630   2.931  14.254 -1.7950 -1.3269 -0.3473
  720MPD2    H210647   0.445   3.102  13.931 -0.8907 -0.5508  0.6279
  720MPD2    H310648   0.481   3.079  14.161  0.4449  0.1148 -0.0279
  720MPD2     N10649   0.818   2.788  14.110 -0.2791 -0.0970  0.1759
  720MPD2    H510650   0.881   2.748  14.042  0.7489  1.7638  0.0531
  720MPD2    N110651   0.567   2.946  13.733  0.2958  0.1380  0.1368
  720MPD2    H710652   0.592   2.857  13.692 -2.8244 -0.5553 -0.2232
  721TMC3    C110653   0.978   2.700  14.272 -0.4337  0.3606  0.0034
  721TMC3    C210654   0.994   2.636  14.392  0.1204  0.2845  0.6487
  721TMC3    C310655   1.121   2.613  14.435 -1.0127  0.4236  1.1092
  721TMC3    C410656   1.084   2.743  14.196  0.2653 -0.0135  0.9609
  721TMC3    C510657   1.208   2.711  14.242  0.6848  1.1418 -0.1434
  721TMC3    C610658   1.225   2.640  14.352 -0.6672 -0.3434 -0.2718
  721TMC3     C10659   0.855   2.770  14.247  0.3535  0.2158  0.2551
  721TMC3     O10660   0.789   2.801  14.344  0.8650  0.2653  0.2907
  721TMC3     H10661   0.909   2.612  14.454 -1.0928 -0.6598 -1.3831
  721TMC3    H110662   1.074   2.820  14.119  0.6239 -0.2699  0.6607
  721TMC3    H210663   1.321   2.608  14.393 -1.5718  2.2417  3.8103
  721TMC3    C710664   1.325   2.766  14.181 -0.7301  0.3287 -0.0810
  721TMC3    C810665   1.149   2.531  14.552 -0.2778  0.0509 -0.2507
  721TMC3    O110666   1.316   2.821  14.071  0.1741 -0.4179 -0.1148
  721TMC3    O210667   1.248   2.464  14.555  0.3098  0.0274 -0.0312
  722MPD2     C10668   4.409   1.524  13.170 -0.2536 -0.5379 -0.1000
  722MPD2    C110669   4.341   1.641  13.164  0.0293  0.8239  0.0867
  722MPD2    C210670   4.209   1.653  13.129  0.0129  0.3687 -0.8248
  722MPD2    C310671   4.133   1.542  13.101  0.2239  0.3510 -0.0117
  722MPD2    C410672   4.196   1.419  13.114 -0.3640  0.3639  0.6338
  722MPD2    C510673   4.333   1.409  13.142  0.1695 -0.2920 -0.5405
  722MPD2     H10674   4.165   1.752  13.118 -0.3913  0.2215 -0.5242
  722MPD2    H110675   4.143   1.325  13.099  0.2562  0.0012  0.7184
  722MPD2    H210676   4.516   1.512  13.186  0.2620  0.3525 -3.0556
  722MPD2    H310677   4.383   1.315  13.162 -0.4766 -0.4335  0.4015
  722MPD2     N10678   4.007   1.563  13.049  0.0256 -0.1485 -0.7802
  722MPD2    H510679   3.981   1.661  13.056 -0.1388 -0.3332  1.2590
  722MPD2    N110680   4.408   1.762  13.188  0.6315  0.1027 -0.0731
  722MPD2    H710681   4.359   1.851  13.181  0.2675  0.0192  1.4564
  723TMC3    C110682   3.782   1.512  12.982 -0.5368 -0.1434 -0.1165
  723TMC3    C210683   3.687   1.414  12.975 -0.0463 -0.1428  0.2410
  723TMC3    C310684   3.558   1.455  12.945  0.1976  0.3394 -0.6118
  723TMC3    C410685   3.758   1.644  12.966 -0.5318  0.4997  0.5373
  723TMC3    C510686   3.632   1.676  12.926 -0.3922 -0.0583  0.0748
  723TMC3    C610687   3.533   1.582  12.916  0.1312  0.2495  1.5296
  723TMC3     C10688   3.915   1.463  13.005 -0.3599  0.2153  0.0324
  723TMC3     O10689   3.934   1.342  12.997 -0.1175  0.1309 -0.5189
  723TMC3     H10690   3.716   1.311  12.991  0.5352 -0.2384 -1.4417
  723TMC3    H110691   3.837   1.719  12.958 -2.4538  2.4062 -0.3961
  723TMC3    H210692   3.433   1.608  12.884  0.5879  0.0961 -0.0336
  723TMC3    C710693   3.613   1.805  12.866 -0.0748  0.5403  1.5189
  723TMC3    C810694   3.463   1.356  12.912 -0.1091  0.4850  0.1935
  723TMC3    O110695   3.515   1.808  12.793  0.4491 -0.2476  0.0225
  723TMC3    O210696   3.367   1.396  12.846  0.1131 -0.3637  0.3832
  724TMC3    C110697   4.308   0.511   9.974  0.5439  0.4186  0.1616
  724TMC3    C210698   4.359   0.587  10.077 -0.1672 -0.3779 -0.6641
  724TMC3    C310699   4.276   0.682  10.133  0.0222  0.7368  0.0889
  724TMC3    C410700   4.195   0.546   9.912 -0.5350 -0.2329 -0.3240
  724TMC3    C510701   4.117   0.648   9.960 -0.1231  0.0451  0.3620
  724TMC3    C610702   4.155   0.716  10.075 -0.2155 -0.2604 -0.0632
  724TMC3     C10703   4.396   0.411   9.926  0.2241 -0.4604  0.9115
  724TMC3     O10704   4.516   0.428   9.926  0.0504  0.6462 -0.4830
  724TMC3     H10705   4.442   0.547  10.135 -0.9532  1.3708  1.6811
  724TMC3    H110706   4.162   0.503   9.818 -0.4201 -0.6206 -0.1863
  724TMC3    H210707   4.089   0.789  10.120  1.2285  0.2400  1.2576
  724TMC3    C710708   3.970   0.638   9.930 -0.1593 -1.1491  0.0132
  724TMC3    C810709   4.311   0.736  10.260 -0.6673  0.1725  0.3773
  724TMC3    O110710   3.945   0.570   9.832 -0.3351 -0.0406 -0.2703
  724TMC3    O210711   4.378   0.663  10.335  0.2154 -0.9516 -0.3508
  725TMC3    C110712   0.954   3.348  12.407  0.4696 -0.0916  0.2623
  725TMC3    C210713   0.867   3.407  12.322  0.1698  0.0513  0.6658
  725TMC3    C310714   0.814   3.340  12.217  0.3373  0.1727 -0.6283
  725TMC3    C410715   1.009   3.226  12.372  0.1567 -1.3402  0.5161
  725TMC3    C510716   0.966   3.176  12.252  0.0728  0.4426 -0.3281
  725TMC3    C610717   0.858   3.219  12.180  0.1455  0.7967 -0.0110
  725TMC3     C10718   0.939   3.383  12.550 -0.1412 -0.1917  0.0278
  725TMC3     O10719   0.906   3.501  12.566  0.3264 -0.5962  0.2290
  725TMC3     H10720   0.836   3.509  12.344  0.6570  0.9350 -2.7189
  725TMC3    H110721   1.078   3.168  12.432 -0.4350 -0.0608  2.4356
  725TMC3    H210722   0.822   3.170  12.090  1.7022 -1.5612  0.6842
  725TMC3    C710723   1.028   3.052  12.197  0.0419  0.4417  0.6403
  725TMC3    C810724   0.704   3.404  12.145 -0.1885 -0.4817 -0.1138
  725TMC3    O110725   1.001   3.035  12.079  0.1196 -0.2312  0.6773
  725TMC3    O210726   0.605   3.336  12.123  0.1690  0.1854  1.0992
  726MPD2     C10727   3.632   0.069  10.299  0.2823  0.1464  0.0318
  726MPD2    C110728   3.504   0.113  10.286  0.4131  0.3281 -0.3430
  726MPD2    C210729   3.395   0.027  10.306  0.4272  0.0878 -0.4428
  726MPD2    C310730   3.428   4.618  10.356 -0.6367 -0.3695 -0.1727
  726MPD2    C410731   3.562   4.581  10.371 -0.0070 -0.4217  0.7409
  726MPD2    C510732   3.659   4.668  10.345 -1.1580  0.7007 -0.4726
  726MPD2     H10733   3.293   0.063  10.310  0.3492 -0.2702  0.6805
  726MPD2    H110734   3.595   4.484  10.405  2.9198 -0.0222 -0.9633
  726MPD2    H210735   3.718   0.129  10.269  1.5023 -1.1020  1.0792
  726MPD2    H310736   3.764   4.640  10.349 -1.3713  0.0674  0.9435
  726MPD2     N10737   3.330   4.527  10.399 -0.4285 -0.4385  0.4622
  726MPD2    H510738   3.374   4.441  10.428 -0.5200 -1.1444 -1.4426
  726MPD2    N110739   3.465   0.248  10.253  0.2917  0.2012 -0.1162
  726MPD2    H710740   3.367   0.270  10.244  0.2778  0.9060  1.6360
  727TMC3    C110741   3.483   0.469  10.276  0.2096  0.4937 -0.6940
  727TMC3    C210742   3.542   0.577  10.339 -0.4092 -0.0282 -0.0884
  727TMC3    C310743   3.472   0.676  10.391  0.3260 -0.4190  0.4687
  727TMC3    C410744   3.354   0.481  10.238  0.6192 -0.2022  0.0820
  727TMC3    C510745   3.280   0.589  10.291  0.0548  0.2394  0.1725
  727TMC3    C610746   3.335   0.688  10.368 -0.5663 -0.4142 -0.4755
  727TMC3     C10747   3.554   0.350  10.265 -0.0572 -0.3188 -0.3416
  727TMC3     O10748   3.676   0.351  10.285 -0.2654 -0.2437 -0.4360
  727TMC3     H10749   3.649   0.573  10.356 -0.3984  2.3749  0.5048
  727TMC3    H110750   3.309   0.410  10.169  2.2235  0.2627 -1.4423
  727TMC3    H210751   3.273   0.761  10.418 -0.4993 -0.0745 -0.8914
  727TMC3    C710752   3.150   0.634  10.249  0.5679 -0.3876 -0.0778
  727TMC3    C810753   3.549   0.771  10.462  0.0735  0.0119  0.0807
  727TMC3    O110754   3.109   0.743  10.289  0.4055 -0.0267 -0.6214
  727TMC3    O210755   3.645   0.728  10.527  0.0558 -0.0807  0.0968
  728TMC3    C110756   3.800   3.424  15.439  0.0169 -0.2398  0.4777
  728TMC3    C210757   3.934   3.448  15.436  0.6276 -0.2162 -0.8136
  728TMC3    C310758   3.973   3.552  15.350  0.4348 -0.3029 -0.4174
  728TMC3    C410759   3.713   3.487  15.351 -0.2809  0.5787  0.0257
  728TMC3    C510760   3.752   3.582  15.268  0.5751 -0.2379  0.3730
  728TMC3    C610761   3.883   3.613  15.267 -0.1159  1.1463 -0.0718
  728TMC3     C10762   3.735   3.388  15.564 -0.1009  0.0239 -0.6468
  728TMC3     O10763   3.807   3.389  15.664 -0.2239  0.0809 -1.0156
  728TMC3     H10764   3.994   3.402  15.513  2.3553  2.9437 -0.2582
  728TMC3    H110765   3.607   3.465  15.340  0.0112 -0.9779  0.2931
  728TMC3    H210766   3.923   3.694  15.206 -0.2338  0.5758 -0.9064
  728TMC3    C710767   3.679   3.602  15.149  0.5805  0.6101  0.3961
  728TMC3    C810768   4.121   3.568  15.340 -0.7958 -0.2335  0.3880
  728TMC3    O110769   3.614   3.506  15.113 -0.5359  0.2836 -0.9010
  728TMC3    O210770   4.168   3.667  15.281  0.1603 -0.3166 -0.8454
  729MPD2     C10771   0.577   0.220  16.991  0.4663  0.3212 -0.0540
  729MPD2    C110772   0.661   0.120  17.039  0.1219  0.1720  0.0911
  729MPD2    C210773   0.668   0.099  17.176  1.0969  0.1901 -0.4597
  729MPD2    C310774   0.594   0.172  17.266  0.0145 -0.6158 -0.4475
  729MPD2    C410775   0.522   0.276  17.221  0.3433  0.0814 -1.0077
  729MPD2    C510776   0.507   0.292  17.086 -0.3670  0.4602 -0.0657
  729MPD2     H10777   0.745   0.035  17.220  0.0724 -1.0059 -0.3925
  729MPD2    H110778   0.450   0.319  17.290  0.7418 -2.0875  0.7455
  729MPD2    H210779   0.579   0.248  16.887 -3.6298  1.6870  0.2121
  729MPD2    H310780   0.443   0.374  17.056 -2.7125 -1.6446 -0.9352
  729MPD2     N10781   0.609   0.160  17.406  0.0533  0.5235  0.4525
  729MPD2    H510782   0.600   0.238  17.469  2.9080  1.1132  0.1597
  729MPD2    N110783   0.750   0.065  16.944 -0.3761 -0.1967 -0.3077
  729MPD2    H710784   0.759   0.113  16.855  0.9541  1.4382  0.7174
  730TMC3    C110785   0.695   0.067  17.607  0.4590  0.3282  0.5472
  730TMC3    C210786   0.818   0.010  17.621  0.2605  0.6459 -0.2979
  730TMC3    C310787   0.914   0.095  17.674 -0.1882 -0.7407  0.0185
  730TMC3    C410788   0.657   0.189  17.653 -0.1623 -0.2206 -0.2352
  730TMC3    C510789   0.754   0.268   0.012 -0.4143  0.2126 -0.8611
  730TMC3    C610790   0.889   0.221   0.023  0.0304  0.3262 -0.4292
  730TMC3     C10791   0.651   0.045  17.470  0.4818 -0.6384  0.4359
  730TMC3     O10792   0.674   4.666  17.414 -0.1573  0.0444 -0.2859
  730TMC3     H10793   0.841   4.641  17.570 -1.5837  0.4263 -0.7305
  730TMC3    H110794   0.557   0.229  17.642 -0.1004 -0.3298 -1.1507
  730TMC3    H210795   0.972   0.289   0.035  0.3607 -0.6969  3.0437
  730TMC3    C710796   0.743   0.400  17.659  0.5278 -0.4063 -0.4674
  730TMC3    C810797   1.046   0.081  17.626 -0.1747  0.0943 -0.6000
  730TMC3    O110798   0.688   0.403  17.549  0.2712  0.5697 -0.1048
  730TMC3    O210799   1.057   0.018  17.521  0.4417 -0.3111  0.6077
  731MPD2     C10800   0.515   3.322  12.477 -0.2707  1.2401  0.5039
  731MPD2    C110801   0.470   3.199  12.450  0.0026  0.7561 -0.2137
  731MPD2    C210802   0.476   3.098  12.551 -0.3671 -0.2379 -0.0920
  731MPD2    C310803   0.554   3.123  12.660 -0.6797  0.3466 -0.1096
  731MPD2    C410804   0.595   3.253  12.688 -0.4783 -0.2083  0.1123
  731MPD2    C510805   0.571   3.349  12.595 -0.1377 -0.3094 -0.4992
  731MPD2     H10806   0.443   2.996  12.533  2.3993 -0.7330 -2.3566
  731MPD2    H110807   0.646   3.269  12.782  2.3465 -0.7006 -1.3198
  731MPD2    H210808   0.525   3.409  12.414  0.9237 -0.6220 -1.8985
  731MPD2    H310809   0.601   3.452  12.612 -2.0900  0.3724 -1.1070
  731MPD2     N10810   0.586   3.013  12.737  0.1151 -0.2856 -0.4949
  731MPD2    H510811   0.570   2.921  12.698 -1.2015 -0.7922  1.2173
  731MPD2    N110812   0.415   3.183  12.323 -0.6044 -0.2539  0.8453
  731MPD2    H710813   0.433   3.258  12.257 -2.0238  0.6238  1.4646
  732TMC3    C110814   0.262   3.099  12.165  0.2736 -0.0570  0.0646
  732TMC3    C210815   0.196   2.975  12.137  0.5550 -0.4193 -0.8390
  732TMC3    C310816   0.172   2.951  12.003 -0.2109 -0.3427  0.3661
  732TMC3    C410817   0.322   3.180  12.065  0.6646  0.0184 -0.4065
  732TMC3    C510818   0.292   3.142  11.940  0.1901  0.0779 -0.5895
  732TMC3    C610819   0.233   3.026  11.908 -0.3653 -0.3674 -0.2070
  732TMC3     C10820   0.323   3.088  12.295  0.0790  0.1151  0.3280
  732TMC3     O10821   0.269   3.002  12.365 -0.0506  0.1587  0.3842
  732TMC3     H10822   0.148   2.916  12.214 -2.3385  1.7437 -0.9853
  732TMC3    H110823   0.385   3.268  12.080  1.4095 -0.8833  1.7321
  732TMC3    H210824   0.234   2.996  11.804  0.2496 -0.4821 -0.1648
  732TMC3    C710825   0.373   3.192  11.834  0.2824 -0.0373  0.7650
  732TMC3    C810826   0.166   2.814  11.963 -0.3731 -0.4589  0.2056
  732TMC3    O110827   0.329   3.280  11.762 -0.1099  0.4769  0.3099
  732TMC3    O210828   0.236   2.766  11.875 -0.1944 -0.7353  0.8040
  733TMC3    C110829   1.337   0.613  12.876  0.6273 -0.1055  0.1818
  733TMC3    C210830   1.396   0.597  12.999  0.2598 -0.1114 -0.0799
  733TMC3    C310831   1.514   0.668  13.015  0.8209  0.2767 -0.2120
  733TMC3    C410832   1.375   0.699  12.776 -0.5842 -0.4837  0.4235
  733TMC3    C510833   1.492   0.768  12.806 -0.3239  0.2587  0.1382
  733TMC3    C610834   1.556   0.763  12.923  0.3110  0.1591 -0.3592
  733TMC3     C10835   1.198   0.582  12.880 -0.1220 -0.7240 -0.0842
  733TMC3     O10836   1.130   0.635  12.794  0.0544  0.4830 -0.2729
  733TMC3     H10837   1.366   0.543  13.088 -0.2915  0.3107 -0.0110
  733TMC3    H110838   1.310   0.711  12.691 -1.5676 -0.0005  1.2476
  733TMC3    H210839   1.646   0.823  12.936  0.6775 -0.8003  1.4031
  733TMC3    C710840   1.518   0.875  12.712  0.2570 -0.4873 -0.0809
  733TMC3    C810841   1.560   0.692  13.149 -0.1084 -0.1705 -0.6290
  733TMC3    O110842   1.500   0.849  12.595  0.0558 -0.1349  0.0905
  733TMC3    O210843   1.583   0.604  13.226  0.0919  0.3345  0.5251
  734MPD2     C10844   3.338   3.372  12.704 -0.1199 -0.3140 -0.6823
  734MPD2    C110845   3.275   3.277  12.624  0.3855 -0.5408  0.0407
  734MPD2    C210846   3.281   3.302  12.491  0.1419  0.0905 -0.2854
  734MPD2    C310847   3.354   3.406  12.439  0.0141  0.0152  0.3602
  734MPD2    C410848   3.406   3.508  12.511 -0.3528 -0.3053 -0.1757
  734MPD2    C510849   3.385   3.485  12.647 -0.3252  0.2275  0.1148
  734MPD2     H10850   3.251   3.220  12.426  0.5745  1.1170 -1.7562
  734MPD2    H110851   3.451   3.597  12.469 -0.3620 -0.3800 -0.3433
  734MPD2    H210852   3.336   3.344  12.809  1.4121  1.3381 -0.2043
  734MPD2    H310853   3.425   3.552  12.723  0.3421  1.2361 -1.1211
  734MPD2     N10854   3.372   3.399  12.293 -0.6680  0.5552 -0.2027
  734MPD2    H510855   3.318   3.326  12.247  0.7150 -0.4568 -0.2396
  734MPD2    N110856   3.233   3.152  12.678 -0.1294 -0.4881 -0.1994
  734MPD2    H710857   3.234   3.144  12.779  1.0039 -2.1011 -0.3547
  735TMC3    C110858   3.212   2.909  12.682 -0.0565  0.4290  0.4858
  735TMC3    C210859   3.164   2.813  12.590 -0.2866 -0.2492  0.1542
  735TMC3    C310860   3.237   2.701  12.561 -0.7494  0.7907  0.6564
  735TMC3    C410861   3.332   2.876  12.755 -0.3513 -0.0176 -0.5107
  735TMC3    C510862   3.393   2.754  12.734  1.1073  0.1724  0.0634
  735TMC3    C610863   3.351   2.670  12.633  0.0753 -0.1489 -0.2490
  735TMC3     C10864   3.211   3.037  12.605  0.5030 -0.1564 -0.2965
  735TMC3     O10865   3.196   3.018  12.488  0.0913 -1.0149  0.2679
  735TMC3     H10866   3.068   2.831  12.544  0.3689  1.2013 -0.6666
  735TMC3    H110867   3.371   2.946  12.829  1.2075 -0.3285 -1.0312
  735TMC3    H210868   3.410   2.585  12.601  0.0935 -0.0604 -0.4537
  735TMC3    C710869   3.534   2.760  12.764  0.7664 -0.4759  0.3593
  735TMC3    C810870   3.233   2.653  12.429  0.4742  0.0421 -0.0899
  735TMC3    O110871   3.565   2.780  12.880  0.1046 -0.1679 -0.3836
  735TMC3    O210872   3.284   2.543  12.406  0.3083  0.3878 -0.2801
  736MPD2     C10873   3.826   2.825  12.745 -0.1604  0.4196 -0.3378
  736MPD2    C110874   3.740   2.818  12.642  0.1782  0.7654  0.0228
  736MPD2    C210875   3.790   2.859  12.518 -0.2073  0.0971  0.3293
  736MPD2    C310876   3.922   2.896  12.501  0.5854 -0.1259 -0.0849
  736MPD2    C410877   4.009   2.889  12.607 -0.6613 -0.2311  0.1376
  736MPD2    C510878   3.956   2.857  12.731 -0.4416 -0.3588 -0.1546
  736MPD2     H10879   3.715   2.861  12.439  1.6110  0.8613 -1.3581
  736MPD2    H110880   4.115   2.910  12.602 -0.8717  1.0149  0.7851
  736MPD2    H210881   3.800   2.784  12.842  0.3195 -1.5733 -1.0535
  736MPD2    H310882   4.024   2.860  12.815 -0.5492  0.8153 -0.1115
  736MPD2     N10883   3.970   2.953  12.378 -0.3248 -0.9241  0.1433
  736MPD2    H510884   4.068   2.974  12.363 -0.4782  0.4796  1.1591
  736MPD2    N110885   3.606   2.783  12.651  0.3643  0.7581 -0.2834
  736MPD2    H710886   3.565   2.775  12.558 -0.6021 -4.2112  0.5835
  737TMC3    C110887   3.968   3.033  12.146  1.1894 -0.3922  0.7041
  737TMC3    C210888   3.893   3.096  12.055  0.2046  0.4500 -0.1782
  737TMC3    C310889   3.937   3.099  11.927  0.3579 -0.1982 -1.4442
  737TMC3    C410890   4.088   2.975  12.123 -0.2099  0.4107  0.6650
  737TMC3    C510891   4.136   3.002  11.996 -0.2588 -0.1218  0.3688
  737TMC3    C610892   4.063   3.061  11.894 -0.6578  0.1377  1.0113
  737TMC3     C10893   3.896   2.981  12.261 -0.4783 -0.2874  0.1630
  737TMC3     O10894   3.774   2.979  12.241 -0.3537  0.2942 -0.5245
  737TMC3     H10895   3.797   3.141  12.080  1.0493  0.3917  3.1442
  737TMC3    H110896   4.149   2.928  12.200 -0.8823 -2.3607 -0.4656
  737TMC3    H210897   4.099   3.076  11.793  2.2021  1.6103  2.2415
  737TMC3    C710898   4.280   2.978  11.977  0.5459  0.1949 -0.0372
  737TMC3    C810899   3.889   3.214  11.851  0.0211  0.0527 -0.2410
  737TMC3    O110900   4.327   2.888  12.045 -0.9015  0.0535 -0.0885
  737TMC3    O210901   3.903   3.319  11.909 -0.3689 -0.1141  0.3390
  738MPD2     C10902   4.373   1.956  14.873  0.1831  0.1009 -0.1204
  738MPD2    C110903   4.377   1.916  15.009 -0.3111  0.3147 -0.1372
  738MPD2    C210904   4.468   1.982  15.089  0.4790 -0.0422  0.1733
  738MPD2    C310905   4.550   2.083  15.038  0.0473 -0.0725  0.3442
  738MPD2    C410906   4.554   2.108  14.903  0.0614 -0.5081 -0.8638
  738MPD2    C510907   4.465   2.043  14.820 -1.2448 -0.3347 -0.2953
  738MPD2     H10908   4.477   1.957  15.194  1.5332 -2.8979 -0.6030
  738MPD2    H110909   4.620   2.180  14.856  0.6967  0.7345  1.9329
  738MPD2    H210910   4.294   1.921  14.807  2.0180 -2.9518 -0.6829
  738MPD2    H310911   4.453   2.058  14.713 -0.4527  0.2796 -0.3012
  738MPD2     N10912   4.642   2.155  15.113 -0.3289 -0.2527  0.5712
  738MPD2    H510913   4.705   2.218  15.064 -0.9382  0.9643  1.3323
  738MPD2    N110914   4.302   1.810  15.057  0.1353 -0.7858 -0.5631
  738MPD2    H710915   4.312   1.785  15.155  0.1482 -0.9397 -0.6044
  739TMC3    C110916   0.030   2.243  15.301  0.4303  0.2957  0.1175
  739TMC3    C210917   0.109   2.319  15.213  0.3600  0.5439  0.5175
  739TMC3    C310918   0.197   2.408  15.273 -0.1028 -0.8410  0.2899
  739TMC3    C410919   0.039   2.256  15.439  0.6267 -0.3038  0.2660
  739TMC3    C510920   0.134   2.338  15.490  0.4952 -0.1380 -0.4242
  739TMC3    C610921   0.217   2.414  15.409  0.2019 -0.1663  0.0344
  739TMC3     C10922   4.644   2.160  15.248 -0.7837 -0.4151 -0.5569
  739TMC3     O10923   4.577   2.101  15.334  0.1844  0.3204  0.3514
  739TMC3     H10924   0.101   2.321  15.105  3.0744 -0.6352  0.2875
  739TMC3    H110925   4.702   2.187  15.496 -0.4367 -0.1414 -0.6674
  739TMC3    H210926   0.289   2.485  15.450  1.0345  0.4444 -2.4660
  739TMC3    C710927   0.173   2.316  15.624  0.1497 -0.1283 -0.6925
  739TMC3    C810928   0.283   2.479  15.181  0.4191 -0.2154 -0.3727
  739TMC3    O110929   0.284   2.358  15.644  0.1091 -0.7342  0.5744
  739TMC3    O210930   0.332   2.415  15.085 -0.0819 -0.0883 -0.0885
  740TMC3    C110931   0.813   3.262  14.737 -0.7151 -0.0187 -0.1946
  740TMC3    C210932   0.861   3.196  14.846 -0.8246  0.8227 -0.4739
  740TMC3    C310933   0.961   3.100  14.830 -0.3330 -0.5435  0.3168
  740TMC3    C410934   0.870   3.239  14.615  0.1201  0.1515 -0.1824
  740TMC3    C510935   0.972   3.153  14.605 -0.6056  0.1123  0.4755
  740TMC3    C610936   1.017   3.081  14.710 -0.3560  0.3616  0.1661
  740TMC3     C10937   0.699   3.346  14.750  0.2946 -0.1616 -0.3562
  740TMC3     O10938   0.682   3.413  14.651 -0.4621 -0.1871  0.0854
  740TMC3     H10939   0.820   3.231  14.940 -0.5295  0.5078 -0.2268
  740TMC3    H110940   0.843   3.303  14.532 -0.0646  1.3879  0.8379
  740TMC3    H210941   1.102   3.015  14.699 -0.7765 -0.3259  1.0645
  740TMC3    C710942   1.029   3.122  14.473  0.2656  0.2949  0.7967
  740TMC3    C810943   0.980   2.995  14.933 -0.0565  1.0146 -0.3889
  740TMC3    O110944   1.142   3.071  14.469  0.0376 -0.7962 -0.1234
  740TMC3    O210945   1.034   2.898  14.891 -0.1725 -0.0832  0.3950
  741TMC3    C110946   4.540   2.700  14.042  0.1677  0.0529 -0.1565
  741TMC3    C210947   4.591   2.577  14.069  0.5080 -0.1472 -0.1187
  741TMC3    C310948   4.657   2.556  14.189 -0.4779  0.1047  0.3562
  741TMC3    C410949   4.547   2.800  14.131 -0.3159  0.0212  0.2215
  741TMC3    C510950   4.604   2.777  14.253 -0.9996  0.2180  0.1219
  741TMC3    C610951   4.664   2.653  14.281  0.1721  0.3041  0.5016
  741TMC3     C10952   4.461   2.721  13.918  0.6955  0.2701  0.9982
  741TMC3     O10953   4.439   2.834  13.884 -0.2680 -0.1872 -0.6880
  741TMC3     H10954   4.581   2.491  14.004  1.0625 -1.0534  0.9986
  741TMC3    H110955   4.516   2.901  14.106 -0.9644 -1.0688 -3.3800
  741TMC3    H210956   0.005   2.637  14.367 -0.2862 -2.1785  0.3706
  741TMC3    C710957   4.618   2.893  14.342 -0.5347  0.0636  0.5138
  741TMC3    C810958   4.715   2.432  14.232  0.2572  0.6423  0.2017
  741TMC3    O110959   4.583   3.005  14.306 -0.4076 -0.0687  0.4474
  741TMC3    O210960   0.025   2.423  14.347 -0.0969 -0.2256 -0.4783
  742TMC3    C110961   0.062   1.276  15.227  1.0800 -0.3315 -0.5669
  742TMC3    C210962   4.717   1.275  15.107  0.4678  0.1352  0.3646
  742TMC3    C310963   0.043   1.206  15.003  0.1331  0.1129  0.6490
  742TMC3    C410964   0.178   1.208  15.241  0.6101 -0.0025  0.1828
  742TMC3    C510965   0.222   1.133  15.128  0.4011  0.2673 -0.0582
  742TMC3    C610966   0.149   1.125  15.016  0.5475 -0.5838  0.4258
  742TMC3     C10967   0.002   1.362  15.332  0.1165 -0.3602  0.3917
  742TMC3     O10968   4.673   1.462  15.296  0.0214  0.0325  0.2173
  742TMC3     H10969   4.612   1.304  15.105  0.3498 -0.2714  0.7320
  742TMC3    H110970   0.243   1.224  15.326  0.7928 -0.8259  0.1932
  742TMC3    H210971   0.179   1.067  14.929 -2.0001 -0.4537 -0.5256
  742TMC3    C710972   0.306   1.020  15.144 -0.2829 -0.2399 -0.2664
  742TMC3    C810973   4.667   1.149  14.907  1.2701 -0.2275  0.1185
  742TMC3    O110974   0.334   0.962  15.039 -0.0430  0.0503 -0.2796
  742TMC3    O210975   4.661   1.029  14.877  0.3307  0.0335  0.2364
  743MPD2     C10976   2.272   1.606   2.198 -0.6142  0.3239 -0.7747
  743MPD2    C110977   2.349   1.605   2.086  0.0602 -0.4783  0.2135
  743MPD2    C210978   2.431   1.492   2.063  0.5163  0.4452  0.0199
  743MPD2    C310979   2.448   1.399   2.166  0.4410 -0.2214 -0.6174
  743MPD2    C410980   2.375   1.406   2.284  0.5213 -0.4281  0.1717
  743MPD2    C510981   2.287   1.507   2.295 -0.1081  0.0712 -0.2032
  743MPD2     H10982   2.507   1.486   1.985 -1.2316  0.9838 -1.7175
  743MPD2    H110983   2.401   1.343   2.368 -0.8653  0.8493  1.5705
  743MPD2    H210984   2.201   1.682   2.229  0.8169  1.6062 -0.6172
  743MPD2    H310985   2.218   1.508   2.378  0.0133 -1.4264 -0.0773
  743MPD2     N10986   2.563   1.307   2.149 -0.0814  0.8087 -0.4402
  743MPD2    H510987   2.617   1.320   2.064  2.2868 -1.0650  0.7962
  743MPD2    N110988   2.334   1.711   1.999  0.6925  0.3864  0.5627
  743MPD2    H710989   2.255   1.773   2.012  0.5623  0.4982 -0.6886
  744TMC3    C110990   2.347   1.830   1.800  0.4162 -0.2373 -0.5210
  744TMC3    C210991   2.324   1.948   1.862  0.7151 -0.0320 -0.1077
  744TMC3    C310992   2.296   2.048   1.776  0.1044 -0.3146 -1.1349
  744TMC3    C410993   2.337   1.806   1.664  0.7235 -0.8804 -0.1890
  744TMC3    C510994   2.292   1.914   1.589 -0.0029  0.6105 -0.4225
  744TMC3    C610995   2.282   2.043   1.640 -0.1695 -0.0491  0.1589
  744TMC3     C10996   2.395   1.716   1.876  0.0806 -0.8157  0.0158
  744TMC3     O10997   2.491   1.660   1.824 -0.3493 -0.4796  0.4584
  744TMC3     H10998   2.330   1.967   1.968  2.3958 -4.5219  0.5893
  744TMC3    H110999   2.356   1.704   1.634  0.4003 -0.7166 -0.9570
  744TMC3    H211000   2.276   2.133   1.580 -2.2324 -0.6991 -0.6157
  744TMC3    C711001   2.313   1.912   1.445  0.4718 -0.0085  0.1694
  744TMC3    C811002   2.248   2.175   1.832  0.2228 -0.3038  0.4904
  744TMC3    O111003   2.329   2.019   1.386 -0.3393  0.0227  0.0619
  744TMC3    O211004   2.278   2.273   1.772 -0.4223  0.4023 -0.2260
  745TMC3    C111005   0.526   1.160  13.859  0.3911 -0.0859 -0.0414
  745TMC3    C211006   0.533   1.216  13.983  0.4670 -1.0835  0.6476
  745TMC3    C311007   0.430   1.183  14.067 -0.9146  0.9745 -0.5779
  745TMC3    C411008   0.430   1.073  13.817  0.1207  0.3324  0.0114
  745TMC3    C511009   0.332   1.040  13.910 -0.3155 -0.2104  0.0531
  745TMC3    C611010   0.334   1.093  14.032 -0.0636 -0.6480  0.1615
  745TMC3     C11011   0.635   1.182  13.760  0.2598 -0.1065  0.4468
  745TMC3     O11012   0.662   1.084  13.690 -0.2919  0.6047 -0.0137
  745TMC3     H11013   0.624   1.264  14.018  0.3210  0.6499 -1.3835
  745TMC3    H111014   0.443   1.042  13.714 -0.2412 -1.0563  0.3861
  745TMC3    H211015   0.274   1.050  14.111 -1.8766 -1.3556 -1.5978
  745TMC3    C711016   0.214   0.966  13.869  0.0659 -0.2090 -0.4269
  745TMC3    C811017   0.411   1.243  14.198 -0.3939 -0.1691  0.2631
  745TMC3    O111018   0.111   1.009  13.920  0.2840  0.0401 -0.2012
  745TMC3    O211019   0.303   1.228  14.252 -0.3161 -0.6670 -0.0303
  746TMC3    C111020   2.682   2.427  11.092 -0.2203  0.8112 -0.2775
  746TMC3    C211021   2.685   2.395  10.959  0.2450  0.4497  0.0407
  746TMC3    C311022   2.587   2.305  10.913  0.4168 -0.8020  0.4050
  746TMC3    C411023   2.589   2.365  11.175  0.2047  0.3984 -0.0260
  746TMC3    C511024   2.501   2.275  11.127 -0.0406 -0.6388 -0.1305
  746TMC3    C611025   2.492   2.249  10.994 -0.3000 -0.4705 -0.3436
  746TMC3     C11026   2.712   2.559  11.143  0.3715  0.7201 -0.0853
  746TMC3     O11027   2.638   2.588  11.235 -0.3335 -0.2255 -0.6466
  746TMC3     H11028   2.741   2.454  10.887  0.7366 -0.2658 -0.1662
  746TMC3    H111029   2.588   2.384  11.281  0.1748 -0.6389  0.1681
  746TMC3    H211030   2.415   2.180  10.961  2.2073 -3.6372  0.4685
  746TMC3    C711031   2.365   2.290  11.179  0.0412  0.5525  0.1685
  746TMC3    C811032   2.542   2.336  10.776 -0.5482  0.4268 -0.2877
  746TMC3    O111033   2.282   2.294  11.094 -0.1678 -0.2607 -0.8091
  746TMC3    O211034   2.611   2.421  10.723  0.4330 -0.3357 -0.2153
  747TMC3    C111035   0.065   3.420  11.251 -0.4364 -0.0431  0.0168
  747TMC3    C211036   0.081   3.293  11.295 -0.4850 -0.2874 -0.0435
  747TMC3    C311037   0.104   3.272  11.428  0.0497 -0.2169 -0.3851
  747TMC3    C411038   0.095   3.528  11.330 -0.1423 -0.2271 -0.1887
  747TMC3    C511039   0.130   3.507  11.459  0.1108 -0.2578  0.1749
  747TMC3    C611040   0.125   3.376  11.509 -0.0764 -0.6056 -0.3177
  747TMC3     C11041   0.008   3.438  11.119  0.0873 -0.2324  0.7923
  747TMC3     O11042   4.691   3.555  11.109 -0.4194  0.1288  0.4470
  747TMC3     H11043   0.048   3.213  11.230 -1.2672  0.1590 -0.1989
  747TMC3    H111044   0.066   3.625  11.291  1.7642  0.1016 -0.7897
  747TMC3    H211045   0.160   3.360  11.611 -2.4913 -2.3746  0.2176
  747TMC3    C711046   0.136   3.617  11.555  0.8088  0.0407 -0.1365
  747TMC3    C811047   0.069   3.145  11.484  0.6469  0.2767 -0.3052
  747TMC3    O111048   0.170   3.588  11.667 -0.0960  0.2327 -0.4923
  747TMC3    O211049   0.100   3.044  11.424  0.3137 -0.5574 -0.3377
  748MPD2     C11050   2.254   2.601   2.418 -0.0757 -0.0715  0.6853
  748MPD2    C111051   2.373   2.568   2.357  0.0661  0.0555 -0.3599
  748MPD2    C211052   2.455   2.665   2.308  0.2960 -0.1684 -0.8012
  748MPD2    C311053   2.417   2.798   2.310 -0.9595 -0.3458  0.4754
  748MPD2    C411054   2.290   2.829   2.368 -0.5044 -0.1161  0.4066
  748MPD2    C511055   2.213   2.729   2.418 -0.3512  0.7507 -0.5465
  748MPD2     H11056   2.555   2.638   2.274  0.2431 -1.4174  0.0544
  748MPD2    H111057   2.250   2.930   2.373  0.2080  0.2081 -0.5369
  748MPD2    H211058   2.185   2.527   2.457 -1.5727  1.4541  0.9011
  748MPD2    H311059   2.112   2.753   2.450 -0.5323  2.2717 -2.2941
  748MPD2     N11060   2.502   2.895   2.254 -0.2106 -0.7704 -0.3815
  748MPD2    H511061   2.584   2.857   2.208 -0.3254 -0.9231 -0.4628
  748MPD2    N111062   2.399   2.431   2.346  0.2934 -0.2707  0.0572
  748MPD2    H711063   2.324   2.375   2.386 -0.0191  0.5310  0.5755
  749TMC3    C111064   2.581   3.095   2.161 -0.2794 -0.0953  0.4472
  749TMC3    C211065   2.702   3.053   2.197 -0.0830 -0.4839  0.3695
  749TMC3    C311066   2.797   3.150   2.188 -0.5640  0.4151  0.1285
  749TMC3    C411067   2.560   3.222   2.106 -0.4663 -0.9103 -0.6924
  749TMC3    C511068   2.661   3.313   2.107  0.2165  0.8843  0.0422
  749TMC3    C611069   2.781   3.282   2.154 -0.0276  0.3746 -0.1119
  749TMC3     C11070   2.471   3.032   2.228  0.8778 -0.3676 -0.1190
  749TMC3     O11071   2.379   3.102   2.261  0.4794 -0.0194 -0.0727
  749TMC3     H11072   2.718   2.977   2.272  1.4893 -1.2062 -0.7178
  749TMC3    H111073   2.462   3.250   2.070 -1.2718 -0.2193  2.0195
  749TMC3    H211074   2.868   3.346   2.153 -0.2008  0.5782 -2.0650
  749TMC3    C711075   2.674   3.392   1.984 -0.6503 -0.1997 -0.6339
  749TMC3    C811076   2.926   3.118   2.240  0.2452  0.0388 -0.5098
  749TMC3    O111077   2.793   3.393   1.937 -0.1224  0.5226  0.3985
  749TMC3    O211078   2.993   3.206   2.301  0.5077 -0.4605  0.5939
  750MPD2     C11079   2.689   4.573  11.575 -0.6194 -0.5170  0.3497
  750MPD2    C111080   2.597   4.554  11.674  0.1427 -0.6098 -0.2802
  750MPD2    C211081   2.561   4.425  11.698 -0.0177 -0.5663 -0.5116
  750MPD2    C311082   2.614   4.316  11.629 -1.1284  0.3465 -0.1249
  750MPD2    C411083   2.699   4.335  11.524 -0.6204  0.1364  0.1428
  750MPD2    C511084   2.733   4.468  11.498  0.2033  0.4837 -0.4194
  750MPD2     H11085   2.482   4.406  11.769  0.4499 -1.3703 -0.2119
  750MPD2    H111086   2.740   4.254  11.465  0.3024  1.8137 -1.5248
  750MPD2    H211087   2.711   4.676  11.551 -0.7186 -0.6446 -0.2877
  750MPD2    H311088   2.788   4.493  11.408  3.0686 -3.2350  0.2841
  750MPD2     N11089   2.578   4.180  11.663  0.3697 -0.0034  0.3520
  750MPD2    H511090   2.590   4.108  11.593  1.3856 -0.5627  1.0895
  750MPD2    N111091   2.525   4.668  11.720  0.9956  0.4239  0.3545
  750MPD2    H711092   2.558   0.039  11.708 -0.7273  1.0359  0.4263
  751TMC3    C111093   2.515   4.001  11.785 -0.2922 -0.0653  0.5127
  751TMC3    C211094   2.412   3.944  11.861  0.1650 -0.4727 -0.2218
  751TMC3    C311095   2.410   3.808  11.891 -0.0629  0.3942  0.0964
  751TMC3    C411096   2.598   3.921  11.715 -0.1954  0.3081  0.2408
  751TMC3    C511097   2.596   3.791  11.743  0.2717 -0.9629 -0.5302
  751TMC3    C611098   2.517   3.734  11.839 -1.2382  0.5632  0.2929
  751TMC3     C11099   2.526   4.142  11.786  0.0311 -0.5533  0.0803
  751TMC3     O11100   2.489   4.198  11.889  0.1369  0.6602 -0.1538
  751TMC3     H11101   2.340   4.012  11.905 -0.4602  0.3778 -2.5506
  751TMC3    H111102   2.675   3.965  11.652  0.4553 -1.5590 -0.2730
  751TMC3    H211103   2.528   3.636  11.884 -0.2996  1.0982  1.2227
  751TMC3    C711104   2.593   3.725  11.614 -0.9566  0.5838 -0.3624
  751TMC3    C811105   2.292   3.732  11.886 -0.7884  0.1040  0.2808
  751TMC3    O111106   2.665   3.768  11.521  0.0013 -0.0056 -0.2622
  751TMC3    O211107   2.309   3.620  11.843  0.2147 -0.6731 -0.0902
  752TMC3    C111108   1.381   4.406   0.043 -0.1036 -0.5629 -0.3482
  752TMC3    C211109   1.245   4.381   0.044 -0.1197 -0.5503  0.0764
  752TMC3    C311110   1.187   4.414   0.165 -0.0981  0.2644 -0.4444
  752TMC3    C411111   1.456   4.452   0.153  0.5928  0.2741  0.3134
  752TMC3    C511112   1.386   4.481   0.270 -0.3457 -0.0911 -0.3807
  752TMC3    C611113   1.254   4.464   0.275  0.5231 -0.4318 -0.2127
  752TMC3     C11114   1.450   4.394  17.610  0.5555  0.0851  0.6730
  752TMC3     O11115   1.575   4.386  17.612  0.8148 -0.1954 -0.1242
  752TMC3     H11116   1.189   4.327  17.666  1.3160 -3.3424  0.9980
  752TMC3    H111117   1.563   4.467   0.150  0.5007  0.9156  0.2846
  752TMC3    H211118   1.202   4.481   0.369  1.1529 -0.0017  0.0551
  752TMC3    C711119   1.453   4.535   0.380 -0.0770  0.3740 -0.1689
  752TMC3    C811120   1.053   4.368   0.197 -0.6745 -0.3966  0.4681
  752TMC3    O111121   1.404   4.620   0.451  0.3210  0.7111  0.1759
  752TMC3    O211122   1.024   4.356   0.319 -0.3568  0.0456 -0.3063
  753TMC3    C111123   3.108   0.531  13.601 -0.4059  0.3146 -0.1497
  753TMC3    C211124   3.196   0.464  13.680  0.6065  0.1922 -0.1880
  753TMC3    C311125   3.150   0.354  13.745 -0.1563 -0.6500  0.0249
  753TMC3    C411126   2.974   0.496  13.595 -0.1035  0.5758 -0.7182
  753TMC3    C511127   2.931   0.389  13.663 -0.6845 -0.5398 -0.4363
  753TMC3    C611128   3.014   0.321  13.745 -0.2918  0.1389  0.0376
  753TMC3     C11129   3.159   0.641  13.530  0.2762  0.5914 -0.2000
  753TMC3     O11130   3.093   0.676  13.431 -0.5224 -0.2167  0.5283
  753TMC3     H11131   3.301   0.484  13.662  0.9729 -1.4380  0.1779
  753TMC3    H111132   2.911   0.545  13.522 -1.4553  0.3329  0.2978
  753TMC3    H211133   2.980   0.236  13.803 -1.2445  1.6373  1.6443
  753TMC3    C711134   2.793   0.360  13.678  0.6082  0.4096 -0.2854
  753TMC3    C811135   3.222   0.305  13.862 -0.2057 -0.0088 -0.4777
  753TMC3    O111136   2.761   0.244  13.715  0.4447 -0.0967 -0.3496
  753TMC3    O211137   3.168   0.212  13.924 -0.5600 -0.0074 -0.3312
  754MPD2     C11138   1.116   4.293  13.002  0.3670  0.2166 -0.2997
  754MPD2    C111139   1.130   4.157  13.020  0.4256 -0.1006  0.2022
  754MPD2    C211140   1.019   4.072  13.005  0.6899 -0.3246 -0.3677
  754MPD2    C311141   0.893   4.116  12.968 -0.9249 -0.6008  0.1540
  754MPD2    C411142   0.873   4.254  12.937 -0.4454 -0.1827  0.5803
  754MPD2    C511143   0.991   4.339  12.949 -0.4354 -0.2873  0.0468
  754MPD2     H11144   1.037   3.970  13.034  1.1255 -0.5105 -1.2980
  754MPD2    H111145   0.777   4.297  12.911  0.4850  1.0175 -0.8359
  754MPD2    H211146   1.200   4.361  13.009 -0.4211  1.0388  1.1268
  754MPD2    H311147   0.980   4.441  12.914  2.1465 -0.0556 -0.1371
  754MPD2     N11148   0.787   4.026  12.979  0.1117 -0.0492 -0.5651
  754MPD2    H511149   0.816   3.932  13.006 -0.0600  0.3973  1.1729
  754MPD2    N111150   1.252   4.105  13.068 -0.5471 -0.2801 -0.1905
  754MPD2    H711151   1.324   4.174  13.086 -0.3654 -0.3916 -0.5006
  755MPD2     C11152   1.041   3.770  13.742 -0.9079  0.4543 -0.1281
  755MPD2    C111153   1.006   3.888  13.676 -0.0807 -0.7606 -0.2381
  755MPD2    C211154   0.912   3.884  13.581  0.3534  0.6343 -0.2055
  755MPD2    C311155   0.860   3.758  13.535  0.2814  0.2041  0.4330
  755MPD2    C411156   0.899   3.640  13.601 -0.3211 -0.1649  0.0685
  755MPD2    C511157   0.989   3.650  13.706  0.2027 -0.7703 -0.0157
  755MPD2     H11158   0.897   3.984  13.543 -1.3019  0.6361  0.4378
  755MPD2    H111159   0.871   3.541  13.565 -0.7674 -0.3750  1.0150
  755MPD2    H211160   1.107   3.766  13.828  0.4519  1.0598 -1.1216
  755MPD2    H311161   1.021   3.554  13.746  0.0621 -0.9087 -0.2302
  755MPD2     N11162   0.765   3.745  13.426 -0.2768 -0.1765 -0.1866
  755MPD2    H511163   0.731   3.652  13.403 -1.0698  0.6066 -2.1936
  755MPD2    N111164   1.079   4.010  13.697 -0.2889 -0.0326  0.2532
  755MPD2    H711165   1.050   4.102  13.667 -0.9988 -0.0168  0.9615
  756MPD2     C11166   2.156   0.639  10.023  0.1635 -0.0641  0.1302
  756MPD2    C111167   2.082   0.529  10.054 -0.6607 -0.2895  0.8051
  756MPD2    C211168   1.954   0.518  10.000 -0.2355 -0.5101 -0.2602
  756MPD2    C311169   1.897   0.615   9.925  0.5376 -0.2619 -0.3181
  756MPD2    C411170   1.977   0.719   9.896 -0.6732  0.6326 -0.5449
  756MPD2    C511171   2.102   0.735   9.943 -0.2262  0.6516 -0.4974
  756MPD2     H11172   1.899   0.427  10.022 -2.9659  1.0624 -0.4561
  756MPD2    H111173   1.940   0.800   9.834 -1.6353 -0.1888 -1.0531
  756MPD2    H211174   2.257   0.661  10.057 -0.0306 -0.2672  0.8353
  756MPD2    H311175   2.148   0.829   9.916 -0.6353  1.0941  0.3446
  756MPD2     N11176   1.760   0.602   9.878  0.1905  0.2306 -0.0856
  756MPD2    H511177   1.711   0.513   9.882  0.9028 -0.1582 -0.0986
  756MPD2    N111178   2.128   0.429  10.141  0.0800  0.0690 -0.3624
  756MPD2    H711179   2.075   0.343  10.151  1.3423 -0.6416  0.2676
  757MPD2     C11180   1.429   4.572   9.723  0.7232  0.0806  0.8156
  757MPD2    C111181   1.488   4.623   9.839  0.2594  0.0568  0.0126
  757MPD2    C211182   1.495   0.038   9.847 -0.4200  0.1938  0.2681
  757MPD2    C311183   1.445   0.125   9.747  0.0071  0.7034 -0.1675
  757MPD2    C411184   1.385   0.067   9.635  0.2933 -0.1663 -0.3346
  757MPD2    C511185   1.386   4.656   9.626  0.9374  0.2667 -0.0937
  757MPD2     H11186   1.541   0.079   9.936 -0.2556 -2.2448  1.3196
  757MPD2    H111187   1.351   0.132   9.556 -0.7560 -0.5573 -0.1963
  757MPD2    H211188   1.431   4.467   9.694 -1.4342  0.8971 -2.2924
  757MPD2    H311189   1.349   4.609   9.535 -0.3753  0.1160  0.5109
  757MPD2     N11190   1.464   0.265   9.750  0.5499 -0.2339  0.0657
  757MPD2    H511191   1.520   0.301   9.826 -0.6332  0.2799  0.6975
  757MPD2    N111192   1.551   4.532   9.922 -0.0878  0.8013 -0.5677
  757MPD2    H711193   1.545   4.432   9.904  0.8251  1.1718 -2.9239
  758MPD2     C11194   2.550   3.768  16.095 -0.3569 -0.0296 -0.2579
  758MPD2    C111195   2.631   3.680  16.167 -1.0097 -0.0234 -0.5194
  758MPD2    C211196   2.634   3.678  16.302  0.3972 -0.0729 -0.4351
  758MPD2    C311197   2.533   3.746  16.368 -0.6206  0.0811  0.1929
  758MPD2    C411198   2.443   3.822  16.296  0.5399  0.2390  0.5871
  758MPD2    C511199   2.458   3.840  16.164  0.2364  0.1369  0.4688
  758MPD2     H11200   2.711   3.628  16.359  0.7857  1.5272  0.4541
  758MPD2    H111201   2.363   3.877  16.345 -0.7914  0.3738 -1.7032
  758MPD2    H211202   2.550   3.788  15.988  1.7348  0.9731 -0.0749
  758MPD2    H311203   2.391   3.908  16.112  0.6022  0.4746  0.4424
  758MPD2     N11204   2.516   3.749  16.508  0.4185  1.1209 -0.1363
  758MPD2    H511205   2.435   3.801  16.541  0.1177  0.4781  0.1444
  758MPD2    N111206   2.724   3.598  16.100 -0.5415  0.8818  0.0934
  758MPD2    H711207   2.747   3.635  16.009 -0.7556 -0.4279 -0.4976
  759MPD2     C11208   1.193   3.383   9.669 -0.0119  0.0691 -0.4013
  759MPD2    C111209   1.265   3.261   9.680  0.4456 -0.4050  0.7343
  759MPD2    C211210   1.400   3.265   9.665 -0.4139  0.4613  0.1174
  759MPD2    C311211   1.467   3.372   9.611  0.3038 -0.1966 -0.6384
  759MPD2    C411212   1.394   3.484   9.583 -0.8032  0.2656  0.4025
  759MPD2    C511213   1.265   3.486   9.629 -0.9071  0.0986 -0.7279
  759MPD2     H11214   1.459   3.174   9.674 -1.2992 -0.0656  0.5644
  759MPD2    H111215   1.441   3.574   9.543 -0.9531  0.6162  1.0077
  759MPD2    H211216   1.090   3.404   9.697 -0.5289 -4.3368  0.9478
  759MPD2    H311217   1.215   3.583   9.627 -0.9611  0.0469 -1.7492
  759MPD2     N11218   1.610   3.359   9.599 -0.1846 -0.0766  0.4007
  759MPD2    H511219   1.652   3.269   9.621 -0.7619  0.0070  1.7975
  759MPD2    N111220   1.220   3.143   9.735 -0.3390  0.1465  0.3135
  759MPD2    H711221   1.291   3.072   9.753 -0.5736  0.4944  2.6181
  760MPD2     C11222   0.422   0.170  11.752 -0.0286  0.6540  0.0706
  760MPD2    C111223   0.498   0.145  11.641 -0.0918  0.2436 -0.3956
  760MPD2    C211224   0.526   0.020  11.609 -0.3888 -0.6068 -0.4848
  760MPD2    C311225   0.508   4.636  11.690 -0.0356  0.5275 -0.9932
  760MPD2    C411226   0.420   4.658  11.795 -0.7133 -0.4641  0.5160
  760MPD2    C511227   0.375   0.062  11.827  0.1937 -0.3497  0.1498
  760MPD2     H11228   0.585   0.000  11.520  1.3721  2.0251  0.1126
  760MPD2    H111229   0.414   4.576  11.865 -0.9058 -0.7957  0.1109
  760MPD2    H211230   0.387   0.266  11.787 -1.4355  0.1800 -0.0099
  760MPD2    H311231   0.324   0.085  11.920  0.9713  1.2139  0.1948
  760MPD2     N11232   0.567   4.508  11.681 -0.2013  0.6514  0.3750
  760MPD2    H511233   0.531   4.439  11.746 -0.4819 -0.6116 -1.1492
  760MPD2    N111234   0.554   0.251  11.556  0.2339  0.0579 -0.1440
  760MPD2    H711235   0.601   0.229  11.469  0.0257 -1.1180  0.0489
  761MPD2     C11236   1.807   3.642  11.937  0.6687  0.5410 -0.1099
  761MPD2    C111237   1.900   3.604  11.840 -0.0595  0.1993  0.0027
  761MPD2    C211238   2.028   3.643  11.852 -0.3343  0.1211 -0.9012
  761MPD2    C311239   2.067   3.731  11.950 -0.3193 -0.0608 -0.1361
  761MPD2    C411240   1.976   3.760  12.054 -0.6480  0.4992  0.1585
  761MPD2    C511241   1.848   3.706  12.052 -0.2042  0.3422 -0.3607
  761MPD2     H11242   2.096   3.626  11.769  1.2125  0.6779  0.2554
  761MPD2    H111243   2.013   3.807  12.144  1.0818 -0.2384 -0.1560
  761MPD2    H211244   1.705   3.605  11.926  1.0032 -0.0145 -1.2925
  761MPD2    H311245   1.780   3.724  12.134  0.6865  0.1100  0.4353
  761MPD2     N11246   2.189   3.795  11.943  0.0416  0.4418 -0.5435
  761MPD2    H511247   2.203   3.879  11.998 -1.1706  0.7713 -0.7373
  761MPD2    N111248   1.845   3.521  11.744  0.1174  0.8798 -0.1321
  761MPD2    H711249   1.744   3.523  11.735  0.3392 -0.4529 -2.7045
  762MPD2     C11250   2.006   2.795  11.200 -1.1235 -0.4587 -0.7001
  762MPD2    C111251   1.998   2.932  11.184 -0.2867  0.1373 -0.1321
  762MPD2    C211252   2.019   2.982  11.060  0.5980 -0.0673 -0.3928
  762MPD2    C311253   2.045   2.895  10.951  0.0181  0.1091  0.2743
  762MPD2    C411254   2.047   2.758  10.974  0.1296  0.3141  0.7885
  762MPD2    C511255   2.034   2.711  11.102  0.4363  0.0261  0.5546
  762MPD2     H11256   2.022   3.090  11.046 -0.9276  0.3466  2.4684
  762MPD2    H111257   2.055   2.680  10.900  0.0986  0.2064  0.8980
  762MPD2    H211258   1.995   2.749  11.298 -0.2001  1.6326  0.3922
  762MPD2    H311259   2.031   2.605  11.122  0.4069  0.1793  1.3579
  762MPD2     N11260   2.058   2.945  10.819  0.3532 -0.3263 -0.5518
  762MPD2    H511261   2.094   3.039  10.809  0.4366 -0.3411 -0.3946
  762MPD2    N111262   1.972   3.007  11.300  0.3308  0.1383 -0.3972
  762MPD2    H711263   1.958   2.964  11.391 -0.5414  0.2750 -0.4626
  763MPD2     C11264   4.226   3.316  16.916 -0.7526  0.4476 -1.1960
  763MPD2    C111265   4.213   3.410  16.806  0.5664 -0.1777  0.7038
  763MPD2    C211266   4.212   3.546  16.831 -0.2182  0.4883 -0.9712
  763MPD2    C311267   4.203   3.590  16.964 -0.0073  0.4831  0.4255
  763MPD2    C411268   4.207   3.494  17.065  0.3015  0.1167 -0.0616
  763MPD2    C511269   4.232   3.361  17.042 -0.0939  0.0555 -0.3040
  763MPD2     H11270   4.234   3.617  16.752 -1.7156 -0.0870 -1.9184
  763MPD2    H111271   4.197   3.521  17.169 -1.2296 -0.8018  0.0216
  763MPD2    H211272   4.240   3.209  16.909  1.9180  0.7641 -0.7529
  763MPD2    H311273   4.221   3.287  17.120 -1.1444  2.1285  1.5020
  763MPD2     N11274   4.214   3.725  17.008 -0.0683  0.0737 -0.9166
  763MPD2    H511275   4.194   3.748  17.105  1.8236 -2.1546 -0.0021
  763MPD2    N111276   4.236   3.385  16.673  0.2435  0.0237 -0.0534
  763MPD2    H711277   4.199   3.454  16.608 -1.2634  0.3972  1.1973
  764MPD2     C11278   2.108   0.553   0.596  0.2464 -0.7607 -0.1219
  764MPD2    C111279   2.166   0.456   0.504 -0.2579 -0.0077 -0.0135
  764MPD2    C211280   2.290   0.394   0.531  0.3366  0.7156  0.6192
  764MPD2    C311281   2.360   0.421   0.645 -0.2627  0.7155  0.4329
  764MPD2    C411282   2.305   0.517   0.734 -0.0572  0.2296 -0.0037
  764MPD2    C511283   2.185   0.579   0.709 -0.2932  0.5692  0.1211
  764MPD2     H11284   2.322   0.315   0.464 -0.5645  0.1909  0.8188
  764MPD2    H111285   2.354   0.544   0.827 -2.0549  0.7618  0.8857
  764MPD2    H211286   2.016   0.609   0.581 -0.1235 -1.1718  0.5960
  764MPD2    H311287   2.146   0.643   0.786 -0.1215 -0.5008  1.0954
  764MPD2     N11288   2.486   0.362   0.662  0.1453  0.5288  0.5343
  764MPD2    H511289   2.520   0.312   0.580 -1.4647 -0.7258  0.6363
  764MPD2    N111290   2.105   0.421   0.383 -0.1438  0.3215  0.5034
  764MPD2    H711291   2.163   0.359   0.327 -0.8598  0.4900 -0.4114
  765MPD2     C11292   2.103   3.004  15.803  0.0051  0.5864  0.9441
  765MPD2    C111293   2.181   3.109  15.838 -0.2900  0.3323 -0.0602
  765MPD2    C211294   2.317   3.101  15.824 -1.0016  0.9289 -1.3415
  765MPD2    C311295   2.381   2.992  15.778  0.2294  0.5792 -0.2388
  765MPD2    C411296   2.298   2.884  15.747  0.3016  0.1408 -0.3091
  765MPD2    C511297   2.160   2.892  15.759 -0.3149 -0.2626  0.6713
  765MPD2     H11298   2.379   3.189  15.831  0.4285  0.0709 -3.3541
  765MPD2    H111299   2.342   2.790  15.714 -1.5143 -1.7690  2.6443
  765MPD2    H211300   1.994   3.008  15.801 -0.0692 -2.4226  0.4076
  765MPD2    H311301   2.108   2.802  15.729  0.5286  0.4154 -2.8328
  765MPD2     N11302   2.522   2.976  15.750  0.9984  0.5891 -0.1549
  765MPD2    H511303   2.547   2.881  15.725 -3.3672 -1.2278  2.3605
  765MPD2    N111304   2.110   3.234  15.866 -0.1471  0.3632  0.6043
  765MPD2    H711305   2.009   3.228  15.873 -0.0693 -2.7700 -1.2828
  766MPD2     C11306   1.569   3.353  15.681  0.1816  0.1674  0.5678
  766MPD2    C111307   1.697   3.375  15.652 -0.0647 -0.0839  0.9966
  766MPD2    C211308   1.755   3.316  15.540  0.3272  0.0281 -0.2723
  766MPD2    C311309   1.682   3.221  15.466 -0.0370  0.3385  0.1996
  766MPD2    C411310   1.546   3.213  15.496  0.5427  0.6206  0.0796
  766MPD2    C511311   1.490   3.275  15.607 -0.2048  0.0147 -0.0185
  766MPD2     H11312   1.857   3.336  15.509  1.0848  2.1196  3.6292
  766MPD2    H111313   1.490   3.137  15.442 -1.4536  2.0032  0.2152
  766MPD2    H211314   1.524   3.380  15.776  0.3036 -0.2816  0.7557
  766MPD2    H311315   1.393   3.248  15.648 -0.3759 -0.8577 -0.9968
  766MPD2     N11316   1.728   3.153  15.351 -0.3204  0.7674  0.0442
  766MPD2    H511317   1.654   3.113  15.294  1.3699 -0.1252 -1.5524
  766MPD2    N111318   1.783   3.452  15.739 -0.3820 -0.0834 -0.2408
  766MPD2    H711319   1.883   3.448  15.719 -0.2564  0.1376  0.3576
  767MPD2     C11320   1.422   3.466  15.323 -0.8522  0.1884 -0.1879
  767MPD2    C111321   1.525   3.497  15.242 -0.0630  0.3781 -0.1630
  767MPD2    C211322   1.534   3.435  15.116  0.8549 -0.4573 -0.1737
  767MPD2    C311323   1.433   3.356  15.075 -0.9344 -1.1306  0.0059
  767MPD2    C411324   1.320   3.334  15.153 -0.2577  0.4957 -0.9775
  767MPD2    C511325   1.312   3.396  15.275  0.0240  0.1709  0.1857
  767MPD2     H11326   1.615   3.454  15.046 -0.1542  2.3149 -0.5888
  767MPD2    H111327   1.237   3.276  15.115 -1.5883  0.4719  2.0234
  767MPD2    H211328   1.427   3.494  15.428 -2.1296  0.3823 -0.1809
  767MPD2    H311329   1.231   3.377  15.344 -0.9025  1.5579 -0.5161
  767MPD2     N11330   1.452   3.283  14.958  0.3663  0.5543 -1.2659
  767MPD2    H511331   1.549   3.277  14.927  0.9777 -1.0397  0.9262
  767MPD2    N111332   1.627   3.577  15.292  0.0802  0.4563 -0.1262
  767MPD2    H711333   1.621   3.615  15.387 -0.1795 -0.4034  0.1942
  768MPD2     C11334   1.972   2.198  10.883  0.2739 -0.3458  0.0408
  768MPD2    C111335   1.924   2.185  11.009 -0.2049 -0.9973  0.7955
  768MPD2    C211336   1.977   2.090  11.098 -1.0130  0.2730 -0.1357
  768MPD2    C311337   2.080   2.014  11.049  0.1276  0.5459 -0.8307
  768MPD2    C411338   2.123   2.023  10.921  0.3603 -0.2422  0.1852
  768MPD2    C511339   2.071   2.118  10.838  0.0432 -0.0980 -0.9899
  768MPD2     H11340   1.950   2.088  11.203 -2.5626 -3.3065 -0.5874
  768MPD2    H111341   2.213   1.969  10.891  0.7560  2.2724 -3.1035
  768MPD2    H211342   1.928   2.271  10.815 -1.4560 -0.0648  1.4554
  768MPD2    H311343   2.112   2.144  10.741  0.9542  2.1728  0.0028
  768MPD2     N11344   2.154   1.928  11.126 -0.1834  0.3565  0.3094
  768MPD2    H511345   2.233   1.878  11.086  0.1690  1.7564 -0.7748
  768MPD2    N111346   1.816   2.258  11.054  0.1042 -0.8196  0.6365
  768MPD2    H711347   1.790   2.226  11.147 -0.9053 -0.0702  0.6023
  769MPD2     C11348   3.526   4.473  15.229 -0.0044 -0.1090 -0.3269
  769MPD2    C111349   3.402   4.491  15.282  0.6390 -0.2077  0.9816
  769MPD2    C211350   3.377   4.582  15.383 -0.1286 -0.2116  1.4057
  769MPD2    C311351   3.483   4.651  15.442 -0.0896 -0.6312 -0.0552
  769MPD2    C411352   3.605   4.626  15.396 -0.1491 -0.2919  0.0645
  769MPD2    C511353   3.629   4.542  15.286  0.7814 -0.0683  0.0928
  769MPD2     H11354   3.277   4.607  15.418 -0.2642 -0.5335  1.2391
  769MPD2    H111355   3.688   4.685  15.434  0.4515 -0.5119 -0.8705
  769MPD2    H211356   3.542   4.401  15.150 -1.2722 -2.1893  1.2958
  769MPD2    H311357   3.724   4.529  15.235  0.6443  0.6037 -0.3382
  769MPD2     N11358   3.457   0.020  15.545  0.8183 -0.5301  0.4007
  769MPD2    H511359   3.369   4.721  15.590 -0.3477  0.7103 -1.2559
  769MPD2    N111360   3.303   4.417  15.219 -0.3817 -0.4759  0.3899
  769MPD2    H711361   3.329   4.344  15.154 -0.4663 -0.4469  0.3242
  770MPD2     C11362   2.509   3.952  14.909  0.6399 -0.4028  0.0559
  770MPD2    C111363   2.647   3.921  14.918  0.6052  0.3076  0.5318
  770MPD2    C211364   2.735   4.019  14.963  0.0993  0.0560  0.1708
  770MPD2    C311365   2.687   4.146  14.992 -0.5356 -0.0797 -0.7697
  770MPD2    C411366   2.552   4.169  15.004  0.2738  0.3194  0.0384
  770MPD2    C511367   2.466   4.072  14.962 -0.1117 -0.1927 -0.1748
  770MPD2     H11368   2.842   4.009  14.974  0.1467  1.2812  0.7519
  770MPD2    H111369   2.506   4.260  15.042  1.2067  0.7152  0.2275
  770MPD2    H211370   2.433   3.882  14.876  1.3033 -0.0162 -2.3120
  770MPD2    H311371   2.359   4.082  14.973 -0.5524 -2.5506 -2.3484
  770MPD2     N11372   2.786   4.243  15.025  0.2440 -0.2290  0.1836
  770MPD2    H511373   2.884   4.216  15.025 -0.0626 -1.3489 -0.5687
  770MPD2    N111374   2.689   3.784  14.905 -0.7206 -0.0715 -0.0875
  770MPD2    H711375   2.615   3.721  14.876 -1.2623  0.5992 -0.1756
  771MPD2     C11376   3.908   2.697  13.993 -0.4221 -0.3209  0.1947
  771MPD2    C111377   3.929   2.809  13.925 -0.3428  0.0390  0.9051
  771MPD2    C211378   3.912   2.797  13.785  0.0619 -0.3659 -0.0357
  771MPD2    C311379   3.861   2.680  13.721  0.1471  0.2610  0.0619
  771MPD2    C411380   3.838   2.573  13.797 -0.2054  0.1485  0.2492
  771MPD2    C511381   3.869   2.579  13.933 -0.4842  0.5168  0.1683
  771MPD2     H11382   3.932   2.885  13.725 -0.6521 -0.9305 -1.0996
  771MPD2    H111383   3.813   2.478  13.752 -0.7568  0.1649  0.5247
  771MPD2    H211384   3.937   2.691  14.098  0.3732 -0.8884 -0.0619
  771MPD2    H311385   3.849   2.500  14.005  0.3339 -0.2228 -0.4186
  771MPD2     N11386   3.848   2.682  13.582  0.5455 -0.0759  0.1561
  771MPD2    H511387   3.865   2.773  13.540  0.1952 -0.7484 -1.4507
  771MPD2    N111388   3.972   2.934  13.977 -0.5097  0.0259 -0.4216
  771MPD2    H711389   4.003   2.998  13.905 -1.3268  1.6023  0.6157
  772MPD2     C11390   3.710   3.600  14.323  0.1142 -0.1401  0.3795
  772MPD2    C111391   3.689   3.486  14.248 -0.0764 -0.4133  0.7723
  772MPD2    C211392   3.560   3.458  14.197 -0.3060 -0.2052  0.4780
  772MPD2    C311393   3.460   3.558  14.213  0.1643  0.0206 -0.7070
  772MPD2    C411394   3.481   3.671  14.285  0.6184  0.5237 -0.0939
  772MPD2    C511395   3.611   3.694  14.328 -0.1646 -0.8180 -1.5551
  772MPD2     H11396   3.548   3.366  14.140 -0.1728 -0.2015  0.4431
  772MPD2    H111397   3.407   3.750  14.297  0.7206  0.8991 -1.9657
  772MPD2    H211398   3.802   3.614  14.379  0.0808 -4.2918  1.4976
  772MPD2    H311399   3.636   3.781  14.387 -1.6193 -0.6189 -1.2479
  772MPD2     N11400   3.336   3.548  14.155 -0.0977  0.1347 -0.4236
  772MPD2    H511401   3.269   3.618  14.185  3.1837  2.2495  1.9349
  772MPD2    N111402   3.793   3.396  14.220  0.0501 -0.0786  0.1478
  772MPD2    H711403   3.762   3.309  14.176 -0.2429 -0.5267  1.2454
  773MPD2     C11404   2.762   3.500   0.866  0.0676 -0.4117  0.1597
  773MPD2    C111405   2.844   3.554   0.770 -0.2096  0.3071 -0.2023
  773MPD2    C211406   2.965   3.498   0.746  0.3010 -0.3541  0.7724
  773MPD2    C311407   3.003   3.374   0.803 -0.5803  0.3235 -0.6313
  773MPD2    C411408   2.906   3.314   0.882 -0.2615  0.1371 -0.1361
  773MPD2    C511409   2.791   3.379   0.918 -0.2375  0.1561  0.3126
  773MPD2     H11410   3.034   3.560   0.690 -1.1599 -0.2071 -0.8543
  773MPD2    H111411   2.926   3.220   0.933  1.7369 -0.5583 -2.1740
  773MPD2    H211412   2.662   3.540   0.879  0.4859 -0.0909  2.3517
  773MPD2    H311413   2.723   3.333   0.989 -0.2376 -0.5219 -0.1306
  773MPD2     N11414   3.136   3.329   0.784 -0.3996 -0.5366 -0.7047
  773MPD2    H511415   3.193   3.385   0.721 -1.4450  1.3167 -0.0088
  773MPD2    N111416   2.808   3.669   0.692 -0.1370  0.3653  0.0072
  773MPD2    H711417   2.865   3.699   0.613  1.1542 -0.7321  0.5283
  774MPD2     C11418   1.950   3.240  13.193  0.7912 -0.2805  0.1025
  774MPD2    C111419   1.900   3.272  13.322 -0.2099  0.0333 -0.1216
  774MPD2    C211420   1.822   3.386  13.335 -0.0721 -0.6712 -0.0297
  774MPD2    C311421   1.792   3.464  13.227  0.4771 -0.2474  0.3332
  774MPD2    C411422   1.848   3.433  13.104 -0.0371  0.6009 -0.2031
  774MPD2    C511423   1.917   3.319  13.084 -0.1651 -0.2288  0.3176
  774MPD2     H11424   1.780   3.417  13.430 -0.6038  0.3974 -0.6208
  774MPD2    H111425   1.834   3.501  13.021 -0.3872  0.6470 -0.1096
  774MPD2    H211426   2.024   3.164  13.174 -3.0025 -3.4163 -2.0199
  774MPD2    H311427   1.960   3.290  12.989 -2.1558 -0.8660 -0.3769
  774MPD2     N11428   1.700   3.571  13.253  0.3543  0.4428  0.1649
  774MPD2    H511429   1.661   3.566  13.347 -2.2126 -1.8675 -1.0412
  774MPD2    N111430   1.930   3.192  13.432 -0.0272 -0.0904 -0.0021
  774MPD2    H711431   1.988   3.111  13.412  0.7124  0.5448 -0.4177
  775MPD2     C11432   3.733   0.022  16.052 -0.2429 -0.1487 -0.0255
  775MPD2    C111433   3.708   0.150  16.101  0.0340 -0.3532 -0.5281
  775MPD2    C211434   3.758   0.264  16.048 -0.0995 -0.0866 -1.3761
  775MPD2    C311435   3.852   0.246  15.949  0.0859  0.4202 -0.0050
  775MPD2    C411436   3.879   0.124  15.901  0.5161 -0.7613 -0.2541
  775MPD2    C511437   3.827   0.007  15.951  0.6568  0.1297 -0.5039
  775MPD2     H11438   3.730   0.362  16.084 -0.0422  0.3005 -2.3780
  775MPD2    H111439   3.941   0.111  15.813  2.2848  1.2248  0.7129
  775MPD2    H211440   3.684   4.657  16.090 -1.9190 -0.2218 -2.3751
  775MPD2    H311441   3.846   4.638  15.899 -0.0297 -0.8736  1.0312
  775MPD2     N11442   3.904   0.362  15.886  0.1553 -0.2340 -0.1262
  775MPD2    H511443   3.964   0.346  15.806  2.1414  2.6812  0.8003
  775MPD2    N111444   3.619   0.160  16.213  0.5081 -0.8048  0.0258
  775MPD2    H711445   3.591   0.072  16.256  0.5611 -0.5965  0.4811
  776MPD2     C11446   2.703   0.498  12.091 -0.8968 -0.7086 -0.4094
  776MPD2    C111447   2.623   0.496  11.978  0.4205  0.0280 -0.1883
  776MPD2    C211448   2.651   0.590  11.878  0.2111  0.3592 -0.0438
  776MPD2    C311449   2.758   0.679  11.899  0.3746  0.5748 -0.3243
  776MPD2    C411450   2.832   0.668  12.016  0.9093 -0.1974 -0.0504
  776MPD2    C511451   2.812   0.582  12.120 -0.0472  0.2324 -0.3438
  776MPD2     H11452   2.593   0.610  11.789  0.3343 -0.2910 -0.2686
  776MPD2    H111453   2.915   0.736  12.035  0.8384 -0.2380  0.3943
  776MPD2    H211454   2.680   0.428  12.171  1.1416 -0.2420  0.5885
  776MPD2    H311455   2.862   0.588  12.216  0.7201 -0.1824 -0.7231
  776MPD2     N11456   2.787   0.790  11.815 -0.3403 -0.0786  0.3542
  776MPD2    H511457   2.867   0.843  11.848  0.4289 -0.7369 -0.4375
  776MPD2    N111458   2.508   0.413  11.974  0.3122  0.1830  0.2907
  776MPD2    H711459   2.499   0.347  12.051  1.9506  0.2465  0.5269
  777MPD2     C11460   3.134   2.525   1.369 -0.3936  0.4090 -0.1014
  777MPD2    C111461   3.136   2.399   1.425  0.3519 -0.2791 -0.1944
  777MPD2    C211462   3.113   2.294   1.343  0.5301 -0.0060 -0.1458
  777MPD2    C311463   3.097   2.313   1.205  0.1532  0.1564  0.6757
  777MPD2    C411464   3.092   2.440   1.151  0.7205  0.3084  0.3039
  777MPD2    C511465   3.114   2.543   1.231  0.2485 -0.5803 -0.3977
  777MPD2     H11466   3.105   2.198   1.391 -1.1779  0.1074 -0.2063
  777MPD2    H111467   3.090   2.472   1.047 -0.7327  1.0765  0.5726
  777MPD2    H211468   3.155   2.608   1.436  0.3987  0.4913 -0.4459
  777MPD2    H311469   3.125   2.646   1.197 -1.8862 -0.2382 -0.0492
  777MPD2     N11470   3.059   2.200   1.126  0.6224  0.5860  0.0515
  777MPD2    H511471   3.063   2.113   1.179 -1.6968  0.5726  0.2434
  777MPD2    N111472   3.165   2.388   1.567  0.3542  0.1737 -0.4214
  777MPD2    H711473   3.176   2.478   1.613  0.8015 -0.5413  0.8631
  778MPD2     C11474   3.940   2.397  15.381 -0.1763  0.1279 -0.4559
  778MPD2    C111475   3.907   2.392  15.244 -0.2905  0.3417  0.0068
  778MPD2    C211476   3.989   2.463  15.156 -0.5256 -0.1032 -0.1241
  778MPD2    C311477   4.092   2.546  15.206  0.2004  0.0725 -0.0143
  778MPD2    C411478   4.126   2.543  15.343 -0.2869 -0.5668 -0.8666
  778MPD2    C511479   4.043   2.469  15.429  0.3346 -0.2333  0.5427
  778MPD2     H11480   3.962   2.448  15.052 -2.4002  0.3312  0.3016
  778MPD2    H111481   4.207   2.604  15.381 -2.0479 -0.5690  2.8247
  778MPD2    H211482   3.877   2.339  15.448 -1.0625 -0.7563 -2.0656
  778MPD2    H311483   4.062   2.471  15.536  2.6452  1.8610  0.0754
  778MPD2     N11484   4.166   2.615  15.108 -0.4433 -0.2783 -0.5843
  778MPD2    H511485   4.137   2.603  15.012 -0.6877  0.1591 -0.5660
  778MPD2    N111486   3.810   2.308  15.188  0.5932 -0.3621  0.1613
  778MPD2    H711487   3.797   2.320  15.088  1.5791 -3.6894 -0.3699
  779MPD2     C11488   3.900   1.414  14.061  0.1754 -0.6059 -1.1117
  779MPD2    C111489   3.921   1.377  14.192 -0.2839 -0.5044  0.2880
  779MPD2    C211490   3.975   1.469  14.276  0.3449 -0.1627  0.2386
  779MPD2    C311491   3.991   1.609  14.243 -0.0803 -0.0733 -0.8841
  779MPD2    C411492   3.958   1.642  14.114  0.1590  0.0033 -1.0697
  779MPD2    C511493   3.917   1.545  14.023  0.3286 -0.9545  0.2946
  779MPD2     H11494   4.009   1.440  14.374  0.1567  0.9509  0.6352
  779MPD2    H111495   3.998   1.734  14.073  1.1267  0.3926  0.7565
  779MPD2    H211496   3.857   1.353  13.982 -0.8534  0.1686 -1.1435
  779MPD2    H311497   3.887   1.569  13.922  0.2137 -2.8808 -0.1378
  779MPD2     N11498   4.036   1.714  14.333  0.0976  0.1566 -0.1277
  779MPD2    H511499   4.071   1.684  14.424 -1.7296  0.9504  0.8497
  779MPD2    N111500   3.908   1.244  14.236  0.7681  0.1660 -0.0598
  779MPD2    H711501   3.935   1.224  14.332  0.5107 -1.0554 -0.2419
  780MPD2     C11502   3.726   1.261   1.401  0.0439  0.0524 -0.2045
  780MPD2    C111503   3.596   1.229   1.385 -0.7220 -0.1944 -0.7367
  780MPD2    C211504   3.533   1.278   1.270  0.8295  0.8291 -0.4323
  780MPD2    C311505   3.598   1.375   1.196  0.6750 -0.5070  0.6219
  780MPD2    C411506   3.727   1.416   1.223 -0.9370 -0.3163  0.4017
  780MPD2    C511507   3.790   1.357   1.324 -0.1410 -0.0659  0.5927
  780MPD2     H11508   3.430   1.251   1.246  0.8735 -1.4274  1.9691
  780MPD2    H111509   3.780   1.487   1.161 -0.0508 -1.4040 -0.0805
  780MPD2    H211510   3.773   1.225   1.491 -1.8522  2.2430  1.6517
  780MPD2    H311511   3.891   1.391   1.344 -1.2584  2.5903  1.6864
  780MPD2     N11512   3.525   1.442   1.092 -0.2730 -0.1417 -0.0500
  780MPD2    H511513   3.450   1.391   1.047 -1.6434  2.5519 -0.7720
  780MPD2    N111514   3.525   1.160   1.483 -0.0705  0.1493  0.2708
  780MPD2    H711515   3.582   1.111   1.552 -0.8973 -0.3253  0.6274
  781MPD2     C11516   0.005   3.367  12.444  0.5877 -1.2520  0.7942
  781MPD2    C111517   0.133   3.385  12.499  0.4670 -0.2251 -0.3887
  781MPD2    C211518   0.199   3.503  12.456 -0.0670 -0.4694 -0.2021
  781MPD2    C311519   0.144   3.577  12.350  0.3054 -0.6835 -0.5672
  781MPD2    C411520   0.025   3.555  12.296  0.2223  0.4354  0.0518
  781MPD2    C511521   4.682   3.448  12.346  0.3807 -0.7947 -0.1277
  781MPD2     H11522   0.295   3.531  12.496 -0.5015  0.6198  0.1081
  781MPD2    H111523   4.704   3.621  12.223 -1.1457 -0.9368 -0.3341
  781MPD2    H211524   4.669   3.283  12.480 -0.2654 -1.0847 -0.2171
  781MPD2    H311525   4.576   3.438  12.322  0.1873 -0.7750  0.7276
  781MPD2     N11526   0.207   3.694  12.302  0.3604  0.6540  0.3041
  781MPD2    H511527   0.145   3.747  12.241 -1.0716 -0.7784  0.5256
  781MPD2    N111528   0.196   3.305  12.598  0.3378  0.3125  0.0087
  781MPD2    H711529   0.285   3.338  12.634  1.0714 -2.0850  0.3978
  782MPD2     C11530   2.496   3.886  10.473  0.1981 -0.3982 -0.9298
  782MPD2    C111531   2.584   3.880  10.577 -0.2967 -0.9607 -0.7721
  782MPD2    C211532   2.684   3.978  10.589 -0.1944 -0.4103 -0.0925
  782MPD2    C311533   2.692   4.078  10.497  0.3914  0.2205 -0.4870
  782MPD2    C411534   2.594   4.092  10.394 -0.1179 -0.7233 -0.3234
  782MPD2    C511535   2.503   3.993  10.388  0.4443  0.4647 -0.2754
  782MPD2     H11536   2.754   3.966  10.671 -1.7937 -1.6093  1.1062
  782MPD2    H111537   2.596   4.162  10.311 -1.9679  0.0649  0.2926
  782MPD2    H211538   2.425   3.805  10.462  0.3928 -0.4560 -1.7492
  782MPD2    H311539   2.430   3.995  10.308  0.3707  2.9250 -0.1424
  782MPD2     N11540   2.793   4.164  10.520 -0.1816 -0.1472  0.9129
  782MPD2    H511541   2.860   4.140  10.592 -1.4106 -2.9700  1.0953
  782MPD2    N111542   2.583   3.767  10.668 -0.4152  0.7689 -1.0082
  782MPD2    H711543   2.507   3.702  10.653 -0.5232  0.4828  0.8709
  783MPD2     C11544   2.349   3.452  11.547 -0.2911  0.2588  0.2965
  783MPD2    C111545   2.448   3.539  11.522 -0.3093 -0.3270  0.6503
  783MPD2    C211546   2.503   3.540  11.398 -0.0910 -0.3830  0.7338
  783MPD2    C311547   2.462   3.448  11.300  0.7687  0.0393  0.0455
  783MPD2    C411548   2.359   3.362  11.324  0.1785  0.6826 -0.1016
  783MPD2    C511549   2.305   3.366  11.449  0.6784  0.2414 -0.3343
  783MPD2     H11550   2.584   3.610  11.384 -0.8196  0.8406  2.5546
  783MPD2    H111551   2.321   3.287  11.256 -0.3168  0.8530 -0.0155
  783MPD2    H211552   2.295   3.458  11.641  1.0407 -0.3867  1.1073
  783MPD2    H311553   2.225   3.297  11.473 -0.0725  1.7998  1.6520
  783MPD2     N11554   2.515   3.460  11.169  0.7040  0.2318  0.5572
  783MPD2    H511555   2.597   3.519  11.165  0.2937  0.7904  0.4223
  783MPD2    N111556   2.498   3.621  11.620  0.2244  0.1912  0.4684
  783MPD2    H711557   2.442   3.624  11.704  1.2171  1.9445  1.0610
  784MPD2     C11558   1.013   4.279   0.939 -0.1916 -0.3439 -0.5033
  784MPD2    C111559   1.104   4.302   1.045 -0.3586  0.7602  0.0837
  784MPD2    C211560   1.081   4.415   1.125  0.2683 -0.0494 -0.0025
  784MPD2    C311561   0.972   4.500   1.102 -0.5831  0.5552 -0.2911
  784MPD2    C411562   0.885   4.477   0.998  0.0126  0.3504 -0.2477
  784MPD2    C511563   0.911   4.369   0.918 -0.0837  0.3637 -0.3363
  784MPD2     H11564   1.146   4.434   1.209 -1.2180 -0.7692  1.3081
  784MPD2    H111565   0.800   4.535   0.965 -0.2335  1.7923  2.8695
  784MPD2    H211566   1.032   4.201   0.867 -2.1441 -0.8896 -0.4161
  784MPD2    H311567   0.856   4.360   0.825  0.1547 -2.6587 -0.1773
  784MPD2     N11568   0.954   4.616   1.185 -0.3326  0.8746  0.0085
  784MPD2    H511569   1.030   4.635   1.249  0.2313  1.8468 -0.9554
  784MPD2    N111570   1.217   4.215   1.081 -0.0419  0.3071 -0.5669
  784MPD2    H711571   1.288   4.247   1.146 -0.6934  0.8472 -0.1265
  785MPD2     C11572   0.412   3.195  11.044 -0.2426 -0.3820 -0.2266
  785MPD2    C111573   0.358   3.207  10.915 -0.0562 -0.1947  0.3091
  785MPD2    C211574   0.332   3.093  10.839  0.2210 -0.3023  0.6067
  785MPD2    C311575   0.368   2.972  10.889 -0.3040  0.1444  0.1825
  785MPD2    C411576   0.408   2.956  11.021 -0.2430 -0.4639  1.0983
  785MPD2    C511577   0.426   3.068  11.097 -0.1546  0.3287 -0.0529
  785MPD2     H11578   0.283   3.105  10.743  0.9123  2.5685  0.6076
  785MPD2    H111579   0.427   2.857  11.059  0.3787 -1.0577 -0.7518
  785MPD2    H211580   0.441   3.277  11.108 -1.9218  1.1507 -1.4474
  785MPD2    H311581   0.463   3.062  11.198  0.2834  0.8389 -0.1819
  785MPD2     N11582   0.371   2.872  10.796  0.7445 -0.2775  0.0633
  785MPD2    H511583   0.333   2.894  10.704  1.0821  0.3090  0.0651
  785MPD2    N111584   0.323   3.333  10.859 -0.6822  0.2242 -0.4553
  785MPD2    H711585   0.281   3.330  10.766  0.5905  2.0206 -1.0718
  786MPD2     C11586   4.207   1.169  14.720 -0.5999  0.4217  0.1710
  786MPD2    C111587   4.301   1.071  14.708  0.2125 -0.8329  0.0562
  786MPD2    C211588   4.426   1.104  14.751 -0.1762 -0.2641 -0.2090
  786MPD2    C311589   4.465   1.223  14.805  0.0041 -0.4178  0.6129
  786MPD2    C411590   4.369   1.318  14.815  0.0254  0.6685 -0.2876
  786MPD2    C511591   4.243   1.294  14.770  0.4101  0.2415  0.4089
  786MPD2     H11592   4.505   1.034  14.727 -2.2496 -2.1093 -1.5943
  786MPD2    H111593   4.389   1.417  14.854  1.9522  0.3030 -0.3575
  786MPD2    H211594   4.102   1.152  14.699 -0.6957  0.4836  0.5850
  786MPD2    H311595   4.167   1.365  14.797  0.1987  0.0716  0.2616
  786MPD2     N11596   4.590   1.250  14.864 -0.0923  0.3935  0.5656
  786MPD2    H511597   4.608   1.347  14.889 -0.6719  0.4841  0.6389
  786MPD2    N111598   4.283   0.941  14.652 -0.6041 -0.0997  0.1783
  786MPD2    H711599   4.359   0.875  14.660  0.6768  1.0246 -2.6748
  787MPD2     C11600   4.453   0.582  15.105 -0.5833  0.3000  0.6398
  787MPD2    C111601   4.447   0.512  14.989  0.1481 -0.0157 -0.2320
  787MPD2    C211602   4.523   0.397  14.967 -0.0424 -0.3428  0.2962
  787MPD2    C311603   4.608   0.344  15.065  0.1887  0.1781 -0.0866
  787MPD2    C411604   4.608   0.406  15.187  0.6607 -0.2458 -0.1378
  787MPD2    C511605   4.531   0.519  15.206 -0.2794  0.1028 -0.1551
  787MPD2     H11606   4.525   0.349  14.870 -2.3997  0.8381 -0.3400
  787MPD2    H111607   4.668   0.356  15.262  2.6717 -0.9170 -2.2078
  787MPD2    H211608   4.407   0.679  15.122 -0.3750  0.5961 -0.4909
  787MPD2    H311609   4.521   0.550  15.309  1.1185  2.1081 -0.6334
  787MPD2     N11610   4.681   0.224  15.045  0.2943 -0.2297 -0.2053
  787MPD2    H511611   0.017   0.198  15.122 -0.0247  1.2306  0.5386
  787MPD2    N111612   4.353   0.551  14.894  0.2579 -0.4508  0.3820
  787MPD2    H711613   4.304   0.638  14.908  1.3011  0.2550 -0.3167
  788MPD2     C11614   2.090   3.483   1.200  0.1334 -0.2610 -0.5588
  788MPD2    C111615   1.987   3.417   1.126 -0.1189 -0.3601 -0.2830
  788MPD2    C211616   1.936   3.478   1.017  0.3609  0.3288 -0.5148
  788MPD2    C311617   1.974   3.604   0.982 -0.3001  0.4087 -0.6831
  788MPD2    C411618   2.078   3.664   1.048 -0.1516  0.0102 -0.2480
  788MPD2    C511619   2.135   3.604   1.153  0.2776 -0.3211 -0.0439
  788MPD2     H11620   1.874   3.429   0.943  0.4908  1.6814 -1.5138
  788MPD2    H111621   2.120   3.760   1.019 -2.2140  0.7142 -0.9054
  788MPD2    H211622   2.137   3.452   1.293  1.9839 -1.0010 -1.7480
  788MPD2    H311623   2.215   3.658   1.202  0.9197 -1.1314 -0.1812
  788MPD2     N11624   1.933   3.665   0.856 -0.1286 -0.0599 -0.4595
  788MPD2    H511625   1.958   3.761   0.836 -1.5829  0.4683  0.2836
  788MPD2    N111626   1.939   3.292   1.157 -0.2480  0.5227 -0.0595
  788MPD2    H711627   1.864   3.262   1.096  1.4084  1.4221 -2.5439
  789MPD2     C11628   2.087   3.868  16.558  0.9529 -0.7897 -0.4141
  789MPD2    C111629   2.054   3.810  16.677  0.3184 -0.3617 -0.3254
  789MPD2    C211630   1.961   3.874  16.758  0.2231  0.2893 -0.2913
  789MPD2    C311631   1.921   4.005  16.750 -0.1680  0.0708 -0.6261
  789MPD2    C411632   1.968   4.058  16.632  0.1849  0.2870 -0.0299
  789MPD2    C511633   2.051   4.001  16.544 -0.5523  0.4005 -0.5963
  789MPD2     H11634   1.919   3.821  16.842 -0.0225  1.4598  0.3301
  789MPD2    H111635   1.935   4.156  16.600  1.2960  0.4246 -0.7474
  789MPD2    H211636   2.153   3.828  16.482 -2.1713 -0.7198 -3.1464
  789MPD2    H311637   2.084   4.052  16.454 -1.3785  1.9322 -0.0412
  789MPD2     N11638   1.829   4.072  16.830 -0.0283 -0.2183  0.5274
  789MPD2    H511639   1.806   4.166  16.800  1.5996 -0.0078 -0.0701
  789MPD2    N111640   2.101   3.684  16.716  0.2881 -0.8827 -0.1953
  789MPD2    H711641   2.073   3.645  16.805  0.4821 -1.5183 -0.4148
  790MPD2     C11642   2.277   1.006  13.748  0.1016 -0.7596 -0.4296
  790MPD2    C111643   2.409   0.969  13.739  0.4824  0.5709 -0.1882
  790MPD2    C211644   2.451   0.915  13.617 -0.2767 -0.3603  0.2133
  790MPD2    C311645   2.367   0.907  13.511  0.7398  0.8230  0.0974
  790MPD2    C411646   2.237   0.950  13.521 -0.3306 -0.1170 -0.3062
  790MPD2    C511647   2.191   0.999  13.642  0.1292 -0.1157 -0.3909
  790MPD2     H11648   2.553   0.879  13.608  0.2747  1.3183 -0.2681
  790MPD2    H111649   2.155   0.939  13.451 -0.9098  0.4080  0.2873
  790MPD2    H211650   2.235   1.048  13.838  2.1900 -2.4461  1.3224
  790MPD2    H311651   2.088   1.030  13.650  0.4791  1.1540 -0.9086
  790MPD2     N11652   2.406   0.822  13.402  0.0957 -0.4768  0.0365
  790MPD2    H511653   2.499   0.781  13.408  1.7098  2.8984 -1.4532
  790MPD2    N111654   2.484   0.981  13.861 -0.0920 -0.3592  0.0955
  790MPD2    H711655   2.425   1.009  13.938  2.6297 -0.6638  2.2929
  791MPD2     C11656   1.947   0.762  12.791  0.3026  0.2898 -0.6930
  791MPD2    C111657   2.017   0.644  12.792  0.0951  0.4158 -0.0493
  791MPD2    C211658   1.980   0.538  12.715  0.2634  0.2184  0.1193
  791MPD2    C311659   1.882   0.550  12.625 -0.0052  0.0825 -0.7183
  791MPD2    C411660   1.816   0.674  12.621 -0.0995  0.0723 -0.3923
  791MPD2    C511661   1.852   0.780  12.703 -0.4426 -0.3901 -0.0619
  791MPD2     H11662   2.038   0.447  12.725 -3.0559 -1.9546 -0.4163
  791MPD2    H111663   1.722   0.687  12.568 -0.2472 -1.1783 -0.4370
  791MPD2    H211664   1.957   0.847  12.858  0.5531  0.8886 -1.4993
  791MPD2    H311665   1.793   0.870  12.688  2.6322  1.4759 -0.8372
  791MPD2     N11666   1.850   0.436  12.548 -0.2780 -0.2326  0.1728
  791MPD2    H511667   1.908   0.352  12.549  1.1842  0.7863  0.8754
  791MPD2    N111668   2.125   0.630  12.883 -0.6654 -0.0407 -0.0984
  791MPD2    H711669   2.132   0.703  12.953  0.3506 -0.3640  0.1447
  792MPD2     C11670   2.995   0.160  11.050  0.0218  0.1761 -0.3892
  792MPD2    C111671   2.895   0.256  11.067  0.2008  0.4874  0.0596
  792MPD2    C211672   2.772   0.227  11.124  0.1320  0.3798 -0.2571
  792MPD2    C311673   2.745   0.099  11.154  0.0678  0.8883  0.6184
  792MPD2    C411674   2.841   4.720  11.122  0.4358  0.4663  0.3455
  792MPD2    C511675   2.962   0.033  11.071 -0.6636 -0.5701  0.2850
  792MPD2     H11676   2.700   0.308  11.123 -0.3214 -0.0181  0.7071
  792MPD2    H111677   2.821   4.614  11.136  0.5502  0.4362  0.2827
  792MPD2    H211678   3.096   0.184  11.019  0.3700  0.2789  0.8239
  792MPD2    H311679   3.037   4.682  11.050  1.4626  2.1339 -1.7681
  792MPD2     N11680   2.620   0.061  11.212 -0.1269  0.3121 -0.4348
  792MPD2    H511681   2.595   4.688  11.231 -0.4271  0.2996 -0.8930
  792MPD2    N111682   2.929   0.381  11.020  0.4561  0.0963 -0.3848
  792MPD2    H711683   3.029   0.386  10.999  0.5006 -0.1026 -0.2215
  793MPD2     C11684   1.904   0.058  10.774 -0.3769 -0.3800  0.0285
  793MPD2    C111685   2.043   0.085  10.778  0.4924  0.1323 -1.3706
  793MPD2    C211686   2.099   0.098  10.901 -0.8347 -0.0970  0.1086
  793MPD2    C311687   2.026   0.090  11.018 -0.3697  0.3852  0.0352
  793MPD2    C411688   1.897   0.045  11.012  0.8970  0.2870  0.0886
  793MPD2    C511689   1.831   0.038  10.888 -0.8321 -0.8590 -0.1305
  793MPD2     H11690   2.204   0.127  10.899 -0.7873 -0.2167  1.3955
  793MPD2    H111691   1.834   0.035  11.100  0.4738 -1.5981 -0.4158
  793MPD2    H211692   1.844   0.047  10.685 -0.1847 -1.0689 -0.0198
  793MPD2    H311693   1.725   0.014  10.880 -0.4618 -1.7922 -2.2784
  793MPD2     N11694   2.097   0.107  11.138  0.1673 -0.4664  0.6542
  793MPD2    H511695   2.198   0.108  11.126 -0.0919  0.6520 -1.3620
  793MPD2    N111696   2.119   0.112  10.667 -0.1474  0.2606 -0.3869
  793MPD2    H711697   2.217   0.138  10.678 -0.2021 -0.2899  1.3606
  794MPD2     C11698   2.864   3.756  17.665  0.4170  0.1039  0.5356
  794MPD2    C111699   2.737   3.805   0.001 -0.0945 -0.9804  0.3523
  794MPD2    C211700   2.653   3.853  17.598 -0.8001 -0.1478 -0.4440
  794MPD2    C311701   2.703   3.879  17.471 -0.3661  0.3111 -0.3658
  794MPD2    C411702   2.832   3.848  17.441  0.0264  0.0092 -0.2689
  794MPD2    C511703   2.906   3.782  17.536 -0.8763  0.1371  0.0255
  794MPD2     H11704   2.556   3.891  17.627 -2.1107 -2.7011 -1.4805
  794MPD2    H111705   2.872   3.871  17.343  0.9635  1.0226  0.3553
  794MPD2    H211706   2.938   3.715   0.036 -0.3923  0.8843  1.8806
  794MPD2    H311707   3.008   3.756  17.509 -0.8910 -0.5243  0.6041
  794MPD2     N11708   2.624   3.939  17.369 -0.6007  0.5420 -0.1598
  794MPD2    H511709   2.667   3.953  17.278  0.0942 -0.0199  0.0882
  794MPD2    N111710   2.682   3.800   0.130 -0.1131 -0.4052 -0.0783
  794MPD2    H711711   2.593   3.845   0.150 -0.5109 -1.1452 -0.1922
  795MPD2     C11712   0.184   2.380  13.522 -0.6659  1.0258  0.3019
  795MPD2    C111713   0.197   2.245  13.482 -0.7928  0.8461 -0.1610
  795MPD2    C211714   0.320   2.181  13.482 -0.5387 -0.0532 -0.5008
  795MPD2    C311715   0.431   2.246  13.523 -0.4842  0.6354  0.2846
  795MPD2    C411716   0.422   2.378  13.566 -0.0520  0.4373  0.2492
  795MPD2    C511717   0.297   2.441  13.572 -0.4630  0.2460 -0.5816
  795MPD2     H11718   0.326   2.075  13.459  2.4210 -0.4400  1.9557
  795MPD2    H111719   0.506   2.441  13.594 -1.5179  1.5609  2.1788
  795MPD2    H211720   0.091   2.434  13.506 -1.4493 -1.3889 -3.4616
  795MPD2    H311721   0.290   2.546  13.599  2.0729  0.2843 -0.0925
  795MPD2     N11722   0.551   2.177  13.524  0.1856 -0.0562  0.1261
  795MPD2    H511723   0.546   2.077  13.507  2.3255 -0.1391  0.0211
  795MPD2    N111724   0.095   2.169  13.430  0.2436 -0.7935 -0.0197
  795MPD2    H711725   0.113   2.076  13.394 -0.1556  0.0173 -2.3243
  796MPD2     C11726   0.142   3.660  16.158  0.2659  0.3329 -0.4742
  796MPD2    C111727   0.179   3.731  16.263  0.0341 -0.8080 -0.0720
  796MPD2    C211728   0.135   3.861  16.276  0.0363 -0.0842 -0.6006
  796MPD2    C311729   0.046   3.914  16.184 -0.4485 -0.1869 -0.5836
  796MPD2    C411730   4.722   3.836  16.080  0.4626  0.3240 -0.7125
  796MPD2    C511731   0.045   3.708  16.071 -0.4203 -0.0594 -0.2457
  796MPD2     H11732   0.154   3.917  16.367  0.4105 -1.4128  0.1459
  796MPD2    H111733   4.652   3.866  16.004 -0.2965  3.0144  1.0365
  796MPD2    H211734   0.163   3.554  16.148 -1.4381 -0.0026 -0.4349
  796MPD2    H311735   0.022   3.650  15.983 -2.9694  2.8327 -1.4842
  796MPD2     N11736   0.010   4.046  16.212 -0.2073  0.6344 -0.1804
  796MPD2    H511737   0.062   4.097  16.283 -0.6146  0.4235  0.2699
  796MPD2    N111738   0.251   3.673  16.362 -0.6167 -0.4882  0.2037
  796MPD2    H711739   0.257   3.572  16.363  0.3680 -0.4275  0.2341
  797MPD2     C11740   1.157   2.961   0.027  0.6876 -0.3309 -0.2749
  797MPD2    C111741   1.259   3.054   0.020  0.2166 -0.3297 -0.2399
  797MPD2    C211742   1.220   3.181  17.689  0.0319  0.6015  0.0766
  797MPD2    C311743   1.095   3.212  17.631 -0.0865 -0.7472  0.0635
  797MPD2    C411744   0.996   3.117  17.639 -0.9894 -0.4959 -0.0318
  797MPD2    C511745   1.027   2.994  17.694  0.2608  0.1251  0.1366
  797MPD2     H11746   1.297   3.255   0.013  1.1006 -1.0541  1.9175
  797MPD2    H111747   0.901   3.137  17.590 -1.1668  0.2146  0.5937
  797MPD2    H211748   1.186   2.862   0.061  0.4226  0.5256  2.4597
  797MPD2    H311749   0.954   2.915   0.010  0.4870 -0.3163 -1.2355
  797MPD2     N11750   1.065   3.346  17.613  0.8835 -0.9780 -0.4524
  797MPD2    H511751   1.127   3.406  17.668  0.8316 -0.3014 -1.1306
  797MPD2    N111752   1.399   3.038   0.056  1.3157 -0.1078  0.3672
  797MPD2    H711753   1.463   3.114   0.036  1.1337 -0.6696 -2.3385
  798MPD2     C11754   1.582   3.762   0.045 -0.0001  0.7795 -0.8668
  798MPD2    C111755   1.485   3.678   0.057 -0.2316 -0.0136  0.2450
  798MPD2    C211756   1.511   3.553   0.108  0.1973  0.0627  0.2792
  798MPD2    C311757   1.629   3.512   0.149  0.2612  0.2904 -0.4439
  798MPD2    C411758   1.730   3.602   0.141  0.1774 -0.2106  0.9016
  798MPD2    C511759   1.708   3.728   0.094 -0.2504 -0.1612  0.0562
  798MPD2     H11760   1.430   3.481   0.113 -1.3378  1.6748 -1.4460
  798MPD2    H111761   1.830   3.577   0.176  0.6079 -2.3451 -1.9056
  798MPD2    H211762   1.570   3.858  17.693  0.7810  0.1368 -2.2878
  798MPD2    H311763   1.786   3.804   0.095 -0.1000 -0.3133 -1.4705
  798MPD2     N11764   1.644   3.376   0.187 -0.7320  0.1212 -0.2533
  798MPD2    H511765   1.564   3.315   0.180 -0.3921 -0.4175  0.5495
  798MPD2    N111766   1.361   3.714  17.693  0.0356 -0.0561 -0.2228
  798MPD2    H711767   1.351   3.811  17.663  0.5071 -0.5681 -2.0602
  799MPD2     C11768   4.391   4.655  15.166 -0.1952  0.0411  0.5241
  799MPD2    C111769   4.320   4.572  15.085  0.5260  0.7228  0.3909
  799MPD2    C211770   4.267   4.625  14.968 -0.2442 -0.3121 -0.0079
  799MPD2    C311771   4.278   0.032  14.934  0.5669  0.3756 -0.5095
  799MPD2    C411772   4.332   0.117  15.027  0.2517  0.0332 -0.3908
  799MPD2    C511773   4.387   0.071  15.142 -0.7779 -0.0656  0.4711
  799MPD2     H11774   4.217   4.559  14.899  0.0982  0.2903 -0.8313
  799MPD2    H111775   4.337   0.222  15.004 -1.4127  0.4604  1.1536
  799MPD2    H211776   4.433   4.623  15.260 -1.0446  0.4214  1.0274
  799MPD2    H311777   4.429   0.141  15.214 -1.1814 -0.9010  1.5129
  799MPD2     N11778   4.257   0.081  14.799  0.7258  0.7525  0.3749
  799MPD2    H511779   4.289   0.175  14.774  1.7315  0.4464  0.4948
  799MPD2    N111780   4.301   4.433  15.110 -0.3596 -0.0976  0.0616
  799MPD2    H711781   4.262   4.377  15.034  0.3392 -0.6572  0.1028
  800MPD2     C11782   0.481   1.674  14.473  0.0239 -0.5271  0.0762
  800MPD2    C111783   0.584   1.667  14.373  0.4167  0.2424 -0.9086
  800MPD2    C211784   0.586   1.557  14.295  0.3864 -0.6216 -0.2673
  800MPD2    C311785   0.490   1.455  14.301 -0.3249  0.2131 -0.5962
  800MPD2    C411786   0.383   1.472  14.388  0.4984 -0.3566 -0.2578
  800MPD2    C511787   0.381   1.581  14.470 -0.6284 -0.1257  0.4888
  800MPD2     H11788   0.661   1.535  14.220  0.2610 -1.6764 -0.0815
  800MPD2    H111789   0.300   1.403  14.384  0.1034  0.0766  0.5175
  800MPD2    H211790   0.475   1.749  14.552  0.2188 -1.9743  1.4568
  800MPD2    H311791   0.298   1.594  14.538 -1.0567  0.6617 -0.1827
  800MPD2     N11792   0.501   1.349  14.208 -0.3925 -0.1233  0.4290
  800MPD2    H511793   0.577   1.355  14.141 -0.5723  0.5999  0.2842
  800MPD2    N111794   0.682   1.775  14.362 -0.4761  0.2428 -0.1381
  800MPD2    H711795   0.682   1.857  14.422  2.6453 -1.1238  1.7298
  801MPD2     C11796   0.694   2.423  14.622  0.2096 -0.5222 -0.7094
  801MPD2    C111797   0.676   2.286  14.615  1.7054 -0.3467 -0.3792
  801MPD2    C211798   0.589   2.224  14.699 -0.3501 -0.4491  0.7139
  801MPD2    C311799   0.512   2.297  14.787  0.4188 -0.2316 -0.3393
  801MPD2    C411800   0.536   2.425  14.796  0.4752  0.4046  0.3100
  801MPD2    C511801   0.610   2.493  14.707  0.1353 -0.4469 -0.2432
  801MPD2     H11802   0.588   2.117  14.684  0.4520 -0.3225 -0.1928
  801MPD2    H111803   0.482   2.480  14.871  0.4613  0.1098  0.5187
  801MPD2    H211804   0.772   2.468  14.560  2.0030  0.4415  2.2435
  801MPD2    H311805   0.614   2.599  14.730 -2.0806 -0.1734 -1.0816
  801MPD2     N11806   0.427   2.240  14.877  0.1629 -0.2528  0.1097
  801MPD2    H511807   0.379   2.301  14.942 -1.6160 -0.3819 -1.0927
  801MPD2    N111808   0.752   2.198  14.528  0.1223  0.0884 -0.1021
  801MPD2    H711809   0.739   2.101  14.553  0.7108 -0.0109 -0.1845
  802MPD2     C11810   4.573   2.185   0.666 -0.3863 -0.0652 -0.0758
  802MPD2    C111811   4.472   2.184   0.574  0.2686 -0.3439 -0.2161
  802MPD2    C211812   4.487   2.088   0.472  0.6145  0.1471 -0.6346
  802MPD2    C311813   4.590   1.998   0.467 -0.2938 -0.6081 -0.1553
  802MPD2    C411814   4.686   2.006   0.567 -0.1789 -0.3394  0.6989
  802MPD2    C511815   4.675   2.094   0.668  0.4361  0.0948  0.0926
  802MPD2     H11816   4.411   2.092   0.395  0.9800  1.6295 -0.9323
  802MPD2    H111817   0.051   1.944   0.564 -0.7078 -0.8710 -5.1774
  802MPD2    H211818   4.574   2.248   0.754 -0.5192  0.0971 -0.1922
  802MPD2    H311819   0.021   2.111   0.749  0.3707  0.0368  0.1616
  802MPD2     N11820   4.606   1.912   0.360 -0.5422  0.1377  0.4306
  802MPD2    H511821   4.559   1.942   0.275 -1.0245  2.4938  1.5340
  802MPD2    N111822   4.349   2.251   0.592  0.0342  0.1166  0.2857
  802MPD2    H711823   4.276   2.212   0.533  1.6631 -2.8154  0.2138
  803MPD2     C11824   0.770   0.887  11.761 -0.0630 -0.7405  0.6193
  803MPD2    C111825   0.895   0.833  11.735  0.4848 -0.2349  0.1380
  803MPD2    C211826   0.911   0.696  11.747 -0.1133 -0.2309 -0.3271
  803MPD2    C311827   0.806   0.611  11.783  0.2784  0.4050  0.5839
  803MPD2    C411828   0.685   0.672  11.801  0.3252 -0.3106 -0.0994
  803MPD2    C511829   0.669   0.804  11.787  0.1575  0.2050  0.1104
  803MPD2     H11830   1.008   0.650  11.735 -0.2183 -0.5672  0.1085
  803MPD2    H111831   0.594   0.629  11.840  0.5062  0.1755  0.8623
  803MPD2    H211832   0.747   0.993  11.758  0.1088 -0.7335 -0.4305
  803MPD2    H311833   0.569   0.839  11.808  0.5324  1.6504 -0.5112
  803MPD2     N11834   0.809   0.474  11.799  0.0979 -0.2571 -0.1555
  803MPD2    H511835   0.723   0.435  11.836  0.0352 -0.5168 -0.5677
  803MPD2    N111836   1.011   0.915  11.722  0.0655  0.0768 -0.2064
  803MPD2    H711837   1.097   0.876  11.684  0.0381  2.0479 -2.3003
  804MPD2     C11838   0.713   1.710  17.435 -0.3257 -0.0021 -0.2181
  804MPD2    C111839   0.746   1.645  17.557  0.6389 -0.1079 -0.1687
  804MPD2    C211840   0.812   1.719  17.653 -0.8331 -0.4833 -0.7268
  804MPD2    C311841   0.863   1.841  17.612  1.0299 -0.0197  0.1095
  804MPD2    C411842   0.829   1.909  17.497  0.4238 -0.4501 -0.4221
  804MPD2    C511843   0.748   1.840  17.415 -0.2916 -0.6951  0.4468
  804MPD2     H11844   0.818   1.682   0.058 -1.7529  1.4130  0.0008
  804MPD2    H111845   0.849   2.015  17.482  1.7687 -0.3597  1.9373
  804MPD2    H211846   0.648   1.665  17.361  0.9688  1.4782 -2.2817
  804MPD2    H311847   0.719   1.889  17.323  0.1411  2.8384  2.2129
  804MPD2     N11848   0.951   1.900   0.010  1.3783  0.9554  0.0029
  804MPD2    H511849   0.954   1.857   0.102  2.4527  0.1249 -0.4140
  804MPD2    N111850   0.705   1.515  17.589  0.2402  0.6267 -0.0625
  804MPD2    H711851   0.707   1.494  17.688 -1.1500 -2.9704 -0.8010
  805MPD2     C11852   4.293   0.438  15.889 -0.2392 -0.4198  0.5234
  805MPD2    C111853   4.364   0.333  15.854 -0.3156 -0.1784  0.2378
  805MPD2    C211854   4.489   0.316  15.901  0.6637 -0.6025  0.7678
  805MPD2    C311855   4.552   0.401  15.980 -0.1380  0.2750 -0.0068
  805MPD2    C411856   4.484   0.513  16.024 -0.4289  0.0246  0.7251
  805MPD2    C511857   4.356   0.521  15.978  0.6577 -0.1068  0.7929
  805MPD2     H11858   4.547   0.233  15.861  1.4135 -0.2026  1.0157
  805MPD2    H111859   4.522   0.583  16.097 -2.7113  0.9539  1.0441
  805MPD2    H211860   4.190   0.461  15.865 -0.1119 -0.9982 -0.5876
  805MPD2    H311861   4.292   0.603  16.009 -0.0667  0.4327 -2.1814
  805MPD2     N11862   4.688   0.370  16.001 -0.0598 -0.0143 -0.0064
  805MPD2    H511863   0.003   0.294  15.947 -2.0747  1.0747 -3.0206
  805MPD2    N111864   4.317   0.230  15.768  0.5486  0.7120 -0.2585
  805MPD2    H711865   4.377   0.155  15.736 -0.2365  0.1637 -0.4127
  806MPD2     C11866   0.259   4.016   0.754  0.5179  0.1326 -0.3269
  806MPD2    C111867   0.288   4.112   0.855  1.0240  0.5348 -0.3047
  806MPD2    C211868   0.368   4.221   0.820  0.2937  0.4188  0.0320
  806MPD2    C311869   0.441   4.209   0.701  0.2026  0.0906 -0.4533
  806MPD2    C411870   0.427   4.106   0.615  0.1671  0.4231 -0.8419
  806MPD2    C511871   0.330   4.018   0.638  0.2305 -0.3643 -0.2231
  806MPD2     H11872   0.385   4.301   0.891  0.2237 -0.1878  0.7429
  806MPD2    H111873   0.479   4.086   0.521  1.4568  1.4523 -0.3492
  806MPD2    H211874   0.193   3.934   0.779 -0.7528  1.1448 -0.3996
  806MPD2    H311875   0.300   3.944   0.564  1.4121 -0.4758 -0.6020
  806MPD2     N11876   0.516   4.323   0.668  0.4890  0.1933  0.7218
  806MPD2    H511877   0.507   4.402   0.731 -1.1760  1.1311 -0.6924
  806MPD2    N111878   0.234   4.105   0.980  0.0430  0.1615  0.9441
  806MPD2    H711879   0.277   4.165   1.050 -0.5181  0.8267  0.7198
  807MPD2     C11880   4.689   3.602   1.663 -1.1560 -0.0966  0.1251
  807MPD2    C111881   0.088   3.571   1.614  0.2934 -0.3386 -0.6450
  807MPD2    C211882   0.164   3.474   1.672  0.1647  0.2613  0.2265
  807MPD2    C311883   0.117   3.411   1.787 -0.5153  0.8345 -0.3710
  807MPD2    C411884   4.718   3.445   1.838 -0.0289  0.5505  0.2196
  807MPD2    C511885   4.642   3.537   1.772  0.2505  0.2360  0.1001
  807MPD2     H11886   0.257   3.442   1.625  1.0296 -0.2381  2.3074
  807MPD2    H111887   4.670   3.401   1.924 -0.8288  2.3707  0.7116
  807MPD2    H211888   4.630   3.685   1.623  0.2724  1.7278  1.7992
  807MPD2    H311889   4.548   3.573   1.814 -0.3066 -0.4774 -0.5540
  807MPD2     N11890   0.193   3.307   1.841 -0.0121 -0.0956  0.0899
  807MPD2    H511891   0.287   3.299   1.802 -0.0478 -0.6390  0.1141
  807MPD2    N111892   0.139   3.638   1.502 -0.3825  0.0871  0.0208
  807MPD2    H711893   0.230   3.605   1.471 -1.0425 -2.4649  0.8100
  808MPD2     C11894   4.270   1.942   9.686 -0.2474 -0.8682 -0.3613
  808MPD2    C111895   4.387   1.953   9.755 -0.3946 -0.3459 -0.3447
  808MPD2    C211896   4.476   2.056   9.720  0.3612  0.5197 -0.5018
  808MPD2    C311897   4.459   2.134   9.606  0.7786  0.0456  0.0416
  808MPD2    C411898   4.338   2.116   9.530 -0.2610  1.0988  0.5506
  808MPD2    C511899   4.248   2.020   9.580 -0.0698 -0.0361 -0.5898
  808MPD2     H11900   4.564   2.050   9.784  1.7023 -0.7797 -2.5012
  808MPD2    H111901   4.324   2.164   9.434  1.2274  0.2984 -0.0606
  808MPD2    H211902   4.188   1.882   9.721 -0.5382 -0.4031 -0.2436
  808MPD2    H311903   4.158   1.990   9.527  0.1861 -0.7526 -0.6188
  808MPD2     N11904   4.551   2.233   9.569 -0.0070  0.5972  0.0085
  808MPD2    H511905   4.526   2.287   9.486  1.1169  0.3388 -0.5051
  808MPD2    N111906   4.412   1.872   9.871  0.0189  0.0979 -0.5244
  808MPD2    H711907   4.499   1.895   9.917 -1.4452  1.2312  1.7263
  809MPD2     C11908   4.644   2.524   8.772  0.0456  0.0788 -0.0385
  809MPD2    C111909   0.045   2.493   8.808  0.1757  1.0324 -0.3712
  809MPD2    C211910   0.075   2.499   8.944  0.7005 -0.2127 -0.0212
  809MPD2    C311911   4.705   2.525   9.043  0.6730  0.0511  0.0463
  809MPD2    C411912   4.580   2.548   8.996  0.1796 -0.2725  0.7125
  809MPD2    C511913   4.543   2.556   8.856 -0.0318 -0.4254  0.1934
  809MPD2     H11914   0.176   2.473   8.976  0.9091 -0.5991 -0.9742
  809MPD2    H111915   4.495   2.555   9.063 -0.8706 -0.7327 -0.5484
  809MPD2    H211916   4.610   2.517   8.669  1.6968 -0.6104 -0.5348
  809MPD2    H311917   4.441   2.570   8.822  0.1825  0.3223 -0.1349
  809MPD2     N11918   4.722   2.505   9.183 -0.0939 -0.1958  0.1676
  809MPD2    H511919   4.637   2.502   9.238  0.2482 -1.7194  0.6163
  809MPD2    N111920   0.145   2.473   8.716 -0.7300 -0.0344 -0.7718
  809MPD2    H711921   0.240   2.473   8.753 -0.2850 -2.6293 -1.9560
  810MPD2     C11922   4.231   0.527  11.378  0.8775 -0.0576 -0.0687
  810MPD2    C111923   4.232   0.547  11.239  0.9491  0.1760 -0.2783
  810MPD2    C211924   4.218   0.684  11.200 -0.2593 -0.2129  0.5386
  810MPD2    C311925   4.181   0.788  11.288 -0.0966 -0.2860 -0.3079
  810MPD2    C411926   4.188   0.762  11.418 -1.1795 -0.1225  0.1418
  810MPD2    C511927   4.214   0.638  11.465 -0.3723 -0.2259 -0.0341
  810MPD2     H11928   4.218   0.706  11.094 -1.4962 -1.1962  0.3298
  810MPD2    H111929   4.173   0.844  11.487  1.4806 -0.4838  1.1554
  810MPD2    H211930   4.257   0.434  11.426  0.5773  0.3286  0.8286
  810MPD2    H311931   4.242   0.634  11.569 -3.9026 -4.0756  0.7674
  810MPD2     N11932   4.134   0.914  11.242  0.2225  0.2372 -0.0856
  810MPD2    H511933   4.139   0.991  11.308  1.3184  1.0720 -1.1303
  810MPD2    N111934   4.243   0.437  11.151  0.5906  0.2219 -0.0011
  810MPD2    H711935   4.238   0.459  11.052  3.2912  0.5708 -0.0428
  811MPD2     C11936   4.117   0.414  10.435 -0.2309 -0.5133 -0.1938
  811MPD2    C111937   4.104   0.466  10.556  0.4182 -0.5785 -0.7647
  811MPD2    C211938   4.042   0.590  10.580  0.8980  0.0488  0.1538
  811MPD2    C311939   4.001   0.663  10.470  0.6961  1.0347  0.2555
  811MPD2    C411940   3.996   0.600  10.352  0.3293 -0.1822  0.5344
  811MPD2    C511941   4.046   0.471  10.331 -0.4521  0.1948  0.0084
  811MPD2     H11942   4.032   0.627  10.682 -0.6327  2.2162 -0.7922
  811MPD2    H111943   3.960   0.640  10.258  3.2705 -0.3612 -0.6597
  811MPD2    H211944   4.161   0.316  10.421  1.3527 -0.0485  1.4630
  811MPD2    H311945   4.021   0.422  10.237  0.9524  0.2349 -0.3830
  811MPD2     N11946   3.973   0.801  10.484  0.2942 -0.7049  0.0336
  811MPD2    H511947   3.969   0.837  10.579  0.5650  0.1909 -0.2931
  811MPD2    N111948   4.155   0.377  10.656 -0.6143  0.1896 -0.2610
  811MPD2    H711949   4.189   0.286  10.629  2.1468  1.0821  0.2281
  812MPD2     C11950   3.362   0.575  12.802  0.2174 -0.3828  0.3923
  812MPD2    C111951   3.227   0.556  12.761 -0.2024  0.2670 -0.1166
  812MPD2    C211952   3.164   0.439  12.810  0.0018 -0.2686  0.1524
  812MPD2    C311953   3.242   0.339  12.873  0.8163 -0.9921 -0.1759
  812MPD2    C411954   3.380   0.362  12.895 -0.1532 -0.1482 -0.1349
  812MPD2    C511955   3.431   0.488  12.878 -0.1262 -0.6675  0.0462
  812MPD2     H11956   3.062   0.415  12.785 -0.3598 -0.4110  1.7539
  812MPD2    H111957   3.446   0.286  12.935 -2.1522 -1.8547 -0.0483
  812MPD2    H211958   3.416   0.668  12.797  0.1819 -0.4130 -0.5690
  812MPD2    H311959   3.536   0.511  12.895 -1.0080  2.1568  1.6087
  812MPD2     N11960   3.170   0.228  12.926  0.0273 -0.6230 -0.1254
  812MPD2    H511961   3.069   0.228  12.917  0.0776 -1.4556 -0.7125
  812MPD2    N111962   3.168   0.656  12.682 -0.1232 -0.2318 -0.1033
  812MPD2    H711963   3.211   0.748  12.689 -0.1927 -0.4688  3.2762
  813MPD2     C11964   2.701   2.082  13.101 -0.3559  0.5838  0.5582
  813MPD2    C111965   2.676   2.214  13.109  0.0441 -0.1753 -0.0136
  813MPD2    C211966   2.691   2.286  13.230 -0.2789  0.3838  0.5282
  813MPD2    C311967   2.746   2.217  13.335  1.0394  0.3382 -0.3636
  813MPD2    C411968   2.771   2.079  13.328  0.6891 -0.0192 -0.1396
  813MPD2    C511969   2.750   2.019  13.213 -0.1521  0.1149 -0.0531
  813MPD2     H11970   2.681   2.393  13.247 -1.8018  0.2296  0.6003
  813MPD2    H111971   2.805   2.026  13.416 -1.3864 -0.6009  0.3066
  813MPD2    H211972   2.687   2.020  13.013  0.4297 -1.4360  1.8308
  813MPD2    H311973   2.769   1.913  13.199  0.1724  0.0944  0.5257
  813MPD2     N11974   2.774   2.290  13.452 -0.0543 -0.4903  0.3747
  813MPD2    H511975   2.739   2.386  13.447  2.5684  0.5840  2.5082
  813MPD2    N111976   2.642   2.286  12.992 -0.4924 -0.4906 -0.4430
  813MPD2    H711977   2.657   2.249  12.899 -1.3761  0.1666 -0.8487
  814MPD2     C11978   2.860   3.049  12.585  0.2095  0.1798 -1.1313
  814MPD2    C111979   2.861   3.111  12.456  0.1042  0.1508  0.6224
  814MPD2    C211980   2.876   3.246  12.450  0.3295 -0.1848 -0.7852
  814MPD2    C311981   2.900   3.316  12.570 -0.6709 -0.4403  0.0052
  814MPD2    C411982   2.908   3.252  12.687  0.3941  0.4263 -0.5424
  814MPD2    C511983   2.887   3.119  12.694 -1.0041 -0.6877 -0.0672
  814MPD2     H11984   2.879   3.301  12.357 -0.2788  0.5312 -0.3761
  814MPD2    H111985   2.945   3.306  12.774 -0.2333  0.4803 -0.3092
  814MPD2    H211986   2.833   2.944  12.589  0.3279  0.2074  0.3885
  814MPD2    H311987   2.890   3.064  12.788  0.7965 -1.7859 -0.7696
  814MPD2     N11988   2.950   3.450  12.560  0.2756 -0.8984  0.2750
  814MPD2    H511989   2.952   3.503  12.646  0.5580  0.8188 -0.7717
  814MPD2    N111990   2.843   3.038  12.329  0.6051 -0.1751  0.2044
  814MPD2    H711991   2.841   3.089  12.241 -1.0254  0.8525  0.8452
  815MPD2     C11992   3.074   1.799  12.433 -0.1591 -0.6122 -0.2364
  815MPD2    C111993   3.012   1.795  12.305  0.2421 -0.2774 -0.2853
  815MPD2    C211994   2.873   1.775  12.294 -0.2494 -0.1476 -0.2785
  815MPD2    C311995   2.802   1.734  12.408  0.8586 -0.1971 -0.1002
  815MPD2    C411996   2.866   1.743  12.529  0.9523  0.2116  0.0799
  815MPD2    C511997   3.002   1.764  12.539  0.1166  0.6992 -0.1617
  815MPD2     H11998   2.822   1.767  12.199 -1.0878  0.8534  0.0832
  815MPD2    H111999   2.816   1.724  12.623 -2.2770  0.5669 -1.5557
  815MPD2    H212000   3.176   1.836  12.439  0.1908 -1.4171 -1.3574
  815MPD2    H312001   3.040   1.763  12.640 -0.2660 -0.9633 -0.0287
  815MPD2     N12002   2.666   1.692  12.396  0.2936  0.1003 -0.5025
  815MPD2    H512003   2.627   1.680  12.303  1.3241 -0.1608 -0.9043
  815MPD2    N112004   3.100   1.806  12.193  0.4781  0.2645 -0.8602
  815MPD2    H712005   3.200   1.814  12.203  0.4073  0.0725 -0.0156
  816MPD2     C12006   3.256   0.860  17.488  0.0741  0.2002 -0.6219
  816MPD2    C112007   3.306   0.982  17.452  0.3474 -0.8209 -0.1040
  816MPD2    C212008   3.435   0.988  17.401  0.9236 -0.0722  0.5088
  816MPD2    C312009   3.508   0.867  17.389  0.0280 -0.7765 -0.3846
  816MPD2    C412010   3.453   0.742  17.414 -0.2902 -0.1423 -0.3320
  816MPD2    C512011   3.323   0.746  17.461 -0.1015  0.3330  0.3156
  816MPD2     H12012   3.483   1.081  17.374  0.8441 -0.7491 -2.0022
  816MPD2    H112013   3.508   0.650  17.403 -0.3037 -0.0782 -0.9621
  816MPD2    H212014   3.151   0.856  17.517  0.0330  2.5119 -0.4391
  816MPD2    H312015   3.275   0.650  17.480  0.6923  0.1093  1.1946
  816MPD2     N12016   3.643   0.883  17.349  0.1185  0.1075 -0.2351
  816MPD2    H512017   3.673   0.980  17.350 -2.9954  1.0341  3.5054
  816MPD2    N112018   3.219   1.098  17.468 -0.5707  0.2017 -1.1366
  816MPD2    H712019   3.134   1.091  17.523 -0.1160 -1.5016 -0.6575
  817MPD2     C12020   2.808   3.059  10.139 -1.1981  0.3222  0.6615
  817MPD2    C112021   2.873   3.076  10.015  0.5956  0.0131 -0.2050
  817MPD2    C212022   2.843   3.188   9.935 -0.1196 -0.1915 -0.9788
  817MPD2    C312023   2.763   3.290   9.985 -0.1151 -0.6202  0.1257
  817MPD2    C412024   2.705   3.278  10.110  0.9648 -0.6853  0.2287
  817MPD2    C512025   2.727   3.164  10.186  0.0842 -0.7630 -0.6208
  817MPD2     H12026   2.885   3.205   9.836  1.0180  0.4117 -0.3988
  817MPD2    H112027   2.623   3.341  10.141  0.8857 -1.1360  0.9216
  817MPD2    H212028   2.804   2.966  10.193 -2.8778 -0.2653 -0.4831
  817MPD2    H312029   2.677   3.151  10.281  1.2321 -1.9081 -0.1827
  817MPD2     N12030   2.740   3.404   9.903 -0.1520  0.2383 -0.3062
  817MPD2    H512031   2.782   3.400   9.810  0.3570  2.3717 -0.1548
  817MPD2    N112032   2.952   2.971   9.954  0.1389  0.8144 -1.1640
  817MPD2    H712033   2.994   2.988   9.863 -0.1776  0.3351 -1.3955
  818MPD2     C12034   2.204   3.389  10.267 -0.3456  0.6872  0.8209
  818MPD2    C112035   2.108   3.309  10.325  0.4563 -0.7367  0.2115
  818MPD2    C212036   2.048   3.204  10.253  0.2825  0.4325 -0.2601
  818MPD2    C312037   2.086   3.175  10.123  0.4667 -0.0970  1.2444
  818MPD2    C412038   2.176   3.263  10.062  0.4568  0.1644  0.1103
  818MPD2    C512039   2.230   3.373  10.132  0.6559 -0.8386  0.5835
  818MPD2     H12040   1.970   3.144  10.299  1.7621 -0.6601  0.8237
  818MPD2    H112041   2.218   3.250   9.963  1.3802 -2.7447  0.8939
  818MPD2    H212042   2.255   3.468  10.320 -0.6954  0.8881  0.8614
  818MPD2    H312043   2.298   3.441  10.082 -1.8469  1.2713  0.0557
  818MPD2     N12044   2.046   3.065  10.046 -0.1459  0.2897  0.2205
  818MPD2    H512045   2.072   3.053   9.949 -0.4740 -0.8716  0.2683
  818MPD2    N112046   2.066   3.329  10.459  0.5428 -0.1705 -0.4917
  818MPD2    H712047   1.988   3.271  10.489 -0.7203  1.4468 -0.6594
  819MPD2     C12048   0.188   4.427  15.968 -0.8166 -0.2223  0.6236
  819MPD2    C112049   0.272   4.311  15.967  0.4536 -0.1337  0.0902
  819MPD2    C212050   0.404   4.320  16.002  0.4496  0.0645  0.3436
  819MPD2    C312051   0.450   4.435  16.064  0.5193  0.0049  0.0279
  819MPD2    C412052   0.357   4.536  16.093  0.1336  0.4673  0.3064
  819MPD2    C512053   0.231   4.532  16.044  0.4721  0.4627  0.8421
  819MPD2     H12054   0.467   4.232  15.993  0.6700  0.2035  0.5143
  819MPD2    H112055   0.381   4.625  16.150  0.8485  1.3254 -1.3578
  819MPD2    H212056   0.080   4.421  15.956 -0.6023  0.0097 -1.3885
  819MPD2    H312057   0.158   4.608  16.068 -1.2638 -1.3891  1.4168
  819MPD2     N12058   0.589   4.449  16.093  0.5065  0.2988 -0.5244
  819MPD2    H512059   0.649   4.382  16.047 -0.4343 -0.1959 -1.0121
  819MPD2    N112060   0.213   4.202  15.911  0.4735  0.4482 -0.8677
  819MPD2    H712061   0.127   4.220  15.861  0.1161 -2.8755 -1.4196
  820MPD2     C12062   4.127   4.164  15.457  0.2839 -0.0013  0.0642
  820MPD2    C112063   4.222   4.247  15.524  0.1987  0.8352 -0.7805
  820MPD2    C212064   4.338   4.191  15.573 -0.1153  0.2188 -0.0831
  820MPD2    C312065   4.366   4.054  15.563 -0.1048  0.2683 -0.1437
  820MPD2    C412066   4.282   3.971  15.491  0.4375 -0.4868 -0.3195
  820MPD2    C512067   4.165   4.033  15.441 -0.9736 -0.2786  0.0961
  820MPD2     H12068   4.412   4.254  15.622  0.1838 -0.4977  0.3746
  820MPD2    H112069   4.299   3.866  15.469  5.0935  0.2415 -0.2049
  820MPD2    H212070   4.038   4.199  15.406  0.1757 -1.2768 -0.6292
  820MPD2    H312071   4.098   3.974  15.380  2.6408 -0.6933 -3.4299
  820MPD2     N12072   4.485   3.985  15.610  0.4661 -0.1274  1.0033
  820MPD2    H512073   4.482   3.883  15.612 -0.4370 -0.0938  1.3065
  820MPD2    N112074   4.188   4.380  15.521 -0.0492  0.6255  0.3333
  820MPD2    H712075   4.108   4.415  15.469  0.9488  2.1632 -0.1697
  821MPD2     C12076   0.009   0.923  13.655 -0.3225 -1.0921 -0.1057
  821MPD2    C112077   0.138   0.876  13.654  0.1075  0.1690  0.4067
  821MPD2    C212078   0.185   0.812  13.547  0.4077 -0.0001  0.9636
  821MPD2    C312079   0.117   0.808  13.425  0.2137  0.7108 -0.0006
  821MPD2    C412080   4.710   0.866  13.425 -0.4127  0.3308  1.0362
  821MPD2    C512081   4.656   0.915  13.540  0.1790  0.2472  0.3481
  821MPD2     H12082   0.288   0.780  13.555  0.2366 -0.7418  0.1452
  821MPD2    H112083   4.644   0.865  13.339  0.7602  0.0152  0.1208
  821MPD2    H212084   4.686   0.972  13.739 -3.0553 -0.7516 -1.8188
  821MPD2    H312085   4.552   0.944  13.542 -0.5705 -2.5964  3.2849
  821MPD2     N12086   0.176   0.774  13.300  0.2580  0.9154  0.1879
  821MPD2    H512087   0.121   0.786  13.216  0.3498 -0.8778 -0.1316
  821MPD2    N112088   0.234   0.899  13.753 -0.4729  0.1822  0.0191
  821MPD2    H712089   0.325   0.859  13.733  0.5988  1.1430  2.9761
  822MPD2     C12090   1.194   1.103  15.921  0.1567 -0.0311  0.9896
  822MPD2    C112091   1.160   1.082  16.053 -1.4661 -0.2335  0.0442
  822MPD2    C212092   1.117   1.190  16.128 -0.3371 -0.4311 -0.2761
  822MPD2    C312093   1.110   1.318  16.071  0.9572  0.0156  0.1756
  822MPD2    C412094   1.139   1.338  15.932  0.1063  0.6481 -1.0010
  822MPD2    C512095   1.178   1.225  15.865  0.1804 -0.3640 -0.1147
  822MPD2     H12096   1.087   1.175  16.232 -1.8711 -2.9031 -1.0526
  822MPD2    H112097   1.118   1.429  15.877  0.9305  1.1949 -0.4056
  822MPD2    H212098   1.232   1.021  15.860 -0.1177  0.3919  0.2537
  822MPD2    H312099   1.188   1.229  15.757  1.3926 -1.7504 -0.0572
  822MPD2     N12100   1.054   1.416  16.157 -0.6591 -0.3534 -0.3978
  822MPD2    H512101   1.024   1.390  16.251 -1.7891  1.4012 -0.2817
  822MPD2    N112102   1.175   0.958  16.118  0.0754 -0.4923  0.1983
  822MPD2    H712103   1.176   0.954  16.219 -0.7417 -0.9194  0.1832
  823MPD2     C12104   0.730   1.681  16.866  0.4174  0.0709 -0.4062
  823MPD2    C112105   0.772   1.591  16.766  1.1018 -0.2061 -0.0404
  823MPD2    C212106   0.786   1.455  16.799 -0.1094 -0.0163  0.1395
  823MPD2    C312107   0.760   1.405  16.930  0.3052  0.0013  0.1967
  823MPD2    C412108   0.729   1.501  17.023  0.0214  0.5224  1.0899
  823MPD2    C512109   0.720   1.637  16.997 -0.2593  0.4264 -0.7041
  823MPD2     H12110   0.824   1.392  16.720 -0.6077 -1.0449  0.7219
  823MPD2    H112111   0.712   1.472  17.126  0.7665 -1.2705  0.7109
  823MPD2    H212112   0.705   1.785  16.848 -3.1000 -0.4722  1.2497
  823MPD2    H312113   0.690   1.701  17.079  0.0197  0.3269 -0.5259
  823MPD2     N12114   0.793   1.273  16.970 -1.2641 -0.4999  0.0918
  823MPD2    H512115   0.762   1.250  17.064 -1.7292 -0.1941  0.0160
  823MPD2    N112116   0.789   1.657  16.641  0.2632  0.0005  0.2629
  823MPD2    H712117   0.781   1.758  16.629  1.3714  0.1447  0.6949
  824MPD2     C12118   1.413   0.114  16.031 -0.1231 -0.3497  0.4264
  824MPD2    C112119   1.508   0.205  16.081 -0.5207  0.0257 -0.6553
  824MPD2    C212120   1.641   0.180  16.062  0.1575 -0.4616 -0.7991
  824MPD2    C312121   1.682   0.074  15.980 -0.1845 -0.2923 -0.9718
  824MPD2    C412122   1.594   4.696  15.952  0.1623  0.2325 -0.5029
  824MPD2    C512123   1.461   4.718  15.977 -0.7954  1.4281 -0.8805
  824MPD2     H12124   1.711   0.247  16.112 -0.0239 -0.8109 -0.0869
  824MPD2    H112125   1.612   4.597  15.913 -2.9193 -1.5153  2.5210
  824MPD2    H212126   1.306   0.129  16.030 -0.1475 -0.6816 -1.5658
  824MPD2    H312127   1.386   4.647  15.945  0.3413 -0.3354  0.3667
  824MPD2     N12128   1.814   0.064  15.949 -0.3561  0.0920  0.1795
  824MPD2    H512129   1.875   0.134  15.990  0.7613 -0.8309  0.1159
  824MPD2    N112130   1.465   0.331  16.134  0.8519  0.2996  0.1362
  824MPD2    H712131   1.531   0.392  16.181  0.4459  0.8128  0.0440
  825MPD2     C12132   2.416   0.210  15.393 -0.4386 -0.3434  0.6957
  825MPD2    C112133   2.348   0.267  15.496 -0.3046 -0.5958  0.4287
  825MPD2    C212134   2.305   0.398  15.483  0.6471  0.7103 -0.4783
  825MPD2    C312135   2.353   0.486  15.378 -0.3591  0.4321  0.3732
  825MPD2    C412136   2.431   0.421  15.277  0.6987 -0.2244  0.3297
  825MPD2    C512137   2.451   0.281  15.278 -0.2001 -0.0346  0.3869
  825MPD2     H12138   2.230   0.442  15.547  0.6765 -0.4414  0.3383
  825MPD2    H112139   2.465   0.482  15.195  1.3333 -0.4517  0.4237
  825MPD2    H212140   2.452   0.108  15.393 -0.6760 -0.4276  1.4821
  825MPD2    H312141   2.513   0.228  15.207 -1.4096 -0.3766 -0.4205
  825MPD2     N12142   2.302   0.613  15.353  0.1275 -0.1117 -0.2562
  825MPD2    H512143   2.327   0.658  15.266  2.7972 -0.5563  0.2862
  825MPD2    N112144   2.303   0.175  15.599  0.0774 -1.0389 -0.4165
  825MPD2    H712145   2.309   0.077  15.573  0.2413 -1.1308 -0.0223
  826MPD2     C12146   1.411   0.243  14.091 -0.0182  0.3135  0.0343
  826MPD2    C112147   1.286   0.271  14.057 -0.3503  0.2295  0.4676
  826MPD2    C212148   1.218   0.351  14.144  0.4143 -0.3314  0.5788
  826MPD2    C312149   1.273   0.413  14.262  0.1838  0.5856  0.2604
  826MPD2    C412150   1.407   0.391  14.282  0.6904  0.1588 -0.7953
  826MPD2    C512151   1.470   0.299  14.199 -0.3569 -0.0527  0.5712
  826MPD2     H12152   1.113   0.370  14.125  0.5917 -0.2617 -0.3291
  826MPD2    H112153   1.468   0.452  14.347 -3.2632  2.3745  0.7749
  826MPD2    H212154   1.464   0.170  14.031 -0.9843  0.0138 -0.4658
  826MPD2    H312155   1.574   0.271  14.211 -0.7462 -2.1075 -0.6371
  826MPD2     N12156   1.207   0.495  14.353  0.3098 -0.1063  0.0582
  826MPD2    H512157   1.258   0.520  14.437 -1.3833 -3.0226  1.9653
  826MPD2    N112158   1.224   0.208  13.949  0.3877  0.3662 -0.0523
  826MPD2    H712159   1.288   0.145  13.902  0.0100  0.3204 -0.4924
  827MPD2     C12160   2.075   1.767  10.112 -0.0572 -0.1636 -0.3433
  827MPD2    C112161   2.046   1.637  10.159  0.2579  0.0221 -0.2138
  827MPD2    C212162   1.951   1.561  10.091  0.3274  0.1728  0.1690
  827MPD2    C312163   1.881   1.609   9.979 -0.0859  0.2212  0.1231
  827MPD2    C412164   1.908   1.737   9.939  0.3617 -0.8923 -0.3822
  827MPD2    C512165   2.002   1.812  10.006 -0.9329  0.4325  0.0255
  827MPD2     H12166   1.932   1.456  10.114  1.9361  0.4936  2.8861
  827MPD2    H112167   1.844   1.787   9.868 -0.3630  1.0173  1.6263
  827MPD2    H212168   2.150   1.826  10.163 -1.3375  0.6757  0.5521
  827MPD2    H312169   2.021   1.917   9.987  1.7204 -0.0398 -0.0104
  827MPD2     N12170   1.795   1.524   9.910  0.1801  0.5381 -0.4894
  827MPD2    H512171   1.775   1.431   9.944 -0.3289  1.6533  2.2597
  827MPD2    N112172   2.128   1.596  10.266 -0.1503  0.1636  0.5000
  827MPD2    H712173   2.189   1.670  10.299 -2.0571  1.2272  1.6295
  828MPD2     C12174   0.812   1.225  12.647 -0.1248  0.0339  0.0354
  828MPD2    C112175   0.731   1.288  12.556 -0.6835 -0.1693  0.0785
  828MPD2    C212176   0.782   1.394  12.490 -0.0523  1.0771 -0.2393
  828MPD2    C312177   0.911   1.443  12.500  0.0753  0.6556 -0.3020
  828MPD2    C412178   0.986   1.381  12.589 -0.9069 -0.8308  0.5508
  828MPD2    C512179   0.943   1.273  12.662 -0.2579  0.4035 -0.6061
  828MPD2     H12180   0.707   1.451  12.437 -0.9548  1.3525  1.3270
  828MPD2    H112181   1.084   1.424  12.607 -1.2433  0.4751 -0.8101
  828MPD2    H212182   0.786   1.149  12.719 -0.4498 -0.3521 -0.4909
  828MPD2    H312183   1.011   1.225  12.731 -2.3212 -1.6904 -0.0375
  828MPD2     N12184   0.963   1.545  12.418 -0.0411  0.0614 -0.3488
  828MPD2    H512185   1.063   1.559  12.416 -0.0503 -0.1735 -2.3158
  828MPD2    N112186   0.600   1.246  12.528  0.4282  0.8493 -0.1386
  828MPD2    H712187   0.550   1.292  12.452  2.5868  0.0119 -2.0925
  829MPD2     C12188   0.036   1.619  11.995 -0.2323  0.6996  0.1705
  829MPD2    C112189   4.681   1.531  12.061 -0.2397  0.7663 -0.4150
  829MPD2    C212190   0.017   1.461  12.170  0.1181  0.0249  0.0530
  829MPD2    C312191   0.147   1.494  12.217  0.1923 -0.2689  0.5840
  829MPD2    C412192   0.221   1.583  12.147  0.4096 -0.6999  0.9860
  829MPD2    C512193   0.165   1.640  12.032 -0.4697 -0.0966 -0.2035
  829MPD2     H12194   4.692   1.376  12.216  0.6322  0.2729  1.0486
  829MPD2    H112195   0.320   1.614  12.175  0.8976 -0.1655 -1.3178
  829MPD2    H212196   4.724   1.686  11.919  1.9237  1.5106 -0.1531
  829MPD2    H312197   0.214   1.720  11.978  1.9919 -0.7156  1.1162
  829MPD2     N12198   0.198   1.424  12.331 -0.3289  0.4340 -0.3370
  829MPD2    H512199   0.296   1.444  12.353 -1.0299  1.4081  1.9885
  829MPD2    N112200   4.547   1.512  12.021  0.4954 -0.0395 -0.5565
  829MPD2    H712201   4.511   1.578  11.953 -3.4928 -1.8724 -0.1820
  830MPD2     C12202   1.416   4.336  15.944  0.7187 -0.7283  0.3733
  830MPD2    C112203   1.291   4.330  15.901  0.8691  0.4676  0.2922
  830MPD2    C212204   1.254   4.276  15.779  0.5301  0.5925 -0.0166
  830MPD2    C312205   1.354   4.236  15.692 -0.2074  0.4481  0.1173
  830MPD2    C412206   1.481   4.239  15.738  0.0834 -0.4563 -0.0548
  830MPD2    C512207   1.517   4.290  15.861 -0.5478  1.6342  0.7739
  830MPD2     H12208   1.150   4.287  15.754  1.1711  1.1759 -2.3768
  830MPD2    H112209   1.569   4.212  15.680  1.3913  1.8261  0.8912
  830MPD2    H212210   1.437   4.384  16.039 -1.2433 -1.7042  1.3109
  830MPD2    H312211   1.622   4.290  15.889  0.0871  0.7244 -1.6231
  830MPD2     N12212   1.334   4.176  15.567 -0.1819  0.8422  0.5503
  830MPD2    H512213   1.417   4.148  15.517 -0.0562  1.5334  0.3669
  830MPD2    N112214   1.191   4.369  15.988  0.2415  0.3264 -0.0694
  830MPD2    H712215   1.219   4.387  16.084 -0.6934  0.0905  0.2417
  831MPD2     C12216   1.388   1.428  16.422 -0.4372  0.3311 -0.7070
  831MPD2    C112217   1.371   1.287  16.385  0.5820  0.0548  0.9440
  831MPD2    C212218   1.254   1.218  16.420  0.1106  0.2423  0.1299
  831MPD2    C312219   1.144   1.284  16.466 -0.6323 -0.2270 -1.6537
  831MPD2    C412220   1.170   1.412  16.506 -0.3186 -0.2586  0.3149
  831MPD2    C512221   1.284   1.481  16.481  0.2291  0.3623  1.0025
  831MPD2     H12222   1.250   1.116  16.384  2.9536  0.3207 -0.3902
  831MPD2    H112223   1.088   1.473  16.544 -0.4388 -0.5692  0.5573
  831MPD2    H212224   1.474   1.490  16.399  0.6176 -0.6285  0.6136
  831MPD2    H312225   1.287   1.582  16.519 -2.1401 -0.4864  3.4417
  831MPD2     N12226   1.016   1.237  16.477  0.5251 -0.1084 -0.0624
  831MPD2    H512227   0.956   1.310  16.513  0.8756  0.1019  0.0992
  831MPD2    N112228   1.479   1.228  16.316  0.3943  0.7880 -0.2160
  831MPD2    H712229   1.554   1.288  16.284 -0.3438  1.3928 -0.8034
  832MPD2     C12230   4.401   1.939  17.434  0.7491 -0.3456 -0.0472
  832MPD2    C112231   4.397   2.072  17.399  0.3721 -0.3724 -0.8659
  832MPD2    C212232   4.285   2.114  17.321  0.7057  0.2869  0.1407
  832MPD2    C312233   4.182   2.023  17.297 -0.4370 -0.5601  0.3297
  832MPD2    C412234   4.190   1.891  17.332 -0.0887  0.0827 -0.1827
  832MPD2    C512235   4.302   1.850  17.401 -0.5030 -0.0580  0.6704
  832MPD2     H12236   4.291   2.211  17.275 -0.5849  0.1628 -0.3126
  832MPD2    H112237   4.125   1.809  17.303 -1.5539  1.4834 -0.8522
  832MPD2    H212238   4.477   1.903  17.502 -1.0220 -1.6846  1.2217
  832MPD2    H312239   4.307   1.745  17.425  0.1298  0.1892  1.6489
  832MPD2     N12240   4.064   2.054  17.225  0.0874 -0.0678 -0.8674
  832MPD2    H512241   4.011   1.977  17.185  0.0809 -0.2362 -0.5384
  832MPD2    N112242   4.513   2.144  17.439 -0.0397 -0.0328  1.2211
  832MPD2    H712243   4.581   2.092  17.493 -0.2393 -0.1802  1.3323
  833MPD2     C12244   1.149   3.686  12.572  0.9069  0.5283  0.5832
  833MPD2    C112245   1.143   3.814  12.521 -0.7674  0.1215 -0.6246
  833MPD2    C212246   1.221   3.848  12.414  0.8572  0.4443  0.1649
  833MPD2    C312247   1.308   3.753  12.357 -0.3954 -0.1645  0.2626
  833MPD2    C412248   1.324   3.629  12.423 -0.1265 -0.5696 -0.2195
  833MPD2    C512249   1.233   3.592  12.527 -0.3149  0.8158 -0.3346
  833MPD2     H12250   1.212   3.942  12.362 -2.5251 -0.1424 -0.2643
  833MPD2    H112251   1.400   3.557  12.396  0.5877  0.6746 -1.4681
  833MPD2    H212252   1.079   3.649  12.646 -1.1913  0.5557 -1.4060
  833MPD2    H312253   1.234   3.496  12.576  2.7398  2.1692  2.2932
  833MPD2     N12254   1.378   3.784  12.243 -0.3192  0.2693  0.0792
  833MPD2    H512255   1.376   3.882  12.216  0.0402 -0.1134 -1.3490
  833MPD2    N112256   1.053   3.903  12.590 -0.0321  0.1516  0.0126
  833MPD2    H712257   1.000   3.877  12.672  1.3700  5.3860  2.5693
  834MPD2     C12258   0.807   3.533  11.518 -0.7340 -0.2986  0.2559
  834MPD2    C112259   0.892   3.607  11.440 -0.5013  0.7237 -0.0048
  834MPD2    C212260   1.002   3.657  11.507 -0.0881  0.4216  0.4568
  834MPD2    C312261   1.030   3.631  11.644  0.1424  0.2647  0.7146
  834MPD2    C412262   0.945   3.550  11.713  0.1127 -1.1357 -0.6961
  834MPD2    C512263   0.833   3.502  11.650 -0.1537  0.3457 -0.3436
  834MPD2     H12264   1.070   3.723  11.454 -1.0625  0.4470 -0.7446
  834MPD2    H112265   0.952   3.516  11.816 -3.9717  2.5253  0.7934
  834MPD2    H212266   0.718   3.484  11.480 -0.4544  0.5460 -1.4396
  834MPD2    H312267   0.757   3.440  11.696  2.3255 -0.3349  2.7872
  834MPD2     N12268   1.139   3.699  11.700 -0.5243 -0.6789  0.6759
  834MPD2    H512269   1.182   3.780  11.656  1.3543 -2.1529 -0.2277
  834MPD2    N112270   0.857   3.629  11.300 -0.4725 -0.2885 -0.0765
  834MPD2    H712271   0.766   3.592  11.275 -0.2075 -1.4977  0.7838
  835MPD2     C12272   1.513   1.888  11.706  0.0716  0.4508 -0.0297
  835MPD2    C112273   1.409   1.966  11.737  0.2088  0.3524  0.7899
  835MPD2    C212274   1.408   2.025  11.860 -0.4857 -0.4141 -0.6243
  835MPD2    C312275   1.519   2.018  11.944 -0.8432 -0.3262 -0.0785
  835MPD2    C412276   1.632   1.945  11.898  0.3870 -0.1935 -0.6465
  835MPD2    C512277   1.623   1.878  11.779  0.0444 -0.7508 -0.3401
  835MPD2     H12278   1.318   2.074  11.895  0.1202  0.5602 -0.4459
  835MPD2    H112279   1.716   1.936  11.966 -0.2397 -0.6403  0.0620
  835MPD2    H212280   1.520   1.835  11.612 -0.1426  3.2389 -1.6049
  835MPD2    H312281   1.697   1.801  11.762  1.8939  0.7339  0.9882
  835MPD2     N12282   1.525   2.079  12.071 -0.2146  0.3337  0.3403
  835MPD2    H512283   1.609   2.058  12.123  0.8146  0.9062 -1.0677
  835MPD2    N112284   1.293   1.960  11.656  0.6804  0.6020  0.1897
  835MPD2    H712285   1.218   2.026  11.679 -0.9730 -1.4077  0.6145
  836MPD2     C12286   0.951   2.174  12.167 -0.2541  0.1183  0.3303
  836MPD2    C112287   0.987   2.135  12.289  0.5575  0.0973  0.0485
  836MPD2    C212288   0.893   2.066  12.369  0.0516 -1.5550 -0.7357
  836MPD2    C312289   0.771   2.035  12.312 -0.1985 -0.5316  0.3018
  836MPD2    C412290   0.736   2.072  12.184  0.3475 -0.1499  0.4706
  836MPD2    C512291   0.825   2.149  12.113 -0.4224 -0.0924  0.4703
  836MPD2     H12292   0.925   2.020  12.462  1.2340  0.5927 -0.0970
  836MPD2    H112293   0.637   2.056  12.145 -0.1994  0.3346  1.6582
  836MPD2    H212294   1.027   2.233  12.117 -0.7720 -0.0650 -0.6990
  836MPD2    H312295   0.796   2.187  12.016  2.2378 -2.2651 -1.1763
  836MPD2     N12296   0.679   1.952  12.384 -0.3668  0.1856  0.1898
  836MPD2    H512297   0.600   1.934  12.323  2.1461 -0.3364 -2.8541
  836MPD2    N112298   1.115   2.172  12.330  0.6218  0.0978 -0.5253
  836MPD2    H712299   1.180   2.208  12.261  0.1546 -0.0951 -1.0571
  837MPD2     C12300   4.213   1.584  10.637  0.5086 -0.6632  0.1001
  837MPD2    C112301   4.128   1.564  10.529  0.1726 -0.1955 -0.2293
  837MPD2    C212302   4.093   1.670  10.451 -0.3528 -0.1978  0.3867
  837MPD2    C312303   4.141   1.799  10.483 -0.6603  0.7249 -0.1256
  837MPD2    C412304   4.224   1.827  10.588 -0.3450  1.2968 -0.3834
  837MPD2    C512305   4.256   1.713  10.666 -0.0664  0.8761  0.8522
  837MPD2     H12306   4.031   1.648  10.365  0.2825 -0.9309  0.1138
  837MPD2    H112307   4.243   1.924  10.633 -0.8634  0.0205  2.5706
  837MPD2    H212308   4.237   1.502  10.704  0.2834 -0.5856  0.2736
  837MPD2    H312309   4.329   1.732  10.744  0.9978 -1.8992  0.5480
  837MPD2     N12310   4.074   1.897  10.410  0.6104 -0.5287 -0.1997
  837MPD2    H512311   4.030   1.867  10.323 -0.7853 -1.6989  0.9043
  837MPD2    N112312   4.068   1.440  10.496  0.0441 -0.3143 -0.3437
  837MPD2    H712313   4.009   1.447  10.413  0.0184  2.1570 -0.1310
  838MPD2     C12314   2.894   4.601  12.006  0.0491  0.7950 -0.2241
  838MPD2    C112315   2.858   4.482  11.947  0.0338  0.2897  0.9262
  838MPD2    C212316   2.727   4.439  11.964 -0.0378  1.1553 -0.1214
  838MPD2    C312317   2.635   4.507  12.027  0.3359 -0.6516  0.1465
  838MPD2    C412318   2.673   4.631  12.082 -0.3965  1.1139  0.6341
  838MPD2    C512319   2.802   4.676  12.065 -0.0174  0.2073 -0.6613
  838MPD2     H12320   2.696   4.349  11.912  0.2390  1.2544 -0.4621
  838MPD2    H112321   2.592   4.688  12.127 -1.1641  0.1557  0.4528
  838MPD2    H212322   2.998   4.634  12.002  0.2822  0.0231 -0.4744
  838MPD2    H312323   2.835   0.048  12.102 -2.5289  0.7324  0.2388
  838MPD2     N12324   2.507   4.451  12.035 -0.8693  0.1905 -0.3916
  838MPD2    H512325   2.483   4.361  11.994 -0.8216 -0.2032  0.4415
  838MPD2    N112326   2.950   4.405  11.869 -0.0389  0.1190 -0.3727
  838MPD2    H712327   2.908   4.321  11.830 -0.6480 -0.1954  0.9543
  839MPD2     C12328   2.842   3.576  11.985 -0.0109 -0.2081 -0.1985
  839MPD2    C112329   2.847   3.589  11.846 -1.0317 -0.1456  0.1791
  839MPD2    C212330   2.904   3.701  11.789  0.3822 -0.4108 -0.3696
  839MPD2    C312331   2.924   3.814  11.865  0.2807  1.0160  0.1689
  839MPD2    C412332   2.899   3.807  12.003  0.4251  0.3056  0.3771
  839MPD2    C512333   2.866   3.686  12.061 -0.6166  0.0091 -0.2444
  839MPD2     H12334   2.913   3.704  11.681  2.1776  0.7465 -0.1874
  839MPD2    H112335   2.913   3.890  12.071 -1.1141  0.6012  0.3421
  839MPD2    H212336   2.803   3.491  12.040  2.1736 -0.5702  0.7843
  839MPD2    H312337   2.862   3.671  12.169 -3.4161  0.7304 -0.2252
  839MPD2     N12338   2.969   3.934  11.817  0.4561  0.3439 -0.2506
  839MPD2    H512339   2.975   4.011  11.882 -1.2195  0.0132  0.3015
  839MPD2    N112340   2.788   3.488  11.757 -0.1290 -0.4077  0.0823
  839MPD2    H712341   2.810   3.494  11.659 -0.2384  0.2764  0.0993
  840MPD2     C12342   2.589   1.982  10.438  0.7205 -0.5646  0.1208
  840MPD2    C112343   2.583   1.883  10.534 -0.2162 -0.1915 -0.0184
  840MPD2    C212344   2.650   1.921  10.651 -0.0945  0.4800 -0.0996
  840MPD2    C312345   2.715   2.046  10.661 -0.1231 -0.9882  0.3319
  840MPD2    C412346   2.709   2.139  10.561  0.2482 -0.0112  0.2075
  840MPD2    C512347   2.649   2.102  10.449  0.5459 -0.3822  0.0697
  840MPD2     H12348   2.672   1.847  10.728 -1.7718 -0.9760 -1.0102
  840MPD2    H112349   2.745   2.240  10.572 -1.9833  0.9499 -1.4029
  840MPD2    H212350   2.526   1.973  10.349  2.8644 -0.4317 -1.4062
  840MPD2    H312351   2.634   2.171  10.368  0.2401 -1.4467 -0.7868
  840MPD2     N12352   2.790   2.087  10.777  0.0730 -0.2230 -0.0397
  840MPD2    H512353   2.851   2.169  10.769 -0.4460  0.2519  0.9040
  840MPD2    N112354   2.500   1.768  10.515  0.0587  0.5972 -0.0432
  840MPD2    H712355   2.450   1.752  10.427 -1.7480  0.4623  1.0056
  841MPD2     C12356   2.354   1.839  15.165 -0.0321  0.3262 -0.0889
  841MPD2    C112357   2.366   1.771  15.050 -0.3226  0.4251 -0.1236
  841MPD2    C212358   2.361   1.843  14.933 -0.0132 -0.6794 -0.7135
  841MPD2    C312359   2.362   1.976  14.925 -0.4177  0.1505  0.3938
  841MPD2    C412360   2.355   2.040  15.047  0.2082 -0.2709  0.2689
  841MPD2    C512361   2.342   1.974  15.163 -0.0059 -0.4714  0.2865
  841MPD2     H12362   2.369   1.791  14.838  2.7401 -0.1906 -0.7464
  841MPD2    H112363   2.349   2.146  15.065  2.1395 -0.4052  1.7162
  841MPD2    H212364   2.367   1.791  15.262  1.8595  1.1417  0.0675
  841MPD2    H312365   2.330   2.030  15.255 -0.6344 -0.8506  0.4349
  841MPD2     N12366   2.374   2.042  14.798 -0.5001  0.0686 -0.2741
  841MPD2    H512367   2.383   1.982  14.717 -1.9332  0.4831 -0.7451
  841MPD2    N112368   2.353   1.626  15.040 -0.0005  0.1116  0.7517
  841MPD2    H712369   2.364   1.583  14.949  2.8449 -1.0112  1.6393
  842MPD2     C12370   3.703   2.603  17.123  0.8324 -0.5932  0.2234
  842MPD2    C112371   3.574   2.575  17.148  0.0922  0.3909 -0.2465
  842MPD2    C212372   3.540   2.501  17.265 -0.4074 -0.2154 -0.4534
  842MPD2    C312373   3.636   2.455  17.348 -0.3012  0.6501 -0.7951
  842MPD2    C412374   3.766   2.481  17.316  0.2586 -0.2135  0.3556
  842MPD2    C512375   3.800   2.556  17.205 -0.4253  0.6795  0.3694
  842MPD2     H12376   3.436   2.502  17.297  0.0207 -0.2744  0.9399
  842MPD2    H112377   3.838   2.454  17.392 -0.0742  0.1993  0.8199
  842MPD2    H212378   3.732   2.662  17.036  2.1319 -0.6113  0.6527
  842MPD2    H312379   3.904   2.581  17.188 -1.3559  2.5282 -2.7084
  842MPD2     N12380   3.607   2.392  17.471  0.2385  0.0236  0.2559
  842MPD2    H512381   3.685   2.373  17.533  0.9924  0.7782 -0.4595
  842MPD2    N112382   3.477   2.615  17.057 -0.4280  0.0699 -0.2104
  842MPD2    H712383   3.509   2.680  16.986 -1.8042 -1.5518 -2.3142
  843MPD2     C12384   0.979   2.437   0.227  0.2981 -0.2454  0.0710
  843MPD2    C112385   1.031   2.389   0.347 -0.2851  0.6190  0.0534
  843MPD2    C212386   1.141   2.450   0.408 -0.0631  0.1663  0.1367
  843MPD2    C312387   1.204   2.566   0.353  0.0651 -0.0163  0.1075
  843MPD2    C412388   1.136   2.624   0.242 -0.0045 -0.2363  0.4951
  843MPD2    C512389   1.028   2.553   0.186 -0.1757 -0.3336 -0.2802
  843MPD2     H12390   1.165   2.422   0.510  0.2325 -1.4357 -0.3743
  843MPD2    H112391   1.176   2.713   0.197 -2.1944  1.6613  2.2855
  843MPD2    H212392   0.909   2.381   0.167 -1.0957  2.3103 -0.7039
  843MPD2    H312393   0.989   2.596   0.095 -0.2604 -0.3469 -0.2500
  843MPD2     N12394   1.300   2.644   0.423  0.1071 -0.1464  0.4106
  843MPD2    H512395   1.311   2.741   0.394  0.0623 -0.1349  0.4319
  843MPD2    N112396   0.966   2.276   0.394  0.3360 -0.4639 -0.4161
  843MPD2    H712397   0.890   2.242   0.337 -2.0850  0.7122  2.0967
  844MPD2     C12398   3.951   1.882  16.735 -0.4244  0.0397  0.1298
  844MPD2    C112399   4.078   1.841  16.703  0.2211 -0.3397  0.1443
  844MPD2    C212400   4.188   1.916  16.731 -0.6743 -0.4545 -0.0818
  844MPD2    C312401   4.166   2.034  16.805  0.1506 -0.1772 -0.6890
  844MPD2    C412402   4.044   2.059  16.858 -0.5289  0.4539 -0.4947
  844MPD2    C512403   3.936   1.982  16.827  0.8529  0.1534 -0.1444
  844MPD2     H12404   4.288   1.881  16.706 -0.9927 -1.3694 -0.0516
  844MPD2    H112405   4.026   2.147  16.918  0.2061 -0.0849  0.5155
  844MPD2    H212406   3.857   1.831  16.717 -0.5769  0.1840  0.4974
  844MPD2    H312407   3.839   1.998  16.872  0.4479  0.7594 -1.2365
  844MPD2     N12408   4.276   2.112  16.841  0.1787 -0.5790 -0.3250
  844MPD2    H512409   4.367   2.094  16.800  0.3616  0.7256 -0.4981
  844MPD2    N112410   4.097   1.729  16.620  0.5628  0.0912 -0.2499
  844MPD2    H712411   4.189   1.722  16.578  0.8897 -0.5855  0.5869
  845MPD2     C12412   4.472   2.997  17.390 -0.6777  0.1025  0.2646
  845MPD2    C112413   4.380   2.907  17.434 -0.0384 -0.0373 -0.6398
  845MPD2    C212414   4.387   2.784  17.370  0.0773 -0.4143 -0.4466
  845MPD2    C312415   4.476   2.749  17.264  0.5289 -0.4668 -0.1697
  845MPD2    C412416   4.559   2.849  17.218 -0.5479  0.1436  0.1397
  845MPD2    C512417   4.555   2.965  17.285 -0.4947 -0.2068  1.0379
  845MPD2     H12418   4.304   2.719  17.394  0.5688 -2.1747 -3.5611
  845MPD2    H112419   4.620   2.834  17.130  1.0992  0.3629  1.2463
  845MPD2    H212420   4.474   3.096  17.433  0.0467 -0.7904  2.2799
  845MPD2    H312421   4.624   3.040  17.249 -1.1974 -1.4887 -2.8954
  845MPD2     N12422   4.457   2.622  17.196 -0.6890 -0.7410 -0.7036
  845MPD2    H512423   4.379   2.561  17.217  0.1930 -1.8095 -0.5366
  845MPD2    N112424   4.273   2.953  17.513  0.2680  0.3907 -0.0753
  845MPD2    H712425   4.274   3.052  17.538 -1.4590 -0.2771  2.5437
  846MPD2     C12426   0.999   3.194  13.960 -0.7727  0.2455  0.0154
  846MPD2    C112427   0.877   3.221  14.017  0.1155 -0.1409 -0.6216
  846MPD2    C212428   0.869   3.215  14.155 -0.4759 -0.3727  0.1489
  846MPD2    C312429   0.969   3.174  14.240 -0.0706  0.8183  0.2035
  846MPD2    C412430   1.092   3.141  14.184  0.0826 -0.3465 -0.7717
  846MPD2    C512431   1.102   3.147  14.042 -0.0581 -0.1287 -0.4574
  846MPD2     H12432   0.774   3.246  14.196  0.2074  0.0795  1.3964
  846MPD2    H112433   1.177   3.105  14.241 -0.8547 -2.5184 -0.7098
  846MPD2    H212434   1.022   3.203  13.854  0.6435  0.0250  0.3028
  846MPD2    H312435   1.196   3.123  13.995 -0.8413 -1.5112 -1.3201
  846MPD2     N12436   0.955   3.176  14.377 -0.1443 -0.1046  0.5310
  846MPD2    H512437   0.861   3.198  14.408  0.5385  2.0795  1.0608
  846MPD2    N112438   0.765   3.265  13.949 -0.1678  0.6880 -0.0874
  846MPD2    H712439   0.691   3.294  14.012 -0.5130 -0.2845 -0.0578
  847MPD2     C12440   1.298   3.817  14.466  0.0536 -0.0635 -0.9067
  847MPD2    C112441   1.282   3.934  14.524  0.2501 -0.2251 -0.0630
  847MPD2    C212442   1.380   3.992  14.602  0.1235 -0.2315  0.7578
  847MPD2    C312443   1.507   3.935  14.618 -0.8773  0.1613  0.1805
  847MPD2    C412444   1.531   3.811  14.558 -0.8049  0.2767  0.1476
  847MPD2    C512445   1.427   3.760  14.485  0.1454  0.4863 -0.1131
  847MPD2     H12446   1.366   4.085  14.656 -1.5864 -0.7183  1.1555
  847MPD2    H112447   1.626   3.762  14.574 -0.8337  0.5622  1.2484
  847MPD2    H212448   1.220   3.766  14.411 -0.8765  0.3613  0.0270
  847MPD2    H312449   1.444   3.663  14.439 -1.5745  0.1499 -0.0176
  847MPD2     N12450   1.601   4.016  14.687  0.3742  0.1707  0.3544
  847MPD2    H512451   1.580   4.113  14.707  0.8858  0.5362 -0.8917
  847MPD2    N112452   1.161   4.006  14.514 -0.3548  0.2260  0.1782
  847MPD2    H712453   1.146   4.079  14.583  3.1218  1.3830 -0.2498
  848MPD2     C12454   3.608   2.512  16.652 -0.4377  0.0101  0.3954
  848MPD2    C112455   3.719   2.526  16.733 -1.2014 -0.2038 -0.2008
  848MPD2    C212456   3.816   2.619  16.704  0.5254 -0.1736  0.5225
  848MPD2    C312457   3.796   2.713  16.599  0.8862 -0.6258 -0.0085
  848MPD2    C412458   3.689   2.688  16.513  0.3294 -0.1114  0.4864
  848MPD2    C512459   3.601   2.593  16.539  0.0507  1.0632 -0.1638
  848MPD2     H12460   3.902   2.611  16.769  1.2178  3.0936 -0.0028
  848MPD2    H112461   3.669   2.742  16.421  0.1690 -1.8898 -0.5105
  848MPD2    H212462   3.539   2.428  16.656  0.0376 -0.3925  0.2049
  848MPD2    H312463   3.520   2.579  16.469 -0.0963 -1.4214  0.4886
  848MPD2     N12464   3.885   2.824  16.564  0.1571 -0.4162  0.7799
  848MPD2    H512465   3.869   2.867  16.474  2.7250  0.2276  0.6186
  848MPD2    N112466   3.751   2.433  16.839  0.6545  0.8872  0.6994
  848MPD2    H712467   3.840   2.439  16.888  0.9126 -0.9362  0.4605
  849MPD2     C12468   2.952   2.843  13.726  0.5669  0.5979  0.0378
  849MPD2    C112469   3.058   2.753  13.736  0.0780 -0.0462 -0.7484
  849MPD2    C212470   3.054   2.664  13.843  0.0005 -0.5064 -0.2420
  849MPD2    C312471   2.954   2.658  13.939 -0.3518  1.0362 -0.0083
  849MPD2    C412472   2.842   2.738  13.911 -0.1062 -0.6216  0.1065
  849MPD2    C512473   2.843   2.821  13.807  0.5759  0.0304  0.1431
  849MPD2     H12474   3.142   2.600  13.847 -0.4419 -0.9858  1.6579
  849MPD2    H112475   2.754   2.734  13.975 -0.6608 -0.9727 -0.6768
  849MPD2    H212476   2.941   2.909  13.641 -0.1994 -1.7960 -1.7233
  849MPD2    H312477   2.748   2.868  13.785 -0.2247 -0.9923  1.4378
  849MPD2     N12478   2.959   2.551  14.032  0.3506  0.2320  0.9216
  849MPD2    H512479   3.036   2.485  14.023 -0.7424 -0.9456  0.3781
  849MPD2    N112480   3.174   2.751  13.660  0.4795  0.4916 -0.2908
  849MPD2    H712481   3.251   2.689  13.683  1.0438  1.0821 -0.5966
  850MPD2     C12482   1.183   0.275  14.640 -0.1729  0.5432  0.4428
  850MPD2    C112483   1.145   0.362  14.736  0.4928  0.0657 -0.0550
  850MPD2    C212484   1.238   0.421  14.822  0.1197 -0.4008  0.3256
  850MPD2    C312485   1.367   0.393  14.799  0.4002 -0.5858  0.2302
  850MPD2    C412486   1.408   0.326  14.684  0.3210 -0.0436  1.1984
  850MPD2    C512487   1.314   0.258  14.611  0.2385  0.1048  0.5412
  850MPD2     H12488   1.203   0.482  14.904 -3.4421  0.8065 -2.0686
  850MPD2    H112489   1.513   0.308  14.666  0.4444  2.1510 -0.3188
  850MPD2    H212490   1.108   0.226  14.578  3.9112 -1.3287 -3.0293
  850MPD2    H312491   1.349   0.200  14.526  0.8213  0.9398  0.2115
  850MPD2     N12492   1.476   0.438  14.883 -0.1398 -0.8086 -0.3785
  850MPD2    H512493   1.570   0.429  14.845  0.8962 -1.0192  2.2638
  850MPD2    N112494   1.010   0.367  14.755  0.3010  0.1016 -0.6080
  850MPD2    H712495   0.955   0.299  14.703  0.5377 -0.4192 -0.1822
  851MPD2     C12496   1.234   0.125  15.215 -0.2661 -0.0465  0.2026
  851MPD2    C112497   1.121   0.060  15.184  0.2066  0.1946 -0.4081
  851MPD2    C212498   1.120   4.647  15.176  0.0318  0.2422  0.1292
  851MPD2    C312499   1.237   4.579  15.182  0.0354  0.2809 -0.7416
  851MPD2    C412500   1.352   4.652  15.210  0.2537  0.7171 -0.2128
  851MPD2    C512501   1.353   0.063  15.220  0.6422  0.0164  0.4316
  851MPD2     H12502   1.031   4.591  15.149  1.0357 -0.3213 -1.9841
  851MPD2    H112503   1.447   4.600  15.210  0.2351  0.6817  3.1611
  851MPD2    H212504   1.222   0.233  15.223  0.9748  0.1450 -0.5458
  851MPD2    H312505   1.450   0.110  15.236  1.1360 -0.8654 -0.0225
  851MPD2     N12506   1.233   4.438  15.163 -0.1199  0.0485 -0.3089
  851MPD2    H512507   1.143   4.400  15.136 -0.3157 -0.4403  1.0658
  851MPD2    N112508   1.004   0.139  15.165 -0.2919 -0.6359 -0.1522
  851MPD2    H712509   1.013   0.239  15.172 -0.8224 -0.5452 -0.7224
  852MPD2     C12510   0.931   2.640  10.299  0.2671 -0.2244  0.7451
  852MPD2    C112511   0.837   2.744  10.303  0.2095  0.7925  0.0027
  852MPD2    C212512   0.888   2.865  10.269  0.1344 -0.4336  0.6623
  852MPD2    C312513   1.019   2.888  10.231  0.8491  0.5106  0.2813
  852MPD2    C412514   1.107   2.775  10.219  0.0546  0.5762 -0.4109
  852MPD2    C512515   1.061   2.653  10.255 -0.0776 -0.2024 -0.1506
  852MPD2     H12516   0.828   2.954  10.281  1.1683  0.5288 -1.2601
  852MPD2    H112517   1.209   2.790  10.188 -0.5746  1.5744 -1.9775
  852MPD2    H212518   0.906   2.542  10.338  0.9586  0.4866  2.9459
  852MPD2    H312519   1.126   2.566  10.258  1.6802  1.0911 -0.7285
  852MPD2     N12520   1.064   3.021  10.217 -0.5866  0.0609  0.3340
  852MPD2    H512521   0.996   3.091  10.245 -0.0304  0.8854 -0.3909
  852MPD2    N112522   0.708   2.743  10.358  0.3673 -0.0907 -0.0899
  852MPD2    H712523   0.655   2.829  10.347 -2.4995 -1.9230 -0.4034
  853MPD2     C12524   2.329   2.340  12.856 -0.3865  0.6172 -0.1007
  853MPD2    C112525   2.252   2.435  12.798  0.0463  0.2899 -0.0475
  853MPD2    C212526   2.220   2.414  12.667 -0.9680 -0.7256  0.1850
  853MPD2    C312527   2.263   2.311  12.587 -0.3163  0.1512  0.5354
  853MPD2    C412528   2.343   2.221  12.648  0.0920  0.4846  0.6662
  853MPD2    C512529   2.368   2.237  12.779  0.6523 -0.4644 -0.0236
  853MPD2     H12530   2.150   2.485  12.623 -0.6482  0.1510  1.0850
  853MPD2    H112531   2.374   2.133  12.594 -0.5641  0.7904 -0.1984
  853MPD2    H212532   2.339   2.338  12.964 -0.2777 -0.3591 -0.1283
  853MPD2    H312533   2.436   2.165  12.825  1.3708  0.4466  0.3320
  853MPD2     N12534   2.242   2.304  12.449 -0.6397 -0.8532 -0.5309
  853MPD2    H512535   2.301   2.238  12.399  0.6569 -0.2659  0.2261
  853MPD2    N112536   2.206   2.546  12.871  0.9306  0.1106  0.1532
  853MPD2    H712537   2.203   2.542  12.972  0.7723  0.4390  0.1612
  854MPD2     C12538   4.087   3.279  13.365 -0.8595 -0.3074 -0.1450
  854MPD2    C112539   4.138   3.196  13.268 -0.1684 -0.2723  0.1347
  854MPD2    C212540   4.222   3.093  13.301 -0.1010  0.5560  0.7279
  854MPD2    C312541   4.251   3.072  13.429  0.0119 -0.7266 -0.0381
  854MPD2    C412542   4.205   3.156  13.527  0.0056 -0.1555 -0.3877
  854MPD2    C512543   4.121   3.260  13.500 -0.0305 -0.7039  0.2492
  854MPD2     H12544   4.275   3.051  13.216  1.9126 -0.2922  2.4061
  854MPD2    H112545   4.235   3.137  13.630  1.9798  0.6142 -0.8202
  854MPD2    H212546   4.022   3.361  13.334  0.7520 -0.0384 -2.8021
  854MPD2    H312547   4.066   3.319  13.572  0.0841 -1.0297  0.6000
  854MPD2     N12548   4.342   2.972  13.462 -0.1888  0.0625  0.0055
  854MPD2    H512549   4.386   2.981  13.553 -2.0970  0.4863  0.8898
  854MPD2    N112550   4.116   3.231  13.134  0.3990  0.4908  0.1801
  854MPD2    H712551   4.101   3.330  13.117 -1.7856  0.1524  0.0878
  855MPD2     C12552   0.150   3.035  14.085  0.1362  0.9813  0.1869
  855MPD2    C112553   0.159   2.897  14.061 -0.0699  0.4663  0.5144
  855MPD2    C212554   0.115   2.849  13.935  0.2305 -0.0761 -0.2275
  855MPD2    C312555   0.064   2.931  13.845 -0.3265  0.2475 -0.3790
  855MPD2    C412556   0.038   3.063  13.874  0.0196  0.2135  0.0844
  855MPD2    C512557   0.097   3.111  13.990  0.1015 -0.6273 -0.3593
  855MPD2     H12558   0.122   2.743  13.912 -1.2371  0.2539 -2.1329
  855MPD2    H112559   4.722   3.132  13.801  1.1395 -1.8255 -2.4369
  855MPD2    H212560   0.181   3.083  14.177 -0.4112 -1.5299  1.6982
  855MPD2    H312561   0.107   3.217  14.012  0.8242 -0.3589 -1.9283
  855MPD2     N12562   0.020   2.886  13.726 -0.0933 -0.3920  0.0225
  855MPD2    H512563   4.692   2.949  13.666 -0.4976 -0.2752  0.5001
  855MPD2    N112564   0.215   2.803  14.156 -0.2981 -0.0894 -0.0478
  855MPD2    H712565   0.219   2.706  14.127  3.9348 -0.2190  0.8996
  856MPD2     C12566   1.582   3.431  13.809  0.3066 -0.3453 -0.2060
  856MPD2    C112567   1.676   3.477  13.897  0.4268  0.0741 -0.7338
  856MPD2    C212568   1.649   3.584  13.981  0.0861  0.5373 -0.5855
  856MPD2    C312569   1.532   3.653  13.978 -0.3719 -0.4975  0.7027
  856MPD2    C412570   1.443   3.614  13.881  0.1129  0.3253 -0.0233
  856MPD2    C512571   1.461   3.500  13.805  0.9484 -0.0645 -0.4545
  856MPD2     H12572   1.717   3.618  14.059 -0.4688 -0.8413  0.4779
  856MPD2    H112573   1.343   3.654  13.873  0.4605  1.3433  0.6294
  856MPD2    H212574   1.588   3.338  13.753  1.8035  0.4300 -1.3240
  856MPD2    H312575   1.381   3.464  13.742 -0.3136 -0.0519  1.1704
  856MPD2     N12576   1.491   3.760  14.067 -0.0867  0.1908 -0.1622
  856MPD2    H512577   1.394   3.789  14.062  0.3066  0.9811 -3.0071
  856MPD2    N112578   1.797   3.406  13.894  0.1935 -0.3679 -0.1528
  856MPD2    H712579   1.818   3.350  13.813  0.5149  0.1464 -0.4231
  857MPD2     C12580   3.239   0.891  12.949  0.1874 -0.3314  0.1680
  857MPD2    C112581   3.339   0.902  13.045  0.0664 -0.3001 -1.2477
  857MPD2    C212582   3.410   1.027  13.061 -0.2964  0.3080 -0.3301
  857MPD2    C312583   3.390   1.126  12.975 -0.0716  0.4474  0.1458
  857MPD2    C412584   3.289   1.115  12.878  0.7337 -0.3097  0.8561
  857MPD2    C512585   3.205   1.003  12.866 -0.0608 -0.1685 -0.0267
  857MPD2     H12586   3.489   1.042  13.134 -1.1279  1.5084  0.3315
  857MPD2    H112587   3.258   1.184  12.800  0.3597 -2.1982 -0.6732
  857MPD2    H212588   3.181   0.801  12.938  2.3832 -1.7759  0.3013
  857MPD2    H312589   3.117   1.000  12.804  1.4603 -0.2681 -2.1745
  857MPD2     N12590   3.476   1.244  12.992  0.1159 -0.4315  0.3800
  857MPD2    H512591   3.548   1.236  13.063 -0.2927  0.5855  0.9061
  857MPD2    N112592   3.368   0.788  13.119  0.4040 -0.4009  0.3847
  857MPD2    H712593   3.300   0.714  13.109  1.6797 -1.6243  0.8422
  858MPD2     C12594   3.892   4.453  17.151 -0.1297  0.0646 -0.0666
  858MPD2    C112595   4.028   4.465  17.166  0.1697 -0.8439 -0.1008
  858MPD2    C212596   4.080   4.582  17.204  0.1899  0.1507  0.8275
  858MPD2    C312597   4.004   4.692  17.251 -0.0854  0.1880 -0.2254
  858MPD2    C412598   3.870   4.679  17.234 -0.1979 -0.1671 -0.4080
  858MPD2    C512599   3.812   4.558  17.196 -0.1695  0.5895 -0.5882
  858MPD2     H12600   4.187   4.582  17.219 -0.1880  0.4534  3.5349
  858MPD2    H112601   3.799   0.031  17.266 -0.3708 -1.5489  2.5511
  858MPD2    H212602   3.837   4.372  17.103 -0.0359  0.4846 -0.8966
  858MPD2    H312603   3.706   4.544  17.179 -0.2148 -0.4610  0.5494
  858MPD2     N12604   4.061   0.084  17.304 -0.4812  0.3567 -0.2569
  858MPD2    H512605   3.995   0.146  17.350  0.1004 -0.6728  1.9496
  858MPD2    N112606   4.109   4.358  17.122 -0.2422 -0.3213  0.3847
  858MPD2    H712607   4.208   4.375  17.137 -0.5879  1.5963  0.5414
  859MPD2     C12608   2.825   1.921  15.519  0.6958 -0.5208 -0.3961
  859MPD2    C112609   2.863   1.944  15.388  0.0770  0.0542  0.1602
  859MPD2    C212610   2.836   1.853  15.290  0.2628 -0.3524  0.6380
  859MPD2    C312611   2.791   1.725  15.322  0.3221 -0.3815  0.1810
  859MPD2    C412612   2.747   1.702  15.452 -0.4416 -0.8369 -0.3679
  859MPD2    C512613   2.765   1.797  15.549  0.5131  0.1280  0.6679
  859MPD2     H12614   2.871   1.876  15.190 -0.0513 -2.1564  0.1126
  859MPD2    H112615   2.717   1.605  15.489  2.2626 -1.6155 -0.2433
  859MPD2    H212616   2.836   1.991  15.601 -1.5258 -0.6711  0.0424
  859MPD2    H312617   2.721   1.783  15.647 -4.5370 -3.7779 -2.2225
  859MPD2     N12618   2.756   1.626  15.228  0.2488  0.3062  0.0699
  859MPD2    H512619   2.737   1.534  15.266 -1.1759  0.7495  0.4332
  859MPD2    N112620   2.931   2.064  15.348 -0.2163 -0.8299  0.0303
  859MPD2    H712621   2.943   2.088  15.250 -0.7168 -2.1566 -0.3508
  860MPD2     C12622   0.074   2.531  11.957 -0.1317  0.3156 -0.2199
  860MPD2    C112623   0.010   2.624  12.034  0.0416  0.2810  0.0049
  860MPD2    C212624   4.638   2.585  12.126  0.0866 -0.1482 -0.5838
  860MPD2    C312625   4.586   2.461  12.131 -0.3976  0.4315 -0.0125
  860MPD2    C412626   4.639   2.368  12.045  0.4914 -0.5457 -0.0506
  860MPD2    C512627   0.022   2.401  11.966 -0.3835 -0.0013  0.5249
  860MPD2     H12628   4.588   2.652  12.194 -0.5052  0.7558 -1.9239
  860MPD2    H112629   4.613   2.263  12.054 -0.9299 -0.0947  1.0421
  860MPD2    H212630   0.155   2.544  11.887  2.1672 -0.4366  2.3306
  860MPD2    H312631   0.067   2.325  11.903 -0.4953 -0.3370  0.8499
  860MPD2     N12632   4.485   2.433  12.224 -0.5413 -0.3384 -0.0774
  860MPD2    H512633   4.455   2.510  12.284 -1.3675  1.2292 -2.4979
  860MPD2    N112634   0.060   2.756  12.033 -0.4653  0.1116 -0.9210
  860MPD2    H712635   0.009   2.824  12.088 -1.0129  0.3244 -1.6966
  861MPD2     C12636   3.788   0.754  11.274 -0.7366 -0.1376 -0.0646
  861MPD2    C112637   3.744   0.865  11.346 -0.0719  0.2467  0.9723
  861MPD2    C212638   3.665   0.962  11.280  0.1573  0.1129  0.0921
  861MPD2    C312639   3.640   0.949  11.146 -0.4454 -0.5394 -0.2113
  861MPD2    C412640   3.681   0.840  11.077 -0.5070  0.5767  0.1247
  861MPD2    C512641   3.759   0.745  11.142  0.2754 -0.3079  0.2815
  861MPD2     H12642   3.632   1.052  11.332 -1.5012 -0.3078 -0.2388
  861MPD2    H112643   3.661   0.831  10.971 -1.2708 -0.1926  0.3282
  861MPD2    H212644   3.846   0.673  11.319  1.0270  2.3227  2.0743
  861MPD2    H312645   3.810   0.674  11.078 -1.3610 -3.2193  2.1647
  861MPD2     N12646   3.554   1.033  11.071 -0.8491 -0.1060 -0.2374
  861MPD2    H512647   3.522   0.995  10.983  0.8465  0.7375 -1.2311
  861MPD2    N112648   3.778   0.884  11.483 -0.1054  0.0271  0.2815
  861MPD2    H712649   3.754   0.973  11.526 -0.5696  0.7493 -1.4770
  862MPD2     C12650   3.016   0.948  10.601 -0.2665 -0.0255  0.6425
  862MPD2    C112651   3.135   0.927  10.661 -0.2455  0.0728 -0.9573
  862MPD2    C212652   3.178   0.799  10.679 -0.0750 -0.6364 -0.1742
  862MPD2    C312653   3.109   0.690  10.625  0.5396  0.2813  0.0532
  862MPD2    C412654   2.997   0.714  10.549  0.2782 -0.5806  1.0772
  862MPD2    C512655   2.955   0.842  10.540 -0.8354 -0.3132  0.1312
  862MPD2     H12656   3.273   0.776  10.728 -0.8589  1.1510  2.1673
  862MPD2    H112657   2.935   0.640  10.500 -0.9565  1.9689 -1.2549
  862MPD2    H212658   2.964   1.042  10.588 -0.4065 -0.3480 -1.0668
  862MPD2    H312659   2.866   0.863  10.482 -0.1685 -0.7393 -1.0350
  862MPD2     N12660   3.162   0.559  10.613 -0.0070 -0.3131  0.4850
  862MPD2    H512661   3.101   0.489  10.572  1.7373 -0.7370 -1.4464
  862MPD2    N112662   3.212   1.030  10.726 -0.5777  0.1105 -0.5151
  862MPD2    H712663   3.298   0.990  10.762  0.7258  1.8290 -1.6481
  863MPD2     C12664   2.458   3.568  17.393  0.0959 -0.0229  0.2500
  863MPD2    C112665   2.561   3.588  17.311  0.2881  0.1354  0.3732
  863MPD2    C212666   2.683   3.528  17.354 -0.1430 -0.9052 -0.3993
  863MPD2    C312667   2.700   3.467  17.478  0.3668 -0.1152  0.6037
  863MPD2    C412668   2.587   3.442  17.558 -0.9501  0.2784 -0.2528
  863MPD2    C512669   2.466   3.497  17.511  0.0116  0.3892  0.3350
  863MPD2     H12670   2.768   3.531  17.287 -0.1205 -0.0322 -0.3262
  863MPD2    H112671   2.599   3.390  17.652 -2.4155  1.4450  0.5802
  863MPD2    H212672   2.362   3.611  17.366  1.0467  1.7002 -0.3927
  863MPD2    H312673   2.373   3.481  17.563  0.2641 -0.5384  0.5074
  863MPD2     N12674   2.824   3.425  17.525  0.2925  0.1109  0.0569
  863MPD2    H512675   2.825   3.379  17.616  1.1548  2.9188  1.4534
  863MPD2    N112676   2.531   3.645  17.185  0.5821 -0.7266 -0.5743
  863MPD2    H712677   2.437   3.684  17.177  1.0024  0.3681 -0.1307
  864MPD2     C12678   2.923   0.396  17.690 -0.8429 -0.2030  0.6133
  864MPD2    C112679   2.953   0.325  17.572 -0.2136 -0.3476  0.1167
  864MPD2    C212680   2.975   0.405  17.458  0.4181 -0.3332 -0.4134
  864MPD2    C312681   2.985   0.542  17.459  0.5602 -0.2916  0.5962
  864MPD2    C412682   2.953   0.609  17.576 -0.3217 -0.4633 -0.1031
  864MPD2    C512683   2.917   0.535  17.685 -0.3872 -0.6752  0.1178
  864MPD2     H12684   2.994   0.360  17.362  0.6759  1.0817 -1.0319
  864MPD2    H112685   2.958   0.717  17.581  2.7973 -0.4737 -3.2294
  864MPD2    H212686   2.907   0.341   0.084 -0.5212 -1.8335 -0.3053
  864MPD2    H312687   2.889   0.582   0.081  1.2011 -0.2378  0.3698
  864MPD2     N12688   3.023   0.614  17.341  0.4776  0.2624 -0.8442
  864MPD2    H512689   3.022   0.716  17.343  0.3692  0.2014  1.5358
  864MPD2    N112690   2.979   0.181  17.581 -0.1198  0.2377  0.8937
  864MPD2    H712691   2.955   0.130  17.665  0.2468  0.4326  1.1183
  865MPD2     C12692   3.212   0.788  16.410  0.0895 -0.2227 -0.5802
  865MPD2    C112693   3.193   0.688  16.503 -0.2633 -0.1036 -0.1085
  865MPD2    C212694   3.171   0.718  16.632  0.2641  0.8219  0.8935
  865MPD2    C312695   3.175   0.849  16.671 -0.5609  0.1337  0.7621
  865MPD2    C412696   3.204   0.942  16.585  0.0290  0.9470 -0.2928
  865MPD2    C512697   3.223   0.914  16.451 -0.3576  0.3696  0.0480
  865MPD2     H12698   3.161   0.644  16.711 -0.7336 -0.9524 -0.8871
  865MPD2    H112699   3.216   1.044  16.619 -0.0553  0.3308  1.5422
  865MPD2    H212700   3.223   0.772  16.304 -0.9877 -2.5104 -0.3555
  865MPD2    H312701   3.240   0.991  16.377 -0.4303 -0.5900 -0.9767
  865MPD2     N12702   3.182   0.889  16.808  0.4018 -0.8925  0.0369
  865MPD2    H512703   3.204   0.986  16.825  0.3567 -0.8034 -0.4059
  865MPD2    N112704   3.207   0.557  16.455  0.1706 -0.1075 -0.0355
  865MPD2    H712705   3.243   0.547  16.360  0.5406 -1.4217  0.2356
  866MPD2     C12706   4.336   1.065  11.796 -0.2190  0.6267  0.0753
  866MPD2    C112707   4.314   1.078  11.659 -0.6996  0.3307 -0.5861
  866MPD2    C212708   4.205   1.154  11.618  0.6792 -0.1540  0.3282
  866MPD2    C312709   4.111   1.209  11.705 -0.9738 -0.0805 -0.5037
  866MPD2    C412710   4.134   1.185  11.840 -0.1539 -0.0492 -0.1373
  866MPD2    C512711   4.240   1.114  11.882  0.7230  0.0816 -0.5981
  866MPD2     H12712   4.188   1.171  11.513 -1.2118  0.1449  0.6876
  866MPD2    H112713   4.058   1.207  11.914 -0.8167 -0.5485 -0.6649
  866MPD2    H212714   4.406   0.997  11.843 -0.2368  1.2857  1.0532
  866MPD2    H312715   4.255   1.094  11.988  1.9281 -0.6540 -0.9041
  866MPD2     N12716   4.012   1.293  11.657  0.3022 -0.1805  0.4847
  866MPD2    H512717   3.945   1.324  11.727  0.5903  1.1698  0.1583
  866MPD2    N112718   4.400   1.014  11.569  0.0109  0.5123  0.1032
  866MPD2    H712719   4.474   0.961  11.614  0.4313 -0.3328 -1.5882
  867MPD2     C12720   2.397   0.073  17.243 -0.1968 -0.3580 -0.1745
  867MPD2    C112721   2.329   4.689  17.299 -0.8071 -0.1460 -0.1926
  867MPD2    C212722   2.235   4.713  17.396  0.1895 -0.2084  0.5857
  867MPD2    C312723   2.218   0.116  17.444  0.0324 -0.2553 -0.3328
  867MPD2    C412724   2.299   0.220  17.393 -1.0578  0.2178  0.1356
  867MPD2    C512725   2.388   0.196  17.293  0.6867 -0.3631  0.0862
  867MPD2     H12726   2.185   4.636  17.454 -1.3197  1.1326  1.0689
  867MPD2    H112727   2.282   0.322  17.424  0.2951  0.8407 -1.1787
  867MPD2    H212728   2.470   0.062  17.163  2.5745 -0.1259  2.3620
  867MPD2    H312729   2.434   0.278  17.240 -1.5331 -0.2637 -1.7054
  867MPD2     N12730   2.126   0.147  17.549 -0.7818  0.6258 -0.2690
  867MPD2    H512731   2.058   0.075  17.571 -0.8097  0.6651 -0.2271
  867MPD2    N112732   2.368   4.561  17.253 -0.5225  0.1873  0.6091
  867MPD2    H712733   2.441   4.553  17.182 -0.1061 -2.2557  1.2964
  868MPD2     C12734   3.421   3.652  13.716 -0.2812  0.2481 -0.2285
  868MPD2    C112735   3.445   3.763  13.633  0.3843  0.0735 -0.3621
  868MPD2    C212736   3.337   3.849  13.640 -0.2484 -0.2620 -0.5295
  868MPD2    C312737   3.216   3.821  13.706  0.0429 -0.7801 -0.6417
  868MPD2    C412738   3.195   3.702  13.769  0.3724 -0.6663  0.0561
  868MPD2    C512739   3.303   3.621  13.772 -0.1239  0.6129  0.4627
  868MPD2     H12740   3.342   3.947  13.595 -0.7490 -0.4053 -0.9163
  868MPD2    H112741   3.108   3.674  13.827  1.1719 -1.1250  1.0384
  868MPD2    H212742   3.502   3.581  13.721 -1.5059 -1.2233 -1.2051
  868MPD2    H312743   3.299   3.522  13.815 -0.2927  0.6141  0.4490
  868MPD2     N12744   3.116   3.926  13.710 -0.2534 -0.3377  0.0592
  868MPD2    H512745   3.136   4.014  13.664 -0.8400 -1.1983 -1.8292
  868MPD2    N112746   3.572   3.803  13.582 -0.0691 -0.5038 -0.7037
  868MPD2    H712747   3.652   3.746  13.606  2.4143  3.1049 -0.3007
  869MPD2     C12748   0.811   1.506   2.287  0.3559  0.2736 -0.5402
  869MPD2    C112749   0.834   1.470   2.156  0.1459 -0.0162 -0.2860
  869MPD2    C212750   0.799   1.552   2.050 -0.0868  0.3552 -0.2218
  869MPD2    C312751   0.725   1.664   2.072 -0.1999  0.3759  0.2843
  869MPD2    C412752   0.686   1.699   2.199  0.3308 -0.5277  0.3164
  869MPD2    C512753   0.732   1.619   2.302 -0.7528  0.0926  0.3121
  869MPD2     H12754   0.799   1.513   1.949 -0.0656 -1.3013  0.4241
  869MPD2    H112755   0.629   1.785   2.232 -1.9011 -1.8379 -0.1740
  869MPD2    H212756   0.847   1.452   2.373 -0.1339 -2.1256 -1.8595
  869MPD2    H312757   0.701   1.655   2.399  0.3943 -1.6468  1.3289
  869MPD2     N12758   0.691   1.750   1.963 -0.7449 -0.3866  0.3838
  869MPD2    H512759   0.622   1.823   1.981 -0.7747 -0.7372  1.6523
  869MPD2    N112760   0.918   1.365   2.118 -0.5161  0.4151  0.2626
  869MPD2    H712761   0.940   1.358   2.019 -1.0826  1.7807  0.0430
  870MPD2     C12762   4.629   1.156   2.338  0.2872  0.1643  0.2654
  870MPD2    C112763   4.706   1.121   2.225  0.5564 -0.1845 -0.2682
  870MPD2    C212764   4.697   1.193   2.106  0.5733 -0.5170  0.0817
  870MPD2    C312765   4.604   1.300   2.095  0.0777  0.3232 -0.2604
  870MPD2    C412766   4.527   1.337   2.205 -0.7833 -0.4974  0.8231
  870MPD2    C512767   4.539   1.257   2.319 -0.1187 -0.0355  0.1719
  870MPD2     H12768   0.034   1.171   2.019 -0.8779  1.0128 -1.3490
  870MPD2    H112769   4.447   1.409   2.199 -1.0097 -0.7830  0.4348
  870MPD2    H212770   4.627   1.103   2.432  1.9787  2.7980  1.8019
  870MPD2    H312771   4.489   1.292   2.409  0.1266  1.0925 -0.1318
  870MPD2     N12772   4.591   1.367   1.971  0.8659  0.2720  0.3644
  870MPD2    H512773   4.632   1.316   1.894 -2.3117 -1.3719 -0.2104
  870MPD2    N112774   0.079   1.020   2.245 -0.5229  0.3141 -0.6324
  870MPD2    H712775   0.063   0.968   2.331  0.0218 -1.1421 -1.4178
  871MPD2     C12776   1.026   0.646  16.537 -0.6411 -0.3294  0.7984
  871MPD2    C112777   1.027   0.626  16.674  0.1480 -0.7760 -0.1635
  871MPD2    C212778   1.024   0.490  16.713 -0.1386  0.0600 -0.1871
  871MPD2    C312779   1.046   0.391  16.617 -0.1403 -0.8780 -0.8095
  871MPD2    C412780   1.039   0.413  16.482  0.2655  0.4902  0.7585
  871MPD2    C512781   1.028   0.548  16.443 -0.5861  0.1121 -0.0601
  871MPD2     H12782   1.043   0.461  16.816  0.0103 -1.4411 -0.6410
  871MPD2    H112783   1.052   0.340  16.403 -0.8626  1.1437 -0.0423
  871MPD2    H212784   1.029   0.744  16.492  1.0017 -1.2693 -1.1198
  871MPD2    H312785   1.020   0.574  16.339 -0.0742 -0.5182 -0.2570
  871MPD2     N12786   1.060   0.261  16.670  0.2944  0.7503  0.0557
  871MPD2    H512787   1.042   0.260  16.770 -1.8652  0.4731 -0.3295
  871MPD2    N112788   1.018   0.733  16.762  0.4423 -0.2805  0.0486
  871MPD2    H712789   1.030   0.829  16.732  0.0403 -0.6958 -1.4516
  872MPD2     C12790   1.806   2.924  14.238 -0.2431 -0.2794  1.2352
  872MPD2    C112791   1.740   2.896  14.116 -0.4452  0.8953 -0.0069
  872MPD2    C212792   1.610   2.852  14.126  0.0998 -0.7452  0.1145
  872MPD2    C312793   1.553   2.827  14.254  0.4538  0.0448 -0.4454
  872MPD2    C412794   1.634   2.834  14.367  0.0798  0.3360  0.2111
  872MPD2    C512795   1.755   2.885  14.355 -0.5635 -0.0874  0.7968
  872MPD2     H12796   1.556   2.845  14.032 -0.7387 -0.5052  0.5750
  872MPD2    H112797   1.603   2.819  14.469 -2.0828  0.8528 -0.3657
  872MPD2    H212798   1.905   2.967  14.249 -1.1308  1.8162  1.0625
  872MPD2    H312799   1.812   2.897  14.446  0.3841  0.5323  0.1214
  872MPD2     N12800   1.421   2.784  14.274 -0.2901 -0.4681 -0.0151
  872MPD2    H512801   1.393   2.792  14.372 -0.5488  0.9909 -0.2099
  872MPD2    N112802   1.802   2.934  13.991 -0.5996  0.0110 -0.2254
  872MPD2    H712803   1.743   2.925  13.909  0.0007 -0.4116 -0.6132
  873MPD2     C12804   3.453   2.382   1.155  0.2301 -0.4005  0.4608
  873MPD2    C112805   3.460   2.337   1.286  0.0844  0.7269  0.4701
  873MPD2    C212806   3.442   2.204   1.323 -0.3115  0.6712 -0.8212
  873MPD2    C312807   3.421   2.108   1.222  0.8065 -0.2809 -0.3470
  873MPD2    C412808   3.410   2.150   1.090  0.5026  0.4291  0.2069
  873MPD2    C512809   3.439   2.281   1.063 -0.6230 -0.3640 -0.2518
  873MPD2     H12810   3.419   2.172   1.424 -2.6158  0.2942 -1.4749
  873MPD2    H112811   3.387   2.081   1.009  0.1787  0.1440  0.5404
  873MPD2    H212812   3.465   2.484   1.118 -0.5782 -1.0314 -1.5247
  873MPD2    H312813   3.450   2.323   0.963  0.6076  0.4430  0.2362
  873MPD2     N12814   3.407   1.969   1.244 -0.6721 -0.0245  0.7672
  873MPD2    H512815   3.363   1.917   1.168 -0.6430 -1.7588  1.9458
  873MPD2    N112816   3.483   2.441   1.381  0.2013  0.4194  0.7477
  873MPD2    H712817   3.466   2.536   1.349 -2.4420 -0.7230 -1.2513
  874MPD2     C12818   3.330   2.973  16.299  0.1494 -0.1049 -0.2523
  874MPD2    C112819   3.385   2.935  16.418  0.0946  0.8417 -0.4244
  874MPD2    C212820   3.515   2.971  16.437  0.3247  0.6901 -0.5964
  874MPD2    C312821   3.579   3.065  16.359 -0.1455 -0.5880 -0.6163
  874MPD2    C412822   3.519   3.110  16.241  0.2494  0.2818 -0.3962
  874MPD2    C512823   3.393   3.062  16.213  0.2815  0.5323 -0.2552
  874MPD2     H12824   3.580   2.941  16.518 -1.0620 -0.9335 -0.0943
  874MPD2    H112825   3.571   3.179  16.175 -0.8163  2.6340  1.2643
  874MPD2    H212826   3.228   2.945  16.274 -0.3078  0.1997  1.2566
  874MPD2    H312827   3.333   3.085  16.125  0.8316  0.6378 -0.5983
  874MPD2     N12828   3.704   3.100  16.408 -0.4220 -0.1787 -0.2061
  874MPD2    H512829   3.725   3.071  16.503 -0.7616 -0.8561 -0.3362
  874MPD2    N112830   3.314   2.857  16.509 -0.9832  0.3079 -0.1834
  874MPD2    H712831   3.216   2.837  16.494 -1.5233  1.1972  2.0208
  875MPD2     C12832   3.859   0.881  14.873 -0.8871 -0.0559 -0.6564
  875MPD2    C112833   3.850   0.996  14.798  0.0185  0.5032 -0.1295
  875MPD2    C212834   3.870   1.115  14.860  0.9876 -0.2734 -0.4921
  875MPD2    C312835   3.889   1.127  15.001 -0.3952  0.5881 -0.8140
  875MPD2    C412836   3.894   1.007  15.069  0.1825  0.4348  0.2728
  875MPD2    C512837   3.892   0.885  15.005  0.0533  0.4625  0.0861
  875MPD2     H12838   3.876   1.202  14.796 -1.0642 -0.0227 -0.3515
  875MPD2    H112839   3.909   1.004  15.176 -0.7480 -1.4000  0.3476
  875MPD2    H212840   3.854   0.785  14.823 -0.8346 -0.0218 -0.7279
  875MPD2    H312841   3.873   0.800  15.070 -1.5644  1.4830  0.9574
  875MPD2     N12842   3.897   1.246  15.068  0.6198 -0.1965 -0.1297
  875MPD2    H512843   3.901   1.240  15.169  1.8948  1.3082 -0.0959
  875MPD2    N112844   3.837   0.995  14.656 -0.2613 -0.2844  0.0652
  875MPD2    H712845   3.858   1.082  14.610  0.7574 -1.0589 -0.9371
  876MPD2     C12846   3.238   2.683  16.189  0.1279 -0.9093 -0.3144
  876MPD2    C112847   3.369   2.651  16.160  0.1634  0.5900  0.4027
  876MPD2    C212848   3.430   2.544  16.217  0.6667  0.0478 -0.4054
  876MPD2    C312849   3.363   2.461  16.302  0.0866  0.0535 -0.3147
  876MPD2    C412850   3.230   2.491  16.344 -0.3040  0.2805 -0.0215
  876MPD2    C512851   3.172   2.610  16.286 -0.4671  0.9217  1.1636
  876MPD2     H12852   3.523   2.503  16.180  0.3526 -0.2416 -0.8725
  876MPD2    H112853   3.175   2.429  16.415 -0.2816 -0.0715 -0.3108
  876MPD2    H212854   3.190   2.770  16.146  0.1552 -0.6590  0.1545
  876MPD2    H312855   3.069   2.641  16.299 -0.9647  0.6477 -2.2341
  876MPD2     N12856   3.423   2.347  16.350  0.0651 -0.2431 -0.7002
  876MPD2    H512857   3.510   2.326  16.303 -0.4816  2.7469 -3.0054
  876MPD2    N112858   3.443   2.735  16.075  0.5556 -0.1823  0.0227
  876MPD2    H712859   3.382   2.799  16.025  0.6385  0.4180  0.6799
  877MPD2     C12860   3.308   2.849  15.428  0.5917 -0.6809 -0.2640
  877MPD2    C112861   3.426   2.917  15.416  0.3340  0.7855  0.2393
  877MPD2    C212862   3.472   2.948  15.285 -0.2869  0.9312  0.0676
  877MPD2    C312863   3.398   2.912  15.170 -0.0857  0.8663  0.7477
  877MPD2    C412864   3.269   2.861  15.189 -0.2611 -0.3445 -0.1694
  877MPD2    C512865   3.228   2.828  15.318 -0.1570  0.1112 -0.2558
  877MPD2     H12866   3.572   2.990  15.275  1.6385 -2.8611  3.1745
  877MPD2    H112867   3.211   2.827  15.104  3.4788 -2.2946 -1.9631
  877MPD2    H212868   3.269   2.823  15.526  1.0286 -0.8287 -0.1282
  877MPD2    H312869   3.128   2.788  15.330  0.6384 -1.7346  0.2602
  877MPD2     N12870   3.449   2.920  15.042  0.0143 -0.6419 -0.3611
  877MPD2    H512871   3.409   2.864  14.967 -1.0445 -0.7127  0.2635
  877MPD2    N112872   3.516   2.940  15.526  1.1008  0.3358 -0.1492
  877MPD2    H712873   3.608   2.976  15.503  1.0450  0.7742  0.3051
  878MPD2     C12874   3.192   2.331  12.813 -0.4298  0.8008  0.7414
  878MPD2    C112875   3.134   2.449  12.843  0.6329 -0.1852 -0.1074
  878MPD2    C212876   3.177   2.528  12.948  0.1207  0.0542 -0.5135
  878MPD2    C312877   3.280   2.485  13.033 -0.4030 -0.5159 -0.2079
  878MPD2    C412878   3.351   2.375  12.986  0.0132 -0.7605  0.2282
  878MPD2    C512879   3.304   2.299  12.885  0.3764  0.8531  0.2922
  878MPD2     H12880   3.122   2.620  12.966  0.9361  0.2312  1.1049
  878MPD2    H112881   3.438   2.333  13.034  0.2414  0.3492  0.7880
  878MPD2    H212882   3.165   2.270  12.728 -2.2170  1.2459  0.9861
  878MPD2    H312883   3.363   2.208  12.882  1.8939  1.8841 -1.4132
  878MPD2     N12884   3.310   2.555  13.149 -0.4562  0.5902  0.3340
  878MPD2    H512885   3.272   2.649  13.149 -0.5228  0.5594  2.2275
  878MPD2    N112886   3.021   2.481  12.766 -0.1856 -0.1598 -0.5952
  878MPD2    H712887   2.999   2.422  12.687  1.1030  0.0979 -1.1521
  879MPD2     C12888   3.529   3.967  17.257  0.6737 -0.5558 -0.3765
  879MPD2    C112889   3.572   3.858  17.329 -0.5853  0.2103  0.4330
  879MPD2    C212890   3.554   3.736  17.262 -0.5821 -0.5791  0.1449
  879MPD2    C312891   3.489   3.727  17.141  0.1046 -0.1000  0.1408
  879MPD2    C412892   3.432   3.839  17.090 -0.2592  0.6012 -0.0938
  879MPD2    C512893   3.462   3.962  17.139  0.0160  0.2139  0.0640
  879MPD2     H12894   3.588   3.640  17.300 -0.5236 -1.1308 -1.3121
  879MPD2    H112895   3.368   3.829  17.002 -0.3567 -1.4399  0.1968
  879MPD2    H212896   3.537   4.063  17.308  0.2595  0.0739 -1.5095
  879MPD2    H312897   3.416   4.052  17.100  1.5067  1.3026  0.8129
  879MPD2     N12898   3.481   3.607  17.065  0.3966  0.4376  0.4030
  879MPD2    H512899   3.440   3.618  16.973  1.2680 -1.1217 -0.1705
  879MPD2    N112900   3.623   3.871  17.457  1.3352 -0.4556  0.2052
  879MPD2    H712901   3.612   3.961  17.504 -1.1681 -0.3425 -0.5748
  880MPD2     C12902   0.325   0.700   1.294 -0.5300  0.3363  0.2164
  880MPD2    C112903   0.450   0.732   1.238  0.3332 -0.5152  0.4290
  880MPD2    C212904   0.549   0.642   1.243 -0.1640 -0.1934 -0.2296
  880MPD2    C312905   0.534   0.518   1.304  0.6243  0.2395 -0.0519
  880MPD2    C412906   0.408   0.480   1.353 -0.2388  0.0839 -0.3099
  880MPD2    C512907   0.306   0.575   1.345  0.5346  0.7060 -0.5024
  880MPD2     H12908   0.648   0.684   1.225 -0.0847 -0.8752 -1.4092
  880MPD2    H112909   0.399   0.376   1.383  1.4646  0.4664  1.4978
  880MPD2    H212910   0.251   0.779   1.290  0.4086  1.2556  1.2428
  880MPD2    H312911   0.203   0.553   1.369  0.1688  2.7809 -0.1377
  880MPD2     N12912   0.643   0.427   1.321 -0.0190 -0.1529 -0.4988
  880MPD2    H512913   0.727   0.443   1.266 -1.4464  0.3765 -2.5208
  880MPD2    N112914   0.465   0.861   1.184  0.1096  0.6188 -0.2549
  880MPD2    H712915   0.392   0.931   1.194  0.8329  1.2007  0.9533
  881MPD2     C12916   0.304   0.854   0.296  0.0583  0.0309  0.0703
  881MPD2    C112917   0.335   0.987   0.297 -0.2107  0.2188  0.5190
  881MPD2    C212918   0.372   1.040   0.419  0.3949  0.4197  0.0522
  881MPD2    C312919   0.348   0.969   0.537  0.8622  0.0842  0.6253
  881MPD2    C412920   0.300   0.840   0.527  0.2886 -0.4555  1.0035
  881MPD2    C512921   0.259   0.791   0.405 -0.3898  0.0810  0.4654
  881MPD2     H12922   0.419   1.137   0.422 -1.8317  1.4828 -0.1375
  881MPD2    H112923   0.288   0.783   0.619 -0.6411 -2.8570 -0.6073
  881MPD2    H212924   0.291   0.804   0.201 -0.9708  0.4633 -0.0182
  881MPD2    H312925   0.239   0.684   0.398  0.5913 -0.0228 -0.8256
  881MPD2     N12926   0.358   1.015   0.674  0.7477  0.2889 -0.4206
  881MPD2    H512927   0.349   0.944   0.746  3.8090 -0.8452 -1.1253
  881MPD2    N112928   0.369   1.042   0.171 -0.2328 -0.1337  0.1293
  881MPD2    H712929   0.343   0.983   0.092 -0.6606 -1.9642  1.6375
  882MPD2     C12930   3.478   3.514  14.636  0.2787  0.0071 -0.1243
  882MPD2    C112931   3.461   3.385  14.589  0.9243  0.4529 -0.3930
  882MPD2    C212932   3.340   3.351  14.530 -0.1289 -0.6478 -1.2491
  882MPD2    C312933   3.233   3.433  14.515  0.2556 -0.4326 -0.4640
  882MPD2    C412934   3.246   3.568  14.557 -0.4585 -0.0043  1.0080
  882MPD2    C512935   3.369   3.602  14.615 -0.0331 -0.1015 -0.6225
  882MPD2     H12936   3.329   3.247  14.505 -1.6115 -0.6011 -0.7754
  882MPD2    H112937   3.168   3.642  14.541 -1.4582 -1.2643  0.1098
  882MPD2    H212938   3.564   3.551  14.689 -0.4347 -0.3534  1.2773
  882MPD2    H312939   3.392   3.704  14.640  1.0493 -0.0915 -1.6457
  882MPD2     N12940   3.106   3.392  14.465 -0.1605  0.3072 -0.0018
  882MPD2    H512941   3.027   3.456  14.473 -1.0318 -1.0034  1.9874
  882MPD2    N112942   3.563   3.287  14.619  0.6695 -0.6656  0.1894
  882MPD2    H712943   3.633   3.314  14.688 -0.4888  1.6393  0.4566
  883MPD2     C12944   0.489   2.858  16.654  0.4810 -0.1801  0.2326
  883MPD2    C112945   0.556   2.896  16.539  0.5729  0.2202  0.2652
  883MPD2    C212946   0.691   2.923  16.544 -0.0851 -0.3095  0.3776
  883MPD2    C312947   0.757   2.906  16.669 -0.7147  1.0501 -0.4230
  883MPD2    C412948   0.689   2.847  16.778 -0.5826  0.0897 -0.0831
  883MPD2    C512949   0.554   2.837  16.774 -0.3371  0.2931  0.4574
  883MPD2     H12950   0.745   2.955  16.455  0.9710 -1.5992  0.5549
  883MPD2    H112951   0.736   2.829  16.874 -2.5157  0.1973  0.9023
  883MPD2    H212952   0.381   2.857  16.653  0.5053 -1.0983 -0.8783
  883MPD2    H312953   0.491   2.803  16.855 -0.5710 -0.0873  0.1150
  883MPD2     N12954   0.888   2.950  16.667  0.2056 -0.0406  0.3874
  883MPD2    H512955   0.918   2.988  16.578  1.5347  0.2922  0.9808
  883MPD2    N112956   0.484   2.941  16.421 -0.0507  0.0887 -0.5036
  883MPD2    H712957   0.534   3.003  16.357  3.6837 -2.1987  0.1742
  884MPD2     C12958   2.503   3.359  15.445 -0.6500  0.2403 -0.2869
  884MPD2    C112959   2.487   3.442  15.340  0.3021 -0.1920 -0.4358
  884MPD2    C212960   2.377   3.527  15.344  0.2797 -0.9964  0.2875
  884MPD2    C312961   2.287   3.526  15.448 -0.1149  0.0847  0.3141
  884MPD2    C412962   2.306   3.434  15.551 -0.4068 -0.8309 -0.1032
  884MPD2    C512963   2.415   3.352  15.547  0.1347  0.2132  0.0618
  884MPD2     H12964   2.357   3.598  15.265  1.0878  0.9943  1.8667
  884MPD2    H112965   2.232   3.438  15.630  0.2714 -0.3045  0.5074
  884MPD2    H212966   2.584   3.288  15.442  0.9122  1.9445  1.5050
  884MPD2    H312967   2.428   3.291  15.636 -3.8231  1.4625  1.4901
  884MPD2     N12968   2.185   3.623  15.457 -0.5511  0.0137  0.6424
  884MPD2    H512969   2.180   3.689  15.381 -1.6463  0.1915  0.8754
  884MPD2    N112970   2.575   3.454  15.230 -0.5687 -0.4791 -0.0283
  884MPD2    H712971   2.542   3.508  15.150 -2.2593  0.4157  1.2751
  885MPD2     C12972   0.725   3.354   0.201 -0.4561 -0.2510  0.0461
  885MPD2    C112973   0.766   3.466   0.270 -0.4363 -0.1515 -0.0466
  885MPD2    C212974   0.741   3.588   0.212 -0.0923 -0.3185 -0.2581
  885MPD2    C312975   0.679   3.596   0.087 -0.2725  0.2802  0.3910
  885MPD2    C412976   0.636   3.482   0.021 -0.2314  0.0133 -0.2945
  885MPD2    C512977   0.661   3.363   0.085 -0.6802  0.2836  0.4394
  885MPD2     H12978   0.771   3.682   0.256 -2.2561  1.1207 -1.8750
  885MPD2    H112979   0.581   3.480  17.626 -0.2703 -1.1222 -0.2461
  885MPD2    H212980   0.726   3.256   0.247  1.4173 -0.9873 -1.5608
  885MPD2    H312981   0.631   3.272   0.034 -1.1087  0.4533  0.3847
  885MPD2     N12982   0.658   3.720   0.031  0.2594 -0.2482 -0.0371
  885MPD2    H512983   0.702   3.799   0.077  1.4007 -0.4794 -0.7261
  885MPD2    N112984   0.822   3.461   0.395 -0.2446  0.3085 -0.3787
  885MPD2    H712985   0.839   3.366   0.427  0.7708  0.8712  0.7686
  886MPD2     C12986   2.128   1.901  15.471 -0.0073 -0.5718  0.4912
  886MPD2    C112987   2.198   1.999  15.540  0.1918  0.0372 -0.8647
  886MPD2    C212988   2.156   2.133  15.545  0.3427 -0.6142 -0.3761
  886MPD2    C312989   2.033   2.156  15.471 -0.3400  0.4463  0.6833
  886MPD2    C412990   1.968   2.055  15.404  0.5903  0.3718 -0.8402
  886MPD2    C512991   2.009   1.930  15.410 -0.2403 -0.4504  0.0967
  886MPD2     H12992   2.219   2.207  15.593 -0.7020 -0.4497  0.7467
  886MPD2    H112993   1.878   2.075  15.348 -0.4295 -1.0679  0.2771
  886MPD2    H212994   2.157   1.797  15.465  2.0719  0.2303 -3.1717
  886MPD2    H312995   1.947   1.854  15.364  0.4178 -1.5563  1.0177
  886MPD2     N12996   1.982   2.288  15.456 -0.0204  0.2121  0.0698
  886MPD2    H512997   1.897   2.298  15.402  0.6400 -1.8832 -1.3363
  886MPD2    N112998   2.314   1.983  15.610  0.3757 -0.4514  0.5118
  886MPD2    H712999   2.355   2.063  15.657 -0.2790  0.3136 -0.2212
  887MPD2     C13000   2.956   2.236  15.747  0.7465  0.5450  0.0762
  887MPD2    C113001   2.821   2.285  15.758 -0.2133  0.1564 -0.3983
  887MPD2    C213002   2.797   2.422  15.730 -0.3137  0.1403  0.0481
  887MPD2    C313003   2.894   2.507  15.688  0.5330 -0.2578 -0.2186
  887MPD2    C413004   3.014   2.450  15.653  0.1028 -0.2460 -0.0446
  887MPD2    C513005   3.043   2.321  15.683 -0.1381  0.2136  0.0951
  887MPD2     H13006   2.697   2.463  15.738  0.0354  0.8152  1.1098
  887MPD2    H113007   3.099   2.501  15.609 -0.6420  0.6021 -0.5109
  887MPD2    H213008   2.980   2.132  15.764 -3.2288 -0.2897  0.4579
  887MPD2    H313009   3.143   2.286  15.659 -0.3976 -1.5998  1.6414
  887MPD2     N13010   2.865   2.645  15.675 -0.1812 -0.3674  0.1085
  887MPD2    H513011   2.773   2.675  15.706  0.6795  0.7432  1.5855
  887MPD2    N113012   2.718   2.198  15.815  0.4621 -0.1631  0.6760
  887MPD2    H713013   2.631   2.250  15.820  0.8210  0.7562 -2.5534
  888MPD2     C13014   4.587   2.512  15.010 -0.4022  0.1173  0.5275
  888MPD2    C113015   4.555   2.509  15.145 -0.6275  0.1885  0.5103
  888MPD2    C213016   4.603   2.597  15.242  0.7156  0.0477 -0.0300
  888MPD2    C313017   4.659   2.710  15.192  0.3992 -0.7944  0.5692
  888MPD2    C413018   4.687   2.715  15.054  0.0597  0.5556  0.2091
  888MPD2    C513019   4.661   2.617  14.971  0.0038 -0.2937 -0.7706
  888MPD2     H13020   4.588   2.593  15.349 -0.9637  0.8624 -0.2378
  888MPD2    H113021   0.016   2.800  15.013  2.7641 -1.1834  0.0845
  888MPD2    H213022   4.569   2.426  14.945  3.9815  1.2055 -2.1175
  888MPD2    H313023   4.691   2.611  14.867  1.1756 -1.6357 -0.3561
  888MPD2     N13024   4.685   2.820  15.283 -0.4745  0.0384  0.8263
  888MPD2    H513025   4.696   2.799  15.382 -1.4833 -0.1878  0.8864
  888MPD2    N113026   4.467   2.409  15.196 -0.1951 -0.4618 -0.0258
  888MPD2    H713027   4.458   2.401  15.296  1.0675  2.6624  0.3309
  889MPD2     C13028   3.587   2.084  12.781  0.3055  0.2730  0.4382
  889MPD2    C113029   3.670   2.041  12.882 -0.4229 -0.4098  0.4538
  889MPD2    C213030   3.704   2.140  12.979 -0.3388 -0.0582 -0.4055
  889MPD2    C313031   3.695   2.280  12.955 -0.9960  0.1060 -0.2990
  889MPD2    C413032   3.632   2.315  12.840  0.5378  0.4013  0.6846
  889MPD2    C513033   3.581   2.221  12.757 -0.6044  0.0050  0.3170
  889MPD2     H13034   3.750   2.114  13.073 -0.7591  1.3821  0.1949
  889MPD2    H113035   3.628   2.422  12.824 -1.1798  0.1859 -0.2536
  889MPD2    H213036   3.557   2.013  12.705  0.0119  0.3671  0.4643
  889MPD2    H313037   3.527   2.249  12.667  2.0201  0.3873 -1.1241
  889MPD2     N13038   3.737   2.375  13.052 -0.2792 -0.9281  0.2052
  889MPD2    H513039   3.744   2.342  13.148  0.5663  2.1063  1.1887
  889MPD2    N113040   3.673   1.909  12.933 -0.5029  0.2309 -0.0203
  889MPD2    H713041   3.733   1.898  13.014 -2.0063  1.6177  1.2788
  890MPD2     C13042   3.401   3.913  14.858 -0.3403  0.1024 -0.0484
  890MPD2    C113043   3.517   3.982  14.890  0.4466  0.8940  0.4349
  890MPD2    C213044   3.608   3.925  14.982  0.9451  0.3193 -0.4030
  890MPD2    C313045   3.590   3.792  15.015 -0.1870  0.4734  0.5022
  890MPD2    C413046   3.472   3.723  14.973  0.4199  0.3157  0.1900
  890MPD2    C513047   3.378   3.788  14.907  0.2382  0.3079 -0.0942
  890MPD2     H13048   3.694   3.981  15.018  0.0556  1.5036 -0.1317
  890MPD2    H113049   3.454   3.620  15.003  3.0274 -0.2349 -0.1073
  890MPD2    H213050   3.330   3.960  14.791 -1.7491 -0.6108  0.9542
  890MPD2    H313051   3.289   3.730  14.887 -1.1094  1.4446  2.5912
  890MPD2     N13052   3.679   3.728  15.106  0.2289 -0.3498 -0.3452
  890MPD2    H513053   3.747   3.787  15.154 -0.3162 -0.9942  1.2147
  890MPD2    N113054   3.522   4.112  14.840 -0.6972 -0.5056 -0.2229
  890MPD2    H713055   3.445   4.146  14.783 -0.9080 -0.2341  0.2232
  891MPD2     C13056   1.641   2.884  16.688  0.5893 -0.0988  0.2972
  891MPD2    C113057   1.570   2.817  16.788 -0.5679  0.3931 -0.4050
  891MPD2    C213058   1.633   2.790  16.910 -0.1270  0.7847  0.3649
  891MPD2    C313059   1.772   2.812  16.917 -0.0532 -0.2012 -0.3752
  891MPD2    C413060   1.843   2.874  16.814  0.4465  0.1314 -0.7239
  891MPD2    C513061   1.775   2.914  16.704  0.0422 -0.3993  0.4057
  891MPD2     H13062   1.582   2.735  16.988  1.8537 -1.0131  0.3920
  891MPD2    H113063   1.949   2.895  16.826 -0.3206  2.2523  2.2156
  891MPD2    H213064   1.602   2.906  16.590  0.4020  1.9599  0.8416
  891MPD2    H313065   1.823   2.965  16.621 -0.7218 -0.6369 -0.1797
  891MPD2     N13066   1.829   2.772  17.037 -0.5119 -0.0051  0.8468
  891MPD2    H513067   1.765   2.744  17.110 -1.3884 -0.0760  0.0439
  891MPD2    N113068   1.441   2.773  16.759 -0.7896 -0.7237  0.1113
  891MPD2    H713069   1.414   2.786  16.662  0.4916 -0.2248 -0.1821
  892MPD2     C13070   2.531   3.105  15.043 -0.3443 -0.5046 -0.0862
  892MPD2    C113071   2.440   3.148  14.950  0.3188 -0.2460 -0.4924
  892MPD2    C213072   2.492   3.199  14.832  0.6611 -0.0600  0.0852
  892MPD2    C313073   2.629   3.204  14.817  0.0475 -0.0852  0.0163
  892MPD2    C413074   2.716   3.182  14.922  0.4363 -0.7104 -0.5644
  892MPD2    C513075   2.664   3.124  15.040 -0.5942 -1.0855 -0.0347
  892MPD2     H13076   2.427   3.230  14.751  1.5545  1.6615  0.0218
  892MPD2    H113077   2.823   3.188  14.913  0.2943  2.1094 -0.2486
  892MPD2    H213078   2.505   3.038  15.125 -0.9689 -0.8169 -0.5403
  892MPD2    H313079   2.733   3.086  15.115  2.1408  3.7064 -0.1574
  892MPD2     N13080   2.690   3.256  14.699 -0.7505  0.3766 -0.3932
  892MPD2    H513081   2.788   3.277  14.713 -0.6694 -0.8979  0.9726
  892MPD2    N113082   2.296   3.125  14.960  0.2898 -0.4915  0.3776
  892MPD2    H713083   2.254   3.137  14.868 -2.2159  1.2906  1.7529
  893MPD2     C13084   0.249   1.464   2.094 -0.8089  0.4476 -0.0077
  893MPD2    C113085   0.307   1.539   2.003  0.7362  0.1366 -0.1516
  893MPD2    C213086   0.324   1.669   2.030  0.2838  0.1414  0.3759
  893MPD2    C313087   0.278   1.721   2.154  0.5546  0.0076 -0.2634
  893MPD2    C413088   0.226   1.636   2.250  0.2846  0.4892 -0.3034
  893MPD2    C513089   0.217   1.503   2.223 -0.2414 -0.5289  0.7491
  893MPD2     H13090   0.377   1.732   1.959 -1.2930  0.4280 -0.5471
  893MPD2    H113091   0.202   1.666   2.352  3.4710 -1.4929  1.0217
  893MPD2    H213092   0.235   1.357   2.079  0.6796  0.2643 -0.0863
  893MPD2    H313093   0.175   1.432   2.293  1.2199 -2.1116  0.0082
  893MPD2     N13094   0.302   1.856   2.192  0.0485 -0.0629  0.1599
  893MPD2    H513095   0.258   1.878   2.281  0.7615  0.9374  0.2667
  893MPD2    N113096   0.350   1.482   1.877 -0.4588  0.1981 -0.1919
  893MPD2    H713097   0.361   1.382   1.889 -0.8401  0.0093 -1.4935
  894MPD2     C13098   2.010   3.809   1.392  0.2544 -0.5175  0.3475
  894MPD2    C113099   2.054   3.790   1.518 -0.0071  0.5306  0.3853
  894MPD2    C213100   2.163   3.872   1.558 -0.1972  0.6074  0.2691
  894MPD2    C313101   2.225   3.961   1.461  0.1300  0.5515 -0.1860
  894MPD2    C413102   2.176   3.982   1.339 -0.0444  0.2493 -1.1476
  894MPD2    C513103   2.066   3.908   1.303 -0.3433  0.0256 -0.5396
  894MPD2     H13104   2.212   3.855   1.653 -0.0098  0.7188  0.1929
  894MPD2    H113105   2.215   4.057   1.271  1.7443  1.0601  0.7752
  894MPD2    H213106   1.932   3.751   1.344 -1.6663  0.7516  1.8812
  894MPD2    H313107   2.032   3.916   1.201 -0.5977 -2.8205 -0.6614
  894MPD2     N13108   2.341   4.024   1.508 -0.2590 -0.0418 -0.2247
  894MPD2    H513109   2.373   3.991   1.598 -0.1124  0.6128 -0.0432
  894MPD2    N113110   2.011   3.678   1.602 -0.4688 -0.2674 -0.0373
  894MPD2    H713111   2.061   3.684   1.690 -1.3201 -1.5458  0.5245
  895MPD2     C13112   1.847   2.634  13.387  0.5461 -0.7139 -0.2367
  895MPD2    C113113   1.767   2.692  13.293  0.1912  0.1003  1.4267
  895MPD2    C213114   1.769   2.630  13.169 -0.3734 -0.1735 -0.6011
  895MPD2    C313115   1.831   2.513  13.140 -0.0171 -0.0534  1.0472
  895MPD2    C413116   1.903   2.454  13.244  0.4428  0.3533  0.2918
  895MPD2    C513117   1.913   2.518  13.366 -0.2307  0.4587 -0.2783
  895MPD2     H13118   1.691   2.662  13.100 -0.3633  0.6539 -0.2243
  895MPD2    H113119   1.946   2.355  13.234 -0.9952  0.0113 -2.5073
  895MPD2    H213120   1.845   2.678  13.486 -0.9845  0.7032 -0.8943
  895MPD2    H313121   1.966   2.467  13.446  1.8560  0.7120 -1.5210
  895MPD2     N13122   1.823   2.450  13.012  0.0266  0.2212  0.1475
  895MPD2    H513123   1.862   2.356  13.011 -1.4169 -0.3736 -1.8886
  895MPD2    N113124   1.701   2.819  13.301 -0.0425 -0.0743  0.2050
  895MPD2    H713125   1.641   2.848  13.225 -0.3722 -0.4984  0.3048
  896MPD2     C13126   3.925   4.514   2.794 -0.5484  0.0891  0.1932
  896MPD2    C113127   3.940   4.515   2.656  0.4163 -0.4403  0.2270
  896MPD2    C213128   3.828   4.489   2.578 -0.1728  0.5939  0.4832
  896MPD2    C313129   3.710   4.445   2.635  0.3525 -0.5222  0.0296
  896MPD2    C413130   3.695   4.442   2.773  0.5394  0.0385  0.3033
  896MPD2    C513131   3.810   4.468   2.851  0.1219 -0.1627  0.1710
  896MPD2     H13132   3.833   4.492   2.470  1.0254  0.6272  0.5362
  896MPD2    H113133   3.601   4.426   2.825  0.2076  0.4489 -0.1673
  896MPD2    H213134   4.007   4.539   2.861  0.1051  0.1359 -0.6336
  896MPD2    H313135   3.810   4.462   2.959  0.7949  0.0285  0.1798
  896MPD2     N13136   3.605   4.406   2.545 -0.0696  0.1072 -0.0596
  896MPD2    H513137   3.630   4.409   2.447 -1.5075 -0.0477 -0.4292
  896MPD2    N113138   4.066   4.564   2.602  0.0467 -0.3364 -0.4471
  896MPD2    H713139   4.147   4.571   2.662 -0.9962  1.1872  0.7914
  897MPD2     C13140   4.679   2.295  10.764  0.3128  0.3412  0.2817
  897MPD2    C113141   4.565   2.333  10.691  0.5892 -0.2213  1.2330
  897MPD2    C213142   4.455   2.252  10.700 -0.4334  0.0603  0.7415
  897MPD2    C313143   4.444   2.146  10.795  0.4685  0.5759 -0.0768
  897MPD2    C413144   4.557   2.109  10.865 -0.0330 -0.3428 -0.3844
  897MPD2    C513145   4.673   2.178  10.840 -0.3446 -0.4784  0.0239
  897MPD2     H13146   4.359   2.284  10.662  0.8460  0.6482 -2.0178
  897MPD2    H113147   4.562   2.023  10.931 -0.4866  0.3720  0.5818
  897MPD2    H213148   0.051   2.344  10.753  0.2250  0.5929  0.6353
  897MPD2    H313149   0.036   2.155  10.901 -0.0261 -1.2314 -0.7139
  897MPD2     N13150   4.317   2.095  10.826  0.0320 -0.5222 -0.9770
  897MPD2    H513151   4.244   2.131  10.765 -0.6324  0.9720  0.7005
  897MPD2    N113152   4.545   2.456  10.622 -0.4542 -0.4432  0.4612
  897MPD2    H713153   4.450   2.464  10.588 -0.1417 -0.7590 -0.4850
  898MPD2     C13154   2.272   2.639   0.026 -0.2363  0.5803 -0.8766
  898MPD2    C113155   2.389   2.715   0.015  0.0829 -0.0204  0.4861
  898MPD2    C213156   2.392   2.823  17.622  0.3558  0.3911 -0.1199
  898MPD2    C313157   2.276   2.857  17.548  0.1108  0.0913 -0.4152
  898MPD2    C413158   2.162   2.783  17.565 -0.3150  0.5141  0.3897
  898MPD2    C513159   2.162   2.678  17.652  0.2118 -0.2514 -0.5904
  898MPD2     H13160   2.481   2.884  17.613  1.0763 -0.8103 -1.0333
  898MPD2    H113161   2.074   2.795  17.504  0.4348  0.3835 -0.7258
  898MPD2    H213162   2.254   2.567   0.105  0.4921  0.4370 -0.8402
  898MPD2    H313163   2.074   2.616  17.661 -0.4971  0.7491 -0.6828
  898MPD2     N13164   2.282   2.971  17.469 -0.0182 -0.2796 -0.0151
  898MPD2    H513165   2.373   3.014  17.454  0.6883 -1.3824  1.1326
  898MPD2    N113166   2.507   2.676   0.082  0.4714 -0.0441  0.8112
  898MPD2    H713167   2.589   2.736   0.076  0.1719  0.0623 -1.9521
  899MPD2     C13168   3.375   3.129   0.407  0.0406  0.0997  0.6000
  899MPD2    C113169   3.250   3.160   0.364  0.8102 -0.3582 -0.5897
  899MPD2    C213170   3.139   3.110   0.433  0.5275  0.1824 -0.7137
  899MPD2    C313171   3.145   3.025   0.537 -0.0630 -0.2538 -0.2349
  899MPD2    C413172   3.274   2.974   0.563  0.0097  0.1560  0.1576
  899MPD2    C513173   3.387   3.026   0.499 -1.0741  0.3553 -0.2484
  899MPD2     H13174   3.043   3.136   0.391  0.6873 -0.6880 -1.6026
  899MPD2    H113175   3.296   2.901   0.639  1.4995 -0.5543 -0.9531
  899MPD2    H213176   3.456   3.185   0.361  2.3620 -2.8605  1.0179
  899MPD2    H313177   3.481   2.981   0.529 -1.7255 -1.4381 -0.9069
  899MPD2     N13178   3.035   2.983   0.614  0.0772 -0.0181  0.8953
  899MPD2    H513179   3.055   2.915   0.686  0.6216 -1.4456 -0.6003
  899MPD2    N113180   3.245   3.253   0.259  0.0163 -0.3679 -0.7316
  899MPD2    H713181   3.332   3.282   0.216 -0.6354  0.8970 -1.1929
  900MPD2     C13182   2.246   0.243  12.330  0.3026 -0.2148  0.1291
  900MPD2    C113183   2.138   0.152  12.316  0.2778 -0.1424 -0.2266
  900MPD2    C213184   2.031   0.173  12.235  0.1338 -0.0675  0.0319
  900MPD2    C313185   2.029   0.280  12.153 -0.5390  0.0864 -0.6336
  900MPD2    C413186   2.133   0.373  12.167  0.9769 -0.2353  0.1877
  900MPD2    C513187   2.238   0.364  12.260 -0.3921 -0.1802  0.0451
  900MPD2     H13188   1.957   0.096  12.216 -0.1046 -0.0094  0.7367
  900MPD2    H113189   2.135   0.462  12.106  0.2433 -0.8662 -0.7681
  900MPD2    H213190   2.318   0.222  12.408 -0.8061  2.6677  1.9330
  900MPD2    H313191   2.310   0.441  12.282 -2.2638  0.7505  2.9503
  900MPD2     N13192   1.929   0.310  12.055  0.3486  0.1683 -0.1247
  900MPD2    H513193   1.938   0.403  12.016 -2.7800  0.2866 -0.6278
  900MPD2    N113194   2.158   0.028  12.389 -1.2175 -0.0102  1.2030
  900MPD2    H713195   2.230   0.034  12.461 -0.4308 -0.5770  0.4595
  901MPD2     C13196   1.707   3.833  12.401 -0.7404 -0.0444  0.3447
  901MPD2    C113197   1.840   3.827  12.424 -0.6339  0.3550 -0.1943
  901MPD2    C213198   1.910   3.936  12.462 -0.2996  0.9170  0.4342
  901MPD2    C313199   1.850   4.053  12.447  0.6927 -0.1683 -0.1019
  901MPD2    C413200   1.714   4.060  12.418 -0.7604 -0.6420  0.4532
  901MPD2    C513201   1.637   3.948  12.403  0.3386  0.1649  0.3993
  901MPD2     H13202   2.017   3.919  12.474 -0.5196 -1.2639 -0.5243
  901MPD2    H113203   1.652   4.148  12.405  0.6221  0.0791 -1.2148
  901MPD2    H213204   1.647   3.745  12.379 -1.7226  1.3630 -2.5473
  901MPD2    H313205   1.530   3.959  12.387  0.8035  1.2835 -1.9452
  901MPD2     N13206   1.922   4.169  12.475  0.5845  0.1110 -0.2043
  901MPD2    H513207   1.880   4.254  12.439 -0.6893  0.4939  2.1797
  901MPD2    N113208   1.904   3.703  12.428  0.4976  0.5067  0.3962
  901MPD2    H713209   1.995   3.705  12.472  0.2844 -0.7960  0.9140
  902MPD2     C13210   1.218   2.765  12.336  0.5286 -0.5889  0.2078
  902MPD2    C113211   1.158   2.852  12.245 -0.2146  0.0501 -0.2115
  902MPD2    C213212   1.164   2.803  12.117 -0.0146 -0.2103  0.0493
  902MPD2    C313213   1.234   2.690  12.075  0.6344 -0.0392  0.7334
  902MPD2    C413214   1.273   2.600  12.174  0.5861  0.3628  0.3096
  902MPD2    C513215   1.266   2.644  12.300 -0.8927 -0.6352  0.1447
  902MPD2     H13216   1.101   2.853  12.044  1.1355  0.1757 -0.6871
  902MPD2    H113217   1.319   2.504  12.151 -2.1366 -0.7140 -0.6114
  902MPD2    H213218   1.210   2.784  12.442 -0.1780  1.5597 -0.2330
  902MPD2    H313219   1.296   2.568  12.372  2.0776  0.1606 -0.2753
  902MPD2     N13220   1.232   2.652  11.941  0.0208 -0.0846 -0.0766
  902MPD2    H513221   1.249   2.554  11.920 -0.0204 -0.0052 -0.4894
  902MPD2    N113222   1.099   2.973  12.283 -0.5891 -0.4645 -0.6613
  902MPD2    H713223   1.103   3.004  12.380 -0.6082  1.0100 -1.1377
  903MPD2     C13224   0.695   3.033  11.453 -0.9300 -1.0455  0.8822
  903MPD2    C113225   0.699   2.953  11.564 -0.5282 -0.2709  0.1142
  903MPD2    C213226   0.614   2.984  11.667  0.0750 -0.5285 -0.0961
  903MPD2    C313227   0.527   3.080  11.674  0.4927 -0.5271 -0.1962
  903MPD2    C413228   0.517   3.156  11.553  0.3234 -1.0851 -0.4223
  903MPD2    C513229   0.590   3.129  11.444 -0.0046  0.0134 -0.1589
  903MPD2     H13230   0.618   2.927  11.759 -3.0233  0.4624  0.6460
  903MPD2    H113231   0.439   3.230  11.548 -0.0522 -1.4196  0.5149
  903MPD2    H213232   0.756   3.021  11.365 -0.0447 -0.1609  1.3786
  903MPD2    H313233   0.585   3.187  11.353 -2.7983 -1.7474 -1.1021
  903MPD2     N13234   0.459   3.093  11.799  0.6324  0.5884  0.2432
  903MPD2    H513235   0.481   3.019  11.865 -0.8867  1.1143  1.3523
  903MPD2    N113236   0.804   2.859  11.590 -0.5801 -0.5471 -0.4483
  903MPD2    H713237   0.811   2.816  11.682  1.1984 -1.8601 -1.1885
  904MPD2     C13238   1.944   1.984  13.498 -0.9092 -0.6057 -0.2037
  904MPD2    C113239   1.880   2.063  13.589 -0.0208  0.4823 -0.0172
  904MPD2    C213240   1.900   2.040  13.721 -0.3400  0.6796  0.4478
  904MPD2    C313241   1.985   1.940  13.773  0.0990 -0.6904  0.5637
  904MPD2    C413242   2.054   1.864  13.684 -0.5161  0.4066 -0.7370
  904MPD2    C513243   2.036   1.891  13.549  0.5017 -0.4213  0.6287
  904MPD2     H13244   1.844   2.100  13.792  1.2506  0.7274  1.6678
  904MPD2    H113245   2.121   1.784  13.717 -1.3072 -0.0628 -0.2781
  904MPD2    H213246   1.932   1.990  13.391 -1.9637 -0.0420 -0.0602
  904MPD2    H313247   2.080   1.820  13.480 -1.4677 -1.1776  0.1666
  904MPD2     N13248   1.984   1.924  13.915  0.0955  0.2317 -0.3012
  904MPD2    H513249   1.929   1.991  13.968  1.5331  1.7681 -0.7338
  904MPD2    N113250   1.786   2.157  13.550 -0.3222  0.0442 -0.0818
  904MPD2    H713251   1.744   2.208  13.627 -1.1727 -1.9485  0.7554
  905MPD2     C13252   1.061   2.356  13.088 -0.1259 -0.0264  0.0949
  905MPD2    C113253   1.193   2.395  13.078  0.0088 -0.3044 -0.3824
  905MPD2    C213254   1.247   2.433  12.958 -0.2332  0.1004 -0.4702
  905MPD2    C313255   1.173   2.411  12.842  0.2710  0.1114  0.7861
  905MPD2    C413256   1.040   2.380  12.852 -0.0853  0.2097  0.3192
  905MPD2    C513257   0.987   2.365  12.977 -0.7130  0.5670 -0.1108
  905MPD2     H13258   1.349   2.466  12.941 -0.3456 -0.6703 -2.6958
  905MPD2    H113259   0.977   2.385  12.764 -0.4754  0.2865  0.6013
  905MPD2    H213260   1.018   2.341  13.187 -0.5884 -4.2508 -0.7473
  905MPD2    H313261   0.884   2.331  12.976  0.4115 -2.9409  0.8369
  905MPD2     N13262   1.237   2.428  12.712 -0.3893  0.0521  0.2869
  905MPD2    H513263   1.169   2.441  12.637 -0.0103  0.0847 -0.0473
  905MPD2    N113264   1.273   2.376  13.189 -0.5099 -0.2422 -0.1068
  905MPD2    H713265   1.220   2.332  13.264  0.2903 -0.7053  0.1816
  906MPD2     C13266   2.864   2.003  11.611 -0.1767 -0.9280 -0.4450
  906MPD2    C113267   2.869   1.928  11.489  0.2414  0.9555 -0.6010
  906MPD2    C213268   2.847   1.791  11.499 -0.6256  0.3814 -0.2107
  906MPD2    C313269   2.807   1.734  11.618  0.3459 -0.2456  0.1929
  906MPD2    C413270   2.802   1.811  11.726  0.0071 -0.5211  0.0712
  906MPD2    C513271   2.819   1.945  11.724 -0.2295 -0.0725 -0.1016
  906MPD2     H13272   2.836   1.729  11.411 -1.3185  1.7179 -1.0735
  906MPD2    H113273   2.762   1.784  11.824  1.4628 -1.6230  0.3543
  906MPD2    H213274   2.871   2.111  11.611  0.1598 -0.9467 -1.0453
  906MPD2    H313275   2.801   2.003  11.814  0.1902 -0.5241  0.2696
  906MPD2     N13276   2.764   1.597  11.613 -0.1011 -0.2416 -0.3178
  906MPD2    H513277   2.783   1.557  11.521  0.8642 -0.2352 -0.1276
  906MPD2    N113278   2.894   1.981  11.360  0.2691 -0.1176 -0.5341
  906MPD2    H713279   2.899   1.920  11.279  2.1096  0.2159 -0.6785
  907MPD2     C13280   2.178   1.401  15.654 -0.7154 -0.0506 -0.5904
  907MPD2    C113281   2.237   1.285  15.686  0.9443  0.2669  0.2797
  907MPD2    C213282   2.272   1.262  15.812 -0.5218  0.0983  0.4147
  907MPD2    C313283   2.253   1.358  15.912  0.1076  0.3571  0.7003
  907MPD2    C413284   2.195   1.477  15.879  0.7158  0.2816  0.1713
  907MPD2    C513285   2.155   1.500  15.750 -0.3310 -0.0827 -0.0036
  907MPD2     H13286   2.321   1.169  15.838 -1.6916 -0.8103 -0.5593
  907MPD2    H113287   2.178   1.561  15.945  1.1011  0.4625  0.0410
  907MPD2    H213288   2.134   1.419  15.556 -1.4725  0.4472 -0.1557
  907MPD2    H313289   2.100   1.590  15.723 -0.8920  0.1113  1.7538
  907MPD2     N13290   2.289   1.331  16.047  0.4719  0.0674  0.1088
  907MPD2    H513291   2.329   1.240  16.067  0.9047 -0.0662 -1.3450
  907MPD2    N113292   2.246   1.178  15.591 -0.3174 -0.2102 -0.3677
  907MPD2    H713293   2.294   1.092  15.617 -0.0392  0.5961  1.8007
  908MPD2     C13294   4.298   2.502   9.759  0.0460 -0.5200  0.4975
  908MPD2    C113295   4.280   2.423   9.871  0.2374  0.4523 -0.7233
  908MPD2    C213296   4.332   2.462   9.996 -0.7052 -0.5323 -0.2594
  908MPD2    C313297   4.419   2.564  10.011 -0.3046 -0.4871 -0.2086
  908MPD2    C413298   4.439   2.639   9.895 -0.4618  0.1528 -0.0715
  908MPD2    C513299   4.386   2.604   9.771 -0.5376 -0.1741 -0.1565
  908MPD2     H13300   4.299   2.402  10.079  0.4765  0.1170  0.6775
  908MPD2    H113301   4.502   2.728   9.894 -1.5724  0.9638  1.6439
  908MPD2    H213302   4.250   2.475   9.666 -0.5826  0.0376  0.6565
  908MPD2    H313303   4.400   2.667   9.684 -1.3089  1.9763  1.2741
  908MPD2     N13304   4.456   2.613  10.133 -0.0516  0.0695 -0.3722
  908MPD2    H513305   4.405   2.561  10.204  2.0670  0.0737  1.1645
  908MPD2    N113306   4.197   2.305   9.852 -0.6045  0.0609  0.2227
  908MPD2    H713307   4.146   2.286   9.767  0.0908 -1.2690  0.1036
  909MPD2     C13308   0.015   4.480  11.927  1.0332  0.2247 -0.2369
  909MPD2    C113309   4.686   4.599  11.884 -0.3443  0.5040 -0.0057
  909MPD2    C213310   4.599   4.672  11.964 -0.0213  0.2254  0.2734
  909MPD2    C313311   4.558   4.617  12.088  0.5060 -0.3803  0.8035
  909MPD2    C413312   4.607   4.491  12.124  0.3773  0.2218  0.9056
  909MPD2    C513313   4.691   4.423  12.043  0.0233 -0.2121  0.3676
  909MPD2     H13314   4.564   0.044  11.929 -0.4884 -0.3424 -0.8143
  909MPD2    H113315   4.567   4.440  12.211  1.6074  1.1059  2.0010
  909MPD2    H213316   0.090   4.424  11.872  1.1764 -1.6002  1.8082
  909MPD2    H313317   4.711   4.318  12.057  2.9204  0.3846  0.6402
  909MPD2     N13318   4.459   4.684  12.162 -0.1593 -0.4594  0.1359
  909MPD2    H513319   4.410   0.034  12.114 -1.9870  1.0686  4.3769
  909MPD2    N113320   4.722   4.662  11.763 -0.3041 -0.4052  0.0862
  909MPD2    H713321   4.686   0.032  11.748 -1.1644 -0.6912  0.3602
  910MPD2     C13322   1.331   2.010  15.880  0.1349 -0.4528 -0.3643
  910MPD2    C113323   1.439   1.959  15.810 -0.3891 -0.5513 -0.3118
  910MPD2    C213324   1.448   1.959  15.674  0.7094 -0.0459 -0.1029
  910MPD2    C313325   1.338   2.016  15.604  0.3349 -0.2481  0.3679
  910MPD2    C413326   1.226   2.055  15.670  0.1220 -0.0336 -0.9495
  910MPD2    C513327   1.223   2.055  15.809 -0.9630  0.4802 -0.8285
  910MPD2     H13328   1.539   1.923  15.628  2.3125  1.0475  2.2169
  910MPD2    H113329   1.142   2.084  15.608 -0.7653  1.5275  0.9717
  910MPD2    H213330   1.325   2.025  15.987  0.3753  0.5412 -0.4935
  910MPD2    H313331   1.135   2.096  15.857 -0.6070  0.3729 -0.0975
  910MPD2     N13332   1.344   2.020  15.464 -0.4557  1.0472  0.8770
  910MPD2    H513333   1.275   2.080  15.421  0.4146  1.5423  0.1567
  910MPD2    N113334   1.541   1.896  15.886  0.3811 -0.4457  1.0050
  910MPD2    H713335   1.614   1.857  15.827 -1.7083 -2.2254 -0.3577
  911MPD2     C13336   4.441   2.034  16.391  0.0538  0.1673 -0.0474
  911MPD2    C113337   4.466   2.152  16.454 -0.2646  0.4638 -0.9558
  911MPD2    C213338   4.363   2.230  16.504 -0.1944  0.5634  0.3134
  911MPD2    C313339   4.232   2.193  16.480  0.7059  0.5564  0.7128
  911MPD2    C413340   4.204   2.078  16.417 -0.6669  0.5487  0.0508
  911MPD2    C513341   4.307   1.998  16.376  0.3615 -0.3138 -0.2717
  911MPD2     H13342   4.395   2.327  16.540  0.0463  1.0721 -1.2309
  911MPD2    H113343   4.105   2.042  16.392 -0.1890  0.9565 -2.4151
  911MPD2    H213344   4.521   1.971  16.355  1.1990  0.9297  1.1612
  911MPD2    H313345   4.288   1.898  16.338 -1.6542  1.3352 -3.6033
  911MPD2     N13346   4.116   2.276  16.499 -0.5166 -0.0158 -0.0418
  911MPD2    H513347   4.033   2.228  16.467  0.1625 -1.5189  0.4321
  911MPD2    N113348   4.602   2.168  16.484 -0.2169  0.2183 -0.1543
  911MPD2    H713349   4.663   2.096  16.446  0.8748  0.0410  1.9361
  912MPD2     C13350   3.911   2.119  15.988  0.3874  0.0087 -0.2803
  912MPD2    C113351   3.911   2.115  16.121 -0.4687  0.1495 -0.0730
  912MPD2    C213352   3.934   1.998  16.175  0.6875 -0.0511 -0.3941
  912MPD2    C313353   3.966   1.883  16.106  0.3522 -0.0288 -0.2951
  912MPD2    C413354   3.971   1.886  15.974  0.1810  0.5374  0.0351
  912MPD2    C513355   3.931   2.004  15.916  0.3657 -0.3312 -0.1698
  912MPD2     H13356   3.924   1.983  16.282  0.0205 -0.2330 -0.4824
  912MPD2    H113357   4.001   1.807  15.906 -2.9592 -0.3307 -0.3113
  912MPD2    H213358   3.886   2.209  15.934  1.4712  0.3103 -0.2899
  912MPD2    H313359   3.931   2.003  15.807 -2.2905 -2.3281 -0.1348
  912MPD2     N13360   3.986   1.763  16.183  0.3886  0.1581  0.3266
  912MPD2    H513361   3.959   1.769  16.280  2.2264  0.5946  0.7952
  912MPD2    N113362   3.868   2.236  16.184  0.3200  0.2547 -0.0532
  912MPD2    H713363   3.865   2.323  16.132 -2.6171 -0.1796 -0.6349
  913MPD2     C13364   3.995   2.801  10.911 -0.2221 -0.4422  0.3700
  913MPD2    C113365   3.998   2.934  10.956 -0.3539  0.2728 -0.2304
  913MPD2    C213366   3.959   3.040  10.873  0.3807  0.3027 -0.3498
  913MPD2    C313367   3.929   3.010  10.742  0.3335 -0.8097 -0.0403
  913MPD2    C413368   3.923   2.878  10.697  0.0700  0.0984  0.0547
  913MPD2    C513369   3.954   2.778  10.780 -0.2572 -0.5694 -0.5632
  913MPD2     H13370   3.950   3.139  10.917  0.0508 -0.2138  0.7416
  913MPD2    H113371   3.889   2.852  10.598 -1.7975  0.4564  0.6063
  913MPD2    H213372   4.017   2.716  10.974 -3.4183 -2.3175 -1.0994
  913MPD2    H313373   3.952   2.678  10.737 -1.8946 -0.8994  0.2886
  913MPD2     N13374   3.883   3.104  10.653  0.0513  0.2854  0.0908
  913MPD2    H513375   3.848   3.076  10.562 -0.2610 -0.4215  0.4308
  913MPD2    N113376   4.032   2.958  11.093  0.4218 -0.5025 -0.2124
  913MPD2    H713377   4.050   2.869  11.137 -1.2587 -1.7005 -1.9387
  914MPD2     C13378   2.535   3.824  12.202  0.1780  0.1247 -0.7965
  914MPD2    C113379   2.403   3.862  12.214  0.3920 -0.2639 -0.3239
  914MPD2    C213380   2.303   3.764  12.245 -0.1049  0.9013  0.9456
  914MPD2    C313381   2.339   3.631  12.247  0.1444  0.4014 -0.0861
  914MPD2    C413382   2.479   3.594  12.242  0.6598  0.4754  0.1516
  914MPD2    C513383   2.573   3.695  12.227 -0.3582 -0.2078 -1.3239
  914MPD2     H13384   2.202   3.787  12.277  0.3233 -0.4261  3.2941
  914MPD2    H113385   2.516   3.493  12.258  1.7816  0.9254  0.4374
  914MPD2    H213386   2.609   3.901  12.186 -0.0732  0.4461 -0.4220
  914MPD2    H313387   2.673   3.655  12.218  1.0767  3.1736  0.0217
  914MPD2     N13388   2.232   3.538  12.261  0.2626 -0.2875  0.2653
  914MPD2    H513389   2.141   3.583  12.267  0.4936  0.1251  0.6258
  914MPD2    N113390   2.371   4.004  12.201  0.0167  0.2050 -0.1701
  914MPD2    H713391   2.449   4.069  12.207 -0.2577  0.4858  0.3583
  915MPD2     C13392   1.085   4.046  16.082 -0.4271 -0.2796  0.5497
  915MPD2    C113393   0.951   4.067  16.057 -0.8685  0.0643 -0.2517
  915MPD2    C213394   0.868   4.081  16.172 -0.1080  1.2969  0.4638
  915MPD2    C313395   0.921   4.076  16.297 -0.8408  1.2180 -0.7776
  915MPD2    C413396   1.059   4.066  16.319  0.5073  0.9994 -0.2694
  915MPD2    C513397   1.136   4.052  16.203  0.0011  0.8816 -0.5159
  915MPD2     H13398   0.760   4.082  16.162  0.1720  0.4696 -2.6592
  915MPD2    H113399   1.102   4.046  16.416  0.3665 -1.1006 -0.6546
  915MPD2    H213400   1.152   4.034  15.997  2.1490 -0.8616  2.6569
  915MPD2    H313401   1.243   4.038  16.211 -0.0895 -0.2772 -1.4455
  915MPD2     N13402   0.825   4.086  16.403  0.0268  0.5336  0.6442
  915MPD2    H513403   0.729   4.101  16.373 -0.5362 -2.0246  1.1544
  915MPD2    N113404   0.892   4.053  15.933 -0.8578 -0.0995  0.6592
  915MPD2    H713405   0.943   4.012  15.854 -1.0609  0.8821  0.0149
  916MPD2     C13406   3.555   1.956  15.895 -0.3980  0.3353  0.0694
  916MPD2    C113407   3.607   1.881  15.998 -0.1442 -0.2335  0.0732
  916MPD2    C213408   3.671   1.763  15.960 -0.4554 -0.4292 -0.4179
  916MPD2    C313409   3.688   1.722  15.828  0.5413  0.2962  0.2262
  916MPD2    C413410   3.638   1.803  15.725 -0.0700 -0.1077 -0.3827
  916MPD2    C513411   3.570   1.918  15.764  0.1558  0.4725  0.1401
  916MPD2     H13412   3.719   1.710  16.041 -2.4934 -0.0220  1.0450
  916MPD2    H113413   3.659   1.794  15.619 -0.4753 -0.7131 -0.4119
  916MPD2    H213414   3.504   2.051  15.911  1.9255  1.8789 -1.6638
  916MPD2    H313415   3.528   1.991  15.696  0.9660  0.9224  0.1303
  916MPD2     N13416   3.761   1.604  15.812 -0.5433 -0.3022  0.5768
  916MPD2    H513417   3.804   1.558  15.892  1.9642  2.6991  0.9225
  916MPD2    N113418   3.584   1.931  16.129  0.2218  0.0781 -0.3433
  916MPD2    H713419   3.530   2.017  16.127  0.8935  0.4842 -0.9425
  917MPD2     C13420   3.293   3.972  11.375  0.1029 -0.1559 -0.5850
  917MPD2    C113421   3.359   4.000  11.494 -0.1344  0.3686  0.8213
  917MPD2    C213422   3.449   4.108  11.497  0.2059 -0.2218  0.4360
  917MPD2    C313423   3.480   4.180  11.381  0.3479  1.2027  0.0791
  917MPD2    C413424   3.414   4.146  11.274 -1.0775 -0.3354 -0.1600
  917MPD2    C513425   3.325   4.042  11.264 -0.1010 -0.4334 -0.0255
  917MPD2     H13426   3.507   4.118  11.589  2.2428 -0.9439 -0.7810
  917MPD2    H113427   3.429   4.207  11.186  0.2119  1.5232  1.3320
  917MPD2    H213428   3.223   3.891  11.359  0.2540 -0.4373  0.1724
  917MPD2    H313429   3.286   4.019  11.166  0.4950  2.6750 -0.9838
  917MPD2     N13430   3.592   4.260  11.374 -0.1576 -0.2878  0.9117
  917MPD2    H513431   3.605   4.309  11.287  0.1030 -0.7212  0.7086
  917MPD2    N113432   3.321   3.924  11.603 -0.2994 -0.2827 -0.3949
  917MPD2    H713433   3.268   3.839  11.584 -2.4203  0.8761  0.3560
  918MPD2     C13434   3.382   4.253  12.540  0.2109  0.4222 -0.0179
  918MPD2    C113435   3.468   4.260  12.432 -0.2594  0.0832 -0.3969
  918MPD2    C213436   3.454   4.172  12.325  0.1986  0.1366 -0.1510
  918MPD2    C313437   3.363   4.074  12.323  0.2473  0.0943  0.1714
  918MPD2    C413438   3.287   4.056  12.440  0.6535 -0.3732  0.2570
  918MPD2    C513439   3.288   4.155  12.541 -0.0598  0.2888 -0.3032
  918MPD2     H13440   3.524   4.186  12.243  0.2125 -1.0581 -0.3415
  918MPD2    H113441   3.213   3.976  12.434  0.9802 -0.8103  1.9135
  918MPD2    H213442   3.388   4.325  12.621 -0.7342 -1.1440  1.4208
  918MPD2    H313443   3.220   4.150  12.625  0.1737  0.0193 -0.1290
  918MPD2     N13444   3.354   3.990  12.211 -0.2991 -0.2107  0.1722
  918MPD2    H513445   3.411   4.006  12.128  0.7849  0.5355  1.0474
  918MPD2    N113446   3.575   4.349  12.435 -0.5241  0.0576  0.0348
  918MPD2    H713447   3.639   4.343  12.356 -1.3960 -0.1448 -0.6668
  919MPD2     C13448   3.850   3.420  11.636 -0.0252  0.4546 -0.4520
  919MPD2    C113449   3.840   3.286  11.612 -0.6795 -0.0437 -0.1935
  919MPD2    C213450   3.798   3.249  11.489  0.0145  0.5227  0.0468
  919MPD2    C313451   3.756   3.340  11.396 -0.5623 -0.0469  0.3475
  919MPD2    C413452   3.761   3.479  11.425 -0.2697  0.0738  0.2000
  919MPD2    C513453   3.822   3.515  11.543  1.2594 -0.1536  0.1850
  919MPD2     H13454   3.806   3.143  11.470  2.5551  0.3534  2.0629
  919MPD2    H113455   3.732   3.556  11.354  3.6270  1.5936  0.2187
  919MPD2    H213456   3.866   3.459  11.735 -0.2184  0.2835 -0.3528
  919MPD2    H313457   3.840   3.619  11.565 -0.5594 -0.6405  3.8911
  919MPD2     N13458   3.705   3.301  11.269  0.8166 -0.4136  0.7303
  919MPD2    H513459   3.681   3.377  11.207  0.0066 -0.5307  0.8974
  919MPD2    N113460   3.859   3.187  11.720  0.3817 -0.6330 -0.2672
  919MPD2    H713461   3.872   3.090  11.691 -0.8613 -1.2125  1.1318
  920MPD2     C13462   3.391   3.752  10.540 -0.1946 -0.2132 -0.0931
  920MPD2    C113463   3.320   3.633  10.539  0.3688 -0.4576 -0.0591
  920MPD2    C213464   3.360   3.534  10.630 -1.0485 -0.3289  0.4236
  920MPD2    C313465   3.484   3.544  10.695 -0.2536  0.1825 -0.1252
  920MPD2    C413466   3.561   3.660  10.689 -0.4860  0.0584  0.7304
  920MPD2    C513467   3.507   3.762  10.613 -1.5143 -0.0735 -0.0508
  920MPD2     H13468   3.303   3.443  10.645  0.3166 -1.5193 -1.7001
  920MPD2    H113469   3.650   3.662  10.750  0.1244  0.2060 -0.1717
  920MPD2    H213470   3.365   3.842  10.484  3.1265 -0.8828 -2.7393
  920MPD2    H313471   3.563   3.854  10.603 -1.4403 -0.2770 -1.5635
  920MPD2     N13472   3.524   3.422  10.754  0.0285 -0.1100 -0.4599
  920MPD2    H513473   3.454   3.351  10.770 -1.9109  1.1919 -3.1082
  920MPD2    N113474   3.200   3.617  10.467  0.1632  0.3648 -0.1921
  920MPD2    H713475   3.149   3.529  10.470  0.9478  0.0032  1.9770
  921MPD2     C13476   0.723   2.541  17.112  0.1372  0.0533  0.0404
  921MPD2    C113477   0.754   2.519  16.981  0.0295  0.4961 -0.2981
  921MPD2    C213478   0.654   2.464  16.903  0.3972  0.2115 -0.4477
  921MPD2    C313479   0.532   2.422  16.952 -0.8421 -0.6224  0.4241
  921MPD2    C413480   0.510   2.421  17.085  0.6444  0.3140 -0.4145
  921MPD2    C513481   0.603   2.485  17.162  0.3618 -0.3026  0.8810
  921MPD2     H13482   0.671   2.438  16.799  1.9251  1.5241 -0.5288
  921MPD2    H113483   0.420   2.376  17.127  1.1057 -0.4220 -0.2112
  921MPD2    H213484   0.790   2.581  17.188 -1.4361  1.9034  0.4494
  921MPD2    H313485   0.577   2.499  17.266  2.0685 -0.5005  1.3355
  921MPD2     N13486   0.441   2.367  16.856 -0.3397  0.1704  0.8075
  921MPD2    H513487   0.478   2.366  16.762  2.3550 -1.3865  1.9045
  921MPD2    N113488   0.894   2.527  16.937  0.2025  0.1528  0.1590
  921MPD2    H713489   0.969   2.538  17.004 -1.1629  1.3711  1.4670
  922MPD2     C13490   1.560   0.012  17.672  0.2101 -0.2766 -0.1035
  922MPD2    C113491   1.511   0.047   0.096 -0.7585  0.2819  0.1325
  922MPD2    C213492   1.378   0.072   0.110 -0.0116  0.5693 -0.9888
  922MPD2    C313493   1.286   0.070   0.001  0.5499  0.0628 -0.3646
  922MPD2    C413494   1.335   0.027  17.575  0.2540 -0.0706 -0.3683
  922MPD2    C513495   1.471   4.720  17.567  0.2326  0.0171  0.2761
  922MPD2     H13496   1.356   0.119   0.205 -3.1025  0.1539 -1.5059
  922MPD2    H113497   1.278   0.024  17.482  1.8540  2.1205 -1.4200
  922MPD2    H213498   1.659   4.700  17.648  0.3752 -1.4476  2.3375
  922MPD2    H313499   1.501   4.676  17.473 -0.9415 -1.9662  0.8289
  922MPD2     N13500   1.150   0.111   0.018 -0.1082  1.2379 -0.9853
  922MPD2    H513501   1.126   0.140   0.112  0.5748 -2.1565  0.2366
  922MPD2    N113502   1.597   0.069   0.206 -0.2892  0.1088 -0.0815
  922MPD2    H713503   1.554   0.098   0.293  2.1733  1.7120  0.5947
  923MPD2     C13504   2.500   1.785   9.549  0.2637  0.0358  0.1259
  923MPD2    C113505   2.520   1.920   9.570 -0.2499 -0.3944 -0.0845
  923MPD2    C213506   2.629   1.967   9.641  0.4525 -0.2415  0.6946
  923MPD2    C313507   2.707   1.870   9.707 -0.1211 -0.1002  0.2436
  923MPD2    C413508   2.690   1.739   9.680 -0.3995 -0.1262 -0.0767
  923MPD2    C513509   2.581   1.691   9.610  0.1584  0.4531 -0.2509
  923MPD2     H13510   2.653   2.073   9.642  0.1741 -0.1766  0.1659
  923MPD2    H113511   2.761   1.666   9.717  0.8827 -0.4257 -3.1931
  923MPD2    H213512   2.423   1.743   9.485 -0.3022  0.6994  0.3779
  923MPD2    H313513   2.572   1.584   9.597 -0.0419  0.2491  1.5712
  923MPD2     N13514   2.810   1.904   9.798  0.1618  0.2856 -0.6412
  923MPD2    H513515   2.861   1.831   9.847 -1.3077 -0.4715 -0.2486
  923MPD2    N113516   2.433   2.011   9.501  0.5156  0.3240 -0.0693
  923MPD2    H713517   2.357   1.980   9.441  1.5027  0.8017 -1.5355
  924MPD2     C13518   2.541   0.755  16.026  0.1549  1.0405  0.2323
  924MPD2    C113519   2.503   0.765  16.158 -0.3343 -0.4846 -0.0566
  924MPD2    C213520   2.536   0.876  16.232 -0.1948  0.7458  0.3059
  924MPD2    C313521   2.602   0.977  16.169  0.3613 -0.5574  0.1363
  924MPD2    C413522   2.637   0.969  16.036  0.2569  0.2470  0.2787
  924MPD2    C513523   2.617   0.854  15.967  0.0298 -0.3950  0.1890
  924MPD2     H13524   2.499   0.881  16.334  0.8826 -0.4067  0.7481
  924MPD2    H113525   2.679   1.051  15.980  0.4990  0.8722  1.3758
  924MPD2    H213526   2.510   0.674  15.961  2.8694  0.7210 -0.6294
  924MPD2    H313527   2.648   0.849  15.864 -0.3114 -0.3332  0.0854
  924MPD2     N13528   2.612   1.099  16.227 -0.3211  0.0119 -0.1269
  924MPD2    H513529   2.631   1.179  16.167  0.3788  0.0675  0.1703
  924MPD2    N113530   2.413   0.663  16.204 -0.2783  0.0738 -0.0198
  924MPD2    H713531   2.392   0.589  16.138  1.4427 -0.2712 -0.1694
  925MPD2     C13532   1.202   2.444  14.822 -0.0405 -0.5377 -0.1850
  925MPD2    C113533   1.082   2.500  14.781  0.1247 -0.8810  0.2826
  925MPD2    C213534   0.980   2.525  14.869  0.4474  0.6280  0.0356
  925MPD2    C313535   0.989   2.478  14.998 -0.1791  0.2883  0.1838
  925MPD2    C413536   1.114   2.428  15.040  0.1216 -0.1882 -0.1354
  925MPD2    C513537   1.215   2.402  14.948 -0.1743  0.2303 -0.2511
  925MPD2     H13538   0.886   2.561  14.828  0.6562  1.0020 -0.1123
  925MPD2    H113539   1.126   2.388  15.140  2.2720  1.1921  0.1570
  925MPD2    H213540   1.286   2.414  14.761 -0.2540  1.6088 -1.5358
  925MPD2    H313541   1.300   2.340  14.972 -0.6544 -0.4384 -0.2863
  925MPD2     N13542   0.885   2.484  15.097  0.2390  0.7118  0.2000
  925MPD2    H513543   0.910   2.444  15.187  0.1670 -0.0112 -0.0947
  925MPD2    N113544   1.064   2.551  14.657 -0.2105 -0.5824  0.0625
  925MPD2    H713545   0.977   2.595  14.626  1.7533  2.8167 -0.5940
  926MPD2     C13546   0.217   1.247  13.574  0.7072 -0.1132  0.0594
  926MPD2    C113547   0.210   1.389  13.586  0.9310 -0.5052 -0.4139
  926MPD2    C213548   0.220   1.451  13.464 -0.5933  0.2202 -0.1383
  926MPD2    C313549   0.208   1.390  13.340 -0.5580  0.5759  0.5210
  926MPD2    C413550   0.209   1.254  13.334  0.6610 -0.6167 -0.0012
  926MPD2    C513551   0.226   1.181  13.454  0.6063  0.4128  0.3955
  926MPD2     H13552   0.232   1.559  13.465  0.2080  0.1149  2.6077
  926MPD2    H113553   0.216   1.189  13.247  1.0340  0.5417 -0.8328
  926MPD2    H213554   0.205   1.178  13.656  3.0552  0.2508  0.7113
  926MPD2    H313555   0.230   1.073  13.445  1.8483  0.6340 -1.8313
  926MPD2     N13556   0.193   1.462  13.216  0.1882 -0.1638  0.0014
  926MPD2    H513557   0.172   1.405  13.135  1.9340 -1.5337  0.5032
  926MPD2    N113558   0.210   1.455  13.710 -0.0488 -0.1853 -0.1329
  926MPD2    H713559   0.225   1.556  13.709 -1.7272  0.1192  3.9891
  927MPD2     C13560   0.424   3.165   0.828  0.5258 -0.3489  0.1866
  927MPD2    C113561   0.317   3.256   0.810  0.4294 -0.6827 -0.3911
  927MPD2    C213562   0.286   3.282   0.678  0.3314 -0.0301  0.0265
  927MPD2    C313563   0.358   3.237   0.567  0.0444  0.4322  0.8941
  927MPD2    C413564   0.467   3.165   0.591  0.0781  0.4461  0.2792
  927MPD2    C513565   0.505   3.120   0.719  0.0790  0.6250  0.7006
  927MPD2     H13566   0.192   3.331   0.656  0.4309  0.2840  0.2945
  927MPD2    H113567   0.534   3.130   0.513  0.1506  1.3052 -0.0431
  927MPD2    H213568   0.458   3.134   0.927  2.7927 -0.5695 -0.6652
  927MPD2    H313569   0.592   3.057   0.731 -0.7237 -0.7121 -0.6279
  927MPD2     N13570   0.313   3.278   0.440  0.1092 -0.2887 -0.2482
  927MPD2    H513571   0.218   3.314   0.439  0.0711 -0.3064  1.8231
  927MPD2    N113572   0.247   3.305   0.925  0.1575 -0.4505  0.7082
  927MPD2    H713573   0.280   3.278   1.017 -1.2174  0.6362  1.5286
  928MPD2     C13574   2.293   1.629   1.216 -0.4045 -0.1644  0.2177
  928MPD2    C113575   2.333   1.749   1.267 -0.5718 -0.6522 -0.8203
  928MPD2    C213576   2.437   1.816   1.200  0.8909  0.6946 -0.5972
  928MPD2    C313577   2.478   1.771   1.078 -0.5237 -0.2135 -0.1666
  928MPD2    C413578   2.422   1.667   1.014  0.1304 -0.0702  0.4261
  928MPD2    C513579   2.338   1.593   1.090  0.6061  0.9396 -0.7407
  928MPD2     H13580   2.474   1.905   1.250  0.1303 -0.1914  1.5227
  928MPD2    H113581   2.450   1.629   0.917  0.2651 -1.2734  0.9287
  928MPD2    H213582   2.227   1.557   1.265 -0.7023  1.9441  2.9196
  928MPD2    H313583   2.295   1.502   1.051  1.0382  0.3817  0.1044
  928MPD2     N13584   2.583   1.834   1.007 -0.6690  0.7867 -0.4803
  928MPD2    H513585   2.601   1.799   0.913 -0.8710 -2.0884  0.5561
  928MPD2    N113586   2.299   1.782   1.395 -0.2634  1.2543 -0.9206
  928MPD2    H713587   2.251   1.712   1.450  0.3211  3.0446  1.8999
  929MPD2     C13588   1.490   2.145   9.834 -0.3808 -0.0429 -0.3257
  929MPD2    C113589   1.602   2.164   9.914  1.0121 -0.4459 -0.0087
  929MPD2    C213590   1.683   2.276   9.899  0.4803 -0.3757  0.6315
  929MPD2    C313591   1.653   2.372   9.805 -0.6818  0.4729 -0.0973
  929MPD2    C413592   1.540   2.351   9.727 -0.1095  0.0713  0.1027
  929MPD2    C513593   1.461   2.236   9.735 -0.4595  0.2695  0.3208
  929MPD2     H13594   1.756   2.307   9.973  1.9542 -1.9329 -0.1615
  929MPD2    H113595   1.511   2.426   9.654 -0.3370 -0.3786 -0.2725
  929MPD2    H213596   1.428   2.056   9.836  2.2316 -1.8695  0.1399
  929MPD2    H313597   1.389   2.212   9.658  1.6412 -2.1206 -0.9201
  929MPD2     N13598   1.719   2.497   9.790 -0.1086  0.5000 -0.9302
  929MPD2    H513599   1.693   2.561   9.716 -1.3267  0.9954 -0.0862
  929MPD2    N113600   1.631   2.058  10.006 -0.6274  0.6700 -0.2388
  929MPD2    H713601   1.548   1.999  10.015 -0.2763  0.1711 -0.3027
  930MPD2     C13602   4.299   3.560  14.660 -0.3702  0.0342 -0.0847
  930MPD2    C113603   4.320   3.694  14.635  0.1885 -0.2109  0.6216
  930MPD2    C213604   4.318   3.735  14.503  0.6449  0.4553 -0.4597
  930MPD2    C313605   4.292   3.648  14.398  0.7772  0.1299 -0.1378
  930MPD2    C413606   4.270   3.513  14.433  0.7579  0.1294 -0.1589
  930MPD2    C513607   4.280   3.469  14.561 -0.1072 -0.0340  0.0144
  930MPD2     H13608   4.334   3.839  14.477  0.5505  0.1235 -1.8476
  930MPD2    H113609   4.249   3.435  14.361 -0.6679 -0.8311  1.2842
  930MPD2    H213610   4.299   3.531  14.765 -2.8961 -0.3136 -0.2003
  930MPD2    H313611   4.256   3.366  14.582 -1.4619 -0.1318 -2.0357
  930MPD2     N13612   4.300   3.690  14.265  0.6249  0.3294 -0.2911
  930MPD2    H513613   4.326   3.621  14.196  1.4933  1.6956 -1.3248
  930MPD2    N113614   4.358   3.783  14.736  0.4092 -0.1008  0.0271
  930MPD2    H713615   4.388   3.747  14.826  1.3532 -0.2458 -0.3357
  931MPD2     C13616   0.372   3.142   1.474 -0.4052 -0.0296  0.4703
  931MPD2    C113617   0.239   3.161   1.488  0.3097 -0.0263  0.8117
  931MPD2    C213618   0.162   3.076   1.557 -0.4873  0.5623 -0.1606
  931MPD2    C313619   0.228   2.973   1.626  0.1497  0.2292  0.1891
  931MPD2    C413620   0.363   2.956   1.624  0.1163 -0.0129 -0.1431
  931MPD2    C513621   0.440   3.040   1.544  0.4953  0.0048 -0.2318
  931MPD2     H13622   0.056   3.073   1.533 -0.1837 -2.5388 -1.1212
  931MPD2    H113623   0.414   2.879   1.682 -2.3081 -1.4690  0.0482
  931MPD2    H213624   0.427   3.207   1.406 -1.2210  0.0257 -0.1301
  931MPD2    H313625   0.549   3.036   1.544  0.5392  1.4701 -2.3771
  931MPD2     N13626   0.154   2.870   1.688  0.1543 -0.5997 -1.0105
  931MPD2    H513627   0.209   2.789   1.716 -0.7465 -0.0761  2.3223
  931MPD2    N113628   0.186   3.265   1.406  0.7076 -0.9591  0.5758
  931MPD2    H713629   0.255   3.319   1.357 -1.4580  0.9747 -0.3396
  932MPD2     C13630   0.722   3.147  10.750  0.2466 -0.1879  0.3293
  932MPD2    C113631   0.850   3.197  10.757 -0.6312  0.1950  0.2326
  932MPD2    C213632   0.953   3.120  10.703  0.1117 -0.2934 -0.0743
  932MPD2    C313633   0.934   2.993  10.654  0.0949 -0.2739 -0.9038
  932MPD2    C413634   0.808   2.938  10.662 -0.0182  0.6791 -0.5039
  932MPD2    C513635   0.704   3.014  10.709 -1.0565 -0.1231  0.1204
  932MPD2     H13636   1.048   3.171  10.690  0.3613 -0.9363 -0.7515
  932MPD2    H113637   0.796   2.834  10.632  2.0269  0.8879 -2.0850
  932MPD2    H213638   0.632   3.195  10.786  1.5227  2.1857  0.3067
  932MPD2    H313639   0.608   2.965  10.717 -0.1231 -1.6491  1.8510
  932MPD2     N13640   1.039   2.906  10.603  0.1778 -0.3033 -0.1473
  932MPD2    H513641   1.014   2.808  10.596  1.5497 -0.6720  0.0301
  932MPD2    N113642   0.882   3.333  10.793 -0.4872  0.5076  0.7168
  932MPD2    H713643   0.982   3.352  10.803 -0.4842  0.1178  1.4715
  933MPD2     C13644   2.083   2.224   2.161 -0.0417 -0.0609 -0.1368
  933MPD2    C113645   2.151   2.264   2.045  0.4621  0.2795 -0.3818
  933MPD2    C213646   2.168   2.401   2.016  0.0607  0.0789  0.0069
  933MPD2    C313647   2.109   2.498   2.100  0.5090 -0.1697 -0.0600
  933MPD2    C413648   2.039   2.451   2.218  0.6728 -0.1095 -0.2304
  933MPD2    C513649   2.039   2.321   2.248  0.6296 -0.3182 -0.5373
  933MPD2     H13650   2.219   2.438   1.928  2.1533  1.2802  1.7122
  933MPD2    H113651   1.983   2.524   2.276 -2.1406 -1.9290 -0.6633
  933MPD2    H213652   2.057   2.121   2.178  0.3575 -0.1644 -0.1389
  933MPD2    H313653   1.978   2.288   2.332  0.7612  1.2388  0.1634
  933MPD2     N13654   2.126   2.632   2.063 -0.2308  0.0563 -0.3080
  933MPD2    H513655   2.167   2.641   1.970  0.4254 -0.3749 -0.0536
  933MPD2    N113656   2.202   2.164   1.959 -0.0567 -0.7774  0.0675
  933MPD2    H713657   2.181   2.069   1.986  1.0022 -0.7610  0.9529
  934MPD2     C13658   3.630   4.098   2.823  0.5989  0.5724 -0.7058
  934MPD2    C113659   3.732   4.076   2.729  0.5590 -0.6059 -0.3481
  934MPD2    C213660   3.698   3.994   2.617 -0.2444  0.3240 -0.4226
  934MPD2    C313661   3.569   3.975   2.585  0.0615 -0.0994 -0.5554
  934MPD2    C413662   3.471   4.013   2.674 -0.3668  0.2327 -0.3151
  934MPD2    C513663   3.499   4.067   2.798  0.4312 -0.7219  0.2989
  934MPD2     H13664   3.779   3.962   2.553 -0.1638  2.3546 -1.3106
  934MPD2    H113665   3.366   3.991   2.655 -0.1020 -0.2275 -1.2728
  934MPD2    H213666   3.644   4.154   2.915  1.0300  0.9711 -1.0111
  934MPD2    H313667   3.420   4.099   2.864 -0.8340 -0.8290 -1.1532
  934MPD2     N13668   3.525   3.921   2.459 -0.2057 -0.2952 -0.2035
  934MPD2    H513669   3.425   3.924   2.442 -0.0387 -4.5714 -1.8570
  934MPD2    N113670   3.865   4.112   2.757 -0.4938 -0.0911  0.3858
  934MPD2    H713671   3.938   4.099   2.688 -1.4952 -1.8476 -0.3508
  935MPD2     C13672   3.945   3.266   1.802 -0.1131 -0.8733 -0.3309
  935MPD2    C113673   3.825   3.307   1.748  0.4799  0.2595 -0.0113
  935MPD2    C213674   3.730   3.367   1.826  0.2831 -0.2023 -0.8791
  935MPD2    C313675   3.752   3.396   1.957  0.2815 -0.3604  0.5151
  935MPD2    C413676   3.869   3.351   2.015 -0.5958  0.6740  0.4283
  935MPD2    C513677   3.958   3.279   1.939 -0.2870  0.0646 -0.5460
  935MPD2     H13678   3.638   3.391   1.774  1.7513  1.0468 -2.8654
  935MPD2    H113679   3.897   3.382   2.115  0.1666  1.0758  0.0930
  935MPD2    H213680   4.026   3.215   1.751 -2.2752 -3.2023 -1.3820
  935MPD2    H313681   4.055   3.256   1.983 -2.0472 -2.0941  2.1177
  935MPD2     N13682   3.667   3.480   2.038 -0.2173 -0.0394 -0.2563
  935MPD2    H513683   3.707   3.511   2.126 -0.8558 -0.9103  0.3452
  935MPD2    N113684   3.784   3.286   1.607 -0.0723  0.4470 -0.3239
  935MPD2    H713685   3.696   3.329   1.578 -0.6621 -1.1007 -0.8607
  936MPD2     C13686   1.586   1.156  12.615  0.7394 -0.4214 -0.1955
  936MPD2    C113687   1.558   1.122  12.748  0.7717  0.0940  0.6612
  936MPD2    C213688   1.544   1.228  12.835  0.2577 -0.9251  0.1771
  936MPD2    C313689   1.565   1.359  12.812  0.6457  0.1801  0.3123
  936MPD2    C413690   1.585   1.390  12.679  0.0905 -0.1409  1.0307
  936MPD2    C513691   1.587   1.294  12.585  0.0002 -0.7000  0.5028
  936MPD2     H13692   1.512   1.196  12.934  0.7757 -1.4783  0.1663
  936MPD2    H113693   1.599   1.493  12.648  0.3673 -0.4827  0.0180
  936MPD2    H213694   1.585   1.089  12.530 -0.7014  0.9165 -1.2447
  936MPD2    H313695   1.602   1.336  12.486  1.9844  1.2210  1.6347
  936MPD2     N13696   1.566   1.458  12.918  0.0217  0.9186  0.6951
  936MPD2    H513697   1.569   1.554  12.884  0.7328  0.4870 -0.4455
  936MPD2    N113698   1.528   0.993  12.785 -0.2733  0.4926 -0.1550
  936MPD2    H713699   1.490   0.972  12.877 -0.5618 -0.0776 -0.4079
  937MPD2     C13700   4.518   2.885  11.832 -0.1128  0.0285 -0.0736
  937MPD2    C113701   4.474   3.018  11.826 -0.5490 -0.0138  0.4095
  937MPD2    C213702   4.542   3.105  11.740  0.0529 -0.0829 -0.2538
  937MPD2    C313703   4.650   3.065  11.668  0.2075 -0.2988  0.1484
  937MPD2    C413704   4.676   2.928  11.661  0.1608  0.0161  0.5144
  937MPD2    C513705   4.617   2.842  11.749 -0.2866  0.2641  0.2563
  937MPD2     H13706   4.508   3.208  11.738  3.1460  0.9373  0.4452
  937MPD2    H113707   0.025   2.896  11.587 -1.7539 -1.6231 -0.6644
  937MPD2    H213708   4.462   2.808  11.884  1.4250 -0.4308  0.8882
  937MPD2    H313709   4.652   2.739  11.753 -1.6718 -0.2291 -0.3748
  937MPD2     N13710   4.711   3.160  11.592 -0.1408  0.6399 -0.1873
  937MPD2    H513711   4.669   3.252  11.602 -2.1567 -0.5127  1.7686
  937MPD2    N113712   4.341   3.048  11.872  0.3142  0.0066 -0.2503
  937MPD2    H713713   4.293   3.129  11.835 -1.0956 -0.7953 -0.2056
  938MPD2     C13714   2.486   3.612   1.560  0.1688 -1.0457  0.1735
  938MPD2    C113715   2.614   3.621   1.620  0.6908  0.1843 -0.0846
  938MPD2    C213716   2.635   3.561   1.740 -0.0235  1.0617  0.3565
  938MPD2    C313717   2.534   3.494   1.802  0.2458  0.0732 -0.3965
  938MPD2    C413718   2.408   3.495   1.748 -0.0459  0.1159 -0.9556
  938MPD2    C513719   2.383   3.553   1.627  0.7188 -0.3239 -0.6737
  938MPD2     H13720   2.734   3.576   1.782  0.0474  0.1446  0.5042
  938MPD2    H113721   2.323   3.472   1.812  0.8102  0.8112  0.4334
  938MPD2    H213722   2.466   3.652   1.461 -1.5714 -1.8262  0.2131
  938MPD2    H313723   2.288   3.547   1.577 -0.0005  2.1392  0.3884
  938MPD2     N13724   2.555   3.428   1.928 -0.3004  0.4056 -0.1356
  938MPD2    H513725   2.467   3.402   1.970  1.5846 -1.6513  2.5442
  938MPD2    N113726   2.723   3.696   1.572 -0.1240 -0.1594 -0.2875
  938MPD2    H713727   2.794   3.725   1.639  0.1442  0.8058 -0.9928
  939MPD2     C13728   4.266   4.578   1.356  0.1125  0.8251 -0.4171
  939MPD2    C113729   4.218   4.711   1.354  0.5149  0.4702 -0.3040
  939MPD2    C213730   4.290   0.092   1.303 -0.3129  0.0891  0.0971
  939MPD2    C313731   4.410   0.066   1.236 -0.1915 -0.3839  0.2347
  939MPD2    C413732   4.454   4.661   1.233 -0.4625  0.4689 -0.1464
  939MPD2    C513733   4.384   4.557   1.294  0.1128  0.2403  0.1927
  939MPD2     H13734   4.262   0.196   1.300 -0.4293  0.0958  1.2367
  939MPD2    H113735   4.544   4.638   1.176 -1.5086 -1.3217 -1.0626
  939MPD2    H213736   4.219   4.489   1.396 -1.9441  2.1454  0.1047
  939MPD2    H313737   4.418   4.456   1.275 -0.4256  0.3891 -1.5576
  939MPD2     N13738   4.465   0.170   1.160  0.2123 -0.7836 -0.5109
  939MPD2    H513739   4.425   0.263   1.170  0.5058 -0.6896 -0.2172
  939MPD2    N113740   4.090   0.005   1.405 -0.1496  0.1082  0.5064
  939MPD2    H713741   4.041   4.651   1.449 -0.7366  1.4475  2.2003
  940MPD2     C13742   2.167   1.313  13.522 -0.4670  0.2981 -0.6751
  940MPD2    C113743   2.307   1.310  13.543 -0.9990 -0.0184 -0.1142
  940MPD2    C213744   2.382   1.268  13.436  0.8657 -0.0482 -0.1960
  940MPD2    C313745   2.329   1.210  13.319  0.4492  0.2865  0.9929
  940MPD2    C413746   2.193   1.203  13.316  0.1849  0.0911  0.0436
  940MPD2    C513747   2.113   1.250  13.414  0.0732  0.5113  0.7062
  940MPD2     H13748   2.489   1.272  13.449  0.3290  2.1899  3.5724
  940MPD2    H113749   2.141   1.170  13.226 -0.7364  1.4503  0.0652
  940MPD2    H213750   2.105   1.364  13.595 -0.3770 -0.5219 -0.0185
  940MPD2    H313751   2.005   1.254  13.408  0.1858  0.6483 -1.1945
  940MPD2     N13752   2.399   1.146  13.215 -0.2697 -0.0258  0.5255
  940MPD2    H513753   2.343   1.119  13.135  1.2956  0.6633 -0.7807
  940MPD2    N113754   2.370   1.372  13.655 -0.5929 -0.2841  0.7200
  940MPD2    H713755   2.467   1.345  13.666 -0.0704  0.6372 -1.7713
  941MPD2     C13756   1.351   0.520  10.057 -0.2437  0.1580 -0.2579
  941MPD2    C113757   1.453   0.477  10.140 -0.5980  0.2622 -0.6816
  941MPD2    C213758   1.459   0.342  10.169 -0.2403 -0.0724 -0.0419
  941MPD2    C313759   1.349   0.261  10.133  0.1419 -0.2929 -0.1381
  941MPD2    C413760   1.251   0.309  10.055  0.5342  0.2728  0.3623
  941MPD2    C513761   1.256   0.439  10.007  0.5753 -0.5572 -0.6110
  941MPD2     H13762   1.537   0.302  10.234 -0.0103  0.1748 -0.1705
  941MPD2    H113763   1.160   0.260  10.022  1.9610 -2.3740  0.3688
  941MPD2    H213764   1.344   0.626  10.032  2.0970  0.2911 -0.3676
  941MPD2    H313765   1.190   0.475   9.928 -0.0861  1.5439  0.8961
  941MPD2     N13766   1.335   0.125  10.171  1.1746  0.2192  0.1082
  941MPD2    H513767   1.259   0.079  10.122  2.1669 -1.6217  0.2873
  941MPD2    N113768   1.568   0.558  10.180  0.6786  0.2276  0.6663
  941MPD2    H713769   1.642   0.505  10.226  2.3111  1.4732 -0.5362
  942MPD2     C13770   1.247   1.694   9.820 -0.0699 -0.5644 -0.7822
  942MPD2    C113771   1.180   1.754   9.712 -0.4002  0.1961 -0.4464
  942MPD2    C213772   1.251   1.812   9.610  0.2383 -0.9961 -0.6267
  942MPD2    C313773   1.387   1.825   9.621  0.8221  0.1884 -0.2286
  942MPD2    C413774   1.455   1.771   9.728  0.1319  0.7578  0.6374
  942MPD2    C513775   1.386   1.706   9.826 -0.3577  0.3752  0.3419
  942MPD2     H13776   1.200   1.850   9.523 -0.7879  0.8315  0.7910
  942MPD2    H113777   1.561   1.789   9.744  0.5780  0.2881 -1.8981
  942MPD2    H213778   1.193   1.647   9.901  1.1475 -0.4417  0.0969
  942MPD2    H313779   1.435   1.662   9.912 -0.7053 -0.5421  0.0717
  942MPD2     N13780   1.464   1.882   9.520 -0.1504 -0.2390  0.2405
  942MPD2    H513781   1.563   1.882   9.544  0.0120 -0.4287 -0.4226
  942MPD2    N113782   1.037   1.760   9.713 -0.0117 -0.5334  0.0640
  942MPD2    H713783   0.996   1.832   9.653  2.9498  1.0809 -0.0030
  943MPD2     C13784   3.738   4.260   9.887 -0.0324 -0.5810 -0.5590
  943MPD2    C113785   3.759   4.376   9.958 -0.2291 -1.0215 -0.4261
  943MPD2    C213786   3.671   4.481   9.947  0.3787 -0.3754  0.6136
  943MPD2    C313787   3.564   4.473   9.867 -0.8123 -0.3217 -0.1136
  943MPD2    C413788   3.533   4.359   9.795 -0.0370 -0.1900  0.3426
  943MPD2    C513789   3.623   4.253   9.811 -0.3073  0.8812  0.1489
  943MPD2     H13790   3.696   4.575   9.996 -3.0630  0.8074  0.1244
  943MPD2    H113791   3.455   4.339   9.722 -0.8085 -0.4707  1.2334
  943MPD2    H213792   3.797   4.171   9.902 -1.4182 -1.6348 -1.3446
  943MPD2    H313793   3.620   4.156   9.764  0.3687  1.4271 -1.0179
  943MPD2     N13794   3.483   4.594   9.849 -0.3769 -0.4050 -0.0923
  943MPD2    H513795   3.406   4.588   9.784 -0.9800 -0.8546  0.6659
  943MPD2    N113796   3.869   4.372  10.044  0.1388 -0.1961 -0.2512
  943MPD2    H713797   3.910   4.282  10.064 -0.7713 -0.2214  1.5515
  944MPD2     C13798   4.454   3.711  11.258 -0.0887 -0.5460  0.7175
  944MPD2    C113799   4.427   3.840  11.202 -0.1737  0.2481  0.3872
  944MPD2    C213800   4.409   3.948  11.287  0.4944  1.0463  0.1927
  944MPD2    C313801   4.432   3.934  11.422 -0.8839 -0.7269  0.2912
  944MPD2    C413802   4.469   3.814  11.476 -0.5886  0.3004 -0.3398
  944MPD2    C513803   4.477   3.700  11.394 -0.1296 -0.0627 -0.1342
  944MPD2     H13804   4.384   4.043  11.243  0.2216 -1.0352 -4.1868
  944MPD2    H113805   4.482   3.807  11.584  1.9517 -0.0130 -0.6801
  944MPD2    H213806   4.457   3.623  11.194 -1.0641  1.0429 -1.4973
  944MPD2    H313807   4.500   3.602  11.434 -1.2010 -0.6589 -0.9669
  944MPD2     N13808   4.440   4.059  11.489  0.2049 -0.3435 -0.2640
  944MPD2    H513809   4.413   4.139  11.433  2.7058  0.1378 -0.7819
  944MPD2    N113810   4.411   3.853  11.057 -0.1665  0.1089 -0.8374
  944MPD2    H713811   4.397   3.772  10.998 -0.9956  0.1672 -0.7319
    1TCq1    O113812   2.607   4.526  14.544 -0.9280  0.3079 -0.6074
    1TCq1    C113813   2.739   4.502  14.526 -0.5919 -0.1717 -0.1122
    1TCq1    O213814   2.804   4.415  14.584  0.0854  0.3999 -0.1032
    1TCq1    C213815   2.801   4.629  14.502  0.1656  0.1661  0.1597
    1TCq1    C313816   2.734   4.704  14.412  0.2870 -0.4762  0.3697
    1TCq1    C413817   2.720   0.114  14.424 -0.1545  0.0643  0.6780
    1TCq1    C513818   2.792   0.177  14.522 -0.6387  0.2781  0.2030
    1TCq1    C613819   2.871   0.098  14.598 -0.4449  0.2687  0.7420
    1TCq1    C713820   2.876   4.690  14.591  0.2759 -0.1977 -0.3884
    1TCq1    C813821   2.961   0.158  14.699  0.1697  0.1313  0.0034
    1TCq1    O413822   3.020   0.086  14.780 -0.1217 -0.6040 -0.4180
    1TCq1    C913823   2.630   0.188  14.345  0.4308  0.0689  0.0847
    1TCq1    O513824   2.626   0.311  14.372 -0.2370  0.5698 -0.4315
    1TCq1    O613825   2.544   0.129  14.274 -0.1341  0.1043  0.3870
    1TCq1    H113826   2.577   4.605  14.495  1.0017 -0.2773 -2.7184
    1TCq1    H213827   2.668   4.666  14.336 -1.6611 -0.0523  1.8596
    1TCq1    H313828   2.787   0.285  14.534  1.5233  0.3852  0.0675
    1TCq1    H413829   2.937   4.635  14.662 -1.1959 -1.9851 -0.5262
    2MPD2     C13830   3.191   0.570  14.924  0.4375  0.0670 -0.6207
    2MPD2    C113831   3.127   0.613  14.815  0.0219  0.3510  0.4298
    2MPD2    C213832   3.060   0.523  14.733 -0.1497 -0.0561  0.3554
    2MPD2    C313833   3.063   0.386  14.760 -1.0645 -1.0939 -0.2789
    2MPD2    C413834   3.131   0.345  14.875 -0.1457 -0.5131 -0.2923
    2MPD2    C513835   3.200   0.439  14.947 -0.4098  0.3391  0.8917
    2MPD2     H13836   3.019   0.556  14.638  0.3051 -0.9625 -0.1574
    2MPD2    H113837   3.140   0.240  14.903 -0.1205 -0.5788 -0.5535
    2MPD2    H213838   3.236   0.635  14.999  1.2432 -0.1489 -0.9120
    2MPD2    H313839   3.258   0.404  15.032 -0.8193  0.4111  1.2037
    2MPD2     N13840   2.985   0.296  14.685  0.0754  0.3168 -0.4304
    2MPD2    H513841   2.928   0.332  14.609  3.8040  1.2671 -2.7500
    2MPD2    N113842   3.134   0.748  14.784 -0.0698 -0.5117  0.1127
    2MPD2    H713843   3.187   0.802  14.852  0.1124  0.0171 -0.4458
    3TMC2    C113844   3.090   0.963  14.689  0.5885 -0.4838  0.1819
    3TMC2    C213845   3.141   1.028  14.795 -0.2445 -0.4039 -0.3519
    3TMC2    C313846   3.195   1.148  14.769 -0.6153  0.0075 -0.5235
    3TMC2    C413847   3.074   1.022  14.568  0.8427 -0.5954 -0.0707
    3TMC2    C513848   3.139   1.138  14.548  0.1045 -0.1978 -0.0952
    3TMC2    C613849   3.207   1.203  14.647  0.1341 -0.6674 -0.6997
    3TMC2     C13850   3.067   0.819  14.684  0.0206  0.4483  0.3735
    3TMC2     O13851   2.991   0.772  14.597 -0.0439  0.2316 -0.1315
    3TMC2     H13852   3.141   0.997  14.898  2.2194 -0.9789 -0.5323
    3TMC2    H113853   3.042   0.957  14.487 -0.1685 -0.0916 -0.0798
    3TMC2    H213854   3.252   1.301  14.631  0.5349 -0.5647  1.0627
    3TMC2    C713855   3.176   1.173  14.414  0.2036  0.1771 -0.4161
    3TMC2    C813856   3.245   1.231  14.874 -0.2855 -0.2620  0.5555
    3TMC2    O113857   3.285   1.218  14.401 -0.3271 -0.5564  0.7317
    3TMC2    O213858   3.243   1.350  14.877  0.2432 -0.5653 -0.3502
    3TMC2    O513859   3.354   1.160  14.932  0.6136  0.4315 -0.2070
    3TMC2    H513860   3.356   1.068  14.898  1.1422  0.9158 -1.5129
    4MPD2     C13861   3.162   2.013  13.706 -0.0842  0.0353 -0.2516
    4MPD2    C113862   3.106   1.890  13.679 -0.3160 -0.5879 -0.1730
    4MPD2    C213863   3.191   1.780  13.681  0.1922  0.0449 -0.1149
    4MPD2    C313864   3.326   1.792  13.686  0.0096 -0.1636  0.0452
    4MPD2    C413865   3.384   1.914  13.714  0.1621 -0.1086  0.5702
    4MPD2    C513866   3.303   2.024  13.723  0.1293  0.1734 -0.2117
    4MPD2     H13867   3.139   1.685  13.671 -0.0847  0.3253 -1.4727
    4MPD2    H113868   3.488   1.937  13.735  0.6237 -0.5420 -1.1987
    4MPD2    H213869   3.100   2.102  13.714 -0.4547 -0.1516 -1.1127
    4MPD2    H313870   3.341   2.125  13.733  0.7275 -0.0546 -0.1864
    4MPD2     N13871   3.405   1.677  13.696 -0.0482 -0.3682 -0.4656
    4MPD2    H513872   3.358   1.587  13.683  1.4724 -1.4262  1.2970
    4MPD2    N113873   2.970   1.880  13.672  0.1635  0.2391  1.0225
    4MPD2    H713874   2.931   1.973  13.675 -1.1823 -0.3699  2.1384
    5TCq2    C113875   3.539   1.674  13.696  0.1452 -0.1823 -0.1002
    5TCq2    O213876   3.622   1.756  13.661  0.2792 -0.0756 -0.0383
    5TCq2    C213877   3.591   1.551  13.748 -0.0533 -0.4559  0.3553
    5TCq2    C313878   3.708   1.499  13.703 -0.6755 -0.4234  0.0662
    5TCq2    C413879   3.741   1.374  13.744 -0.6575  0.0188 -0.3498
    5TCq2    C513880   3.668   1.298  13.827  0.2762  0.5351  0.2466
    5TCq2    C613881   3.553   1.361  13.871  0.0040 -0.6267  0.1060
    5TCq2    C713882   3.523   1.485  13.839 -0.1873 -0.1957 -0.5529
    5TCq2    C813883   3.455   1.288  13.950 -0.0387  0.3398  0.2046
    5TCq2    O413884   3.493   1.194  14.016 -0.1330  0.0872  0.1520
    5TCq2    C913885   3.870   1.319  13.704  0.4447 -0.3686  0.2549
    5TCq2    O513886   3.936   1.381  13.611 -0.1080 -0.1443  0.7049
    5TCq2    O613887   3.922   1.222  13.769 -0.4032 -0.3216 -0.1081
    5TCq2    H213888   3.762   1.543  13.620 -0.8208  1.9277  1.2016
    5TCq2    H313889   3.696   1.198  13.858 -0.2400  0.4027  0.2843
    5TCq2    H413890   3.444   1.543  13.885  0.5813 -1.7552  2.7561
    6MPD1     C13891   1.864   2.116  12.092 -0.3745  0.3535  0.1223
    6MPD1    C113892   1.833   2.208  12.191 -0.1035 -0.0331 -0.1953
    6MPD1    C213893   1.871   2.179  12.321  0.6199 -0.9252  0.3622
    6MPD1    C313894   1.922   2.053  12.357 -0.0638 -0.1748 -0.1610
    6MPD1    C413895   1.945   1.964  12.250  0.5792 -0.6608 -0.7970
    6MPD1    C513896   1.922   1.999  12.117 -0.6931  0.0876  0.5045
    6MPD1     H13897   1.853   2.256  12.396 -0.3749 -1.3470  0.5495
    6MPD1    H113898   1.990   1.868  12.275 -0.4335 -0.5175  1.6287
    6MPD1    H213899   1.839   2.140  11.989 -1.1169  1.3617  0.5403
    6MPD1    H313900   1.939   1.927  12.038 -0.5472 -0.2227  0.8176
    6MPD1     N13901   1.960   2.014  12.490  0.5288  0.2929 -0.2567
    6MPD1    H513902   2.015   1.929  12.495 -3.6725 -2.3137  1.2519
    6MPD1    N113903   1.783   2.334  12.151  0.1582  0.0577 -0.5443
    6MPD1    H613904   1.726   2.327  12.067 -0.9172  1.1057  0.1029
    6MPD1    H713905   1.730   2.376  12.227  1.5220  2.4325 -0.8825
    7MPD2     C13906   2.244   2.300  13.269 -0.3791 -0.4452  0.0422
    7MPD2    C113907   2.223   2.166  13.255  0.0004 -0.9457 -0.2886
    7MPD2    C213908   2.277   2.075  13.346 -0.1017 -0.1173 -0.8750
    7MPD2    C313909   2.366   2.112  13.445 -0.0743  0.5673  0.7536
    7MPD2    C413910   2.383   2.246  13.461  0.5560 -0.6576 -0.9902
    7MPD2    C513911   2.323   2.342  13.377  0.5275 -0.2065 -0.0132
    7MPD2     H13912   2.255   1.969  13.342  0.2075 -0.2078 -0.1608
    7MPD2    H113913   2.454   2.282  13.535 -0.2559 -0.8528 -0.1202
    7MPD2    H213914   2.203   2.382  13.212  1.6877 -0.0379 -0.8370
    7MPD2    H313915   2.347   2.447  13.385 -1.4663  0.1184  1.5237
    7MPD2     N13916   2.437   2.013  13.522  0.2705 -0.5985  0.0537
    7MPD2    H513917   2.419   1.918  13.490  1.2791 -0.4054 -1.0549
    7MPD2    N113918   2.142   2.109  13.155  0.3078 -0.4924 -0.1157
    7MPD2    H713919   2.120   2.010  13.155 -0.4970 -0.3097  0.0970
    8TMC3    C113920   2.563   1.893  13.680  0.7458 -0.2245 -0.5695
    8TMC3    C213921   2.694   1.883  13.691 -0.3377 -0.5659  0.1765
    8TMC3    C313922   2.757   1.790  13.614 -0.1709  0.5863 -0.8300
    8TMC3    C413923   2.492   1.790  13.621  0.2985  0.2912  0.6742
    8TMC3    C513924   2.557   1.690  13.550  0.0984 -0.2839 -1.1686
    8TMC3    C613925   2.686   1.688  13.549  0.8983 -0.2540  0.0153
    8TMC3     C13926   2.527   2.030  13.626 -0.1313 -0.5438 -0.3075
    8TMC3     O13927   2.563   2.126  13.684  0.4618  0.1972  0.2446
    8TMC3     H13928   2.738   1.970  13.738  0.5234 -0.7335 -0.3220
    8TMC3    H113929   2.389   1.768  13.645  0.6926 -3.3945 -0.8801
    8TMC3    H213930   2.728   1.614  13.482 -1.0994 -3.2893  2.1004
    8TMC3    C713931   2.476   1.664  13.429 -0.3176 -0.3662  0.1530
    8TMC3    C813932   2.897   1.770  13.631 -0.0610  0.3956  1.0090
    8TMC3    O113933   2.386   1.745  13.409 -0.1547 -0.0971 -0.4842
    8TMC3    O213934   2.933   1.657  13.605  0.0687 -0.9735 -0.4029
    9TMC3    C113935   2.006   2.038  12.721 -0.2983 -0.2198  0.7866
    9TMC3    C213936   2.073   1.916  12.727  0.7879 -0.3155  0.1692
    9TMC3    C313937   2.145   1.880  12.839  0.6510  0.4089 -0.1292
    9TMC3    C413938   1.994   2.118  12.834  0.6510  0.5310 -0.2668
    9TMC3    C513939   2.077   2.080  12.935  0.2011  0.3385 -0.7595
    9TMC3    C613940   2.153   1.960  12.941  0.1171 -0.0289  0.3431
    9TMC3     C13941   1.939   2.089  12.602 -0.9719  0.2016 -0.0087
    9TMC3     O13942   1.870   2.186  12.620  0.3019 -0.6587  0.1990
    9TMC3     H13943   2.071   1.847  12.643  1.0198  1.4602 -1.3028
    9TMC3    H113944   1.946   2.215  12.837 -1.6563 -0.5914 -0.7419
    9TMC3    H213945   2.224   1.940  13.019 -0.4084  0.6394  0.9932
    9TMC3    C713946   2.094   2.169  13.046 -0.2082  0.0038  0.3021
    9TMC3    C813947   2.241   1.769  12.833 -0.4443 -0.6627  0.3184
    9TMC3    O113948   2.063   2.285  13.035 -0.1849  0.3915  0.9151
    9TMC3    O213949   2.306   1.750  12.731  0.3132  0.3440 -0.2972
   10MPD2     C13950   2.558   1.479  13.127 -0.1218 -0.1656  0.6900
   10MPD2    C113951   2.498   1.574  13.202 -0.3604 -0.2428 -0.2506
   10MPD2    C213952   2.399   1.649  13.141  0.3676  0.3937  0.5086
   10MPD2    C313953   2.380   1.653  13.007  0.4114  0.5986  0.4615
   10MPD2    C413954   2.443   1.561  12.926 -0.1686  0.0537  0.2640
   10MPD2    C513955   2.526   1.470  12.994 -0.3969 -0.1555 -0.0687
   10MPD2     H13956   2.344   1.722  13.200 -1.7479 -0.6693 -0.1627
   10MPD2    H113957   2.430   1.566  12.818  0.2650  1.9728  0.3064
   10MPD2    H213958   2.632   1.411  13.168  0.1120  0.6794  1.7012
   10MPD2    H313959   2.583   1.400  12.933  0.2145  0.0958  0.2184
   10MPD2     N13960   2.273   1.734  12.963 -0.6829  0.4420  0.1168
   10MPD2    H513961   2.214   1.761  13.041 -1.7441 -1.3305 -0.0769
   10MPD2    N113962   2.533   1.581  13.334  0.1697 -0.1347  0.5264
   10MPD2    H713963   2.619   1.530  13.352  0.0383  0.4093  2.6319
   11MPD2     C13964   2.977   1.202  14.115 -0.1457 -0.4424  0.0652
   11MPD2    C113965   3.092   1.195  14.189 -0.1700 -0.3666  0.0144
   11MPD2    C213966   3.214   1.215  14.118  0.4517 -0.0258 -1.1099
   11MPD2    C313967   3.209   1.272  13.990  0.3086 -0.0028 -0.0727
   11MPD2    C413968   3.087   1.292  13.925 -0.0586  0.0085  0.2602
   11MPD2    C513969   2.974   1.251  13.986  0.6218  0.2480  1.0800
   11MPD2     H13970   3.313   1.223  14.163  0.4810 -0.6218 -1.0721
   11MPD2    H113971   3.080   1.344  13.830 -0.0110  0.4690  0.5042
   11MPD2    H213972   2.881   1.176  14.158 -1.1795  0.7259 -1.5316
   11MPD2    H313973   2.882   1.260  13.930 -0.5194  0.4642  2.9822
   11MPD2     N13974   3.327   1.322  13.923  0.4529  0.3591 -0.0742
   11MPD2    H513975   3.309   1.380  13.841  0.9274 -0.6591 -0.8964
   11MPD2    N113976   3.077   1.158  14.323 -0.7560  0.2641  0.4918
   11MPD2    H713977   2.984   1.126  14.346 -0.5454  0.9477  2.2971
    1MPD1     C13978   0.775   2.633  17.530  0.4381  0.0197 -0.6860
    1MPD1    C113979   0.680   2.726  17.492 -0.2240  0.7209  0.2991
    1MPD1    C213980   0.731   2.843  17.431 -0.1978  0.2991 -0.1689
    1MPD1    C313981   0.861   2.866  17.396 -0.2457 -0.4627  0.4773
    1MPD1    C413982   0.951   2.783  17.450 -0.8998  0.7579 -0.2213
    1MPD1    C513983   0.905   2.667  17.509 -0.0821 -0.1684  0.2462
    1MPD1     H13984   0.664   2.926  17.413  1.0933  0.8148 -2.5739
    1MPD1    H113985   1.057   2.791  17.428 -0.6564 -1.0635  0.2548
    1MPD1    H213986   0.742   2.540  17.574 -0.3045  0.9276  0.6673
    1MPD1    H313987   0.983   2.596  17.534 -1.9109 -1.9948  0.7753
    1MPD1     N13988   0.906   2.984  17.336 -0.6177 -0.1831 -0.5421
    1MPD1    H513989   1.006   2.998  17.339 -0.6753 -0.1668  1.6236
    1MPD1    N113990   0.544   2.724  17.542  0.3900  0.2845 -0.0913
    1MPD1    H613991   0.514   2.632  17.575 -1.4678  1.0622  0.3729
    1MPD1    H713992   0.472   2.769  17.485  0.0643  0.2157  0.2611
    2MPD1     C13993   1.640   3.268  17.574  0.2785  0.2901 -0.2294
    2MPD1    C113994   1.596   3.150  17.525 -0.3591 -0.1197 -0.0274
    2MPD1    C213995   1.477   3.147  17.457 -0.4880  0.2851 -0.2872
    2MPD1    C313996   1.402   3.263  17.432  0.2201 -0.1621 -0.2410
    2MPD1    C413997   1.452   3.388  17.478  0.4509 -0.2441  0.3645
    2MPD1    C513998   1.569   3.384  17.549 -0.0302  0.1616  0.0438
    2MPD1     H13999   1.441   3.059  17.406  0.1124 -0.4078  0.4776
    2MPD1    H114000   1.406   3.484  17.458 -0.8844 -0.1020  4.1068
    2MPD1    H214001   1.734   3.280  17.626 -0.3321  0.4823  0.8295
    2MPD1    H314002   1.622   3.478  17.562 -0.1488  0.1842  0.3692
    2MPD1     N14003   1.281   3.248  17.358  0.5771 -0.6519 -0.2437
    2MPD1    H514004   1.243   3.154  17.352 -0.5934 -0.3029  1.7322
    2MPD1    N114005   1.650   3.027  17.568  0.0038 -0.0316 -0.2816
    2MPD1    H614006   1.748   3.044  17.593  0.6388 -0.7096 -2.3478
    2MPD1    H714007   1.659   2.957  17.495  0.8763  0.3973 -0.5870
    3TMC3    C114008   1.110   3.295  17.207 -0.4590  0.0637 -0.3543
    3TMC3    C214009   1.069   3.350  17.081  0.0228 -0.2181  0.0432
    3TMC3    C314010   0.954   3.315  17.020  0.3065 -0.1881 -0.6042
    3TMC3    C414011   1.025   3.209  17.269 -0.2646 -0.0431  0.0888
    3TMC3    C514012   0.912   3.172  17.199  0.6533 -0.4310  0.2060
    3TMC3    C614013   0.869   3.220  17.083 -0.5860  0.6974 -0.6808
    3TMC3     C14014   1.226   3.349  17.284  0.6951 -0.3836  0.6136
    3TMC3     O14015   1.274   3.454  17.242 -0.2284 -0.1390 -0.1487
    3TMC3     H14016   1.129   3.432  17.043  0.6397 -1.3766 -1.4572
    3TMC3    H114017   1.035   3.180  17.373 -0.3195  0.8654  0.3514
    3TMC3    H214018   0.781   3.182  17.032  0.4894 -0.0056 -2.0132
    3TMC3    C714019   0.826   3.076  17.261 -0.3551  0.3328  0.1849
    3TMC3    C814020   0.957   3.336  16.879 -0.1530  0.2479 -0.9001
    3TMC3    O114021   0.717   3.057  17.206 -0.6826 -0.2489  0.4763
    3TMC3    O214022   1.061   3.379  16.828  0.1536  0.0830  0.1309
    4MPD1     C14023   0.718   3.405  16.435 -0.4107 -0.5534 -0.7897
    4MPD1    C114024   0.647   3.310  16.502 -1.0442  0.4230  0.2599
    4MPD1    C214025   0.695   3.276  16.628 -0.1660  0.8425 -0.4265
    4MPD1    C314026   0.805   3.335  16.687 -0.4323 -0.8976 -0.7137
    4MPD1    C414027   0.871   3.434  16.617 -0.4538  0.3456 -0.4348
    4MPD1    C514028   0.826   3.468  16.495  0.3179  0.8046 -0.2081
    4MPD1     H14029   0.639   3.206  16.689 -1.6489  1.9724 -0.4816
    4MPD1    H114030   0.949   3.497  16.657  0.3448 -0.7015 -0.3371
    4MPD1    H214031   0.693   3.424  16.331 -0.4133 -2.5174 -1.1399
    4MPD1    H314032   0.889   3.537  16.441  0.1512  2.3503  1.5723
    4MPD1     N14033   0.839   3.306  16.821 -0.5692  0.0409 -0.7757
    4MPD1    H514034   0.765   3.265  16.878 -1.1838  2.6395  0.2920
    4MPD1    N114035   0.544   3.245  16.442 -0.5420  0.6824  0.2697
    4MPD1    H614036   0.491   3.315  16.390 -0.5133  0.0294 -0.6401
    4MPD1    H714037   0.484   3.204  16.513 -1.6696 -0.8073 -1.5461
    1TCq1    O114038   1.553   2.779  10.077  0.3436  0.2812 -0.0701
    1TCq1    C114039   1.492   2.684  10.004  0.1329  0.0370  0.0662
    1TCq1    O214040   1.458   2.699   9.888 -0.4880 -0.1511  0.1166
    1TCq1    C214041   1.457   2.565  10.079  0.1795 -0.1441  0.1610
    1TCq1    C314042   1.533   2.501  10.170  0.5875  0.6160  0.0799
    1TCq1    C414043   1.510   2.367  10.197 -0.0806 -0.4391  0.5724
    1TCq1    C514044   1.380   2.325  10.169  0.6270 -0.0617  0.2318
    1TCq1    C614045   1.305   2.392  10.073 -0.1758 -0.8421 -0.2378
    1TCq1    C714046   1.338   2.518  10.031  0.1097 -0.3278  0.2480
    1TCq1    C814047   1.185   2.339  10.015  0.4353  0.3664 -0.6086
    1TCq1    O414048   1.109   2.422   9.964 -0.7867 -0.5593  0.1909
    1TCq1    C914049   1.576   2.313  10.305  0.6911 -0.2087 -0.4373
    1TCq1    O514050   1.525   2.220  10.371  0.1952  0.1923 -0.0755
    1TCq1    O614051   1.692   2.359  10.324  0.3015 -0.2549  0.4215
    1TCq1    H114052   1.604   2.741  10.151 -2.0954 -0.5387  1.2139
    1TCq1    H214053   1.629   2.551  10.183  0.6867 -0.2014  2.5264
    1TCq1    H314054   1.354   2.224  10.196  1.2003 -0.1196  0.5697
    1TCq1    H414055   1.279   2.578   9.963  2.1112  0.3398 -0.9174
    2MPD1     C14056   0.797   2.033  10.049 -0.9509  0.3648  0.3416
    2MPD1    C114057   0.898   1.972  10.119  0.4872 -0.2677 -0.3118
    2MPD1    C214058   1.023   2.031  10.113 -0.0793  0.0299 -0.8341
    2MPD1    C314059   1.043   2.145  10.036 -0.7042  0.1951 -0.6404
    2MPD1    C414060   0.944   2.195   9.954  0.4033  0.1317 -0.0561
    2MPD1    C514061   0.817   2.148   9.971  0.2177 -0.4177  0.5892
    2MPD1     H14062   1.107   1.981  10.160 -0.9349 -0.4137  0.2109
    2MPD1    H114063   0.961   2.277   9.886 -0.9393 -0.0882 -0.6565
    2MPD1    H214064   0.698   1.990  10.055 -1.0450  0.3473 -1.2486
    2MPD1    H314065   0.739   2.195   9.913  1.1119  0.8902  0.4372
    2MPD1     N14066   1.165   2.209  10.048 -0.3549  0.5078  0.2739
    2MPD1    H514067   1.241   2.158  10.092 -0.4249 -0.2695 -0.4996
    2MPD1    N114068   0.884   1.852  10.183 -0.0676  0.4442 -1.0862
    2MPD1    H614069   0.788   1.825  10.203 -0.1825  0.3436 -1.7569
    2MPD1    H714070   0.937   1.839  10.269  0.5373 -0.1698 -1.5428
    1TCq1    O114071   2.117   0.393   9.217 -0.1122 -0.0879  0.1929
    1TCq1    C114072   1.991   0.340   9.226  0.4164  0.2557  0.4121
    1TCq1    O214073   1.908   0.337   9.131  0.4517 -0.5738 -0.7870
    1TCq1    C214074   2.005   0.232   9.314 -1.0041  0.5486  0.0150
    1TCq1    C314075   1.992   0.104   9.266 -0.0886  0.1288 -0.7224
    1TCq1    C414076   2.025   4.723   9.349 -0.5178  0.0650  0.4938
    1TCq1    C514077   2.106   0.019   9.460  0.2896 -0.4010  0.0937
    1TCq1    C614078   2.127   0.154   9.495 -0.4010  0.2101 -0.3376
    1TCq1    C714079   2.082   0.258   9.427 -0.2283  0.1985 -0.3997
    1TCq1    C814080   2.182   0.184   9.629 -0.2884 -0.4139 -1.0871
    1TCq1    O414081   2.196   0.302   9.652  0.1381 -0.1711 -0.6081
    1TCq1    C914082   2.020   4.597   9.287  0.3705 -0.1181  0.4027
    1TCq1    O514083   1.953   4.585   9.182  0.0357  0.0111 -0.6201
    1TCq1    O614084   2.070   4.509   9.359 -0.3543 -0.0014 -0.8522
    1TCq1    H114085   2.175   0.376   9.294  1.1602 -0.2392 -0.7913
    1TCq1    H214086   1.922   0.086   9.185 -0.0162 -0.7525 -0.5847
    1TCq1    H314087   2.162   4.663   9.508 -0.3388 -1.3173 -0.6903
    1TCq1    H414088   2.085   0.354   9.477  0.5686  0.4251 -0.8815
    2MPD1     C14089   2.476   0.077  10.032 -0.1616 -0.2166 -0.7731
    2MPD1    C114090   2.419   4.682   9.994 -0.0143  0.0127 -0.5839
    2MPD1    C214091   2.343   4.685   9.873 -0.1038  0.0131 -0.4772
    2MPD1    C314092   2.311   0.080   9.813 -0.2386  0.0358 -0.1607
    2MPD1    C414093   2.358   0.198   9.865  0.0641  0.4917 -0.4151
    2MPD1    C514094   2.441   0.193   9.977  0.1440 -0.2070 -0.1454
    2MPD1     H14095   2.313   4.590   9.832  1.1293 -0.7864  0.4494
    2MPD1    H114096   2.344   0.293   9.814 -0.7598  0.7993  0.3764
    2MPD1    H214097   2.546   0.076  10.114 -0.5303 -1.1640 -0.4752
    2MPD1    H314098   2.485   0.285  10.014 -1.4012  1.0362 -1.3810
    2MPD1     N14099   2.226   0.080   9.700 -0.6201 -0.2263  0.2227
    2MPD1    H514100   2.197   4.714   9.664  0.4308 -0.7804  0.7578
    2MPD1    N114101   2.458   4.564  10.051 -0.1812 -0.4379 -0.2228
    2MPD1    H614102   2.384   4.494  10.049 -1.3269  0.8207 -1.7916
    2MPD1    H714103   2.486   4.565  10.149 -0.3054  1.1189 -0.1969
    1MPD1     C14104   2.970   2.164  12.575  0.3268 -0.4670  0.0635
    1MPD1    C114105   2.984   2.276  12.487 -0.7343  0.1629 -0.1315
    1MPD1    C214106   3.108   2.307  12.444 -0.5738 -0.0331  0.2224
    1MPD1    C314107   3.215   2.219  12.446  0.1935 -0.5957 -0.3991
    1MPD1    C414108   3.199   2.109  12.519 -0.7718 -0.0018 -0.4042
    1MPD1    C514109   3.086   2.082  12.586  0.0937  1.0262 -0.4704
    1MPD1     H14110   3.123   2.395  12.383  1.5821  0.2747  1.2124
    1MPD1    H114111   3.287   2.056  12.554 -1.1720 -0.9018 -0.7502
    1MPD1    H214112   2.880   2.131  12.627  1.3215 -0.6928  1.6399
    1MPD1    H314113   3.080   1.993  12.649 -1.5260  2.0447  0.8286
    1MPD1     N14114   3.334   2.264  12.388  0.0481  0.2103 -0.4945
    1MPD1    H514115   3.334   2.359  12.352 -0.6021  0.3539 -0.1300
    1MPD1    N114116   2.873   2.352  12.479 -1.1057  0.4256 -0.6032
    1MPD1    H614117   2.793   2.294  12.504 -1.0261  0.3990 -0.4130
    1MPD1    H714118   2.862   2.401  12.390 -1.0711  0.3535 -0.6477
    2MPD1     C14119   3.072   2.717  11.541  0.4631  0.5210  0.2230
    2MPD1    C114120   3.033   2.662  11.424  0.8486 -0.4652  0.0816
    2MPD1    C214121   3.120   2.652  11.317 -0.3946  0.3775  0.4446
    2MPD1    C314122   3.247   2.703  11.325 -0.1171 -0.0828  0.0004
    2MPD1    C414123   3.286   2.752  11.447 -0.0729  0.6244  0.2657
    2MPD1    C514124   3.200   2.762  11.551  0.9869  0.3381  0.1772
    2MPD1     H14125   3.085   2.601  11.228  1.0745  1.4333 -0.7455
    2MPD1    H114126   3.386   2.789  11.469  0.9563 -0.0498 -3.2334
    2MPD1    H214127   3.017   2.731  11.633  2.5346 -1.4338  1.7546
    2MPD1    H314128   3.227   2.804  11.648  0.0236 -0.1673  0.6653
    2MPD1     N14129   3.336   2.689  11.222  0.3996 -0.3907 -0.4575
    2MPD1    H514130   3.436   2.702  11.232  0.0328  0.1538  2.5720
    2MPD1    N114131   2.908   2.589  11.418 -0.9853  0.2935 -0.1117
    2MPD1    H614132   2.871   2.568  11.325  2.2250  1.0762 -1.5400
    2MPD1    H714133   2.840   2.648  11.467 -0.5180  1.2113 -0.5827
    3MPD1     C14134   3.363   2.492  10.249 -0.3662 -0.6546  0.1663
    3MPD1    C114135   3.259   2.511  10.338  0.4291  0.5266  0.2861
    3MPD1    C214136   3.291   2.564  10.461  0.5545  0.3691  0.8026
    3MPD1    C314137   3.419   2.581  10.505  0.3884  0.0634  0.4117
    3MPD1    C414138   3.520   2.578  10.413 -0.0517  0.6337 -0.2543
    3MPD1    C514139   3.488   2.527  10.290  0.9393  0.3733 -0.1069
    3MPD1     H14140   3.207   2.598  10.520 -1.8350 -3.1146 -0.6256
    3MPD1    H114141   3.624   2.590  10.439 -0.5041  3.7281  0.2012
    3MPD1    H214142   3.366   2.440  10.154  1.3763  1.9115 -1.1956
    3MPD1    H314143   3.573   2.510  10.225 -0.3739  0.3410 -1.8368
    3MPD1     N14144   3.434   2.612  10.640  0.3340 -0.0188  0.3787
    3MPD1    H514145   3.347   2.599  10.690  0.5943  1.3069  1.1921
    3MPD1    N114146   3.134   2.465  10.307 -0.1253 -0.3676 -0.4518
    3MPD1    H614147   3.130   2.444  10.208  1.4561  1.6522 -0.9291
    3MPD1    H714148   3.067   2.538  10.328  0.4344 -0.3737  1.4019
    4MPD2     C14149   3.818   2.730  12.052  0.1342  0.8722  0.4449
    4MPD2    C114150   3.890   2.634  12.127  0.3986 -0.8848  0.3786
    4MPD2    C214151   4.010   2.594  12.079  0.0279 -0.2602 -0.0788
    4MPD2    C314152   4.054   2.644  11.949  0.3301 -0.4292  0.3837
    4MPD2    C414153   3.973   2.732  11.871 -0.4860 -0.5807  0.7650
    4MPD2    C514154   3.856   2.772  11.927  0.2548  0.3379  0.0931
    4MPD2     H14155   4.057   2.512  12.133  1.8333  1.3431  0.8185
    4MPD2    H114156   3.993   2.760  11.768  2.2478 -1.3791  1.0731
    4MPD2    H214157   3.726   2.776  12.086  0.8461  1.2126  1.9180
    4MPD2    H314158   3.784   2.830  11.871 -0.8406 -1.3367 -0.2054
    4MPD2     N14159   4.168   2.596  11.886  0.6924 -0.0408 -0.9084
    4MPD2    H514160   4.206   2.646  11.806  1.3909 -0.0245 -0.5677
    4MPD2    N114161   3.840   2.580  12.248 -0.8672 -0.1059  0.1043
    4MPD2    H714162   3.897   2.510  12.294 -0.8532 -0.0742  0.1351
    5TMC3    C114163   3.684   2.486  12.395  0.7960 -0.9683 -0.1543
    5TMC3    C214164   3.566   2.415  12.365 -0.3311  0.4197 -0.2412
    5TMC3    C314165   3.568   2.281  12.382 -0.3072  0.0595 -0.8954
    5TMC3    C414166   3.799   2.425  12.441 -0.2225 -0.3753 -0.7469
    5TMC3    C514167   3.802   2.288  12.441  0.4705 -0.4041  0.3913
    5TMC3    C614168   3.685   2.217  12.410  0.0793 -0.9915 -0.1194
    5TMC3     C14169   3.706   2.586  12.290  0.3859  0.1622  0.1200
    5TMC3     O14170   3.613   2.636  12.232 -0.2827 -0.7916  0.0904
    5TMC3     H14171   3.473   2.451  12.324 -1.5785 -1.4612  0.9396
    5TMC3    H114172   3.884   2.481  12.476  0.9147 -0.1516 -3.8948
    5TMC3    H214173   3.685   2.109  12.401  1.0531 -0.9435 -0.6097
    5TMC3    C714174   3.927   2.251  12.382 -0.1426  0.5873  0.3051
    5TMC3    C814175   3.448   2.197  12.386 -0.7384 -0.5762  0.3585
    5TMC3    O114176   3.993   2.344  12.340  0.4665  0.4039 -0.1163
    5TMC3    O214177   3.462   2.074  12.395  0.3059 -0.9297 -0.3332
    6TMC3    C114178   3.429   2.608  11.031 -0.1227 -0.2526 -0.3084
    6TMC3    C214179   3.431   2.628  10.901  0.3367 -0.0256 -0.4105
    6TMC3    C314180   3.551   2.626  10.840 -0.3354  0.2303 -0.3524
    6TMC3    C414181   3.539   2.578  11.108  0.1748 -0.4210  0.2444
    6TMC3    C514182   3.655   2.573  11.044  0.1569  0.5799 -0.1308
    6TMC3    C614183   3.666   2.598  10.908 -0.9400 -0.1609  0.0499
    6TMC3     C14184   3.307   2.633  11.098 -0.4766  0.5038  0.0732
    6TMC3     O14185   3.201   2.625  11.040  0.5801 -0.5355  0.5144
    6TMC3     H14186   3.338   2.655  10.852  0.7944  0.0269 -1.2419
    6TMC3    H114187   3.536   2.548  11.212  0.3641  1.2123  0.7210
    6TMC3    H214188   3.759   2.619  10.856 -1.4631 -0.8820 -1.1746
    6TMC3    C714189   3.769   2.525  11.127 -0.9690 -1.0163  0.2947
    6TMC3    C814190   3.560   2.632  10.694 -0.2059 -0.4622 -0.3133
    6TMC3    O114191   3.760   2.519  11.248  0.2904  0.6474  0.2974
    6TMC3    O214192   3.668   2.648  10.635  0.2067  0.1941 -0.0642
    7MPD2     C14193   4.150   1.914  12.057 -0.3324 -0.2079 -0.5353
    7MPD2    C114194   4.163   2.055  12.061 -0.5501  0.5418 -0.0873
    7MPD2    C214195   4.089   2.118  12.160  0.0340 -0.0638 -0.2846
    7MPD2    C314196   4.011   2.053  12.258 -0.5312 -0.3354  0.2429
    7MPD2    C414197   3.996   1.918  12.241  0.6010  0.2038  0.1542
    7MPD2    C514198   4.071   1.848  12.150  0.1867  0.3636  0.0319
    7MPD2     H14199   4.106   2.224  12.170 -2.2455  0.2945 -0.0600
    7MPD2    H114200   3.948   1.852  12.313 -0.5027 -0.1669 -0.9418
    7MPD2    H214201   4.204   1.859  11.980 -1.5000  0.6256 -1.9633
    7MPD2    H314202   4.060   1.740  12.147  1.0177  0.1991  3.2679
    7MPD2     N14203   3.936   2.114  12.361 -0.0746  0.3086 -0.2151
    7MPD2    H514204   3.871   2.057  12.414 -0.5659 -0.5126 -1.6953
    7MPD2    N114205   4.227   2.130  11.960 -0.0963 -0.5731  0.8023
    7MPD2    H714206   4.222   2.231  11.975  2.6020 -0.4343  0.7892
    8TMC3    C114207   4.320   2.200  11.758  0.2460  0.0435 -0.5585
    8TMC3    C214208   4.248   2.216  11.645  0.1195 -0.0958  0.8607
    8TMC3    C314209   4.202   2.338  11.609  0.0239  0.6751 -0.1654
    8TMC3    C414210   4.355   2.303  11.834 -0.0579  0.3300  1.1952
    8TMC3    C514211   4.306   2.432  11.805  0.5567 -0.2047  0.0918
    8TMC3    C614212   4.230   2.452  11.689 -0.0326  0.0886  1.3475
    8TMC3     C14213   4.279   2.083  11.838  0.0808 -0.2506  0.2684
    8TMC3     O14214   4.299   1.971  11.795  0.4058  0.2658  0.1552
    8TMC3     H14215   4.206   2.128  11.598  0.5127 -0.7473  1.7333
    8TMC3    H114216   4.402   2.288  11.931  2.1835  0.6982  0.1787
    8TMC3    H214217   4.218   2.551  11.646  0.2561 -0.5773 -0.2918
    8TMC3    C714218   4.235   2.481  11.918  0.2580  0.3048 -0.1212
    8TMC3    C814219   4.128   2.361  11.485 -0.3123  0.2414 -0.0459
    8TMC3    O114220   4.200   2.397  12.000 -0.0213 -0.5433  0.8407
    8TMC3    O214221   4.036   2.441  11.493  0.6093 -0.6466  0.4491
    9MPD2     C14222   4.232   2.300  11.149 -0.0003 -1.2164 -0.4355
    9MPD2    C114223   4.141   2.322  11.243  0.1088  0.6123  1.0221
    9MPD2    C214224   4.012   2.362  11.212  0.4543 -0.6356 -0.1248
    9MPD2    C314225   3.990   2.411  11.085  0.0146 -0.5995 -0.5159
    9MPD2    C414226   4.093   2.395  10.993  0.0574  0.2753 -0.4008
    9MPD2    C514227   4.207   2.329  11.019 -0.3030  0.1203 -0.6892
    9MPD2     H14228   3.937   2.373  11.290  1.8941 -2.1070  1.4475
    9MPD2    H114229   4.086   2.446  10.897 -3.5367 -2.5083 -1.6280
    9MPD2    H214230   4.329   2.268  11.183  0.6523 -0.4602 -1.5899
    9MPD2    H314231   4.289   2.333  10.948  0.2306  0.8369 -0.0312
    9MPD2     N14232   3.867   2.474  11.044 -0.4233 -0.5250  0.3280
    9MPD2    H514233   3.851   2.485  10.944  0.6468 -1.2654  0.0738
    9MPD2    N114234   4.186   2.300  11.374  0.3962  0.7923 -0.2820
    9MPD2    H714235   4.274   2.252  11.381  0.6406  1.1998 -0.5448
    1MPD1     C14236   4.472   1.731  16.893  0.0624  0.3054 -0.0272
    1MPD1    C114237   4.440   1.620  16.807 -0.5086  0.0103 -0.1081
    1MPD1    C214238   4.325   1.549  16.829 -0.7228 -0.2516 -0.3249
    1MPD1    C314239   4.242   1.578  16.937  0.2918 -0.4229 -0.3245
    1MPD1    C414240   4.270   1.688  17.021 -0.1384  0.1093  0.2591
    1MPD1    C514241   4.392   1.757  17.003 -0.0152 -0.5624  0.3661
    1MPD1     H14242   4.296   1.467  16.764 -1.5390 -0.4084  0.2352
    1MPD1    H114243   4.207   1.712  17.106 -0.7448 -1.0594  0.1278
    1MPD1    H214244   4.566   1.784  16.885  0.2493  0.2385  1.7253
    1MPD1    H314245   4.429   1.832  17.073  0.1063 -0.7978  0.5529
    1MPD1     N14246   4.123   1.505  16.963  0.3198  0.4661 -0.3297
    1MPD1    H514247   4.087   1.531  17.054 -0.0838 -1.5337  0.0839
    1MPD1    N114248   4.521   1.584  16.696 -0.4731  0.1377 -0.1023
    1MPD1    H614249   4.613   1.627  16.699  0.2175 -1.4180  0.9772
    1MPD1    H714250   4.515   1.491  16.655  0.6559  0.3157 -0.6783
    2MPD1     C14251   3.391   1.382  16.441 -0.5155  0.3338 -0.2320
    2MPD1    C114252   3.464   1.491  16.466  1.0853  0.0837 -0.0031
    2MPD1    C214253   3.533   1.495  16.590 -0.5393 -0.2495  0.6703
    2MPD1    C314254   3.521   1.397  16.686  0.3180 -0.4939  0.0066
    2MPD1    C414255   3.436   1.291  16.661  0.3247  0.3694 -0.0917
    2MPD1    C514256   3.364   1.288  16.540  0.3277  0.8131 -0.1515
    2MPD1     H14257   3.600   1.580  16.603  0.6227 -1.1091  0.2776
    2MPD1    H114258   3.428   1.202  16.724  1.9400 -1.1754 -2.0733
    2MPD1    H214259   3.320   1.378  16.359 -0.0659 -0.1092 -0.5952
    2MPD1    H314260   3.294   1.208  16.522 -1.2125  1.6972  1.9464
    2MPD1     N14261   3.617   1.389  16.789 -0.1950  0.3354  0.5823
    2MPD1    H514262   3.688   1.461  16.780  0.0702 -0.0931 -0.7158
    2MPD1    N114263   3.466   1.595  16.371 -0.1234  0.2299 -0.4548
    2MPD1    H614264   3.413   1.584  16.285  0.0839 -0.1557 -0.5345
    2MPD1    H714265   3.557   1.637  16.354 -0.2504  1.3704  1.6568
    3TCq2    C114266   3.605   1.305  16.896  0.4966  0.4437 -0.0679
    3TCq2    O214267   3.504   1.265  16.947  0.1039  0.4182 -0.1595
    3TCq2    C214268   3.735   1.267  16.941 -0.0007  0.6474 -0.8507
    3TCq2    C314269   3.741   1.224  17.069  0.0444 -0.4759  0.1920
    3TCq2    C414270   3.861   1.234  17.139 -0.1149  0.7075  0.3879
    3TCq2    C514271   3.969   1.300  17.085  0.5969  0.9253  0.2868
    3TCq2    C614272   3.953   1.353  16.956  0.6428 -0.4890 -1.1443
    3TCq2    C714273   3.842   1.332  16.886 -0.1267 -0.1541 -0.4347
    3TCq2    C814274   4.065   1.404  16.888  0.7588 -0.1371  0.0747
    3TCq2    O414275   4.096   1.356  16.783 -0.8682 -0.2889  0.5450
    3TCq2    C914276   3.862   1.199  17.273 -0.5580 -0.3049  0.2681
    3TCq2    O514277   3.958   1.238  17.336 -0.0924  0.3470  0.8319
    3TCq2    O614278   3.754   1.160  17.330 -0.0246 -0.5506  0.0866
    3TCq2    H214279   3.646   1.195  17.114 -0.8455 -0.2479 -1.5609
    3TCq2    H314280   4.062   1.307  17.140  0.9865  0.6641 -0.3409
    3TCq2    H414281   3.848   1.369  16.784  0.0833  0.5888 -0.1526
    1TCq1    O114282   0.107   0.345  13.718 -0.1384 -0.2119 -0.3081
    1TCq1    C114283   0.182   0.458  13.704 -0.1485  0.2411  0.0961
    1TCq1    O214284   0.242   0.504  13.802 -0.0920 -0.4523 -0.3107
    1TCq1    C214285   0.244   0.455  13.572  0.2222 -0.2316  0.2280
    1TCq1    C314286   0.162   0.425  13.464 -0.3033  0.3007  0.4119
    1TCq1    C414287   0.218   0.394  13.349 -0.1300 -0.1055  0.5607
    1TCq1    C514288   0.354   0.397  13.338 -0.1140  0.2233 -0.1257
    1TCq1    C614289   0.430   0.429  13.445  0.7347  0.1491 -0.3242
    1TCq1    C714290   0.382   0.457  13.572  0.1016 -0.5722 -0.0384
    1TCq1    C814291   0.573   0.421  13.425 -0.1195 -0.3091 -0.0892
    1TCq1    O414292   0.598   0.348  13.328  0.2288 -0.1916 -0.1362
    1TCq1    C914293   0.143   0.334  13.244 -0.6964  0.4805  0.0866
    1TCq1    O514294   0.018   0.315  13.260 -0.0047 -0.2137  0.2490
    1TCq1    O614295   0.204   0.303  13.142  0.0824  0.4597  0.0518
    1TCq1    H114296   0.088   0.287  13.640 -2.5878  0.4405 -0.1948
    1TCq1    H214297   0.057   0.407  13.483 -0.7846  1.9364 -0.6656
    1TCq1    H314298   0.405   0.362  13.249 -1.8130  0.0608 -1.0415
    1TCq1    H414299   0.441   0.486  13.658 -3.1036  1.0888  1.6118
    2MPD2     C14300   0.847   0.497  13.375 -1.2701  0.3042 -0.5659
    2MPD2    C114301   0.795   0.483  13.498  0.0474 -0.0582  0.3645
    2MPD2    C214302   0.889   0.490  13.598  0.4808  0.1298 -0.0711
    2MPD2    C314303   1.021   0.516  13.580 -0.4292 -0.4127 -0.6348
    2MPD2    C414304   1.070   0.522  13.448  0.3666  0.5164  0.6243
    2MPD2    C514305   0.977   0.523  13.349  0.3113 -0.2361 -0.4022
    2MPD2     H14306   0.848   0.483  13.698  0.8885  0.6469  0.1281
    2MPD2    H114307   1.169   0.561  13.429 -0.0620  0.1215 -2.4684
    2MPD2    H214308   0.785   0.493  13.286 -1.2375 -1.9973 -0.4778
    2MPD2    H314309   1.012   0.547  13.249 -1.2936 -2.3100 -1.4725
    2MPD2     N14310   1.102   0.514  13.700  0.2373 -0.3874  0.2227
    2MPD2    H514311   1.054   0.514  13.789  1.1624 -0.2986  0.7155
    2MPD2    N114312   0.660   0.453  13.526 -0.0546  0.0598 -0.3601
    2MPD2    H714313   0.637   0.447  13.624 -1.2515 -0.8804 -0.6906
    3TCq1    O114314   1.370   0.850  14.138  0.2340  1.2791 -0.5114
    3TCq1    C114315   1.271   0.760  14.113 -0.9231 -0.1668 -0.5901
    3TCq1    O214316   1.152   0.794  14.111  0.1004  0.2406  0.3253
    3TCq1    C214317   1.331   0.660  14.018 -0.1793 -0.4579  0.1221
    3TCq1    C314318   1.458   0.630  14.036  0.3619  0.2146 -0.7498
    3TCq1    C414319   1.510   0.558  13.929  0.5571  0.4459 -0.0501
    3TCq1    C514320   1.442   0.514  13.818 -0.6087 -0.0810  0.7308
    3TCq1    C614321   1.310   0.537  13.819 -0.5512  0.4211  0.2128
    3TCq1    C714322   1.250   0.611  13.916  0.2572 -0.5940 -0.0619
    3TCq1    C814323   1.238   0.501  13.694 -0.7651 -0.5910  0.5652
    3TCq1    O414324   1.313   0.477  13.601  0.6050  0.1742 -0.0095
    3TCq1    C914325   1.655   0.533  13.938  0.4014  0.1616  0.3092
    3TCq1    O514326   1.704   0.452  13.857  0.2853 -0.1111  0.0988
    3TCq1    O614327   1.724   0.616  14.000 -0.1556  0.0192 -0.1090
    3TCq1    H114328   1.462   0.818  14.128  0.2751  0.7887  1.3111
    3TCq1    H214329   1.508   0.658  14.128  1.2559 -3.6224 -0.0282
    3TCq1    H314330   1.502   0.463  13.743  0.9716  0.4759  1.6157
    3TCq1    H414331   1.144   0.631  13.920  0.5175  1.0420 -1.2527
    1MPD2     C14332   0.781   1.342  15.043  0.3459  0.1382 -0.6841
    1MPD2    C114333   0.794   1.313  14.907 -0.0911  0.3883  0.3020
    1MPD2    C214334   0.886   1.385  14.831  0.6936  1.0402 -0.6308
    1MPD2    C314335   0.965   1.485  14.888 -0.0927  0.3688 -0.3811
    1MPD2    C414336   0.948   1.518  15.026 -0.4234 -0.0969  0.4598
    1MPD2    C514337   0.858   1.443  15.105 -0.6313  0.7572 -0.3324
    1MPD2     H14338   0.902   1.368  14.725  2.1872  0.4554 -0.3141
    1MPD2    H114339   1.002   1.594  15.083  1.1689 -0.5352 -0.4569
    1MPD2    H214340   0.712   1.291  15.109 -0.3176 -0.4655 -1.8451
    1MPD2    H314341   0.845   1.482  15.206  2.1982 -2.1722  1.1894
    1MPD2     N14342   1.038   1.569  14.810  0.1079  0.4242  0.3785
    1MPD2    H514343   1.106   1.633  14.849  0.3717 -2.0903  3.9482
    1MPD2    N114344   0.711   1.209  14.858  0.3512 -0.7360  0.4288
    1MPD2    H714345   0.655   1.152  14.921 -0.6431 -0.3747 -0.1284
    2TMC3    C114346   0.622   1.056  14.698  0.4444 -0.3481 -0.1354
    2TMC3    C214347   0.670   1.010  14.576 -1.3189  0.6457  0.1800
    2TMC3    C314348   0.586   0.982  14.475 -0.4228 -0.2328 -0.7081
    2TMC3    C414349   0.484   1.077  14.710 -0.9773 -0.9592  0.2232
    2TMC3    C514350   0.400   1.040  14.602  0.2882  0.5148 -0.1708
    2TMC3    C614351   0.457   1.015  14.485 -0.1040 -0.7332  0.5628
    2TMC3     C14352   0.703   1.170  14.726  0.0340  0.3174  0.9193
    2TMC3     O14353   0.750   1.220  14.626  0.2721 -0.0743  0.1580
    2TMC3     H14354   0.778   0.998  14.573 -1.3269  0.7270 -0.3168
    2TMC3    H114355   0.427   1.121  14.791 -0.9010  0.6805 -0.6154
    2TMC3    H214356   0.398   1.017  14.394  0.9334 -0.0765 -0.0921
    2TMC3    C714357   0.281   1.118  14.587  0.1450 -0.1128  0.2565
    2TMC3    C814358   0.644   1.027  14.346 -0.0529 -0.2689 -0.2772
    2TMC3    O114359   0.268   1.225  14.646 -0.0463  0.7430  0.1310
    2TMC3    O214360   0.601   0.985  14.240 -0.0380  0.3880  0.0794
    3TCq1    O114361   4.200   0.386  14.246 -0.0333  0.1626 -0.2984
    3TCq1    C114362   4.301   0.477  14.244  0.5043 -0.2147  0.0397
    3TCq1    O214363   4.418   0.455  14.239  0.0367  0.1678  0.2372
    3TCq1    C214364   4.245   0.608  14.216  0.7163  0.5954 -0.3891
    3TCq1    C314365   4.151   0.624  14.119 -0.3202 -0.0435 -0.0564
    3TCq1    C414366   4.133   0.750  14.073  0.7667 -0.2835  0.0885
    3TCq1    C514367   4.193   0.852  14.132 -0.7256 -0.5649 -0.1837
    3TCq1    C614368   4.275   0.841  14.244  0.5953  0.9000  0.6837
    3TCq1    C714369   4.314   0.710  14.275  0.7983 -0.0739  0.6093
    3TCq1    C814370   4.353   0.958  14.277 -0.3869  0.1090  0.0036
    3TCq1    O414371   4.297   1.062  14.248  0.3620 -0.1444  0.0231
    3TCq1    C914372   4.052   0.770  13.954  0.0778 -0.3299  0.1423
    3TCq1    O514373   4.031   0.654  13.902 -0.0043  0.5976  0.5649
    3TCq1    O614374   4.056   0.882  13.899  0.0917  0.4285 -0.2265
    3TCq1    H114375   4.108   0.418  14.257 -0.1138 -0.1508 -0.0402
    3TCq1    H214376   4.124   0.535  14.064 -0.7619 -0.4047  0.7381
    3TCq1    H314377   4.165   0.950  14.094 -0.1462 -1.0343 -1.7984
    3TCq1    H414378   4.386   0.686  14.351  0.5048  0.6009  1.1028
    4MPD2     C14379   4.545   1.159  14.364  0.2737 -0.1430 -0.1294
    4MPD2    C114380   4.567   1.029  14.380 -0.2436 -0.0805  0.2213
    4MPD2    C214381   4.691   0.990  14.440  0.9034 -0.2049 -0.3268
    4MPD2    C314382   0.059   1.088  14.487  0.2008 -0.4001  0.0093
    4MPD2    C414383   0.021   1.216  14.495  0.3217  0.8051 -0.2588
    4MPD2    C514384   4.626   1.246  14.427 -0.0912  0.6092 -0.2565
    4MPD2     H14385   4.711   0.885  14.451 -0.3975 -0.5445 -1.1815
    4MPD2    H114386   0.074   1.300  14.538  0.1524  0.8694 -0.1798
    4MPD2    H214387   4.456   1.208  14.327 -0.8526 -1.3633  0.9706
    4MPD2    H314388   4.596   1.349  14.415  1.7554  1.2563  0.6928
    4MPD2     N14389   0.187   1.042  14.521  0.4955 -0.5702  0.1162
    4MPD2    H514390   0.222   0.948  14.501  1.0222 -0.3695  0.0797
    4MPD2    N114391   4.478   0.930  14.332 -0.2102 -0.4867 -0.3526
    4MPD2    H714392   4.500   0.836  14.361 -0.5232 -0.1473  0.9888
    5TMC2    C114393   1.171   1.659  14.384 -0.6092 -0.0652 -0.0060
    5TMC2    C214394   1.304   1.650  14.409 -0.0748 -0.1581  0.5575
    5TMC2    C314395   1.333   1.645  14.539 -0.3953 -0.5814 -0.3797
    5TMC2    C414396   1.074   1.690  14.475  0.0442  0.1548 -0.4408
    5TMC2    C514397   1.112   1.680  14.610 -0.3910 -0.6734 -0.0580
    5TMC2    C614398   1.242   1.655  14.643 -0.1053  0.0648  0.7312
    5TMC2     C14399   1.117   1.582  14.277  0.4388  0.5593 -0.6655
    5TMC2     O14400   1.174   1.569  14.169  0.0392  0.3533 -0.1313
    5TMC2     H14401   1.382   1.644  14.334  0.9967 -2.8067  1.8853
    5TMC2    H114402   0.971   1.711  14.451  0.4826  1.1653 -1.4528
    5TMC2    H214403   1.275   1.621  14.741 -0.2738 -0.6038  0.5567
    5TMC2    C714404   1.014   1.593  14.676  0.0650 -0.4163 -0.3207
    5TMC2    C814405   1.467   1.618  14.585  0.1830  0.0212  0.2748
    5TMC2    O114406   0.935   1.545  14.595  0.1227  0.0012  0.1495
    5TMC2    O214407   1.527   1.517  14.545  0.3016 -0.3720 -0.5200
    5TMC2    O514408   1.487   1.699  14.691  0.4495 -0.1288  0.3067
    5TMC2    H514409   1.432   1.780  14.692  0.5364 -0.0608 -0.1565
    6MPD2     C14410   0.819   1.189  14.148  0.1063  0.0349  0.5128
    6MPD2    C114411   0.804   1.214  14.280 -0.4689  0.0367 -0.1180
    6MPD2    C214412   0.871   1.324  14.333 -0.4019  0.7640  0.5919
    6MPD2    C314413   0.945   1.408  14.250  0.5408  0.2090  0.9425
    6MPD2    C414414   0.956   1.389  14.114  0.3681  0.3276  0.8558
    6MPD2    C514415   0.890   1.277  14.069  0.5028  0.6160 -0.4710
    6MPD2     H14416   0.861   1.344  14.439  0.1587  0.6326  0.6687
    6MPD2    H114417   1.025   1.450  14.058 -0.2547 -1.7363 -2.1664
    6MPD2    H214418   0.774   1.099  14.109  1.6465 -1.0141  1.1676
    6MPD2    H314419   0.893   1.255  13.963 -0.0028 -1.0178 -0.1445
    6MPD2     N14420   1.010   1.506  14.322 -0.1554  0.1420 -0.0754
    6MPD2    H514421   0.989   1.516  14.421  2.3388 -1.5139  0.6054
    6MPD2    N114422   0.725   1.137  14.366  0.0265  0.8416  0.1561
    6MPD2    H714423   0.721   1.160  14.465  0.4033  0.4103  0.2688
  945NH4     N114424   3.387   2.765  14.283 -1.2119  0.1649  0.5061
  945NH4     H214425   3.462   2.832  14.257 -0.2168 -2.3765 -3.0938
  945NH4     H314426   3.362   2.699  14.207 -0.1242 -1.7031  1.7404
  945NH4     H414427   3.308   2.832  14.293  0.1203  1.6675  1.0330
  945NH4     H514428   3.401   2.723  14.378  1.1497  1.3087  0.6554
  946SOD     NA14429   0.536   1.299   2.582  0.7654 -0.1997 -0.0265
  947SOD     NA14430   2.209   0.642  14.892  0.5505  0.4731  0.3336
  948SOD     NA14431   0.103   4.366  11.170  0.1900 -0.1644  0.3897
  949SOD     NA14432   4.567   4.364  10.439 -0.2937 -0.4287 -0.0411
  950SOD     NA14433   2.836   4.646   9.770 -0.5234  0.1743 -0.0810
  951SOD     NA14434   3.783   0.430  17.413  0.1827 -0.5678 -0.3813
  952SOD     NA14435   2.487   3.828   0.959  0.4988 -0.6366  0.2656
  953SOD     NA14436   0.336   0.483   7.779  0.1978 -0.3722 -0.1709
  954SOD     NA14437   2.136   3.611  13.149 -0.0089  0.0881 -0.1164
  955SOD     NA14438   2.490   0.057  14.084 -0.1571 -0.1223 -0.7592
  956SOD     NA14439   3.925   1.033  13.840 -0.2057  0.1040  0.3945
  957SOD     NA14440   1.371   0.693  11.669 -0.3400 -0.0780  0.7895
  958SOD     NA14441   2.978   3.547  17.138 -0.0523  0.3408  0.0147
  959SOD     NA14442   1.738   1.108  11.638 -0.2712 -0.0600 -0.4744
  960SOD     NA14443   2.514   0.764  11.186  0.5525  0.2749  0.1661
  961SOD     NA14444   3.669   4.283   1.635 -0.6505  0.2435 -0.3611
  962SOD     NA14445   2.536   0.439  14.531  0.2069 -0.1449  0.0025
  963SOD     NA14446   4.449   1.345  11.302 -0.1042 -0.2242 -0.1895
  964SOD     NA14447   4.437   4.408  10.685 -0.2792  0.4556 -0.7559
  965SOD     NA14448   3.626   2.446  11.688  0.0317  0.0488  0.0144
  966SOD     NA14449   2.679   0.255   2.188 -0.0714  0.4007  0.3412
  967SOD     NA14450   4.571   0.358  14.089  0.1509 -0.1040  0.2362
  968SOD     NA14451   4.403   1.457  10.984 -0.0393  0.2646 -0.1590
  969SOD     NA14452   1.616   0.758  11.539 -0.3867  0.1513  0.2813
  970SOD     NA14453   1.227   0.353  10.813  0.0358  0.6140  0.1089
  971SOD     NA14454   3.732   4.018   1.331  0.2644  0.0541 -0.3538
  972SOD     NA14455   0.422   4.378  13.337 -0.2354 -0.1487  0.4741
  973SOD     NA14456   2.293   0.490  14.332 -0.0057  0.0185  0.0150
  974SOD     NA14457   0.037   2.384   1.150 -0.1265 -0.1062  0.4062
  975SOD     NA14458   1.203   3.076  11.897 -0.0649 -0.4070  0.3599
  976SOD     NA14459   2.692   3.353  16.446 -0.4475  0.4602 -0.4815
  977SOD     NA14460   1.764   2.920  10.813 -0.0113 -0.3318  0.0234
  978SOD     NA14461   0.960   1.352  10.998 -0.3905  0.0344  0.4818
  979SOD     NA14462   0.843   3.310   2.139 -0.1842 -0.3271 -0.0769
  980SOD     NA14463   2.019   1.513  13.870 -0.6255 -0.7030  0.1508
  981SOD     NA14464   3.797   2.284   9.193  0.1019 -0.3333 -0.0771
  982SOD     NA14465   2.953   4.303  13.431  0.0291  0.0063  0.1352
  983SOD     NA14466   3.639   1.224  15.234  0.0293 -0.4673  0.1734
  984SOD     NA14467   2.612   2.680   1.807  0.3242 -0.2251  0.2930
  985SOD     NA14468   1.826   2.577  10.718 -0.2224  0.1268 -0.6756
  986SOD     NA14469   0.237   4.542  15.536 -0.0652 -0.0773 -0.2041
  987SOD     NA14470   2.761   1.017  15.282  0.1397 -0.1958  0.0763
  988SOD     NA14471   0.433   4.011   2.137  0.2409  0.2986 -0.2186
  989SOD     NA14472   0.170   2.246   8.029 -0.0084 -0.2738 -0.3054
  990SOD     NA14473   1.285   0.542  10.520 -0.3090  0.2773  0.3636
  991SOD     NA14474   2.118   0.718  15.750  0.0516  0.0878  0.3195
  992SOD     NA14475   3.686   4.655  13.385 -0.0942  0.0019  0.1132
  993SOD     NA14476   2.520   2.772  17.143  0.0172  0.2244  0.1412
  994SOD     NA14477   0.058   1.753  15.809  0.1369  0.0963 -0.6483
  995SOD     NA14478   0.886   2.874  11.164 -0.0463 -0.1159  0.0405
  996SOD     NA14479   1.006   0.386  12.430  0.2224 -0.7584  0.0439
  997SOD     NA14480   3.045   3.399   1.529 -0.1531  0.0104 -0.0998
  998SOD     NA14481   4.680   1.165  13.952  0.0595 -0.2151  0.5500
  999SOD     NA14482   2.113   2.077   5.122 -0.2943 -0.3320 -0.1401
 1000SOD     NA14483   1.593   0.229   8.597 -0.1301 -0.0166  0.6321
 1001SOD     NA14484   0.351   4.478  12.750  0.4557 -0.2475 -0.1376
 1002SOD     NA14485   1.712   0.895  11.820 -0.2956 -0.1904 -0.0143
 1003SOD     NA14486   0.450   3.797   3.856 -0.0944 -0.0395  0.3863
 1004SOD     NA14487   4.100   1.230  13.625 -0.5607 -0.1567 -0.2450
 1005SOD     NA14488   3.055   4.513   9.603 -0.2916  0.0691  0.6894
 1006SOD     NA14489   1.514   3.237   8.686 -0.2304 -0.1917 -0.0278
 1007SOD     NA14490   1.094   4.113  10.002 -0.3060 -0.2998  0.0188
 1008SOD     NA14491   1.034   0.528   3.887  0.4560  0.3144 -0.1495
 1009SOD     NA14492   3.888   1.318   8.230  0.1730  0.1102  0.3942
 1010SOD     NA14493   4.286   1.487   0.977 -0.0252  0.1264 -0.4704
 1011SOL     OW14494   1.642   0.551   4.306  0.2742 -0.3147 -0.5690
 1011SOL    HW114495   1.600   0.501   4.375  0.4571 -1.0516 -0.9839
 1011SOL    HW214496   1.732   0.554   4.339  0.7297 -3.0825 -1.5356
 1012SOL     OW14497   4.037   3.248   5.210  0.2054 -0.6593 -0.3847
 1012SOL    HW114498   3.962   3.307   5.203  0.0714 -1.0212 -2.1445
 1012SOL    HW214499   4.109   3.305   5.235 -0.3089  0.3030 -1.0966
 1013SOL     OW14500   0.297   2.277  13.861  0.3655  0.4660  0.3172
 1013SOL    HW114501   0.290   2.182  13.869 -1.6665  0.6648  0.8440
 1013SOL    HW214502   0.332   2.282  13.772  2.2405  1.3033  1.0983
 1014SOL     OW14503   3.081   4.691   1.591 -0.1313 -0.3000  0.3771
 1014SOL    HW114504   3.038   4.629   1.650  0.4172  0.5326  1.6370
 1014SOL    HW214505   3.144   4.722   1.656  1.3666  0.1380 -1.2922
 1015SOL     OW14506   0.195   4.567   0.913  0.1802 -0.3030 -0.0126
 1015SOL    HW114507   0.198   4.564   1.009  1.4361 -1.1149 -0.0834
 1015SOL    HW214508   0.104   4.537   0.902  0.1478 -0.0076 -0.5302
 1016SOL     OW14509   3.151   3.741   0.483  0.1306  0.3313  0.5388
 1016SOL    HW114510   3.238   3.724   0.519 -0.0014 -0.1730  0.6237
 1016SOL    HW214511   3.143   3.666   0.424  0.6233  0.9334 -0.2811
 1017SOL     OW14512   0.499   0.051   3.201  0.6078 -0.2745  0.2958
 1017SOL    HW114513   0.497   0.147   3.195 -2.7104 -0.2793  1.5354
 1017SOL    HW214514   0.530   0.040   3.291  2.0510  3.2003  0.2240
 1018SOL     OW14515   4.519   3.406  11.551  0.3474  0.6068 -0.2296
 1018SOL    HW114516   4.553   3.446  11.631 -0.2926 -3.3891  2.0522
 1018SOL    HW214517   4.425   3.416  11.561  0.0060 -2.4274 -0.3733
 1019SOL     OW14518   1.882   2.525   4.483  0.2991 -0.0180 -0.0756
 1019SOL    HW114519   1.843   2.438   4.493  1.0220 -0.2799  0.4261
 1019SOL    HW214520   1.963   2.500   4.439  0.0559 -1.3942  0.2689
 1020SOL     OW14521   0.168   3.797   6.830  0.1104 -0.3100 -0.4300
 1020SOL    HW114522   0.222   3.845   6.767  2.9960  0.9105  2.9427
 1020SOL    HW214523   0.230   3.724   6.838  0.7300  0.3359  0.7865
 1021SOL     OW14524   1.354   4.622   8.420  0.1374 -0.4199 -0.5955
 1021SOL    HW114525   1.297   4.574   8.480 -1.0844  0.7434 -0.8154
 1021SOL    HW214526   1.279   4.661   8.374  0.9148 -0.7271 -2.1194
 1022SOL     OW14527   0.993   0.659   5.367 -0.2588 -0.1233  0.3000
 1022SOL    HW114528   1.050   0.627   5.438  2.0118  2.8548 -0.1417
 1022SOL    HW214529   1.056   0.695   5.305 -0.8331 -1.6701 -1.1560
 1023SOL     OW14530   4.660   3.785   4.667  0.5102 -0.0785 -0.6351
 1023SOL    HW114531   4.615   3.702   4.650 -0.2034  0.0715  0.5188
 1023SOL    HW214532   4.600   3.847   4.625 -0.2705 -0.7434 -0.5054
 1024SOL     OW14533   3.070   2.502   6.293 -0.2777  0.1146  0.1900
 1024SOL    HW114534   3.070   2.477   6.385 -2.1050  0.7310  0.3402
 1024SOL    HW214535   3.097   2.594   6.302  1.4202 -0.3269 -0.3213
 1025SOL     OW14536   1.559   3.333   4.413 -0.5823 -0.0147 -0.2219
 1025SOL    HW114537   1.543   3.247   4.375  0.6474 -0.8028  1.0146
 1025SOL    HW214538   1.653   3.335   4.431 -0.8479 -0.8059  1.3148
 1026SOL     OW14539   1.882   2.634   8.033 -0.0904 -0.3825 -0.2369
 1026SOL    HW114540   1.790   2.612   8.048 -0.0423 -1.1069 -1.0131
 1026SOL    HW214541   1.869   2.670   7.945 -0.0321 -2.0943 -0.9484
 1027SOL     OW14542   2.891   1.064   6.462  0.2996  0.8014 -0.7699
 1027SOL    HW114543   2.811   1.117   6.466 -0.6380 -0.7973  1.2795
 1027SOL    HW214544   2.939   1.117   6.398  0.6310  1.3638 -0.0471
 1028SOL     OW14545   0.966   0.101   9.775  0.0125 -0.6439  0.5168
 1028SOL    HW114546   0.904   0.031   9.758 -0.7695  0.2495 -0.2690
 1028SOL    HW214547   1.029   0.059   9.833  0.1135 -0.1657  0.7570
 1029SOL     OW14548   4.029   1.308   3.687  0.1400  0.1099  1.4724
 1029SOL    HW114549   4.026   1.250   3.611 -0.5926 -0.5848  2.0262
 1029SOL    HW214550   4.008   1.393   3.646 -0.6637 -0.5130  0.5917
 1030SOL     OW14551   2.726   0.594   4.823  0.1634  0.4687 -0.0250
 1030SOL    HW114552   2.756   0.646   4.897  1.8315  0.7005 -0.8809
 1030SOL    HW214553   2.773   0.638   4.753  0.2803  1.4903  0.6984
 1031SOL     OW14554   2.663   4.513  15.646  0.1213 -0.1385 -0.0525
 1031SOL    HW114555   2.570   4.495  15.662  0.3877 -0.9325  0.6300
 1031SOL    HW214556   2.700   4.492  15.732 -1.0714  0.6341  0.6460
 1032SOL     OW14557   3.694   4.527   1.984 -0.3494  0.2168  0.0924
 1032SOL    HW114558   3.764   4.467   1.962  2.1790  1.8898  3.6233
 1032SOL    HW214559   3.645   4.525   1.902 -0.2714  3.2792 -0.0519
 1033SOL     OW14560   3.004   2.977   2.536 -0.3918 -0.0699 -0.1594
 1033SOL    HW114561   3.100   2.988   2.535 -0.3947 -0.0722 -1.6333
 1033SOL    HW214562   2.993   2.943   2.447 -1.5181 -1.2634  0.4328
 1034SOL     OW14563   3.601   3.955   3.841  0.0359 -0.1349 -0.2960
 1034SOL    HW114564   3.513   3.956   3.879  0.7835 -0.4590  1.4583
 1034SOL    HW214565   3.643   3.924   3.921 -0.9422 -1.5334 -0.3173
 1035SOL     OW14566   0.294   4.205   2.180  0.5659  0.3967 -0.0499
 1035SOL    HW114567   0.256   4.262   2.114 -0.9630 -0.5342  0.0317
 1035SOL    HW214568   0.323   4.277   2.237  0.9319 -0.4091  0.7941
 1036SOL     OW14569   4.303   2.461   8.618 -0.2150  0.4848  0.2814
 1036SOL    HW114570   4.310   2.373   8.656 -2.0907  0.4375  0.4827
 1036SOL    HW214571   4.215   2.454   8.581  0.2000  0.9408 -0.8002
 1037SOL     OW14572   0.899   3.110   0.917 -0.0444 -0.3650  0.3843
 1037SOL    HW114573   0.926   3.019   0.932 -1.9161 -0.9262  0.4187
 1037SOL    HW214574   0.847   3.092   0.839  0.5350  0.5632 -0.2148
 1038SOL     OW14575   0.664   2.709   3.445 -0.0527  0.7807  0.5778
 1038SOL    HW114576   0.579   2.679   3.415  0.3648 -1.5436  1.7193
 1038SOL    HW214577   0.698   2.748   3.364 -0.0095  0.5476  0.4843
 1039SOL     OW14578   4.376   0.160   4.412  0.5366  0.6317 -0.1219
 1039SOL    HW114579   4.430   0.093   4.454 -1.0960 -1.6417 -1.6334
 1039SOL    HW214580   4.375   0.132   4.321  1.3185  1.7037 -0.4584
 1040SOL     OW14581   0.768   0.440  15.778  0.2478  0.1751 -0.0556
 1040SOL    HW114582   0.819   0.465  15.855 -1.6928  0.5669  1.0956
 1040SOL    HW214583   0.837   0.405  15.721 -0.0975 -0.7011  0.0690
 1041SOL     OW14584   4.637   0.633  14.392  0.0161 -0.1996 -0.1367
 1041SOL    HW114585   4.695   0.674  14.328 -0.2786 -0.8106 -0.7993
 1041SOL    HW214586   4.626   0.548  14.347  2.2747 -1.5602  1.8719
 1042SOL     OW14587   3.282   4.078   4.348 -0.4397  0.0066  0.1722
 1042SOL    HW114588   3.236   4.162   4.343 -0.2168  0.1608  0.7433
 1042SOL    HW214589   3.313   4.062   4.259  0.7313  3.5611 -0.0711
 1043SOL     OW14590   1.095   0.585  12.523  0.1848 -0.1525  0.4716
 1043SOL    HW114591   1.182   0.621  12.510  0.2494  0.0440  1.4950
 1043SOL    HW214592   1.078   0.595  12.616 -1.1410 -1.3132  0.3704
 1044SOL     OW14593   2.880   4.507   2.776  0.3439 -0.7409 -0.3854
 1044SOL    HW114594   2.791   4.479   2.756 -0.5660  1.3305  0.7598
 1044SOL    HW214595   2.939   4.441   2.738  0.9333 -0.0148 -0.7262
 1045SOL     OW14596   4.058   0.467   6.586  0.4892  0.1432  0.1797
 1045SOL    HW114597   4.091   0.461   6.496  0.6526  1.7903  0.1319
 1045SOL    HW214598   3.967   0.440   6.577  0.8001 -0.0668 -2.5188
 1046SOL     OW14599   1.544   0.841   4.237  0.1210  0.0720  0.3449
 1046SOL    HW114600   1.550   0.769   4.300 -0.9951 -0.4529 -0.1472
 1046SOL    HW214601   1.609   0.814   4.173 -0.7310 -2.8202  0.6746
 1047SOL     OW14602   2.950   1.224   6.122  0.2595  0.0416 -0.0470
 1047SOL    HW114603   2.991   1.310   6.109 -2.7979  1.2651 -1.4606
 1047SOL    HW214604   3.019   1.163   6.095  1.2499  0.4483  1.5281
 1048SOL     OW14605   3.431   1.826  12.529  0.4135 -0.4053  0.1540
 1048SOL    HW114606   3.436   1.914  12.492 -0.7522 -0.7982 -0.9366
 1048SOL    HW214607   3.487   1.830  12.607 -1.2787  0.1054  1.3515
 1049SOL     OW14608   2.739   1.689   3.380 -0.1931  0.1021 -0.0607
 1049SOL    HW114609   2.719   1.626   3.310  1.2618 -1.0328  0.5304
 1049SOL    HW214610   2.685   1.764   3.355 -1.9557 -1.1659 -0.0565
 1050SOL     OW14611   0.713   3.771  16.479  0.3801  0.1763  0.0977
 1050SOL    HW114612   0.650   3.740  16.414 -0.0278 -0.3159  0.7236
 1050SOL    HW214613   0.797   3.763  16.434  0.3419  0.3730 -0.0077
 1051SOL     OW14614   4.198   3.545   5.163 -0.2255  0.3888 -0.4356
 1051SOL    HW114615   4.217   3.465   5.114  1.8265 -0.8951  2.4238
 1051SOL    HW214616   4.254   3.535   5.240  0.6020 -1.1133 -1.2376
 1052SOL     OW14617   4.326   4.014   0.479  0.1746  0.1058  0.2028
 1052SOL    HW114618   4.398   3.956   0.453  0.5145  0.4333  0.4230
 1052SOL    HW214619   4.331   3.995   0.573 -0.8427 -1.7790 -0.1172
 1053SOL     OW14620   2.666   3.128  16.377 -0.0112 -0.0140 -0.1209
 1053SOL    HW114621   2.683   3.087  16.292  1.6284 -0.9603  0.6656
 1053SOL    HW214622   2.648   3.043  16.418 -0.1498 -0.0705 -0.2989
 1054SOL     OW14623   1.582   0.493   8.625 -0.3695 -0.0909  0.2468
 1054SOL    HW114624   1.623   0.522   8.543  1.0624  2.4371  1.8781
 1054SOL    HW214625   1.647   0.496   8.694 -0.2220  4.0641 -0.0903
 1055SOL     OW14626   2.786   1.122   2.954  0.7126  0.0014  0.0512
 1055SOL    HW114627   2.860   1.168   2.914  1.5714 -0.6242  0.9026
 1055SOL    HW214628   2.834   1.069   3.017  0.0831 -2.0616 -1.2174
 1056SOL     OW14629   3.631   1.923   2.560  0.4357  0.0027  0.0085
 1056SOL    HW114630   3.712   1.966   2.532 -0.0565  0.9516  0.0379
 1056SOL    HW214631   3.565   1.991   2.545  1.3757  0.3954 -2.3583
 1057SOL     OW14632   0.310   0.080   2.328  0.3886  0.2125 -0.4898
 1057SOL    HW114633   0.377   0.012   2.332 -0.0032 -0.1312  0.2667
 1057SOL    HW214634   0.271   0.066   2.414 -0.3736 -2.7723 -1.2912
 1058SOL     OW14635   0.605   2.117   7.856  0.4058  0.2025  0.2849
 1058SOL    HW114636   0.685   2.090   7.812  1.6656  1.3555  1.8751
 1058SOL    HW214637   0.592   2.207   7.826  1.6041 -0.3501 -1.9251
 1059SOL     OW14638   1.731   2.092   3.586  0.3957  0.1352 -0.1057
 1059SOL    HW114639   1.800   2.104   3.521  1.1453  2.2018  1.0554
 1059SOL    HW214640   1.765   2.027   3.647  0.2137 -0.7674 -0.9789
 1060SOL     OW14641   2.562   2.914  17.321 -0.0824  0.0412 -0.6171
 1060SOL    HW114642   2.621   2.863  17.377 -1.5848  0.1107  1.0279
 1060SOL    HW214643   2.557   2.995  17.372  0.0093 -0.2670 -0.1200
 1061SOL     OW14644   1.656   0.374   5.379 -0.6753 -0.0259 -0.3119
 1061SOL    HW114645   1.652   0.469   5.388 -0.0140  0.0842 -1.1246
 1061SOL    HW214646   1.739   0.364   5.332  0.6706  2.7128  1.4861
 1062SOL     OW14647   3.596   2.233  15.597 -0.1408  0.1324 -0.1151
 1062SOL    HW114648   3.650   2.184  15.535  0.9938 -0.4839  1.3677
 1062SOL    HW214649   3.576   2.313  15.548  0.8513  0.0802 -0.5940
 1063SOL     OW14650   2.324   1.062  16.068 -0.0603  0.6827  0.1309
 1063SOL    HW114651   2.288   1.026  16.149 -1.6409  0.5367 -0.6347
 1063SOL    HW214652   2.386   0.990  16.076 -2.7267 -1.4735  1.2683
 1064SOL     OW14653   1.316   3.971   9.946 -0.0873  0.8571  0.4814
 1064SOL    HW114654   1.298   3.886   9.904 -1.5903  2.3296 -1.8271
 1064SOL    HW214655   1.411   3.962   9.948 -0.2052 -1.0619 -1.5964
 1065SOL     OW14656   2.438   4.227   7.316 -0.2357  0.0379  0.0259
 1065SOL    HW114657   2.482   4.300   7.359  1.5947 -1.5798  0.9135
 1065SOL    HW214658   2.399   4.266   7.238 -1.6783 -2.8314 -0.6672
 1066SOL     OW14659   4.561   1.572  12.477  0.6057  0.2684 -0.9401
 1066SOL    HW114660   4.634   1.628  12.451  1.9237 -0.9568  0.0988
 1066SOL    HW214661   4.599   1.484  12.485 -1.1242 -0.6049 -2.3452
 1067SOL     OW14662   1.510   3.441  10.809 -0.0733  0.3491 -0.3108
 1067SOL    HW114663   1.546   3.352  10.806 -0.0447  0.3480  0.0639
 1067SOL    HW214664   1.473   3.442  10.721  2.7931  0.4004 -1.5113
 1068SOL     OW14665   0.115   3.813   8.690 -0.3659  0.4722 -0.1751
 1068SOL    HW114666   0.192   3.772   8.650  1.9077  2.7952  1.7571
 1068SOL    HW214667   0.123   3.900   8.650  1.4198  1.1835  1.6791
 1069SOL     OW14668   2.335   1.255   3.086  0.3241 -0.2964  0.3220
 1069SOL    HW114669   2.313   1.347   3.100  1.4589  0.1344 -0.7387
 1069SOL    HW214670   2.273   1.236   3.016 -0.0128  0.3556  0.4458
 1070SOL     OW14671   2.697   0.498  11.526  0.6751 -0.5159  0.5853
 1070SOL    HW114672   2.694   0.567  11.592  0.6444 -1.2220  1.3257
 1070SOL    HW214673   2.776   0.533  11.483 -1.1892  2.6056 -0.3035
 1071SOL     OW14674   2.542   1.429   5.068 -0.5098 -0.1300 -0.5915
 1071SOL    HW114675   2.455   1.470   5.077  0.0336  1.0824 -0.8678
 1071SOL    HW214676   2.593   1.506   5.045  0.9576 -1.3514 -1.4076
 1072SOL     OW14677   2.443   2.254   0.382  0.1245  0.4514 -0.2840
 1072SOL    HW114678   2.383   2.285   0.314  0.0366  1.0956  0.0974
 1072SOL    HW214679   2.495   2.201   0.321 -1.1123 -1.9464  0.7761
 1073SOL     OW14680   4.311   2.607   6.892 -0.1274  0.5772 -0.1323
 1073SOL    HW114681   4.235   2.579   6.841  0.8614 -2.0275 -0.1599
 1073SOL    HW214682   4.367   2.536   6.862 -0.2673  0.7142 -0.7212
 1074SOL     OW14683   1.554   1.465   3.981  0.0257 -0.2929  0.4786
 1074SOL    HW114684   1.529   1.493   3.893  0.2065 -1.4259  0.0669
 1074SOL    HW214685   1.647   1.488   3.986 -0.1527  0.7330 -1.1885
 1075SOL     OW14686   2.250   0.560  15.852  0.6059  0.1210 -0.4307
 1075SOL    HW114687   2.322   0.519  15.900  1.1525 -1.2088 -2.3661
 1075SOL    HW214688   2.202   0.485  15.818 -0.2241  0.4609 -0.0132
 1076SOL     OW14689   2.618   4.556   9.813  0.3381  0.2639 -0.1145
 1076SOL    HW114690   2.562   4.596   9.745  0.4225 -1.5131 -1.2278
 1076SOL    HW214691   2.566   4.581   9.889 -0.1409  0.7949 -0.6105
 1077SOL     OW14692   0.376   4.627   3.988  0.2990 -0.5971 -0.1243
 1077SOL    HW114693   0.372   4.568   4.064 -2.1754 -2.1744 -1.4935
 1077SOL    HW214694   0.306   4.691   4.001  0.6856 -0.0180 -0.9340
 1078SOL     OW14695   1.560   1.766   7.566 -0.8445 -0.3237  0.8778
 1078SOL    HW114696   1.556   1.675   7.539 -0.1820 -0.4017  1.0324
 1078SOL    HW214697   1.471   1.780   7.598 -1.4462 -3.0849  0.3353
 1079SOL     OW14698   2.389   4.243   6.111 -0.0041  0.0408 -0.0578
 1079SOL    HW114699   2.295   4.257   6.102 -0.0563 -0.2010  0.1339
 1079SOL    HW214700   2.385   4.189   6.189  1.1711  1.0029  0.6667
 1080SOL     OW14701   2.304   2.088   7.354  0.0112 -0.0900  0.1524
 1080SOL    HW114702   2.230   2.143   7.378 -0.3504 -0.5784  0.1521
 1080SOL    HW214703   2.294   2.082   7.259  0.3556  0.2493  0.0969
 1081SOL     OW14704   2.685   0.811  15.374  0.4107 -0.3356 -0.2493
 1081SOL    HW114705   2.635   0.771  15.304  0.0412  0.7402 -0.5981
 1081SOL    HW214706   2.644   0.775  15.453  0.3571  0.3388  0.0340
 1082SOL     OW14707   1.106   0.124   3.779 -0.2095 -0.4649 -0.7045
 1082SOL    HW114708   1.186   0.113   3.830  0.2621  3.5416 -0.5745
 1082SOL    HW214709   1.148   0.119   3.693  1.1995  2.1950 -0.1725
 1083SOL     OW14710   2.403   0.775  17.532 -0.6119  0.1498 -0.1823
 1083SOL    HW114711   2.317   0.817  17.538 -1.5034 -1.9394  1.8372
 1083SOL    HW214712   2.378   0.684  17.552  1.6965 -0.8009 -1.5749
 1084SOL     OW14713   2.112   3.631   3.060  0.3401  0.1126 -0.4039
 1084SOL    HW114714   2.079   3.618   3.148 -0.8396 -2.9783 -1.3074
 1084SOL    HW214715   2.145   3.719   3.077  2.5503 -0.8968  0.5561
 1085SOL     OW14716   4.027   2.197   4.990 -0.1169 -0.2647 -0.3232
 1085SOL    HW114717   4.078   2.132   4.942 -2.2112 -1.6247 -0.7038
 1085SOL    HW214718   3.944   2.201   4.942 -0.3550  0.3364  0.1326
 1086SOL     OW14719   1.315   1.564   5.937 -0.2807 -0.0304 -0.4203
 1086SOL    HW114720   1.391   1.523   5.979  0.5271  0.3612 -1.4827
 1086SOL    HW214721   1.253   1.492   5.945 -0.9871  0.8819  1.9805
 1087SOL     OW14722   0.196   1.610   9.544  0.0961 -0.2316  0.1826
 1087SOL    HW114723   0.175   1.593   9.636  0.0351 -0.3431  0.1481
 1087SOL    HW214724   0.171   1.527   9.503  0.2683 -0.6337  0.8781
 1088SOL     OW14725   3.346   0.454  16.825 -0.3262  0.3544  0.4575
 1088SOL    HW114726   3.421   0.471  16.769 -0.5346  0.0730  0.0879
 1088SOL    HW214727   3.279   0.488  16.765  0.6851  1.6073  0.0576
 1089SOL     OW14728   2.230   4.385   4.602 -0.7479 -1.1898 -0.1677
 1089SOL    HW114729   2.162   4.396   4.536  0.5350  1.7532 -1.0507
 1089SOL    HW214730   2.251   4.293   4.591  2.1259 -0.5736  0.0138
 1090SOL     OW14731   1.849   0.819   0.724  0.0685  0.6969  0.6951
 1090SOL    HW114732   1.807   0.901   0.700  1.0476  0.4273 -1.8808
 1090SOL    HW214733   1.809   0.756   0.664 -1.1218  0.2880  1.9145
 1091SOL     OW14734   4.425   1.607   6.864 -0.6134 -0.4806 -0.5170
 1091SOL    HW114735   4.331   1.593   6.878 -0.7861  1.3221  0.1243
 1091SOL    HW214736   4.442   1.572   6.776 -0.6562 -2.4616  0.2576
 1092SOL     OW14737   3.766   0.785   7.069 -0.5700 -0.5309  0.2213
 1092SOL    HW114738   3.837   0.723   7.086 -0.2843 -0.0357  0.8285
 1092SOL    HW214739   3.813   0.869   7.074 -1.9923  0.2831  0.0321
 1093SOL     OW14740   1.383   4.084   6.527  0.0031  0.6249 -0.1405
 1093SOL    HW114741   1.290   4.098   6.509 -0.2757 -1.4853 -0.2621
 1093SOL    HW214742   1.384   3.992   6.554  0.6521  1.2166  1.8981
 1094SOL     OW14743   1.905   0.646   0.907 -0.0958  0.4684  0.1764
 1094SOL    HW114744   1.846   0.574   0.886  0.3105 -0.6110  2.7696
 1094SOL    HW214745   1.888   0.700   0.830 -0.7242 -0.7908 -0.5581
 1095SOL     OW14746   2.297   2.041   5.271 -0.1013  0.3948 -0.4252
 1095SOL    HW114747   2.390   2.063   5.268 -0.0697  0.3756  0.7404
 1095SOL    HW214748   2.260   2.070   5.354  0.6151  3.1318 -1.0561
 1096SOL     OW14749   0.446   3.377  10.102  0.0579 -0.4227 -0.6116
 1096SOL    HW114750   0.370   3.322  10.085 -1.0152  1.0504 -0.5626
 1096SOL    HW214751   0.477   3.344  10.186  0.5338  0.3502 -0.4896
 1097SOL     OW14752   0.148   4.669   3.380 -0.3029  0.0520 -0.3482
 1097SOL    HW114753   0.149   4.689   3.286 -0.2065 -0.2716 -0.4163
 1097SOL    HW214754   0.185   4.583   3.362  0.6025  0.4330 -0.2728
 1098SOL     OW14755   0.735   1.288  16.139 -0.1893  0.1266  0.0126
 1098SOL    HW114756   0.763   1.199  16.118  0.5733  0.6163 -1.0598
 1098SOL    HW214757   0.752   1.346  16.065 -0.3627  0.5935  0.3349
 1099SOL     OW14758   0.957   4.530   1.914  0.2121  0.6390  0.0150
 1099SOL    HW114759   0.925   4.618   1.936 -0.5282  0.3381  0.1231
 1099SOL    HW214760   1.051   4.538   1.933  0.8211  0.6146 -3.0222
 1100SOL     OW14761   0.201   1.739  11.447 -0.7415 -0.3009 -0.5347
 1100SOL    HW114762   0.243   1.811  11.400  0.1088 -0.8201 -0.5500
 1100SOL    HW214763   0.183   1.775  11.534 -0.6561 -0.0914 -0.6039
 1101SOL     OW14764   3.496   1.991   7.128  0.4155  0.2943  1.3325
 1101SOL    HW114765   3.500   1.981   7.033 -0.3364  2.0350  1.1185
 1101SOL    HW214766   3.524   2.082   7.134  0.9644  0.2504 -0.7025
 1102SOL     OW14767   0.195   4.419   8.678 -0.5285  0.0508  0.3290
 1102SOL    HW114768   0.163   4.330   8.695 -0.1979 -0.5060 -2.0203
 1102SOL    HW214769   0.268   4.417   8.739 -2.1246 -0.8583  2.2216
 1103SOL     OW14770   0.672   0.232  16.674  0.1389 -0.3359  0.3125
 1103SOL    HW114771   0.690   0.325  16.688  0.2642 -0.1719 -0.9126
 1103SOL    HW214772   0.628   0.243  16.589  1.0989  1.6436  0.0661
 1104SOL     OW14773   3.636   1.429  14.750 -0.2707  0.6613  0.1400
 1104SOL    HW114774   3.650   1.454  14.841 -0.4977  0.8386  0.1253
 1104SOL    HW214775   3.551   1.472  14.743 -0.7048 -0.2800 -0.3842
 1105SOL     OW14776   2.259   3.808   9.152  0.1073  0.0799  0.7121
 1105SOL    HW114777   2.203   3.884   9.143  1.6097  1.2034  0.8062
 1105SOL    HW214778   2.325   3.832   9.217  1.6702 -0.0006 -0.8474
 1106SOL     OW14779   3.041   1.299  17.128  1.0019 -0.3019 -0.5813
 1106SOL    HW114780   2.985   1.226  17.156  1.3388 -0.4501 -0.3067
 1106SOL    HW214781   3.128   1.259  17.132  1.7078  1.1815 -1.1891
 1107SOL     OW14782   2.503   0.575  11.315  0.1556 -0.0838  0.1295
 1107SOL    HW114783   2.564   0.559  11.387  0.1077  1.1324  0.4294
 1107SOL    HW214784   2.466   0.487  11.310  0.0202 -0.0795  0.9757
 1108SOL     OW14785   4.040   2.756   8.015  0.1531  0.1166  0.2881
 1108SOL    HW114786   4.004   2.818   8.079 -1.1101  1.1564 -1.4083
 1108SOL    HW214787   4.126   2.795   8.001  0.6261 -0.3043  2.0254
 1109SOL     OW14788   3.369   0.176   3.705 -0.2297 -1.0131 -0.1123
 1109SOL    HW114789   3.396   0.085   3.691  2.6734 -0.0824 -0.4910
 1109SOL    HW214790   3.320   0.164   3.786 -0.6543  2.3535  0.1240
 1110SOL     OW14791   4.169   2.351   1.003  0.6135 -0.4185 -0.1689
 1110SOL    HW114792   4.201   2.261   0.993  2.6859  0.5048 -1.7215
 1110SOL    HW214793   4.075   2.333   1.004  0.6776 -0.7162  1.6743
 1111SOL     OW14794   0.540   0.034   3.461 -0.3462  0.1077 -0.0263
 1111SOL    HW114795   0.485   0.102   3.500 -1.1635  0.6818 -2.1679
 1111SOL    HW214796   0.487   4.678   3.468  0.6641 -0.6395 -0.9157
 1112SOL     OW14797   2.144   4.325   2.696 -0.2775  0.3153 -0.3916
 1112SOL    HW114798   2.143   4.409   2.651  0.5418 -1.5381 -3.8888
 1112SOL    HW214799   2.088   4.271   2.641 -0.9187 -0.4998  1.0428
 1113SOL     OW14800   1.541   4.008  16.104  0.4765 -0.1126 -0.0505
 1113SOL    HW114801   1.605   3.998  16.175 -0.2065 -1.0463  0.4305
 1113SOL    HW214802   1.593   4.064  16.046 -0.6670  1.3520  0.3541
 1114SOL     OW14803   1.582   1.194   6.551 -0.0770 -0.1306 -0.7833
 1114SOL    HW114804   1.662   1.242   6.530  1.0177 -1.6424  0.0150
 1114SOL    HW214805   1.598   1.108   6.514 -1.4480 -0.8666  0.3382
 1115SOL     OW14806   2.442   1.239   5.501 -0.7406  0.7419 -0.1959
 1115SOL    HW114807   2.359   1.278   5.528 -1.6510 -1.9628  0.8379
 1115SOL    HW214808   2.417   1.170   5.439  2.0476 -0.4868  0.0441
 1116SOL     OW14809   2.010   3.826   7.418  0.1364  0.4805 -0.4262
 1116SOL    HW114810   2.103   3.810   7.435  0.3865  0.1649 -2.1103
 1116SOL    HW214811   1.996   3.920   7.428  0.1592  0.4530 -0.1168
 1117SOL     OW14812   1.423   4.371  13.130 -0.0061  0.1282  0.2702
 1117SOL    HW114813   1.491   4.308  13.152  1.6348  1.5647 -0.5892
 1117SOL    HW214814   1.463   4.405  13.049  1.5116  1.5411  1.6107
 1118SOL     OW14815   1.110   3.140   5.697  0.5923 -0.1360  0.8032
 1118SOL    HW114816   1.198   3.169   5.721  0.0300  0.8879  1.6625
 1118SOL    HW214817   1.069   3.168   5.779 -1.9505 -1.4606 -0.0127
 1119SOL     OW14818   2.470   0.124   9.475  0.0990 -0.9114 -0.3053
 1119SOL    HW114819   2.478   0.212   9.513  1.3112 -1.3270  0.4092
 1119SOL    HW214820   2.550   0.122   9.423  1.5248 -1.6847  1.9060
 1120SOL     OW14821   3.328   0.754   6.718 -0.2342 -0.1783  0.1249
 1120SOL    HW114822   3.272   0.750   6.795 -0.5811  0.4645 -0.0985
 1120SOL    HW214823   3.370   0.668   6.723  0.5467  0.2739  1.3644
 1121SOL     OW14824   3.279   2.386   2.761  0.3540  0.2873 -0.2898
 1121SOL    HW114825   3.251   2.454   2.700 -0.9841 -0.3319 -0.3737
 1121SOL    HW214826   3.313   2.446   2.827  3.2944 -0.4100 -1.1301
 1122SOL     OW14827   2.635   4.029   6.018 -0.1162 -0.2137 -0.2470
 1122SOL    HW114828   2.670   3.966   5.955  0.8583 -0.5762  0.6415
 1122SOL    HW214829   2.630   4.111   5.969  0.0245 -1.0138 -1.5941
 1123SOL     OW14830   4.119   3.387   9.578  0.4710  0.1161 -0.3755
 1123SOL    HW114831   4.194   3.443   9.600  1.1791 -0.8386 -0.3412
 1123SOL    HW214832   4.045   3.447   9.569 -0.2209 -0.7265 -0.3027
 1124SOL     OW14833   3.482   2.205   7.502 -0.1017  0.0321 -0.2079
 1124SOL    HW114834   3.482   2.131   7.563  2.5017 -1.1933 -1.6928
 1124SOL    HW214835   3.415   2.183   7.438 -1.1871  0.5655  0.7513
 1125SOL     OW14836   0.718   0.231   4.332  0.0040 -0.1259  0.2939
 1125SOL    HW114837   0.761   0.198   4.410 -1.6311  0.5815  1.5188
 1125SOL    HW214838   0.771   0.309   4.318 -0.0026 -0.1552  0.1058
 1126SOL     OW14839   0.500   0.677  10.268  0.4427  0.3122 -0.0695
 1126SOL    HW114840   0.561   0.648  10.336  1.0105  1.5149 -0.0577
 1126SOL    HW214841   0.448   0.600  10.244 -0.3395  1.0645 -0.8014
 1127SOL     OW14842   0.518   2.681  11.909  0.0148  0.2094  1.1975
 1127SOL    HW114843   0.427   2.707  11.891  0.2120  1.3937  1.9457
 1127SOL    HW214844   0.518   2.684  12.004  1.4065  1.0076  1.1810
 1128SOL     OW14845   0.575   0.352  11.131 -0.1915 -0.0701 -0.1195
 1128SOL    HW114846   0.484   0.355  11.100  0.2558  1.7069 -1.2187
 1128SOL    HW214847   0.599   0.444  11.120 -1.9459  0.5097  0.9405
 1129SOL     OW14848   2.146   0.426   6.261 -0.3692  0.5145  0.5423
 1129SOL    HW114849   2.113   0.516   6.268 -1.8389 -0.1178  1.8299
 1129SOL    HW214850   2.131   0.413   6.167 -0.1179 -0.2278  0.6068
 1130SOL     OW14851   3.494   1.462   0.295 -0.1067  0.1963 -0.1337
 1130SOL    HW114852   3.479   1.557   0.295 -2.4468 -0.1853 -1.0046
 1130SOL    HW214853   3.407   1.425   0.280  0.5181 -1.4621  0.3653
 1131SOL     OW14854   1.333   1.736   7.339  0.3955  0.1045 -0.0059
 1131SOL    HW114855   1.242   1.707   7.341  0.0507  1.1511 -0.6071
 1131SOL    HW214856   1.376   1.709   7.258  0.8890 -0.4036  0.4297
 1132SOL     OW14857   2.577   2.104   7.266 -0.1892  0.3112  0.1316
 1132SOL    HW114858   2.493   2.128   7.305 -0.2461 -0.5429  0.5528
 1132SOL    HW214859   2.558   2.015   7.234 -0.5039  0.9215 -1.3870
 1133SOL     OW14860   2.162   1.886   2.846 -0.1495  0.3391  0.6709
 1133SOL    HW114861   2.227   1.954   2.861  1.4242 -0.8105 -0.8708
 1133SOL    HW214862   2.164   1.877   2.750 -0.7673  0.9582  0.6042
 1134SOL     OW14863   3.969   0.027   6.509  0.1526  0.6466  0.3523
 1134SOL    HW114864   3.945   0.047   6.599  0.6306  1.5108  0.2912
 1134SOL    HW214865   3.882   0.023   6.470  0.6747 -1.4070 -0.5724
 1135SOL     OW14866   2.069   1.616   9.424  0.6607 -0.2250 -0.0368
 1135SOL    HW114867   2.097   1.587   9.511 -1.2282  2.3736  1.4215
 1135SOL    HW214868   2.026   1.536   9.393 -1.6461  1.2260 -0.5779
 1136SOL     OW14869   0.792   2.634   0.492  0.2185 -0.6407  0.4559
 1136SOL    HW114870   0.703   2.604   0.473  0.7693 -0.2286 -2.7399
 1136SOL    HW214871   0.841   2.569   0.441 -1.1862 -2.0896  0.9344
 1137SOL     OW14872   2.504   3.855   2.979 -0.1475 -0.4051 -0.1218
 1137SOL    HW114873   2.593   3.881   3.002 -0.4061  2.4274 -2.3274
 1137SOL    HW214874   2.517   3.796   2.905  1.8862  1.3592 -1.1890
 1138SOL     OW14875   2.145   2.241  13.690 -0.0976  0.6108 -0.2801
 1138SOL    HW114876   2.145   2.153  13.653 -1.9972  0.2671  0.5531
 1138SOL    HW214877   2.081   2.281  13.630 -0.9929  2.2860  1.8064
 1139SOL     OW14878   0.443   1.675   5.804  0.3793  0.5863  0.4827
 1139SOL    HW114879   0.514   1.646   5.747  1.0676  1.0220  1.1169
 1139SOL    HW214880   0.477   1.761   5.830 -2.7723  1.3526  2.1673
 1140SOL     OW14881   4.284   3.533   1.937  0.4723 -0.0060 -0.8641
 1140SOL    HW114882   4.223   3.550   2.008  1.5347  0.8816 -0.1588
 1140SOL    HW214883   4.313   3.620   1.910  0.9738  0.3857  0.9934
 1141SOL     OW14884   1.409   1.463   8.970  0.3642 -0.4349  0.2566
 1141SOL    HW114885   1.318   1.438   8.987 -0.7220  1.5877 -2.5342
 1141SOL    HW214886   1.409   1.434   8.879  0.3899 -0.5250  0.2855
 1142SOL     OW14887   0.893   3.957   0.807  0.0735  0.1359 -0.6411
 1142SOL    HW114888   0.815   3.975   0.860  0.4395 -0.0095 -0.0526
 1142SOL    HW214889   0.956   3.954   0.878 -2.1147 -1.0174  1.2758
 1143SOL     OW14890   0.538   0.123   7.120 -0.2436  0.6705 -0.5488
 1143SOL    HW114891   0.619   0.124   7.170 -2.1956 -3.5924  2.6975
 1143SOL    HW214892   0.476   0.077   7.176  0.3317 -0.3290 -0.7458
 1144SOL     OW14893   2.505   4.525  14.179 -0.2313  0.2304 -0.2552
 1144SOL    HW114894   2.591   4.505  14.142 -0.0811  1.0943 -0.3576
 1144SOL    HW214895   2.483   4.441  14.221 -3.3383  0.4196 -1.5309
 1145SOL     OW14896   4.528   1.160  13.775  0.4387 -0.4743  0.6813
 1145SOL    HW114897   4.441   1.131  13.745  0.5834 -0.4272  0.2142
 1145SOL    HW214898   4.511   1.253  13.784  2.4174 -0.0412 -0.1008
 1146SOL     OW14899   1.669   3.578   3.281 -0.2871 -0.0469 -0.5425
 1146SOL    HW114900   1.586   3.596   3.237 -0.8811 -2.4842 -0.4145
 1146SOL    HW214901   1.721   3.658   3.280 -0.6881  0.1548 -3.4767
 1147SOL     OW14902   3.010   4.585   8.755  0.0475  0.0784  0.2511
 1147SOL    HW114903   3.083   4.646   8.738  0.7691 -1.4118 -2.0064
 1147SOL    HW214904   3.056   4.501   8.762  0.2698  0.0194 -1.9991
 1148SOL     OW14905   1.358   2.405   3.974  0.0720  0.4947 -0.0996
 1148SOL    HW114906   1.427   2.455   3.930 -0.8867  1.1139 -0.9093
 1148SOL    HW214907   1.366   2.328   3.917 -1.0441 -0.7424  1.4311
 1149SOL     OW14908   1.197   3.349  15.739  0.1026 -0.2823 -0.1826
 1149SOL    HW114909   1.253   3.316  15.810 -1.3379 -0.8548  0.6756
 1149SOL    HW214910   1.149   3.270  15.714 -0.3367 -0.2103  0.4294
 1150SOL     OW14911   1.006   2.247  11.087 -0.0699  0.1750 -0.0579
 1150SOL    HW114912   0.995   2.152  11.087 -2.4806  0.4570 -2.1126
 1150SOL    HW214913   1.100   2.254  11.103  0.0249 -0.6732 -0.2387
 1151SOL     OW14914   3.542   1.077   2.990 -0.1772  0.0308 -0.0664
 1151SOL    HW114915   3.495   1.084   3.072 -2.6252  1.6167 -1.6142
 1151SOL    HW214916   3.594   1.157   2.989  0.5292 -0.4219  0.3502
 1152SOL     OW14917   3.479   4.413   5.047 -0.1841 -0.0196 -0.1200
 1152SOL    HW114918   3.392   4.441   5.018 -0.6852 -0.2473  1.1821
 1152SOL    HW214919   3.482   4.317   5.043 -0.7499  0.1185 -3.5784
 1153SOL     OW14920   3.135   0.002   6.611 -0.4724 -0.4204  0.0443
 1153SOL    HW114921   3.164   0.005   6.702  0.8536 -1.4704 -0.3454
 1153SOL    HW214922   3.046   4.690   6.615 -1.1824  1.3881  0.3892
 1154SOL     OW14923   4.481   4.173   8.418 -0.0066  0.3023 -0.2438
 1154SOL    HW114924   4.458   4.156   8.509  1.3621  0.0378  0.0489
 1154SOL    HW214925   4.400   4.204   8.378 -1.0373 -2.5955 -0.3862
 1155SOL     OW14926   2.076   0.534   4.877  0.2858 -0.2292 -0.0049
 1155SOL    HW114927   2.008   0.547   4.943 -0.0819 -2.3165  0.0534
 1155SOL    HW214928   2.155   0.577   4.910 -0.1473 -0.1171  0.8811
 1156SOL     OW14929   3.794   1.126   3.831 -0.3056  0.0212 -0.0319
 1156SOL    HW114930   3.745   1.135   3.749 -0.0212 -2.1053 -0.4360
 1156SOL    HW214931   3.808   1.218   3.851  0.6600 -0.0465 -0.4004
 1157SOL     OW14932   1.915   2.974   5.756  0.4099  0.6475 -0.4907
 1157SOL    HW114933   1.936   2.909   5.689 -1.8342  1.2798 -1.8310
 1157SOL    HW214934   1.885   2.931   5.836 -1.3580  1.3760 -0.7426
 1158SOL     OW14935   0.935   4.485   7.402  0.6166 -0.2435  0.7316
 1158SOL    HW114936   1.010   4.538   7.429  0.1136  1.0657 -0.4181
 1158SOL    HW214937   0.950   4.427   7.477  2.5378 -0.5290  0.1356
 1159SOL     OW14938   2.115   2.125   4.178 -0.7607  0.2254 -0.2463
 1159SOL    HW114939   2.144   2.122   4.269  0.1616 -1.8684 -0.6186
 1159SOL    HW214940   2.049   2.055   4.181 -0.2732 -0.1520  1.6070
 1160SOL     OW14941   1.317   4.231   5.201  0.0635 -0.0862  0.9213
 1160SOL    HW114942   1.313   4.166   5.271 -2.0823  0.6625  1.4863
 1160SOL    HW214943   1.390   4.196   5.149 -0.4238  0.1175  0.0956
 1161SOL     OW14944   1.259   0.161   3.533 -0.3484  0.5136  0.2730
 1161SOL    HW114945   1.308   0.079   3.536 -1.6668 -0.3070 -0.4435
 1161SOL    HW214946   1.333   0.220   3.519 -1.4574  2.2870  1.8825
 1162SOL     OW14947   2.120   3.199   8.734 -0.5668 -0.4302  0.6453
 1162SOL    HW114948   2.102   3.268   8.798  1.8761 -0.8210  1.7593
 1162SOL    HW214949   2.191   3.242   8.685 -0.0716 -1.6009  0.3524
 1163SOL     OW14950   2.862   1.358  10.752  0.4659 -0.4031  0.7439
 1163SOL    HW114951   2.814   1.289  10.798 -0.5227  1.5720  2.6677
 1163SOL    HW214952   2.942   1.312  10.725  0.7368  0.3182  0.3338
 1164SOL     OW14953   1.886   3.923   8.102  0.0304 -0.2877 -0.1624
 1164SOL    HW114954   1.896   3.986   8.174  0.9357  1.7019 -2.0112
 1164SOL    HW214955   1.874   3.840   8.147  2.2575 -1.2980 -1.4411
 1165SOL     OW14956   0.980   2.258   7.130  0.6330 -0.1807 -0.0115
 1165SOL    HW114957   0.885   2.260   7.137  0.4141 -1.0206 -2.9253
 1165SOL    HW214958   0.993   2.166   7.105 -1.3713 -0.5664  0.3843
 1166SOL     OW14959   3.912   4.050   7.280 -0.0024  0.4560  0.0502
 1166SOL    HW114960   3.997   4.020   7.313 -0.0563  1.5710  1.2100
 1166SOL    HW214961   3.929   4.141   7.257  2.0195 -0.0534 -0.5074
 1167SOL     OW14962   3.275   2.230   3.400  0.1690 -0.2782  0.6848
 1167SOL    HW114963   3.315   2.206   3.317  1.4817 -0.7283  1.4419
 1167SOL    HW214964   3.193   2.180   3.397 -0.1801  0.3721 -0.4836
 1168SOL     OW14965   1.405   3.062   8.780  0.3949  0.0683  0.3354
 1168SOL    HW114966   1.314   3.044   8.755  0.5666 -2.1240  1.3321
 1168SOL    HW214967   1.429   2.978   8.819 -0.7774 -0.6021 -0.4104
 1169SOL     OW14968   1.967   2.707   6.623 -0.2159 -0.0804 -0.4086
 1169SOL    HW114969   1.962   2.688   6.717 -1.5236  2.7898  0.1094
 1169SOL    HW214970   1.877   2.697   6.594  0.3424 -1.1886 -1.7651
 1170SOL     OW14971   4.116   1.820   8.212  0.5951 -0.4049 -0.0754
 1170SOL    HW114972   4.180   1.859   8.152 -1.6634  1.4821 -1.2772
 1170SOL    HW214973   4.041   1.873   8.185  0.2388 -0.7417  0.2531
 1171SOL     OW14974   2.583   0.063   2.481 -0.0366  0.3130 -0.4451
 1171SOL    HW114975   2.585   0.128   2.551  0.6660  0.3925 -0.5401
 1171SOL    HW214976   2.672   0.027   2.486 -0.2767 -0.2578 -0.3434
 1172SOL     OW14977   0.126   1.824  11.125  0.3461 -0.7704  0.2962
 1172SOL    HW114978   0.173   1.856  11.049  1.9956 -1.2744  1.1010
 1172SOL    HW214979   0.048   1.777  11.095 -0.6536 -0.3856  2.2969
 1173SOL     OW14980   1.898   1.819   7.392  0.0057  0.9645  0.1999
 1173SOL    HW114981   1.837   1.755   7.355 -0.3003  0.3967  1.6768
 1173SOL    HW214982   1.898   1.895   7.333  2.1566  0.7413 -0.0929
 1174SOL     OW14983   2.541   0.499   8.230 -0.4396  0.3601  1.0150
 1174SOL    HW114984   2.455   0.541   8.232 -1.1455 -1.0172 -0.4187
 1174SOL    HW214985   2.529   0.454   8.147  2.8596 -0.5362  1.0375
 1175SOL     OW14986   1.985   4.301   6.871 -0.1401 -0.3678  0.4012
 1175SOL    HW114987   1.999   4.212   6.839 -1.3063 -0.4048  0.0057
 1175SOL    HW214988   1.928   4.283   6.946  0.4741  0.0894  0.9758
 1176SOL     OW14989   1.195   0.462   3.729  0.0426  0.2030 -0.4465
 1176SOL    HW114990   1.189   0.446   3.634  1.4056  1.7985 -0.8113
 1176SOL    HW214991   1.288   0.458   3.749 -0.6609 -0.3391  2.6538
 1177SOL     OW14992   1.889   4.371   4.201  0.7736  0.0194 -0.1511
 1177SOL    HW114993   1.814   4.316   4.222  0.2884  0.7508  0.0232
 1177SOL    HW214994   1.941   4.367   4.281  1.2054 -1.1784 -0.4847
 1178SOL     OW14995   2.781   1.955   4.211 -0.1090  0.1815 -1.0685
 1178SOL    HW114996   2.719   1.896   4.170  1.7169 -1.6660 -1.2054
 1178SOL    HW214997   2.834   1.963   4.132  2.1358  0.3348  0.4454
 1179SOL     OW14998   1.081   2.185   2.782  0.4131  0.5768 -0.1473
 1179SOL    HW114999   1.091   2.279   2.765 -2.7933  0.3439 -3.2816
 1179SOL    HW215000   0.997   2.189   2.826 -0.0119 -0.4658 -0.8618
 1180SOL     OW15001   2.027   0.964   0.886 -0.8054 -0.1250  0.1996
 1180SOL    HW115002   2.008   1.049   0.846  0.9748  0.3823  0.4542
 1180SOL    HW215003   1.983   0.903   0.826 -2.8658  1.5569 -0.0411
 1181SOL     OW15004   4.453   3.993   9.959 -0.2390 -0.0435  0.7994
 1181SOL    HW115005   4.488   3.958   9.877 -1.9717 -1.0437  0.4904
 1181SOL    HW215006   4.533   4.034   9.992 -0.3401  0.3376  0.5814
 1182SOL     OW15007   3.858   2.380   3.364  0.2650  0.3570  0.4244
 1182SOL    HW115008   3.798   2.357   3.293  1.5667 -0.5708 -0.3913
 1182SOL    HW215009   3.794   2.419   3.423 -1.1966 -2.3543  0.6442
 1183SOL     OW15010   1.483   0.442   5.615  0.5596 -0.0106 -0.0943
 1183SOL    HW115011   1.452   0.532   5.618 -1.2955 -0.6084 -0.9886
 1183SOL    HW215012   1.558   0.465   5.670 -0.6412  1.5305  0.8864
 1184SOL     OW15013   1.590   4.370   5.293  0.3468 -0.2488 -0.7411
 1184SOL    HW115014   1.547   4.325   5.366  2.5506  1.9550  1.9074
 1184SOL    HW215015   1.517   4.428   5.268  1.1240  1.0863  0.0700
 1185SOL     OW15016   3.794   1.845   7.627 -0.5910 -0.1660  0.2896
 1185SOL    HW115017   3.816   1.878   7.540  0.4758 -2.1809 -0.2169
 1185SOL    HW215018   3.736   1.916   7.654 -0.5279  0.5427 -1.4357
 1186SOL     OW15019   0.380   4.707   6.548 -0.1871  0.3635 -0.5868
 1186SOL    HW115020   0.428   0.047   6.600 -1.6067  1.9320 -1.2139
 1186SOL    HW215021   0.453   4.648   6.527 -0.1452 -0.2855  1.3880
 1187SOL     OW15022   4.511   0.936   7.198 -0.7350 -0.0781 -0.0939
 1187SOL    HW115023   4.518   0.925   7.103 -1.2203 -3.2828  0.2530
 1187SOL    HW215024   4.567   0.872   7.240 -1.5700 -0.0575  1.0592
 1188SOL     OW15025   3.645   1.391   5.941 -0.3897 -0.2113 -0.2182
 1188SOL    HW115026   3.689   1.474   5.922  0.8255 -0.1558  2.8387
 1188SOL    HW215027   3.643   1.405   6.035  0.7633 -0.5195 -0.1499
 1189SOL     OW15028   2.412   1.024   3.197  0.0098 -0.6920  0.2329
 1189SOL    HW115029   2.319   1.001   3.198 -0.3155  0.6257  0.8695
 1189SOL    HW215030   2.403   1.112   3.161  0.5410 -0.2462  1.1986
 1190SOL     OW15031   1.947   4.507   7.614 -0.6345  0.3894  0.4584
 1190SOL    HW115032   1.954   4.596   7.579 -0.3222  1.0831  2.2929
 1190SOL    HW215033   1.939   4.519   7.709  0.7053  0.5225  0.5567
 1191SOL     OW15034   0.608   1.651   3.401  0.3151  0.5080  0.4413
 1191SOL    HW115035   0.666   1.575   3.403  0.8927  0.9569  0.6473
 1191SOL    HW215036   0.599   1.659   3.495 -0.9678 -0.3141  0.3907
 1192SOL     OW15037   0.360   4.605   3.062 -0.8120 -0.0097 -0.0730
 1192SOL    HW115038   0.336   4.533   3.120  0.2851  1.0917  1.7434
 1192SOL    HW215039   0.412   4.665   3.115 -0.3597  2.0834 -2.9029
 1193SOL     OW15040   1.359   0.430   8.972 -0.3591 -0.1631  0.6228
 1193SOL    HW115041   1.344   0.499   8.907 -2.1838 -0.8637  0.3217
 1193SOL    HW215042   1.454   0.423   8.956 -0.5173 -1.8761  0.4522
 1194SOL     OW15043   1.520   3.827   8.190 -0.0219  0.5213 -0.5533
 1194SOL    HW115044   1.429   3.854   8.206 -0.3057 -1.0962  0.6087
 1194SOL    HW215045   1.546   3.909   8.149  1.3560 -0.8008 -2.3142
 1195SOL     OW15046   2.804   1.911   6.108  0.3697  0.5687 -0.0657
 1195SOL    HW115047   2.747   1.907   6.031 -1.2550 -2.5261  1.2816
 1195SOL    HW215048   2.857   1.991   6.104  1.2654 -0.0787 -1.3052
 1196SOL     OW15049   3.782   2.573   5.700  0.1075 -0.0892 -0.2090
 1196SOL    HW115050   3.875   2.590   5.690 -0.6457  1.9791 -3.7976
 1196SOL    HW215051   3.761   2.507   5.634  2.0620 -0.2812 -0.6163
 1197SOL     OW15052   3.440   1.867   4.515  0.0739 -0.3085  0.2765
 1197SOL    HW115053   3.432   1.788   4.568 -0.6430 -1.3394 -1.3630
 1197SOL    HW215054   3.527   1.892   4.546  1.0468 -2.2553 -0.8354
 1198SOL     OW15055   0.120   1.637  16.453 -0.7375  0.6073  0.5162
 1198SOL    HW115056   0.137   1.614  16.544 -0.4857  2.7441  1.0101
 1198SOL    HW215057   0.118   1.547  16.421  1.9276  0.9477 -0.5446
 1199SOL     OW15058   0.131   3.189   2.811 -0.1144  0.1773 -0.2798
 1199SOL    HW115059   0.175   3.107   2.833  1.0351  0.4998 -1.4083
 1199SOL    HW215060   0.041   3.170   2.839 -1.0719  0.9400 -2.7663
 1200SOL     OW15061   2.155   1.322   5.051 -0.4131 -0.3437  0.1302
 1200SOL    HW115062   2.170   1.407   5.094 -0.4514  1.0710 -2.6838
 1200SOL    HW215063   2.063   1.333   5.028 -0.5699 -0.5446  0.6534
 1201SOL     OW15064   2.573   2.355  17.219  0.3364  0.0567 -0.0225
 1201SOL    HW115065   2.650   2.384  17.171 -1.2236  2.0225 -1.3429
 1201SOL    HW215066   2.535   2.285  17.166 -1.7069  2.2731 -1.5057
 1202SOL     OW15067   1.087   0.768   0.941 -0.5818  0.5376 -0.0720
 1202SOL    HW115068   1.004   0.728   0.966 -0.2177  0.6096  1.2408
 1202SOL    HW215069   1.120   0.697   0.886 -2.6786 -1.5081  1.3505
 1203SOL     OW15070   1.356   2.028  10.367  0.3188 -0.1226 -1.0900
 1203SOL    HW115071   1.411   2.105  10.376 -0.0699  0.1404 -0.9887
 1203SOL    HW215072   1.293   2.047  10.437  0.5349  0.1430 -0.9681
 1204SOL     OW15073   4.299   3.254   9.893 -0.2148  0.4572 -0.0676
 1204SOL    HW115074   4.297   3.202   9.974  4.6797  0.3863 -0.0390
 1204SOL    HW215075   4.309   3.343   9.926 -1.6335  0.8459 -0.6975
 1205SOL     OW15076   4.225   2.841  16.338 -0.2897 -0.0943 -0.1196
 1205SOL    HW115077   4.302   2.897  16.329  1.0595 -1.6671  1.5007
 1205SOL    HW215078   4.229   2.827  16.433 -0.1605 -1.1573 -0.2802
 1206SOL     OW15079   2.701   2.840   3.296  0.5646 -0.2967  0.0496
 1206SOL    HW115080   2.632   2.862   3.233  2.4316  2.0600 -1.2022
 1206SOL    HW215081   2.707   2.744   3.298  0.4632 -0.2457  2.2582
 1207SOL     OW15082   0.253   1.465   5.889  0.1733  0.0478  0.3724
 1207SOL    HW115083   0.225   1.444   5.800  0.2550  0.2452  0.2981
 1207SOL    HW215084   0.331   1.518   5.873 -0.3360  0.3118 -1.2420
 1208SOL     OW15085   1.064   1.396  12.153 -0.5161  0.3652 -0.6297
 1208SOL    HW115086   1.095   1.473  12.105  1.9345 -0.5902 -0.5527
 1208SOL    HW215087   1.136   1.376  12.214 -1.1148 -1.5515 -0.5575
 1209SOL     OW15088   4.573   0.515  13.589  0.1578 -0.4890 -0.5596
 1209SOL    HW115089   4.537   0.589  13.638  2.2396  0.6889 -0.8360
 1209SOL    HW215090   4.499   0.455  13.603 -0.2189  0.1963  0.3825
 1210SOL     OW15091   2.938   3.292   2.539 -0.2672 -0.0243 -0.1786
 1210SOL    HW115092   2.972   3.270   2.452 -2.2065 -0.4133 -0.8391
 1210SOL    HW215093   2.947   3.205   2.577  0.3853  0.0833 -0.0811
 1211SOL     OW15094   1.646   2.905   8.662  0.0900 -0.4675 -0.1423
 1211SOL    HW115095   1.722   2.848   8.649 -0.2315 -0.6512 -1.1952
 1211SOL    HW215096   1.598   2.876   8.740  0.1510 -0.0801  0.0385
 1212SOL     OW15097   1.734   2.476   8.802  0.4076  0.1610  0.3463
 1212SOL    HW115098   1.797   2.481   8.875  2.0838  1.1993 -1.1794
 1212SOL    HW215099   1.663   2.454   8.863 -0.4626  2.4036  0.1329
 1213SOL     OW15100   2.954   3.911   2.868  0.4611 -0.5049  0.0926
 1213SOL    HW115101   2.967   3.817   2.876 -0.9726 -0.8293 -1.2781
 1213SOL    HW215102   2.893   3.932   2.939 -1.4083  2.3997 -2.3421
 1214SOL     OW15103   1.433   3.095  14.075 -0.0373 -0.3455  0.3918
 1214SOL    HW115104   1.450   3.109  14.168  2.5543 -0.0754 -0.1354
 1214SOL    HW215105   1.400   3.005  14.081 -2.2855  0.3468 -1.5821
 1215SOL     OW15106   4.414   2.072  11.396 -0.2800  0.1412 -0.4657
 1215SOL    HW115107   4.408   2.000  11.459  0.3525  1.0971  0.6982
 1215SOL    HW215108   4.503   2.049  11.368 -0.1239  1.0860 -0.7614
 1216SOL     OW15109   2.628   3.859   1.902 -0.0040  0.1606  0.5557
 1216SOL    HW115110   2.600   3.823   1.986  0.2069  0.5341  0.7858
 1216SOL    HW215111   2.723   3.861   1.916 -0.1830  0.4904  1.7166
 1217SOL     OW15112   0.707   0.778  14.955 -0.2818  0.1487 -0.7405
 1217SOL    HW115113   0.648   0.773  14.880 -0.7103 -0.3229 -0.3644
 1217SOL    HW215114   0.794   0.786  14.914  0.7417  0.0427  1.4021
 1218SOL     OW15115   1.914   3.413   4.924 -1.4341  0.1456 -0.0926
 1218SOL    HW115116   1.855   3.350   4.882 -1.6586  0.0546  0.3590
 1218SOL    HW215117   1.908   3.491   4.869  0.8588 -0.6282 -1.4659
 1219SOL     OW15118   1.017   2.035  12.866 -0.2303 -0.9552 -0.0867
 1219SOL    HW115119   0.990   2.105  12.807 -1.2702  0.3699  1.9718
 1219SOL    HW215120   0.960   2.045  12.942 -0.5865 -1.3357 -0.2996
 1220SOL     OW15121   1.510   0.102   2.640 -0.4177  0.1290  0.1841
 1220SOL    HW115122   1.455   0.024   2.638  0.8499 -0.7814  0.4568
 1220SOL    HW215123   1.477   0.142   2.559  0.4843 -0.8420 -0.6715
 1221SOL     OW15124   0.713   3.323   2.956  0.6917 -0.0288 -0.4659
 1221SOL    HW115125   0.621   3.303   2.941  1.1996 -2.2382 -0.7436
 1221SOL    HW215126   0.686   3.391   3.017  0.1064  0.1633 -0.9457
 1222SOL     OW15127   2.338   0.782   1.108 -0.1326  0.3715 -0.2084
 1222SOL    HW115128   2.397   0.788   1.032  0.0081 -0.1799 -0.1469
 1222SOL    HW215129   2.261   0.730   1.087  1.2644 -0.9027 -2.2273
 1223SOL     OW15130   2.445   2.753   4.995 -0.0198  0.0143 -0.5856
 1223SOL    HW115131   2.456   2.822   4.929  0.7865 -2.1795 -2.7626
 1223SOL    HW215132   2.350   2.753   5.003 -0.1554 -0.6321 -2.1049
 1224SOL     OW15133   1.184   0.904   3.593 -0.1897 -0.2794  0.2388
 1224SOL    HW115134   1.103   0.885   3.641  0.6517  1.3646  2.3513
 1224SOL    HW215135   1.198   0.998   3.606  0.8894 -0.1102 -2.3444
 1225SOL     OW15136   2.652   0.937  14.903  0.0603 -0.0823  0.0114
 1225SOL    HW115137   2.739   0.975  14.915 -0.1450 -0.3640  2.2520
 1225SOL    HW215138   2.619   0.947  14.992  0.1829 -3.0837  0.3880
 1226SOL     OW15139   2.351   0.085  14.704  0.0805 -0.3150 -0.6278
 1226SOL    HW115140   2.354   0.057  14.613  0.6356 -2.4666  0.0417
 1226SOL    HW215141   2.409   0.021  14.746 -0.9862 -0.3332  0.8398
 1227SOL     OW15142   3.582   3.395   6.742 -0.3197 -0.2640 -0.3849
 1227SOL    HW115143   3.672   3.418   6.764 -0.1071 -0.1421 -1.3954
 1227SOL    HW215144   3.538   3.470   6.781 -0.2369 -0.8180  0.7613
 1228SOL     OW15145   2.968   1.993   4.028  0.5936  0.0309 -0.3042
 1228SOL    HW115146   2.973   1.961   3.938 -0.3726  1.7200 -0.9711
 1228SOL    HW215147   3.061   2.015   4.037  0.1699  1.7652 -0.2158
 1229SOL     OW15148   1.930   3.895  14.249 -0.0194 -0.3100 -0.2591
 1229SOL    HW115149   1.913   3.965  14.186 -1.8808 -0.4059  0.1216
 1229SOL    HW215150   1.855   3.839  14.229 -1.5868  1.5864  0.3678
 1230SOL     OW15151   1.123   2.396   6.950 -0.2157 -0.3895  0.0243
 1230SOL    HW115152   1.074   2.340   7.011  1.0653 -0.8824  0.5924
 1230SOL    HW215153   1.182   2.324   6.930 -0.6840 -0.1568 -2.1355
 1231SOL     OW15154   0.253   3.019   1.130  0.4698 -0.6795 -0.4348
 1231SOL    HW115155   0.184   2.960   1.161 -0.6482 -0.6325 -2.8315
 1231SOL    HW215156   0.287   2.965   1.059  1.6986  1.5340 -1.5185
 1232SOL     OW15157   1.865   3.022   4.547 -0.3260  0.5377 -0.6238
 1232SOL    HW115158   1.833   2.932   4.558  2.3269 -0.3061  0.3191
 1232SOL    HW215159   1.959   3.006   4.532 -0.3355  0.6657 -0.8095
 1233SOL     OW15160   1.413   4.563   7.899 -0.1777 -0.0593 -0.3957
 1233SOL    HW115161   1.464   4.489   7.867 -1.0020  0.1355 -2.2052
 1233SOL    HW215162   1.474   4.637   7.890 -0.3781  0.1908  0.2963
 1234SOL     OW15163   3.934   0.084   8.759  0.5219 -0.4049  0.5001
 1234SOL    HW115164   3.970   0.129   8.683  0.7703 -2.6182 -0.6945
 1234SOL    HW215165   3.949   0.147   8.829  1.8678  1.5811 -1.5817
 1235SOL     OW15166   2.464   4.596   9.576 -0.2639  0.3008  0.7108
 1235SOL    HW115167   2.447   4.538   9.502  0.1324  1.2776 -0.1522
 1235SOL    HW215168   2.472   4.678   9.527 -1.8635  0.3742  0.5777
 1236SOL     OW15169   1.433   2.032   2.305 -0.0032  0.5530  0.2846
 1236SOL    HW115170   1.380   2.014   2.227  0.4187  0.4556  0.0259
 1236SOL    HW215171   1.365   2.083   2.350  0.4526  0.3981  1.1632
 1237SOL     OW15172   0.020   3.846   3.364 -0.1741 -0.1199 -0.0019
 1237SOL    HW115173   0.052   3.817   3.278  0.2779 -2.2454  0.8701
 1237SOL    HW215174   4.656   3.878   3.346  0.3158  1.0808 -0.2609
 1238SOL     OW15175   1.425   3.467   1.581 -0.6588  0.7445  0.5622
 1238SOL    HW115176   1.398   3.538   1.640 -0.3673  1.1250  0.2347
 1238SOL    HW215177   1.480   3.513   1.518  1.0411 -1.2540  0.6122
 1239SOL     OW15178   3.661   2.477   3.953 -0.6082  0.2360 -0.4022
 1239SOL    HW115179   3.729   2.499   3.888 -0.4666 -0.3154 -0.4383
 1239SOL    HW215180   3.668   2.557   4.005  1.1624 -1.7928  2.4289
 1240SOL     OW15181   4.411   0.699   9.635  0.2599  0.0780  0.9143
 1240SOL    HW115182   4.484   0.674   9.692 -0.0370 -0.7519  0.9253
 1240SOL    HW215183   4.364   0.620   9.610  0.8500 -0.1930  0.6642
 1241SOL     OW15184   2.615   3.346   3.932  0.4279 -0.2891 -0.4796
 1241SOL    HW115185   2.594   3.439   3.926  0.5678 -0.2968 -1.1100
 1241SOL    HW215186   2.669   3.345   3.853  0.8509  0.7532 -0.1961
 1242SOL     OW15187   1.834   0.722  16.973 -0.4919  0.0074 -0.3954
 1242SOL    HW115188   1.870   0.638  17.000  0.0885  1.2065  2.6431
 1242SOL    HW215189   1.760   0.694  16.919 -0.9005 -1.0578  0.6987
 1243SOL     OW15190   2.285   2.570  16.468  0.2193  0.1209  0.2119
 1243SOL    HW115191   2.257   2.661  16.464 -0.7293 -0.3507 -3.2795
 1243SOL    HW215192   2.206   2.530  16.505  0.8922  0.3668  1.9262
 1244SOL     OW15193   2.953   0.467   1.972 -0.0677  0.0612  0.2800
 1244SOL    HW115194   3.004   0.529   1.920 -0.1049  0.4230  0.6706
 1244SOL    HW215195   2.895   0.534   2.008 -1.4163 -0.9480 -0.0497
 1245SOL     OW15196   2.580   1.875   8.159  0.3656 -0.3600 -0.2514
 1245SOL    HW115197   2.595   1.887   8.065  1.9817 -4.3037 -0.4801
 1245SOL    HW215198   2.562   1.964   8.188  2.0705 -0.5655  1.4057
 1246SOL     OW15199   2.431   0.050   5.877  0.6802  0.0089 -0.5211
 1246SOL    HW115200   2.481   0.016   5.803  0.1874 -1.9302  0.0336
 1246SOL    HW215201   2.346   0.061   5.836 -0.4642 -0.3425  1.7466
 1247SOL     OW15202   0.005   2.126   8.114 -0.0266  0.3283 -0.1399
 1247SOL    HW115203   4.668   2.096   8.182 -0.2527  0.0040 -0.4832
 1247SOL    HW215204   4.659   2.146   8.051  0.0822 -1.7562 -0.9361
 1248SOL     OW15205   1.947   0.304  15.493 -0.1377  0.4863  0.2153
 1248SOL    HW115206   2.038   0.273  15.499  0.1675  1.8359  2.4955
 1248SOL    HW215207   1.898   0.226  15.518  0.9183  0.5130  2.3413
 1249SOL     OW15208   0.953   0.162  10.362 -0.3159 -0.1534  0.3568
 1249SOL    HW115209   1.017   0.106  10.405  2.4940  0.5867 -2.9206
 1249SOL    HW215210   0.951   0.120  10.277 -0.0707  0.4824  0.0393
 1250SOL     OW15211   4.453   0.328  10.275  0.5154 -0.4682  0.2667
 1250SOL    HW115212   4.518   0.338  10.206  1.2243  0.4617  1.0630
 1250SOL    HW215213   4.369   0.300  10.238  0.2610  2.7915 -1.6425
 1251SOL     OW15214   2.067   2.434  16.880 -0.3097 -0.5274  0.2146
 1251SOL    HW115215   1.976   2.448  16.905 -0.0206  0.0801  0.9215
 1251SOL    HW215216   2.082   2.341  16.860 -0.7030 -0.6877  0.6749
 1252SOL     OW15217   3.955   0.775  16.570  0.3260 -0.1589  0.3381
 1252SOL    HW115218   3.892   0.837  16.607  0.3205  0.8343 -1.3188
 1252SOL    HW215219   3.987   0.827  16.496 -1.9875 -0.4965 -0.8999
 1253SOL     OW15220   2.394   0.308  11.545 -0.0322 -0.2777 -0.5724
 1253SOL    HW115221   2.380   0.396  11.580  0.0517  0.1352 -1.5856
 1253SOL    HW215222   2.309   0.296  11.502 -1.2706  1.3634  1.4799
 1254SOL     OW15223   4.468   3.058  13.727 -0.3552 -0.4032 -0.8298
 1254SOL    HW115224   4.417   3.124  13.774  1.6691  0.2448  0.4513
 1254SOL    HW215225   4.470   2.989  13.793  1.8371  0.3227 -0.1361
 1255SOL     OW15226   0.802   2.890   6.589 -0.1286 -0.3123  0.2007
 1255SOL    HW115227   0.827   2.799   6.605 -0.2502 -0.3067  0.4235
 1255SOL    HW215228   0.801   2.921   6.679 -0.8328  2.0718 -0.6216
 1256SOL     OW15229   0.445   4.535   0.841  0.3009 -0.6558 -0.2881
 1256SOL    HW115230   0.350   4.541   0.849  0.2224 -1.7418 -0.4570
 1256SOL    HW215231   0.461   4.532   0.935 -0.9417  2.5931  0.0265
 1257SOL     OW15232   4.211   1.353   0.244  0.2478  0.3300 -0.2579
 1257SOL    HW115233   4.290   1.323   0.199 -0.7720  0.4101 -2.1003
 1257SOL    HW215234   4.160   1.374   0.166  0.3232  0.6235 -0.2288
 1258SOL     OW15235   2.569   2.664  15.773 -0.1897  0.5873 -0.3918
 1258SOL    HW115236   2.592   2.691  15.862  0.8647  1.3779 -0.8966
 1258SOL    HW215237   2.504   2.599  15.798 -0.0594  1.2913  1.8302
 1259SOL     OW15238   2.603   4.580   3.201 -0.1370 -0.3958  0.3745
 1259SOL    HW115239   2.537   4.583   3.271  0.0046 -1.6503  0.5597
 1259SOL    HW215240   2.564   4.530   3.130  1.0807 -1.1528  0.2421
 1260SOL     OW15241   4.379   1.780  13.886  0.2125 -0.1508 -0.3298
 1260SOL    HW115242   4.369   1.686  13.893  1.8123 -0.3752 -0.9306
 1260SOL    HW215243   4.431   1.773  13.806  0.8584  0.6191  0.0142
 1261SOL     OW15244   3.235   1.959   0.069  0.3065 -0.1805 -0.2547
 1261SOL    HW115245   3.142   1.953   0.089  0.5979  0.6986  1.3339
 1261SOL    HW215246   3.232   1.991  17.676  0.6061  1.2238  0.2368
 1262SOL     OW15247   1.650   2.550  17.145 -0.2793 -0.0293  0.2327
 1262SOL    HW115248   1.620   2.484  17.207 -0.3554  0.7363  1.0138
 1262SOL    HW215249   1.616   2.508  17.066 -0.8100 -0.6696  0.8052
 1263SOL     OW15250   0.252   4.336   8.264  0.1689  0.2220 -0.0351
 1263SOL    HW115251   0.294   4.285   8.195 -0.9689 -0.9758  0.1587
 1263SOL    HW215252   0.181   4.276   8.285 -0.8110  1.2743 -0.3180
 1264SOL     OW15253   4.527   3.700   7.134 -0.0599  0.8120  0.3071
 1264SOL    HW115254   4.534   3.779   7.081 -0.5173  1.1999  0.8230
 1264SOL    HW215255   4.618   3.670   7.134 -0.6387 -0.9219  3.3672
 1265SOL     OW15256   2.589   2.044   4.801  0.4508 -0.6511  0.4077
 1265SOL    HW115257   2.600   1.955   4.767  1.5336  0.8371 -3.1472
 1265SOL    HW215258   2.665   2.052   4.858 -0.5335  0.5807  1.5201
 1266SOL     OW15259   2.234   0.563  10.648  0.3499  0.3176  0.1663
 1266SOL    HW115260   2.155   0.551  10.701 -0.4689  0.1046 -1.1297
 1266SOL    HW215261   2.196   0.589  10.565 -0.4444 -0.6571  0.2222
 1267SOL     OW15262   1.473   3.841  16.807 -0.6051  0.7910  0.1827
 1267SOL    HW115263   1.452   3.821  16.898 -1.7710  0.6378 -0.1233
 1267SOL    HW215264   1.568   3.854  16.804 -0.7801  2.3702  1.4093
 1268SOL     OW15265   4.093   2.526   8.416 -0.1447  0.3390 -0.3093
 1268SOL    HW115266   4.126   2.587   8.350 -0.0370  1.0872  0.4259
 1268SOL    HW215267   4.035   2.581   8.470  0.0527 -0.9906  1.2628
 1269SOL     OW15268   1.275   3.128   9.407 -0.4752 -0.1702  0.0059
 1269SOL    HW115269   1.207   3.173   9.457  2.4057  2.2759  1.6943
 1269SOL    HW215270   1.303   3.204   9.356  0.6288 -0.4098  0.2726
 1270SOL     OW15271   0.220   2.255   0.559  0.0776 -0.3409 -0.4896
 1270SOL    HW115272   0.224   2.170   0.603 -1.5382 -0.3865 -0.4548
 1270SOL    HW215273   0.174   2.299   0.630 -0.8718  0.4661 -1.6094
 1271SOL     OW15274   3.290   1.811   8.802 -0.0938 -0.3938  0.4278
 1271SOL    HW115275   3.212   1.864   8.790  0.7817  0.6807 -0.4709
 1271SOL    HW215276   3.271   1.744   8.868 -1.2714 -0.9065 -0.4374
 1272SOL     OW15277   1.524   2.689   3.472  0.2042 -0.3432 -0.1370
 1272SOL    HW115278   1.508   2.620   3.407  1.5335 -0.2808 -0.5403
 1272SOL    HW215279   1.443   2.739   3.475  0.0485 -0.6160  0.2566
 1273SOL     OW15280   4.350   4.205   7.898  0.1364 -0.0612  0.8643
 1273SOL    HW115281   4.257   4.193   7.914 -0.1165  0.1387 -0.4272
 1273SOL    HW215282   4.393   4.141   7.955  0.6595 -0.2088  0.3036
 1274SOL     OW15283   2.233   1.672   0.090 -0.2871  0.0255  0.2848
 1274SOL    HW115284   2.292   1.614   0.137  0.6858  3.2431  3.0711
 1274SOL    HW215285   2.229   1.746   0.152 -1.7636 -0.0456  0.2816
 1275SOL     OW15286   2.675   1.937  17.306 -0.2033  0.7994 -0.3313
 1275SOL    HW115287   2.694   1.883  17.383 -0.4875 -1.7669 -2.0541
 1275SOL    HW215288   2.637   2.012  17.350 -0.4573  0.9317 -0.7812
 1276SOL     OW15289   1.245   2.994   7.908 -0.1509  0.0408  0.4219
 1276SOL    HW115290   1.232   2.947   7.825  0.1472 -0.0579  0.4315
 1276SOL    HW215291   1.297   3.068   7.877  0.8260 -1.3005 -1.1121
 1277SOL     OW15292   3.689   2.283   3.160 -0.5666  0.7992 -0.2187
 1277SOL    HW115293   3.599   2.290   3.128 -0.1813 -1.7647 -1.8928
 1277SOL    HW215294   3.736   2.310   3.080 -0.2295 -2.5984 -1.1630
 1278SOL     OW15295   3.269   2.389   7.126  0.1003 -0.3822  0.1436
 1278SOL    HW115296   3.273   2.352   7.037 -1.4075 -2.1205  0.7874
 1278SOL    HW215297   3.211   2.325   7.168  1.0022  1.5209  4.2097
 1279SOL     OW15298   0.530   1.091   7.908 -0.3080 -0.0461 -0.0755
 1279SOL    HW115299   0.577   1.126   7.832  0.1654  0.6584  0.5402
 1279SOL    HW215300   0.442   1.077   7.873 -0.1008  2.8721 -1.7518
 1280SOL     OW15301   0.256   2.829   9.504  0.1047 -0.2634 -0.1878
 1280SOL    HW115302   0.195   2.848   9.575 -2.5635 -2.9373 -1.7580
 1280SOL    HW215303   0.334   2.816   9.558 -0.7963 -2.0188  0.6825
 1281SOL     OW15304   0.368   0.811   7.289  0.1081 -0.6102 -0.1874
 1281SOL    HW115305   0.277   0.780   7.289  0.4771 -1.6916 -0.1526
 1281SOL    HW215306   0.407   0.733   7.330  2.0985  0.6151  0.2016
 1282SOL     OW15307   1.492   1.635  15.090  0.6576  0.3424 -0.2577
 1282SOL    HW115308   1.565   1.620  15.030  0.9056  1.7308 -0.3181
 1282SOL    HW215309   1.540   1.653  15.171 -0.1704 -0.7061  0.4674
 1283SOL     OW15310   0.330   0.016   8.764 -0.2035 -0.0831 -0.1479
 1283SOL    HW115311   0.404   0.038   8.707 -0.6806 -1.3345 -1.2430
 1283SOL    HW215312   0.260   0.001   8.701 -1.6253  0.6853  1.2395
 1284SOL     OW15313   2.356   3.821   3.669 -0.8260 -0.2450 -0.5492
 1284SOL    HW115314   2.449   3.814   3.648 -1.1655 -1.3650 -1.6131
 1284SOL    HW215315   2.357   3.776   3.754  1.2589  1.0377  0.1081
 1285SOL     OW15316   2.759   4.574  16.518  0.6755  0.2231  0.1036
 1285SOL    HW115317   2.786   4.524  16.441  0.6413 -0.6481  0.6477
 1285SOL    HW215318   2.681   4.523  16.542  1.6993 -0.8744  1.0799
 1286SOL     OW15319   0.031   3.685  14.628  0.1878 -0.0191  0.4212
 1286SOL    HW115320   0.061   3.741  14.700 -0.4969  0.9479 -0.0351
 1286SOL    HW215321   0.115   3.663  14.589  0.6142 -2.1070  2.5156
 1287SOL     OW15322   3.545   4.474   6.170  0.4577  0.0497  0.5434
 1287SOL    HW115323   3.501   4.558   6.180 -1.4073 -0.8170 -0.3430
 1287SOL    HW215324   3.506   4.418   6.238 -0.4957 -0.3963 -0.3758
 1288SOL     OW15325   0.418   3.308   8.629 -0.2594 -0.0037 -0.4517
 1288SOL    HW115326   0.505   3.343   8.613 -0.5773  0.9018 -0.2346
 1288SOL    HW215327   0.423   3.289   8.723  0.8821 -0.2215 -0.5589
 1289SOL     OW15328   4.694   3.006   3.539 -0.7171 -0.1857 -0.3058
 1289SOL    HW115329   0.022   2.988   3.617  0.3421 -0.3756 -1.0439
 1289SOL    HW215330   4.624   3.066   3.563 -1.5493 -2.1803  2.1748
 1290SOL     OW15331   1.752   2.402  13.724  0.4277 -0.4320 -0.2989
 1290SOL    HW115332   1.700   2.465  13.674 -0.0099  0.2856  1.0842
 1290SOL    HW215333   1.814   2.457  13.771 -0.3855  0.8940 -0.7776
 1291SOL     OW15334   2.103   2.534  14.003  0.2252 -0.6011  0.2551
 1291SOL    HW115335   2.035   2.542  13.936 -2.6883 -0.1778  3.2369
 1291SOL    HW215336   2.121   2.442  13.985  1.8196 -0.2732  0.1593
 1292SOL     OW15337   3.156   4.052   4.877 -0.0919 -0.5046 -0.5348
 1292SOL    HW115338   3.177   4.063   4.784  0.9356 -1.3033 -0.3970
 1292SOL    HW215339   3.127   3.961   4.882  1.9692 -1.1830 -1.1802
 1293SOL     OW15340   0.841   3.991   2.034 -0.0071  0.0695  0.1028
 1293SOL    HW115341   0.767   4.009   2.092  0.7243  2.2755  0.3171
 1293SOL    HW215342   0.817   4.033   1.952  3.3544  2.0172  0.0944
 1294SOL     OW15343   0.020   0.126   3.743  0.1522 -1.0214  0.3802
 1294SOL    HW115344   0.058   0.117   3.830 -2.0784  1.0182  1.5615
 1294SOL    HW215345   0.038   0.038   3.709 -1.5634 -1.2543  0.0754
 1295SOL     OW15346   0.676   2.936   9.376  0.2807  0.0029 -0.6577
 1295SOL    HW115347   0.662   2.907   9.466  0.8107  1.9415  0.0432
 1295SOL    HW215348   0.634   2.870   9.321  2.0574  0.2686 -2.3364
 1296SOL     OW15349   3.427   2.227   6.240  0.1737 -0.2716 -0.6945
 1296SOL    HW115350   3.465   2.312   6.260 -2.1033  0.3803  0.7655
 1296SOL    HW215351   3.507   2.176   6.227  1.4541  1.7286 -0.6493
 1297SOL     OW15352   0.475   4.514  13.839 -0.0550  0.3531 -0.1481
 1297SOL    HW115353   0.539   4.560  13.893 -1.5750  1.6867  0.5286
 1297SOL    HW215354   0.393   4.534  13.884 -0.3634 -2.0833  0.3883
 1298SOL     OW15355   2.684   0.038   6.983  0.2242  0.2569  0.8999
 1298SOL    HW115356   2.715   0.128   6.993  0.3026  0.3637 -0.2864
 1298SOL    HW215357   2.757   0.003   7.034  0.6681 -0.7591 -0.4299
 1299SOL     OW15358   1.235   1.208   3.604  0.0570 -0.0190 -0.3729
 1299SOL    HW115359   1.328   1.212   3.582 -0.0012  1.0712 -0.4223
 1299SOL    HW215360   1.240   1.213   3.699 -2.0914  3.1336 -0.4314
 1300SOL     OW15361   0.657   2.632   3.050  0.2014 -0.4228  0.0049
 1300SOL    HW115362   0.722   2.564   3.070  0.6120  0.7644  2.7468
 1300SOL    HW215363   0.688   2.707   3.101  0.4690 -1.0887  0.8371
 1301SOL     OW15364   3.382   3.852   5.829  0.0299  0.3020  0.0019
 1301SOL    HW115365   3.411   3.859   5.738 -2.5787 -0.0216 -0.8483
 1301SOL    HW215366   3.354   3.761   5.832  0.4312  0.0882 -2.3788
 1302SOL     OW15367   0.409   2.030  13.124  0.5898 -0.1745 -1.1768
 1302SOL    HW115368   0.405   2.126  13.131 -1.1425 -0.2722 -0.8700
 1302SOL    HW215369   0.416   2.022  13.029  2.5642 -0.4221 -0.9921
 1303SOL     OW15370   3.611   2.942   7.195 -0.1787 -0.7058  0.5417
 1303SOL    HW115371   3.657   2.954   7.278 -0.3672 -1.5980  0.7717
 1303SOL    HW215372   3.541   2.881   7.216 -0.3126  0.2121  2.7144
 1304SOL     OW15373   3.043   0.352  12.479 -0.0042  1.0075 -0.7823
 1304SOL    HW115374   3.030   0.434  12.526 -2.7505  0.9225 -1.4088
 1304SOL    HW215375   3.124   0.366  12.430  1.3707  0.5517  1.3735
 1305SOL     OW15376   2.257   1.492  11.277  0.2086 -0.4638  0.2566
 1305SOL    HW115377   2.192   1.531  11.219  2.2246 -0.2706 -1.8840
 1305SOL    HW215378   2.343   1.519  11.243  0.4537  0.9068  1.9453
 1306SOL     OW15379   2.234   2.653   8.244  0.4855 -0.4407 -0.0116
 1306SOL    HW115380   2.294   2.610   8.305 -0.1583  0.0055  0.9467
 1306SOL    HW215381   2.178   2.702   8.305  1.8706 -0.6303  1.4006
 1307SOL     OW15382   2.113   2.913   6.981 -0.3995  0.1050  0.7334
 1307SOL    HW115383   2.064   2.948   7.056 -0.9266  0.1936  0.3444
 1307SOL    HW215384   2.039   2.889   6.926 -2.1809  2.9535  1.8626
 1308SOL     OW15385   1.930   4.647   4.502 -0.0004 -0.4023 -0.0821
 1308SOL    HW115386   1.863   4.712   4.525  0.6527  0.0793  0.4381
 1308SOL    HW215387   1.984   4.655   4.580  1.2413  3.0959 -1.3203
 1309SOL     OW15388   1.107   3.669   2.845 -0.9662 -0.6031  0.1858
 1309SOL    HW115389   1.060   3.752   2.858 -0.7877 -0.5907  0.7635
 1309SOL    HW215390   1.192   3.697   2.879 -0.8362  0.7231 -1.2237
 1310SOL     OW15391   1.199   1.839  12.865  0.3388 -0.4276 -0.0415
 1310SOL    HW115392   1.157   1.792  12.793  1.3903 -1.5853  0.0946
 1310SOL    HW215393   1.143   1.916  12.861  1.1301  0.2157  1.4141
 1311SOL     OW15394   1.143   4.505   1.449 -0.2291  0.0893  0.7280
 1311SOL    HW115395   1.100   4.445   1.510  0.2926  0.2532  1.2647
 1311SOL    HW215396   1.237   4.487   1.448 -0.4208 -1.0595  2.5533
 1312SOL     OW15397   1.526   3.879  11.089 -0.2682  0.2848 -0.4137
 1312SOL    HW115398   1.496   3.887  10.998 -1.7612 -0.1567  0.0292
 1312SOL    HW215399   1.606   3.930  11.087  0.1085 -0.3250 -0.8466
 1313SOL     OW15400   2.778   3.068   5.875 -0.0885 -0.2359  0.2488
 1313SOL    HW115401   2.838   3.125   5.924 -1.1613  1.6619 -0.6913
 1313SOL    HW215402   2.831   3.041   5.800 -0.7501  2.0470 -1.0049
 1314SOL     OW15403   0.468   0.359   8.989 -0.5385  0.1111  0.0655
 1314SOL    HW115404   0.397   0.328   8.933  0.8458  0.2464 -1.7444
 1314SOL    HW215405   0.512   0.277   9.012 -1.9517 -0.4960  0.6256
 1315SOL     OW15406   0.726   2.603   7.702 -0.3030 -0.0211 -0.3890
 1315SOL    HW115407   0.682   2.659   7.637 -0.5907 -2.6640 -2.4952
 1315SOL    HW215408   0.771   2.543   7.642  0.7701  1.6212 -1.2320
 1316SOL     OW15409   3.498   2.155   2.905  0.2304  0.4631  0.1763
 1316SOL    HW115410   3.501   2.061   2.920 -1.3679  0.5481  1.0348
 1316SOL    HW215411   3.527   2.173   2.816 -0.6425 -0.4948 -0.3028
 1317SOL     OW15412   4.221   2.840  10.017 -0.3273  0.1153 -0.0543
 1317SOL    HW115413   4.225   2.766  10.078 -1.4529 -1.4217 -1.8354
 1317SOL    HW215414   4.228   2.789   9.936 -0.1113  0.8080 -0.4651
 1318SOL     OW15415   1.103   2.167  11.762  0.2292 -0.1297 -0.0639
 1318SOL    HW115416   1.111   2.244  11.817 -2.0312 -1.1000  1.6784
 1318SOL    HW215417   1.051   2.103  11.812  1.6114  1.0075  2.8338
 1319SOL     OW15418   2.123   0.900   5.342  0.2854 -0.4340  0.2356
 1319SOL    HW115419   2.174   0.950   5.279 -0.0096 -0.6102 -0.1443
 1319SOL    HW215420   2.148   0.952   5.418  1.6353 -0.1463 -0.4042
 1320SOL     OW15421   2.489   4.435  16.470 -0.1425  0.7058 -0.1638
 1320SOL    HW115422   2.409   4.396  16.505  0.1832 -1.1875 -1.5532
 1320SOL    HW215423   2.522   4.370  16.408  0.5024  0.4944  0.3908
 1321SOL     OW15424   2.808   2.388   5.819 -0.6901 -0.1875 -0.8687
 1321SOL    HW115425   2.806   2.473   5.776  1.6403 -0.8371 -2.2909
 1321SOL    HW215426   2.869   2.411   5.889 -0.7975  0.7428 -1.0927
 1322SOL     OW15427   3.236   2.045  15.980 -0.2175  0.0073 -0.0112
 1322SOL    HW115428   3.278   2.122  15.943  1.4333 -0.1181  1.5816
 1322SOL    HW215429   3.207   2.002  15.900 -0.2572  1.5093 -0.7980
 1323SOL     OW15430   3.591   4.293   5.876 -0.6452 -0.3349 -0.0623
 1323SOL    HW115431   3.579   4.208   5.919 -0.9905 -0.5658 -0.6096
 1323SOL    HW215432   3.513   4.296   5.821  0.3032  0.7246 -1.3328
 1324SOL     OW15433   4.114   2.368   4.543 -0.2474  0.4790 -0.0634
 1324SOL    HW115434   4.084   2.452   4.579 -0.0466 -0.1056  1.4377
 1324SOL    HW215435   4.165   2.410   4.473  2.1076 -0.6319  1.0141
 1325SOL     OW15436   1.542   4.670   4.745  0.1108 -0.5000 -0.4860
 1325SOL    HW115437   1.557   4.688   4.838  2.2816 -1.5623 -0.6259
 1325SOL    HW215438   1.474   0.011   4.728 -0.4649 -0.7702  0.7964
 1326SOL     OW15439   1.143   2.533   5.700 -0.4222  0.1905 -0.5164
 1326SOL    HW115440   1.053   2.503   5.685 -0.8748  1.4031 -0.1895
 1326SOL    HW215441   1.122   2.595   5.770 -0.2568 -0.3072 -0.0175
 1327SOL     OW15442   3.163   0.494   0.863 -0.0172  0.3166 -0.7350
 1327SOL    HW115443   3.241   0.454   0.903 -0.9777 -0.6509  0.1557
 1327SOL    HW215444   3.213   0.548   0.801  0.1298  0.1384 -0.7704
 1328SOL     OW15445   2.483   4.626  14.858  0.0773  0.1745  0.6192
 1328SOL    HW115446   2.472   4.547  14.805 -0.1448  1.3544 -1.0605
 1328SOL    HW215447   2.538   4.588  14.927 -0.1556  1.8651  1.7385
 1329SOL     OW15448   4.676   1.842   7.825 -0.6424 -0.3755  0.2988
 1329SOL    HW115449   0.019   1.873   7.763 -1.0196 -3.3192 -1.5559
 1329SOL    HW215450   4.610   1.912   7.827 -0.9785 -0.7000  0.5196
 1330SOL     OW15451   1.214   1.227  13.005 -0.2594 -0.0489  0.0286
 1330SOL    HW115452   1.284   1.230  13.071  1.4222 -1.8333 -1.6865
 1330SOL    HW215453   1.226   1.304  12.949 -1.9732 -0.8639 -1.4490
 1331SOL     OW15454   0.294   0.077   7.865 -0.1331  0.4945 -0.2614
 1331SOL    HW115455   0.359   0.069   7.796 -0.8459 -0.3830 -0.8403
 1331SOL    HW215456   0.314   4.721   7.914 -2.7010 -1.6259 -2.6529
 1332SOL     OW15457   3.164   3.324   8.570  0.1485  0.0306 -0.1877
 1332SOL    HW115458   3.220   3.400   8.584  1.0819 -0.4553 -1.2964
 1332SOL    HW215459   3.118   3.350   8.490  1.2597  2.3530 -0.0826
 1333SOL     OW15460   2.259   4.608   5.355  0.0520 -0.8684  0.0590
 1333SOL    HW115461   2.204   4.532   5.377 -0.6978 -1.2197 -2.9919
 1333SOL    HW215462   2.201   4.683   5.367  0.8556 -0.1875 -0.3396
 1334SOL     OW15463   2.314   2.464  17.143 -0.0696  0.3737  0.4910
 1334SOL    HW115464   2.326   2.549  17.186 -0.9092  0.6465  0.1735
 1334SOL    HW215465   2.406   2.437  17.132  0.1856  0.5324  2.2222
 1335SOL     OW15466   1.418   0.825   3.440 -0.1468 -0.3210 -0.4356
 1335SOL    HW115467   1.396   0.878   3.364  0.4940 -0.9663 -1.0674
 1335SOL    HW215468   1.346   0.858   3.495  0.0378 -2.2911  1.0209
 1336SOL     OW15469   2.605   1.481   7.930 -0.3318 -0.0593  0.1613
 1336SOL    HW115470   2.694   1.494   7.897 -0.2718  0.6311  0.6154
 1336SOL    HW215471   2.565   1.417   7.870  1.1123  0.1123 -0.9704
 1337SOL     OW15472   2.320   0.511   2.100 -0.3707 -0.8224 -0.5169
 1337SOL    HW115473   2.352   0.566   2.171 -1.5445 -0.8572  0.0275
 1337SOL    HW215474   2.252   0.567   2.062  1.3497  1.9747  0.5736
 1338SOL     OW15475   0.038   3.458   3.853 -0.2326  0.3769  0.2557
 1338SOL    HW115476   4.712   3.508   3.789  1.6103 -1.0597 -2.2968
 1338SOL    HW215477   0.086   3.530   3.895  0.7806 -0.6587  0.8777
 1339SOL     OW15478   4.639   1.598  17.364  0.1725 -0.0577  0.2219
 1339SOL    HW115479   4.573   1.542  17.323  1.7112 -1.5080 -0.2525
 1339SOL    HW215480   4.597   1.617  17.449  1.4842 -0.6795  1.0056
 1340SOL     OW15481   0.177   2.048  10.620 -0.2220  0.4299  0.2728
 1340SOL    HW115482   0.093   2.087  10.596 -0.8427 -0.7388  0.5413
 1340SOL    HW215483   0.225   2.131  10.629 -0.4381  0.4766  1.0613
 1341SOL     OW15484   3.502   4.668   4.121 -0.1559  0.0453  0.7678
 1341SOL    HW115485   3.576   4.715   4.159 -0.2588  0.1935  0.7820
 1341SOL    HW215486   3.495   4.602   4.191 -1.9186 -2.9861 -2.3073
 1342SOL     OW15487   4.054   1.154   7.115  0.1602  0.3883  0.4044
 1342SOL    HW115488   4.004   1.094   7.172 -0.7292 -1.4178 -2.2973
 1342SOL    HW215489   4.136   1.105   7.113 -1.3196 -2.0499 -0.0751
 1343SOL     OW15490   3.309   3.324   6.679 -0.1913  0.6024  0.3150
 1343SOL    HW115491   3.337   3.404   6.725  0.1157 -0.3532  1.7786
 1343SOL    HW215492   3.382   3.265   6.698  0.4602  0.9135 -1.2293
 1344SOL     OW15493   2.669   3.172   5.571  0.0114  0.0075  0.3806
 1344SOL    HW115494   2.740   3.209   5.624  0.2681 -1.0950  0.7914
 1344SOL    HW215495   2.663   3.241   5.505  0.3484 -0.2775  0.0585
 1345SOL     OW15496   0.083   1.634   4.164 -0.0785 -0.1532  0.3990
 1345SOL    HW115497   0.021   1.614   4.235  1.9271  0.5092  2.3349
 1345SOL    HW215498   0.017   1.670   4.105 -0.5453  0.2241  1.1459
 1346SOL     OW15499   2.021   0.633  11.712 -0.4537 -0.1774  0.5647
 1346SOL    HW115500   2.030   0.612  11.805  0.2441 -0.3360  0.4607
 1346SOL    HW215501   1.974   0.554  11.686 -1.5251  0.1053  1.6164
 1347SOL     OW15502   4.038   1.012   3.781 -0.4476  0.4018  0.8138
 1347SOL    HW115503   4.077   1.077   3.839  0.4944 -0.5602  1.2471
 1347SOL    HW215504   3.947   1.018   3.811 -0.4086 -0.5574  1.1018
 1348SOL     OW15505   3.975   0.617   4.775  0.3828  0.1664 -0.3662
 1348SOL    HW115506   4.005   0.671   4.849  0.4908 -1.5695  0.8719
 1348SOL    HW215507   4.026   0.650   4.702  2.7681 -0.1628  1.1471
 1349SOL     OW15508   4.497   1.089   3.538  0.3091 -0.4227 -0.0399
 1349SOL    HW115509   4.489   1.003   3.580 -1.1894  0.0017  0.5558
 1349SOL    HW215510   4.578   1.078   3.488  0.4672  0.8516 -0.0634
 1350SOL     OW15511   2.727   0.455  10.428 -0.0611 -0.4149  0.0737
 1350SOL    HW115512   2.651   0.454  10.486  0.0394 -0.7020  0.2007
 1350SOL    HW215513   2.693   0.403  10.355 -2.9343  1.7657 -0.1505
 1351SOL     OW15514   4.432   0.783   8.788 -0.3370  0.4279  0.4538
 1351SOL    HW115515   4.390   0.823   8.864 -0.3926  1.6942 -0.2532
 1351SOL    HW215516   4.527   0.796   8.797 -0.6449  1.2721  2.5121
 1352SOL     OW15517   2.043   2.415  16.453  0.0641 -0.0154 -0.5398
 1352SOL    HW115518   2.059   2.383  16.365  3.6635 -0.0200  0.1403
 1352SOL    HW215519   1.958   2.456  16.435 -1.4055 -1.9513  1.9696
 1353SOL     OW15520   0.244   1.358   4.430 -0.0765  0.4714  0.0247
 1353SOL    HW115521   0.199   1.282   4.393  1.3090 -0.7520  0.8714
 1353SOL    HW215522   0.201   1.383   4.512  0.1739  0.3505  0.1911
 1354SOL     OW15523   2.186   0.004   8.076  0.1581 -0.6116  0.2096
 1354SOL    HW115524   2.266   0.025   8.124 -0.5264  1.7458  0.3416
 1354SOL    HW215525   2.206   4.640   8.043 -1.2708  0.5205 -3.6533
 1355SOL     OW15526   4.543   3.933   5.767  0.0062 -0.0816  0.1347
 1355SOL    HW115527   4.554   3.895   5.679 -0.4914  0.1528 -0.0313
 1355SOL    HW215528   4.632   3.959   5.791 -0.0437 -0.6333  0.9093
 1356SOL     OW15529   2.634   1.392   9.870 -0.3380 -0.2620 -0.4962
 1356SOL    HW115530   2.626   1.297   9.868 -1.6188 -0.2140  1.8560
 1356SOL    HW215531   2.717   1.400   9.824  1.3548 -0.0000  2.5894
 1357SOL     OW15532   0.773   2.974   1.897  0.1133 -0.4712 -0.1643
 1357SOL    HW115533   0.827   3.023   1.835  0.9050 -2.0438 -0.7382
 1357SOL    HW215534   0.766   3.044   1.961 -0.6330  0.6055 -1.4256
 1358SOL     OW15535   4.576   3.014  16.695  0.0515  0.2681 -0.1511
 1358SOL    HW115536   4.568   3.020  16.791 -2.8086 -2.9479 -0.1889
 1358SOL    HW215537   4.493   3.057  16.676 -0.2878  0.1727  1.1353
 1359SOL     OW15538   4.214   3.177  15.966  0.0772  0.0627  0.1170
 1359SOL    HW115539   4.162   3.134  16.035  2.1422 -1.3480  0.8049
 1359SOL    HW215540   4.143   3.187  15.903  0.0126  0.8217  0.3116
 1360SOL     OW15541   0.411   2.488   7.426 -0.1872 -0.6399  0.0999
 1360SOL    HW115542   0.396   2.502   7.333  1.3155  0.7189  0.0572
 1360SOL    HW215543   0.439   2.396   7.430  1.0131 -0.3037 -0.5287
 1361SOL     OW15544   3.030   0.755   1.075 -0.0690 -0.5819 -0.0347
 1361SOL    HW115545   2.960   0.785   1.017 -2.1139 -0.4891  2.4994
 1361SOL    HW215546   2.975   0.756   1.153 -2.0731  2.1125 -1.4738
 1362SOL     OW15547   4.427   4.337  12.544 -0.0828 -0.4348 -0.0427
 1362SOL    HW115548   4.410   4.414  12.489  0.5691 -0.1762  0.1306
 1362SOL    HW215549   4.520   4.345  12.560 -0.3496  0.8554  0.8291
 1363SOL     OW15550   1.437   3.666   7.089 -0.2025 -0.1122  0.0352
 1363SOL    HW115551   1.344   3.689   7.085 -0.1106 -0.1419 -2.0073
 1363SOL    HW215552   1.444   3.597   7.023 -1.9765  1.1741 -1.4930
 1364SOL     OW15553   1.711   1.074   1.125 -0.2648  0.0773 -0.4213
 1364SOL    HW115554   1.618   1.095   1.113 -0.3408  0.1954  0.3365
 1364SOL    HW215555   1.727   0.985   1.093 -1.9526 -0.0122 -0.9922
 1365SOL     OW15556   1.904   3.141  16.281  0.0607  0.4997 -0.0048
 1365SOL    HW115557   1.826   3.132  16.227 -0.8535  2.4052  0.9742
 1365SOL    HW215558   1.966   3.085  16.234 -0.5793 -0.9945  0.9319
 1366SOL     OW15559   0.704   4.689  13.940 -0.2814  0.4318  0.2597
 1366SOL    HW115560   0.702   4.639  14.021 -0.9002 -2.3020 -1.4229
 1366SOL    HW215561   0.725   4.612  13.887  0.7319  1.1360 -0.3648
 1367SOL     OW15562   0.522   3.247   3.704 -0.5952 -0.5404  0.2087
 1367SOL    HW115563   0.428   3.261   3.711 -0.3151  0.7552  1.2973
 1367SOL    HW215564   0.538   3.161   3.666  1.6252  0.0590 -0.2681
 1368SOL     OW15565   4.307   0.689   8.258  0.1629 -0.1117  0.2970
 1368SOL    HW115566   4.365   0.695   8.333  2.4177  1.3445 -1.5783
 1368SOL    HW215567   4.235   0.749   8.280 -0.0844 -0.2639 -0.0970
 1369SOL     OW15568   4.576   2.036   8.821 -0.2707  0.0554 -0.2369
 1369SOL    HW115569   4.595   1.957   8.871  1.6435 -0.1492 -1.2928
 1369SOL    HW215570   4.665   2.071   8.819 -0.1014 -0.4926 -2.9445
 1370SOL     OW15571   2.665   1.031   0.541  0.3389 -0.3552 -0.0666
 1370SOL    HW115572   2.682   0.992   0.455 -1.0769  0.0739 -0.5422
 1370SOL    HW215573   2.590   1.089   0.527  1.2717  1.2005  1.4937
 1371SOL     OW15574   2.923   3.843  15.208 -0.1231 -0.3841  0.5002
 1371SOL    HW115575   2.918   3.854  15.113 -2.0026 -1.5700  0.4536
 1371SOL    HW215576   3.017   3.857  15.215  0.1387 -1.2006 -1.2680
 1372SOL     OW15577   4.261   2.153   8.474 -0.2829  0.7600 -0.1201
 1372SOL    HW115578   4.327   2.173   8.541  0.0279  1.4788 -0.6339
 1372SOL    HW215579   4.286   2.063   8.454 -2.0747  0.2142  0.1365
 1373SOL     OW15580   2.294   4.389   9.263  0.4265  0.1554 -0.2891
 1373SOL    HW115581   2.351   4.466   9.256 -0.2345  0.5866 -0.8889
 1373SOL    HW215582   2.212   4.431   9.288  0.0695 -1.3272  1.0509
 1374SOL     OW15583   4.650   2.287   0.111 -0.1717 -0.2816  0.0349
 1374SOL    HW115584   4.617   2.377   0.110 -4.0082 -1.6547 -0.2003
 1374SOL    HW215585   4.662   2.289   0.205  3.0540  2.4704 -0.4646
 1375SOL     OW15586   0.887   3.738   2.100 -0.2473 -0.1176 -0.0320
 1375SOL    HW115587   0.882   3.824   2.057 -0.7398 -0.7156 -1.1573
 1375SOL    HW215588   0.792   3.729   2.108 -0.3949  0.6588 -0.9068
 1376SOL     OW15589   3.353   3.050   9.756  0.2683  0.1835  0.0275
 1376SOL    HW115590   3.369   3.135   9.797 -0.9313 -0.9087  2.7614
 1376SOL    HW215591   3.416   3.045   9.683  0.0775  1.6817 -0.2488
 1377SOL     OW15592   3.338   4.461  13.203 -0.5059  0.0607  0.0337
 1377SOL    HW115593   3.372   4.387  13.152  0.5904  0.1352  0.6632
 1377SOL    HW215594   3.258   4.421  13.238  0.6873 -1.6909  0.7357
 1378SOL     OW15595   0.552   1.491  13.331 -0.1629 -0.0181 -0.1242
 1378SOL    HW115596   0.480   1.428  13.336 -0.7376  0.4918 -2.1819
 1378SOL    HW215597   0.600   1.454  13.257 -0.0041 -0.2287  0.0836
 1379SOL     OW15598   4.523   3.954   7.746  0.6436  0.1484  0.0905
 1379SOL    HW115599   4.522   4.001   7.663  0.2868 -0.9943 -0.5455
 1379SOL    HW215600   4.552   4.023   7.806 -0.7816  1.5548 -0.8515
 1380SOL     OW15601   3.999   4.021   4.608  0.3164  0.2917  0.5889
 1380SOL    HW115602   4.084   4.065   4.600  0.7193 -0.0686  2.8068
 1380SOL    HW215603   4.015   3.933   4.574 -1.6403  0.0011  0.4476
 1381SOL     OW15604   2.703   0.516   1.050 -0.2154 -0.0005  0.0658
 1381SOL    HW115605   2.644   0.516   0.975  1.4150 -0.3375 -1.2377
 1381SOL    HW215606   2.784   0.508   0.998 -0.4101 -0.1903 -0.2078
 1382SOL     OW15607   4.017   2.399   5.800 -0.3046 -0.6779 -0.7742
 1382SOL    HW115608   4.042   2.481   5.757 -1.9775 -0.1855 -0.7943
 1382SOL    HW215609   4.106   2.363   5.803  1.1745  3.0881  1.2135
 1383SOL     OW15610   2.352   3.386  11.925 -0.4597  0.2122  0.5918
 1383SOL    HW115611   2.407   3.379  12.003 -2.2800 -0.1547  1.8682
 1383SOL    HW215612   2.359   3.481  11.915 -0.5851  0.1366 -0.2102
 1384SOL     OW15613   1.053   0.172   9.535 -0.5142 -0.3861 -0.1046
 1384SOL    HW115614   1.112   0.225   9.588  1.8998 -2.7239 -0.4501
 1384SOL    HW215615   1.002   0.143   9.611 -1.1139  0.4338 -0.1927
 1385SOL     OW15616   4.333   3.706   4.312  0.4862  0.6925  1.2176
 1385SOL    HW115617   4.347   3.634   4.250  2.6303  1.6178  0.6316
 1385SOL    HW215618   4.247   3.734   4.280 -0.9458 -1.0530  3.5293
 1386SOL     OW15619   0.789   0.810   7.336  0.3555  0.2921 -0.3004
 1386SOL    HW115620   0.783   0.746   7.264  1.2261 -0.9252  0.7067
 1386SOL    HW215621   0.699   0.837   7.353  0.5692 -0.1986  1.6091
 1387SOL     OW15622   1.553   0.377  12.821 -0.2258  0.3572 -0.1054
 1387SOL    HW115623   1.482   0.320  12.791  1.0498 -2.1043  1.5948
 1387SOL    HW215624   1.550   0.438  12.747 -0.6933 -2.8975 -2.7419
 1388SOL     OW15625   3.992   0.113   6.134 -0.0643  0.1405 -0.7812
 1388SOL    HW115626   3.980   0.042   6.196  0.9020 -0.5496 -1.3950
 1388SOL    HW215627   4.035   0.074   6.059  1.0194 -0.4964  0.1836
 1389SOL     OW15628   3.007   3.483   6.339 -0.3163 -0.0214  0.2841
 1389SOL    HW115629   3.012   3.456   6.430 -0.2972 -1.3451 -0.0979
 1389SOL    HW215630   2.915   3.509   6.348 -0.8765 -1.4268 -1.2148
 1390SOL     OW15631   3.705   2.598   0.518 -0.1542 -0.3807  0.2820
 1390SOL    HW115632   3.629   2.642   0.557  0.1428  1.7972 -1.6572
 1390SOL    HW215633   3.659   2.592   0.435 -3.0275  0.8324  1.7832
 1391SOL     OW15634   2.600   4.015   7.254  0.1250 -0.2641 -0.2485
 1391SOL    HW115635   2.624   4.065   7.175 -1.1258  1.2280  0.3191
 1391SOL    HW215636   2.552   4.081   7.304  0.8273  0.0828 -0.0294
 1392SOL     OW15637   0.372   2.107   1.049  0.2870 -0.0390  0.3659
 1392SOL    HW115638   0.454   2.064   1.026  0.2823  0.2239 -0.1567
 1392SOL    HW215639   0.405   2.158   1.123 -0.3655  1.6756 -0.5163
 1393SOL     OW15640   4.263   3.989   3.522  0.0609 -0.1337 -0.3241
 1393SOL    HW115641   4.209   4.038   3.461  0.1785  1.7258  1.0554
 1393SOL    HW215642   4.201   3.934   3.570  0.2636 -0.8144 -0.8501
 1394SOL     OW15643   2.623   3.217   3.089 -0.2315 -0.1162  0.0987
 1394SOL    HW115644   2.644   3.227   2.996  0.3542 -1.3440  0.1076
 1394SOL    HW215645   2.529   3.197   3.090 -0.1290 -0.8225 -3.3965
 1395SOL     OW15646   1.999   4.424   0.267 -0.1097 -0.2954 -0.0802
 1395SOL    HW115647   1.934   4.432   0.197  0.6437  1.0096 -0.6343
 1395SOL    HW215648   2.007   4.329   0.276  1.4975 -0.1642 -0.2006
 1396SOL     OW15649   3.291   0.874   5.771  0.2181 -0.6198 -0.2154
 1396SOL    HW115650   3.217   0.889   5.713 -0.2229  1.3759  0.8980
 1396SOL    HW215651   3.348   0.941   5.733 -0.9136 -0.1037 -0.9911
 1397SOL     OW15652   3.005   1.276   9.657 -0.2641  0.1436  0.0005
 1397SOL    HW115653   3.000   1.183   9.677  0.5198  0.0118 -0.4228
 1397SOL    HW215654   2.922   1.286   9.609 -0.1037 -1.0030 -0.5135
 1398SOL     OW15655   2.172   4.575  12.840  0.2742 -0.4574  0.2778
 1398SOL    HW115656   2.258   4.609  12.816  0.6472 -1.4373  0.2233
 1398SOL    HW215657   2.197   4.495  12.886 -3.9001 -0.9962  1.5702
 1399SOL     OW15658   3.815   1.653   7.406 -0.3065  0.0039 -0.1679
 1399SOL    HW115659   3.754   1.687   7.341 -0.7144 -0.8710 -0.2332
 1399SOL    HW215660   3.887   1.714   7.388 -0.9281  0.2404 -1.8527
 1400SOL     OW15661   0.799   2.034   6.054 -0.2829  0.1658 -0.2515
 1400SOL    HW115662   0.801   1.942   6.081 -1.8043  0.5213  1.0831
 1400SOL    HW215663   0.867   2.068   6.112  1.5936  0.1324 -2.4156
 1401SOL     OW15664   3.145   1.898   9.159 -0.4141  0.3763 -0.6486
 1401SOL    HW115665   3.136   1.911   9.253 -0.6559  1.9067 -0.8818
 1401SOL    HW215666   3.236   1.925   9.157  0.3056 -2.1054 -1.1254
 1402SOL     OW15667   0.121   4.133   9.362 -0.2859  0.4191  0.0364
 1402SOL    HW115668   0.053   4.190   9.397 -2.7362 -1.2965 -1.9696
 1402SOL    HW215669   0.083   4.113   9.277  2.3456 -1.4347 -0.6925
 1403SOL     OW15670   3.093   3.670   7.114 -0.0559  0.0811  0.1786
 1403SOL    HW115671   3.178   3.631   7.129  0.6686  1.5240 -0.1607
 1403SOL    HW215672   3.080   3.687   7.020  0.9547  1.0293  0.2116
 1404SOL     OW15673   4.406   1.225   5.195  0.1708 -0.0763 -0.0424
 1404SOL    HW115674   4.470   1.172   5.148  1.5597  0.6755  1.0105
 1404SOL    HW215675   4.471   1.286   5.230 -0.2014  0.5537 -0.4335
 1405SOL     OW15676   4.638   4.206   3.109 -0.6257  0.0759 -0.4917
 1405SOL    HW115677   4.664   4.141   3.043  3.6782  0.5496  0.7547
 1405SOL    HW215678   4.570   4.156   3.155 -1.6829  1.5233 -0.4698
 1406SOL     OW15679   0.347   0.085  10.135 -0.1132 -0.0938 -0.1787
 1406SOL    HW115680   0.378   0.016  10.193 -2.2292 -0.9076 -0.0057
 1406SOL    HW215681   0.309   0.033  10.063  0.1263 -1.0961  0.4158
 1407SOL     OW15682   0.559   2.508   0.379 -0.1701  0.2041  0.2543
 1407SOL    HW115683   0.519   2.432   0.338  1.1130 -0.5014  0.2903
 1407SOL    HW215684   0.489   2.548   0.430  0.5281 -0.6930  1.9406
 1408SOL     OW15685   0.933   2.980   3.002 -0.5881  0.1739  0.4417
 1408SOL    HW115686   0.940   2.885   3.009  1.4126  0.2742 -0.3046
 1408SOL    HW215687   0.860   2.982   2.941  2.0570  0.4110 -2.6975
 1409SOL     OW15688   3.577   3.428   3.765 -0.2112  0.6573  0.0731
 1409SOL    HW115689   3.519   3.434   3.689  0.4460 -1.3249 -0.5731
 1409SOL    HW215690   3.544   3.346   3.802 -0.2875  0.0950 -1.2256
 1410SOL     OW15691   4.026   2.544  16.946  0.9801 -0.2213  0.1738
 1410SOL    HW115692   4.083   2.619  16.936  1.7503 -0.8262  0.0481
 1410SOL    HW215693   4.086   2.476  16.916 -1.0861 -1.4224 -1.3025
 1411SOL     OW15694   4.479   2.838   7.160 -0.0843 -0.5454 -0.2941
 1411SOL    HW115695   4.438   2.913   7.202  0.8117  0.9899 -2.1613
 1411SOL    HW215696   4.525   2.807   7.238 -0.1748 -0.1538 -0.0899
 1412SOL     OW15697   0.946   3.097  16.293  0.1294  0.3057  0.5038
 1412SOL    HW115698   0.999   3.173  16.314 -1.5454  1.6349 -0.0215
 1412SOL    HW215699   1.008   3.024  16.301 -1.3779 -1.1099 -0.6240
 1413SOL     OW15700   2.470   3.295  16.097  0.2802 -0.1310 -0.4193
 1413SOL    HW115701   2.414   3.325  16.025  0.4119  1.3655  0.0849
 1413SOL    HW215702   2.551   3.293  16.047 -1.3759 -1.3813 -3.0587
 1414SOL     OW15703   2.361   1.392  17.627 -0.3447 -0.0225 -0.4052
 1414SOL    HW115704   2.306   1.458  17.585 -0.5353 -0.8841 -1.4851
 1414SOL    HW215705   2.403   1.456  17.685  1.8259 -3.1047  1.4220
 1415SOL     OW15706   3.161   0.239  10.208 -0.7558 -0.0665 -0.0399
 1415SOL    HW115707   3.122   0.160  10.169 -1.1311  0.1996 -0.2052
 1415SOL    HW215708   3.093   0.247  10.275 -1.4842 -1.6893 -0.5746
 1416SOL     OW15709   3.104   3.027   8.584  0.0737 -0.1529 -0.5635
 1416SOL    HW115710   3.036   3.014   8.650 -0.9466  0.6427 -1.4715
 1416SOL    HW215711   3.088   3.115   8.551  0.8709  0.6235  1.1139
 1417SOL     OW15712   0.340   0.932   5.420 -0.0172  0.0345  0.2651
 1417SOL    HW115713   0.416   0.874   5.409  0.3541  0.5901 -0.0718
 1417SOL    HW215714   0.320   0.949   5.328 -0.7253  1.1928  0.6386
 1418SOL     OW15715   2.161   1.369   8.328 -0.0272  0.1183  0.4019
 1418SOL    HW115716   2.249   1.335   8.309 -0.0836  0.3271 -0.2353
 1418SOL    HW215717   2.180   1.451   8.373  1.6384 -0.1652  0.2319
 1419SOL     OW15718   4.189   2.656   6.054 -0.0340 -0.2097  0.4876
 1419SOL    HW115719   4.276   2.632   6.022  0.6095  2.2783  0.3766
 1419SOL    HW215720   4.155   2.568   6.075 -1.0043  0.1737  0.5002
 1420SOL     OW15721   3.956   1.781   5.606  0.2703 -0.3361 -0.2730
 1420SOL    HW115722   4.024   1.729   5.648 -0.6235 -1.0974  0.2237
 1420SOL    HW215723   4.000   1.860   5.575  0.4256  0.5209  2.1025
 1421SOL     OW15724   4.667   2.606  14.606 -0.1110  0.1534 -0.2078
 1421SOL    HW115725   4.642   2.513  14.603 -1.1178  0.4048  0.6332
 1421SOL    HW215726   0.028   2.595  14.648 -0.2663 -1.9650 -0.4322
 1422SOL     OW15727   3.951   0.575   3.223 -0.0543 -0.7926  0.4658
 1422SOL    HW115728   4.001   0.558   3.303  0.2141  0.1653  0.5132
 1422SOL    HW215729   3.864   0.581   3.261  0.5631  0.0753  1.7645
 1423SOL     OW15730   3.419   2.707   7.677  0.0043  0.5385 -0.4533
 1423SOL    HW115731   3.407   2.802   7.669 -1.5372  0.3170 -0.6845
 1423SOL    HW215732   3.435   2.704   7.772 -0.9538  0.4880 -0.2999
 1424SOL     OW15733   4.286   0.286   0.547  0.1614 -0.1412 -0.0969
 1424SOL    HW115734   4.239   0.296   0.629  1.2788 -0.4041  0.5673
 1424SOL    HW215735   4.290   0.191   0.546  3.4798 -0.0315  2.4895
 1425SOL     OW15736   0.865   3.758  12.754 -0.0794  0.1561 -0.5273
 1425SOL    HW115737   0.789   3.717  12.712  1.4325 -0.3707 -2.7153
 1425SOL    HW215738   0.922   3.687  12.784  0.2863  0.1087 -1.3613
 1426SOL     OW15739   0.271   3.983   4.554  0.2761 -0.3868 -0.1184
 1426SOL    HW115740   0.291   4.061   4.606 -1.2497  0.8581 -1.3717
 1426SOL    HW215741   0.197   4.021   4.505  1.9110  1.4733 -1.1424
 1427SOL     OW15742   2.803   0.660  14.902  0.2411  0.8988  0.5939
 1427SOL    HW115743   2.895   0.663  14.875  0.2854  0.6294  0.7139
 1427SOL    HW215744   2.808   0.737  14.958 -0.6702  1.3626  0.0256
 1428SOL     OW15745   1.611   3.599   2.524 -0.0488  0.9056 -0.1237
 1428SOL    HW115746   1.597   3.531   2.458  1.3721  0.2027  0.3002
 1428SOL    HW215747   1.685   3.561   2.572 -3.0353 -1.2371  2.7515
 1429SOL     OW15748   1.782   2.335   7.108  0.0905 -0.4989  0.1602
 1429SOL    HW115749   1.847   2.304   7.045 -0.2109  1.0903 -0.9477
 1429SOL    HW215750   1.727   2.257   7.105  1.9298 -1.7264 -1.4615
 1430SOL     OW15751   3.743   0.065  12.320 -0.3668 -0.7462 -0.3929
 1430SOL    HW115752   3.651   0.056  12.341 -0.3994  3.2316  1.0143
 1430SOL    HW215753   3.780   0.120  12.389 -1.3613  1.7745 -1.8810
 1431SOL     OW15754   2.639   1.054   2.734  0.1725 -0.6832 -0.0067
 1431SOL    HW115755   2.707   1.070   2.800  0.4832  1.0129 -0.7369
 1431SOL    HW215756   2.562   1.036   2.788  0.0596  0.8837  0.3585
 1432SOL     OW15757   1.834   4.109   8.733  0.4123  0.0017 -0.4456
 1432SOL    HW115758   1.861   4.031   8.781 -1.1436  0.2853  0.8807
 1432SOL    HW215759   1.739   4.101   8.725  0.4102 -0.0630 -0.3557
 1433SOL     OW15760   2.966   2.589   2.827 -0.1373 -0.2598  0.0363
 1433SOL    HW115761   2.896   2.528   2.849 -2.3285  2.0906 -0.3122
 1433SOL    HW215762   2.940   2.654   2.893  0.3566  0.3910 -0.4049
 1434SOL     OW15763   2.027   4.271   7.380  0.3534  0.7008 -0.3910
 1434SOL    HW115764   1.969   4.331   7.334 -1.0233  0.3300  0.8654
 1434SOL    HW215765   2.036   4.321   7.461  0.2862  2.8655 -1.7042
 1435SOL     OW15766   4.137   2.325  10.678 -0.8289 -0.3698 -0.0338
 1435SOL    HW115767   4.198   2.384  10.632 -0.4125  0.8025  2.0497
 1435SOL    HW215768   4.129   2.259  10.609 -2.9624  0.0893 -0.2082
 1436SOL     OW15769   3.116   1.783  15.028  0.3032 -0.4375  0.3255
 1436SOL    HW115770   3.085   1.719  15.092 -0.7579  0.4720  0.7265
 1436SOL    HW215771   3.138   1.853  15.089 -2.7413  1.2667 -0.5662
 1437SOL     OW15772   1.681   2.445  10.598 -0.3626  0.4164  0.2850
 1437SOL    HW115773   1.698   2.427  10.506 -1.4517 -2.1969  0.5955
 1437SOL    HW215774   1.594   2.409  10.613  0.2082 -0.8288  0.5802
 1438SOL     OW15775   2.717   1.221   5.455 -0.0441 -0.8337  0.1579
 1438SOL    HW115776   2.665   1.210   5.375  1.4172  0.0444 -0.9131
 1438SOL    HW215777   2.651   1.204   5.521 -2.3043 -1.3588 -2.2178
 1439SOL     OW15778   4.356   4.062   3.779  0.2994 -0.2617 -0.9683
 1439SOL    HW115779   4.403   4.145   3.767  0.9540 -0.5066 -0.0874
 1439SOL    HW215780   4.304   4.052   3.699  2.2143  0.0908 -2.2399
 1440SOL     OW15781   1.292   4.285   8.703  0.0643  0.1891  0.2961
 1440SOL    HW115782   1.258   4.230   8.773  0.7261  0.6045  0.9406
 1440SOL    HW215783   1.237   4.363   8.699  0.7422  0.8344  3.3923
 1441SOL     OW15784   1.316   2.745   6.033 -0.2278 -0.7479 -0.1519
 1441SOL    HW115785   1.374   2.776   5.963 -0.3590  0.5562  0.3238
 1441SOL    HW215786   1.327   2.651   6.021 -0.2233 -0.6494 -0.9288
 1442SOL     OW15787   2.180   3.294   6.693 -0.8144  0.0790 -0.5019
 1442SOL    HW115788   2.157   3.343   6.772 -1.7219 -1.2473  0.0734
 1442SOL    HW215789   2.272   3.283   6.717 -0.9492 -0.0648 -0.0409
 1443SOL     OW15790   4.422   2.132   3.010 -0.2122 -0.0104 -0.0404
 1443SOL    HW115791   4.343   2.182   2.993 -0.0773 -0.0273 -0.7043
 1443SOL    HW215792   4.378   2.049   2.993 -0.1490  0.1428 -0.9275
 1444SOL     OW15793   0.006   2.551   4.495  0.0145 -0.1984 -0.0832
 1444SOL    HW115794   0.059   2.494   4.550  0.9056  1.2767  0.5833
 1444SOL    HW215795   4.713   2.622   4.557 -0.8654  0.9955 -1.6845
 1445SOL     OW15796   4.021   4.707   2.170 -0.4280  0.1103 -0.3451
 1445SOL    HW115797   4.001   4.639   2.106 -0.7763 -0.2995  0.1991
 1445SOL    HW215798   4.035   4.659   2.251  1.3622  1.0942 -0.0642
 1446SOL     OW15799   0.603   0.004  14.412  0.1886 -0.3224  0.0624
 1446SOL    HW115800   0.523   0.002  14.463 -0.5897  0.2759 -1.1378
 1446SOL    HW215801   0.662   0.027  14.484 -1.9502  2.0874  1.0414
 1447SOL     OW15802   3.410   1.273   6.706  0.7169 -0.0284 -0.2677
 1447SOL    HW115803   3.408   1.369   6.702  0.3022  0.0490  1.6772
 1447SOL    HW215804   3.317   1.250   6.715  0.4963  0.9072 -0.0874
 1448SOL     OW15805   1.845   1.344   7.251  0.0452  0.4537 -0.4866
 1448SOL    HW115806   1.939   1.348   7.266  0.2837 -1.4998 -1.5360
 1448SOL    HW215807   1.832   1.259   7.293  0.6474  0.7919  0.3898
 1449SOL     OW15808   2.111   4.707   7.321  0.2441 -0.1625  0.1727
 1449SOL    HW115809   2.043   0.034   7.277  0.0031  0.1116  0.8647
 1449SOL    HW215810   2.099   0.024   7.407 -1.0228  0.0331 -0.0961
 1450SOL     OW15811   1.543   4.092   5.088 -0.1942 -0.0860  0.5415
 1450SOL    HW115812   1.587   4.035   5.151  2.5163  0.2985 -0.9874
 1450SOL    HW215813   1.517   4.026   5.024 -0.8924 -0.4483  1.2066
 1451SOL     OW15814   0.648   4.173  10.683 -0.7329 -0.3419 -0.1686
 1451SOL    HW115815   0.680   4.178  10.773  2.0750 -0.4374 -1.1546
 1451SOL    HW215816   0.603   4.088  10.684  0.6844 -1.1039 -1.6217
 1452SOL     OW15817   4.625   2.295   4.745  0.6529  0.0279 -0.0968
 1452SOL    HW115818   4.588   2.212   4.776 -1.0151  0.1728 -1.6512
 1452SOL    HW215819   4.562   2.327   4.680 -1.1225 -0.8033  1.2271
 1453SOL     OW15820   0.864   1.432   0.738  0.3799 -0.2231 -0.3433
 1453SOL    HW115821   0.852   1.412   0.645 -1.5848 -0.7489  0.0360
 1453SOL    HW215822   0.939   1.490   0.725 -0.3215  0.4875 -1.1750
 1454SOL     OW15823   0.859   4.180   7.059  0.3812  0.3182 -0.1171
 1454SOL    HW115824   0.861   4.274   7.076 -1.3331  0.5844 -1.3689
 1454SOL    HW215825   0.918   4.168   6.984 -2.1455 -1.5720 -1.8095
 1455SOL     OW15826   3.716   2.262  12.082  0.5555  0.1523 -0.0875
 1455SOL    HW115827   3.621   2.253  12.079  0.5004  0.3715  1.1800
 1455SOL    HW215828   3.739   2.170  12.097  1.5061  0.1415 -1.6208
 1456SOL     OW15829   3.111   0.033   0.726  0.4259 -0.0193 -0.2407
 1456SOL    HW115830   3.179   4.697   0.696  1.2412  0.6645  0.2301
 1456SOL    HW215831   3.158   0.114   0.707  1.6374 -0.6561  0.0862
 1457SOL     OW15832   0.269   4.056  10.003 -0.1393  0.6976 -0.1277
 1457SOL    HW115833   0.347   4.011   9.971  0.7203  0.5391  2.1897
 1457SOL    HW215834   0.310   4.091  10.082 -1.0453  0.4556  0.4518
 1458SOL     OW15835   1.068   1.138  11.313 -0.1542 -0.0126  0.0543
 1458SOL    HW115836   1.001   1.177  11.257  1.6766  3.0304 -0.0057
 1458SOL    HW215837   1.145   1.193  11.300 -0.3574 -0.1011 -1.4865
 1459SOL     OW15838   3.857   2.753   3.590 -0.2315  0.4546 -0.3520
 1459SOL    HW115839   3.763   2.766   3.579 -0.7071 -1.6423  1.4178
 1459SOL    HW215840   3.877   2.734   3.498  0.6869  0.5180 -0.1731
 1460SOL     OW15841   2.502   0.451  10.580  0.3555  0.4873 -0.4018
 1460SOL    HW115842   2.446   0.378  10.608  1.3454 -0.6586 -1.4235
 1460SOL    HW215843   2.430   0.507  10.550 -1.1811 -1.0351  0.3871
 1461SOL     OW15844   4.530   3.355  15.936 -0.3454  0.0219 -0.1450
 1461SOL    HW115845   4.596   3.394  15.993 -0.0638 -1.2947  0.4209
 1461SOL    HW215846   4.567   3.372  15.849  1.4295 -0.8499  0.4516
 1462SOL     OW15847   2.985   0.914  10.101  0.2224 -0.2181  0.0436
 1462SOL    HW115848   3.032   0.844  10.146 -0.3908  0.9531  2.4814
 1462SOL    HW215849   3.044   0.988  10.112  0.7123 -0.5246 -0.5032
 1463SOL     OW15850   0.049   4.420   0.282  0.2137 -0.3787 -0.0320
 1463SOL    HW115851   0.012   4.501   0.317 -1.2911 -0.6958 -0.9068
 1463SOL    HW215852   0.074   4.444   0.193 -3.7843 -0.7165 -1.2343
 1464SOL     OW15853   2.807   0.712   2.658 -0.1521  0.3147  0.1453
 1464SOL    HW115854   2.883   0.666   2.622 -1.0710 -1.1231  0.0240
 1464SOL    HW215855   2.783   0.646   2.722 -2.1288 -0.0232 -0.9274
 1465SOL     OW15856   0.928   3.472  15.628 -0.1892  0.3788  0.2472
 1465SOL    HW115857   0.978   3.554  15.624 -2.4321  1.8374  2.4619
 1465SOL    HW215858   0.911   3.459  15.721 -1.7547 -0.1949 -0.1177
 1466SOL     OW15859   2.001   0.463   3.322 -0.2867 -0.0188  0.2133
 1466SOL    HW115860   2.028   0.545   3.280 -0.0933  0.4474  1.2475
 1466SOL    HW215861   1.924   0.438   3.271 -3.0323  2.0542  3.3719
 1467SOL     OW15862   3.012   0.358   4.960  0.4805 -0.0787 -0.6036
 1467SOL    HW115863   3.072   0.299   4.914  1.0881 -0.9980  1.3785
 1467SOL    HW215864   3.056   0.443   4.959 -0.7694  0.5744 -0.6648
 1468SOL     OW15865   2.553   4.247   5.876 -0.1801  0.1156  0.1836
 1468SOL    HW115866   2.570   4.337   5.903 -0.3546 -0.1153  1.0572
 1468SOL    HW215867   2.487   4.238   5.945 -0.7710  0.1009 -0.3795
 1469SOL     OW15868   2.511   0.477  12.512 -0.2531 -0.7742 -0.4905
 1469SOL    HW115869   2.585   0.448  12.457 -1.2596  1.2396 -2.9183
 1469SOL    HW215870   2.495   0.568  12.489  0.7395 -0.0808  1.6419
 1470SOL     OW15871   2.102   4.490   8.619  0.1765 -0.6791  0.0644
 1470SOL    HW115872   2.173   4.498   8.683 -0.1732  0.2352  0.3422
 1470SOL    HW215873   2.045   4.433   8.669  0.7479 -2.1921 -1.0011
 1471SOL     OW15874   0.686   3.482   4.828  0.2258  0.1099 -0.4275
 1471SOL    HW115875   0.595   3.469   4.801  0.1310 -1.4319  0.6204
 1471SOL    HW215876   0.738   3.406   4.804  1.5522  1.1097 -0.6869
 1472SOL     OW15877   3.664   4.505   8.965 -0.0432 -0.0952  0.8147
 1472SOL    HW115878   3.705   4.504   9.051 -1.8141 -0.4789  1.6414
 1472SOL    HW215879   3.744   4.498   8.913 -0.1196 -1.3944  0.8569
 1473SOL     OW15880   0.346   0.710   9.634 -0.5204  0.1559 -0.2700
 1473SOL    HW115881   0.267   0.665   9.665 -1.5378  1.1147 -1.4766
 1473SOL    HW215882   0.330   0.719   9.540  1.1622 -3.1793 -0.9031
 1474SOL     OW15883   4.083   2.002   5.794  0.0462 -0.1112 -0.0362
 1474SOL    HW115884   3.992   2.030   5.786 -0.1465 -0.9080 -0.5557
 1474SOL    HW215885   4.072   1.918   5.838  2.2915  0.5472  1.7689
 1475SOL     OW15886   2.407   1.984   0.249 -0.0595 -0.0294 -0.6738
 1475SOL    HW115887   2.430   1.932   0.172  0.2161 -0.0266 -0.5910
 1475SOL    HW215888   2.373   2.065   0.212 -2.6830 -0.2164  1.2564
 1476SOL     OW15889   0.385   2.026   4.886  0.4570  0.3444 -0.1131
 1476SOL    HW115890   0.448   2.083   4.841  0.5636  1.5741  1.6101
 1476SOL    HW215891   0.310   2.040   4.828  1.6511 -0.1287 -1.7919
 1477SOL     OW15892   0.369   3.841   1.994  0.1737 -0.2121 -0.1587
 1477SOL    HW115893   0.309   3.777   2.033 -2.7944  0.6903 -3.2455
 1477SOL    HW215894   0.313   3.864   1.920 -0.1196  0.3843  0.2477
 1478SOL     OW15895   2.891   4.057   8.620  0.0742 -0.1483 -0.2051
 1478SOL    HW115896   2.967   4.067   8.678  0.3947  1.3375 -0.8948
 1478SOL    HW215897   2.826   4.087   8.684  2.1026 -1.3729  2.4208
 1479SOL     OW15898   3.816   3.333   3.957  0.4636 -0.0610  0.4396
 1479SOL    HW115899   3.790   3.264   3.897  2.0096  0.0633 -0.3553
 1479SOL    HW215900   3.735   3.332   4.008  1.7273  0.3928  2.4645
 1480SOL     OW15901   2.179   2.439  10.910  0.6150  0.7357 -0.6286
 1480SOL    HW115902   2.198   2.359  10.960 -1.3535  0.4316 -0.3709
 1480SOL    HW215903   2.244   2.497  10.949  2.4895 -1.9660  0.2671
 1481SOL     OW15904   3.240   0.391   2.442  0.8518  0.4175  0.1411
 1481SOL    HW115905   3.218   0.484   2.441  1.0382  0.4342 -2.0092
 1481SOL    HW215906   3.307   0.393   2.510 -0.0225 -0.4597  1.0380
 1482SOL     OW15907   1.311   3.838   2.874 -0.2272 -0.2922  0.2902
 1482SOL    HW115908   1.393   3.865   2.833  0.1968  1.4350  2.2435
 1482SOL    HW215909   1.298   3.900   2.946 -1.9988 -0.2818 -0.0389
 1483SOL     OW15910   0.632   0.299  10.339  0.2120 -0.8044  0.1499
 1483SOL    HW115911   0.605   0.242  10.267 -0.2561 -2.3322  1.5522
 1483SOL    HW215912   0.554   0.355  10.336 -0.0439 -1.1481  0.3761
 1484SOL     OW15913   0.028   1.123   7.904 -0.5035  0.2827 -0.2107
 1484SOL    HW115914   0.026   1.114   8.000  1.1013 -1.1833 -0.3008
 1484SOL    HW215915   0.121   1.144   7.892 -0.1212 -0.2080  1.8487
 1485SOL     OW15916   2.172   0.914   2.368  0.0696  0.4993 -0.3018
 1485SOL    HW115917   2.076   0.909   2.365 -0.0108  3.0886 -1.8308
 1485SOL    HW215918   2.192   0.858   2.444  0.2152  0.1082 -0.6305
 1486SOL     OW15919   3.419   1.865   3.387 -0.0088 -0.1531  0.2368
 1486SOL    HW115920   3.372   1.947   3.368 -1.4866 -1.1496 -0.3893
 1486SOL    HW215921   3.450   1.838   3.301 -0.4369 -1.3672  0.4682
 1487SOL     OW15922   0.264   4.398   2.387  0.0706  0.4042  0.5530
 1487SOL    HW115923   0.299   4.401   2.476  2.0369  1.7758 -0.2636
 1487SOL    HW215924   0.202   4.470   2.375 -2.4032 -1.9638 -0.9663
 1488SOL     OW15925   2.443   0.876  11.404 -0.3492  0.1985  0.2586
 1488SOL    HW115926   2.370   0.839  11.453 -0.4277 -2.8623 -2.1634
 1488SOL    HW215927   2.512   0.848  11.464  1.4052  3.8489 -0.0179
 1489SOL     OW15928   1.661   1.727   8.040  0.5784  0.5546  0.0426
 1489SOL    HW115929   1.756   1.714   8.033 -0.0231 -2.1364 -2.9566
 1489SOL    HW215930   1.653   1.818   8.012 -1.0073  1.1102  2.2911
 1490SOL     OW15931   4.266   0.637   1.936 -0.5570  0.3847 -0.5196
 1490SOL    HW115932   4.283   0.546   1.912  1.7606  0.5435  0.4763
 1490SOL    HW215933   4.193   0.652   1.876 -0.0030  2.2054 -0.7378
 1491SOL     OW15934   3.051   4.019   6.161 -0.2231  0.0875 -0.3043
 1491SOL    HW115935   3.118   4.085   6.147 -0.0565 -0.0833 -0.3207
 1491SOL    HW215936   2.976   4.072   6.134 -1.9040 -2.2034 -0.1942
 1492SOL     OW15937   2.523   3.779   3.295 -0.7377 -0.1063  0.4544
 1492SOL    HW115938   2.539   3.684   3.296 -2.1803 -0.3498  0.5389
 1492SOL    HW215939   2.577   3.804   3.220 -0.1472  0.5462  1.0971
 1493SOL     OW15940   3.052   4.387   4.913 -0.0036  0.5875 -0.4477
 1493SOL    HW115941   3.107   4.384   4.834 -1.8719  1.7606 -1.7885
 1493SOL    HW215942   3.104   4.422   4.986  0.5912  1.8592 -1.4822
 1494SOL     OW15943   1.622   3.438   4.023 -0.0309 -0.0329  0.5511
 1494SOL    HW115944   1.682   3.414   4.094 -2.5168 -1.2862  2.2133
 1494SOL    HW215945   1.612   3.533   4.034  0.3017  0.2511 -1.4777
 1495SOL     OW15946   2.604   1.348  12.106  0.1713  0.3357 -0.3882
 1495SOL    HW115947   2.635   1.438  12.109 -2.7685  1.2934  1.2773
 1495SOL    HW215948   2.629   1.309  12.190 -0.6400  0.6846  0.0217
 1496SOL     OW15949   2.742   3.528   4.578  1.0682 -0.2443  0.4716
 1496SOL    HW115950   2.832   3.521   4.610  1.8089  0.0083 -1.5018
 1496SOL    HW215951   2.750   3.600   4.514 -1.3454 -1.8097 -1.6041
 1497SOL     OW15952   2.897   3.405   0.422 -0.6146  0.0006 -0.7921
 1497SOL    HW115953   2.923   3.328   0.371 -0.1991 -0.8113  0.6412
 1497SOL    HW215954   2.911   3.378   0.513  0.3595 -0.1869 -1.0001
 1498SOL     OW15955   2.653   0.963   0.953  0.0219  0.0807  0.1914
 1498SOL    HW115956   2.588   1.000   1.012 -0.0530 -0.7823  0.6547
 1498SOL    HW215957   2.712   0.926   1.018 -2.1392 -0.3279  1.9113
 1499SOL     OW15958   1.716   4.721  16.639 -0.2885  0.1190  0.0395
 1499SOL    HW115959   1.767   0.070  16.605 -0.0193 -1.4951 -2.9943
 1499SOL    HW215960   1.772   4.644  16.640 -1.5785 -0.8319 -0.3124
 1500SOL     OW15961   3.135   1.794   5.246 -0.5513 -0.4804  0.4451
 1500SOL    HW115962   3.201   1.774   5.179  1.6806  1.0530  2.1647
 1500SOL    HW215963   3.078   1.721   5.226 -0.7826 -0.0918 -0.3437
 1501SOL     OW15964   0.522   1.700   3.643  0.8040 -0.3416  0.1072
 1501SOL    HW115965   0.489   1.787   3.619  3.2870  0.4242 -0.5218
 1501SOL    HW215966   0.506   1.709   3.737 -0.7602  0.6971 -0.2535
 1502SOL     OW15967   4.538   1.746  13.638  0.4110 -0.5998  0.2192
 1502SOL    HW115968   4.456   1.766  13.592  0.8040  0.6612  0.0571
 1502SOL    HW215969   4.567   1.666  13.595 -0.5479 -0.7889 -0.0686
 1503SOL     OW15970   2.906   0.150   3.164 -0.7238  0.0069 -0.0532
 1503SOL    HW115971   2.983   0.129   3.216 -0.3139 -0.4500 -0.8365
 1503SOL    HW215972   2.915   0.076   3.103 -0.7908  0.4301 -0.5740
 1504SOL     OW15973   3.106   4.013  15.011 -0.0985 -0.2591 -0.3833
 1504SOL    HW115974   3.148   4.062  14.940  0.3075 -0.2881 -0.1585
 1504SOL    HW215975   3.064   3.943  14.959  0.7056  0.8192 -2.4906
 1505SOL     OW15976   0.681   3.105  16.241  0.0389 -0.4543  0.5745
 1505SOL    HW115977   0.636   3.159  16.306  0.9717 -0.8156  1.5382
 1505SOL    HW215978   0.771   3.131  16.263  0.6236 -2.6072  0.8020
 1506SOL     OW15979   1.621   3.337  16.113  0.4006 -0.4802  0.0432
 1506SOL    HW115980   1.646   3.247  16.137 -1.2608 -0.3151  2.4441
 1506SOL    HW215981   1.533   3.342  16.151 -0.2261  2.6732 -1.9020
 1507SOL     OW15982   0.129   3.542   6.136 -0.0241 -0.2232 -0.3626
 1507SOL    HW115983   0.091   3.455   6.125 -0.1310 -0.3008  0.6591
 1507SOL    HW215984   0.170   3.550   6.049  1.1027 -0.8771  0.1042
 1508SOL     OW15985   1.879   0.993   0.024  0.4938  0.3905 -0.2761
 1508SOL    HW115986   1.857   0.900   0.031 -1.4384  0.9824  1.4674
 1508SOL    HW215987   1.914   0.999  17.632 -2.1333  0.3322 -1.2975
 1509SOL     OW15988   0.066   1.980   4.197  0.6779  0.1071  0.4083
 1509SOL    HW115989   0.015   2.062   4.192 -1.0188 -0.9181  0.8609
 1509SOL    HW215990   4.722   1.930   4.242  0.4470 -0.8132 -0.9452
 1510SOL     OW15991   1.380   4.152   5.571  0.0885  0.3141  0.2234
 1510SOL    HW115992   1.465   4.196   5.573 -0.6772  1.7818  0.8107
 1510SOL    HW215993   1.405   4.060   5.570  2.1471  0.8723  1.0660
 1511SOL     OW15994   1.791   3.738  12.832  0.1698 -0.2017 -0.0809
 1511SOL    HW115995   1.711   3.736  12.780  0.0185 -0.6988  0.1755
 1511SOL    HW215996   1.763   3.711  12.919 -0.3892 -1.8416 -0.7661
 1512SOL     OW15997   1.437   4.102  10.170 -0.2127 -0.0701  0.5016
 1512SOL    HW115998   1.417   4.104  10.264  0.4213 -0.3534  0.6366
 1512SOL    HW215999   1.354   4.134  10.135  0.5028  1.7113  0.4292
 1513SOL     OW16000   0.250   3.058   4.038 -0.0895 -0.7312  0.5571
 1513SOL    HW116001   0.332   3.104   4.020 -1.8262  1.9837 -0.5184
 1513SOL    HW216002   0.269   2.989   4.102 -2.0525 -2.1402 -0.3808
 1514SOL     OW16003   2.904   0.111  11.737  0.0909  0.1086  0.5602
 1514SOL    HW116004   2.912   0.165  11.815 -1.0805  2.5689 -1.0042
 1514SOL    HW216005   2.809   0.099  11.730 -0.0261  2.5358 -2.3056
 1515SOL     OW16006   0.863   4.069   1.095 -0.5317 -0.2439  0.1331
 1515SOL    HW116007   0.957   4.078   1.077 -1.0127 -0.3429 -2.5441
 1515SOL    HW216008   0.854   4.013   1.172 -0.7359 -1.6137 -0.8913
 1516SOL     OW16009   2.270   4.375   2.193  0.1473 -0.0899 -0.1651
 1516SOL    HW116010   2.331   4.326   2.248  0.3996  0.7218  0.2738
 1516SOL    HW216011   2.314   4.367   2.108 -1.2898 -3.3368 -0.6137
 1517SOL     OW16012   2.463   0.660   6.037 -0.1500  0.2549  0.4323
 1517SOL    HW116013   2.478   0.591   5.973  0.8746  0.9169 -0.0502
 1517SOL    HW216014   2.545   0.709   6.031 -1.1642  1.7865 -1.0658
 1518SOL     OW16015   1.105   2.702   7.610  0.4910 -0.2224 -0.1209
 1518SOL    HW116016   1.181   2.655   7.644  0.5414 -0.7496 -0.9750
 1518SOL    HW216017   1.152   2.774   7.569 -1.5796  0.4764 -1.2350
 1519SOL     OW16018   2.611   1.753   8.393 -0.5817  0.3548 -0.0243
 1519SOL    HW116019   2.609   1.789   8.304  0.0857  1.7089  0.5011
 1519SOL    HW216020   2.637   1.835   8.435 -0.0308  0.0387  0.2476
 1520SOL     OW16021   0.188   2.525  17.135  0.2759 -0.3520  0.0043
 1520SOL    HW116022   0.202   2.464  17.063 -1.8908  1.1378 -1.7174
 1520SOL    HW216023   0.102   2.563  17.113  0.3258  0.5550  1.3808
 1521SOL     OW16024   2.996   1.559   5.119 -0.3375  0.5960  0.4489
 1521SOL    HW116025   2.984   1.598   5.033 -1.4146 -0.4199  0.1500
 1521SOL    HW216026   2.951   1.478   5.097 -0.7200  1.1134 -0.6877
 1522SOL     OW16027   3.375   3.688   0.617 -0.7192  0.3950 -0.5389
 1522SOL    HW116028   3.390   3.595   0.604  1.6426  0.7651 -0.5219
 1522SOL    HW216029   3.350   3.677   0.709  0.5349  0.4023 -0.1942
 1523SOL     OW16030   2.261   2.792   3.246 -0.4017  0.3640  0.6555
 1523SOL    HW116031   2.250   2.697   3.239 -0.5251  0.3577  0.9406
 1523SOL    HW216032   2.183   2.821   3.199 -0.0824 -3.1803 -2.0809
 1524SOL     OW16033   0.264   2.549   0.052 -0.3775  0.7347 -0.6965
 1524SOL    HW116034   0.216   2.522   0.130 -0.4585 -0.3670 -1.1281
 1524SOL    HW216035   0.257   2.644   0.056 -1.0718  0.6334  0.3626
 1525SOL     OW16036   3.141   4.149   3.788  0.8902  0.4471  0.1837
 1525SOL    HW116037   3.199   4.198   3.730  1.3044 -0.7900 -0.4450
 1525SOL    HW216038   3.187   4.069   3.815 -1.3688 -0.9134  0.0567
 1526SOL     OW16039   4.198   1.890   6.965  0.0611  0.1484 -0.3740
 1526SOL    HW116040   4.226   1.821   7.026  0.2925  2.0311  1.6451
 1526SOL    HW216041   4.102   1.889   6.974  0.1758 -1.1349  0.8477
 1527SOL     OW16042   2.955   2.533   5.381 -0.1595  0.1133 -0.2370
 1527SOL    HW116043   2.939   2.440   5.366  0.5974 -0.2227  0.9939
 1527SOL    HW216044   3.049   2.542   5.365 -0.1420  2.2333  1.0164
 1528SOL     OW16045   0.351   3.330   5.770 -0.4284 -0.5157  0.1639
 1528SOL    HW116046   0.385   3.245   5.743  1.5420  1.0116 -2.1453
 1528SOL    HW216047   0.389   3.348   5.856  1.2917 -1.4804 -0.4012
 1529SOL     OW16048   1.253   3.046  15.346 -0.6682 -0.1848  0.5613
 1529SOL    HW116049   1.195   3.122  15.343 -0.3527 -0.0086 -0.6638
 1529SOL    HW216050   1.229   3.018  15.435  2.6924 -1.3275  1.1112
 1530SOL     OW16051   2.963   1.922   0.151 -0.4817 -0.6007  0.1783
 1530SOL    HW116052   2.975   1.849   0.212  0.8183 -0.6378 -0.1297
 1530SOL    HW216053   2.931   1.983   0.219 -1.6953 -0.4472 -0.5285
 1531SOL     OW16054   4.389   3.148   4.903  0.1131  0.1218 -0.6963
 1531SOL    HW116055   4.348   3.178   4.984 -1.0753 -1.4397 -0.7345
 1531SOL    HW216056   4.467   3.204   4.897  0.5486 -0.5863 -1.5974
 1532SOL     OW16057   1.639   1.298   9.353 -0.1548 -0.2878  0.5134
 1532SOL    HW116058   1.722   1.337   9.380 -0.2206 -0.7251  1.3380
 1532SOL    HW216059   1.582   1.374   9.356 -1.2450 -1.1117  0.6268
 1533SOL     OW16060   3.941   4.327   4.208 -0.1933  0.2724  0.1265
 1533SOL    HW116061   3.907   4.307   4.121  0.6648  2.6696 -0.7536
 1533SOL    HW216062   3.892   4.405   4.235  1.7531  0.9280  1.7665
 1534SOL     OW16063   1.487   0.476   6.003 -0.5748 -0.1161 -0.0648
 1534SOL    HW116064   1.468   0.443   6.091  2.4772  0.6767  0.8864
 1534SOL    HW216065   1.406   0.527   5.991  0.0311  0.5203 -1.4540
 1535SOL     OW16066   3.415   2.512  15.741 -0.3469 -0.3721 -0.4480
 1535SOL    HW116067   3.415   2.471  15.655 -2.1148 -1.8885  0.2778
 1535SOL    HW216068   3.496   2.561  15.725 -1.6585  1.5365 -1.3023
 1536SOL     OW16069   2.955   0.727  16.228  0.2501  0.1274 -0.3048
 1536SOL    HW116070   2.977   0.818  16.208 -2.1324  0.7347 -0.1869
 1536SOL    HW216071   2.882   0.734  16.289  0.1850 -0.7216 -0.2907
 1537SOL     OW16072   3.683   0.201   9.238 -0.0043  0.5936  0.3464
 1537SOL    HW116073   3.694   0.282   9.287 -0.2174  0.4657  0.6040
 1537SOL    HW216074   3.733   0.218   9.158  1.4561 -2.2367  0.6416
 1538SOL     OW16075   3.255   4.110   3.221  0.2125 -0.0798 -0.1428
 1538SOL    HW116076   3.335   4.117   3.273 -1.0820  4.4810  1.2806
 1538SOL    HW216077   3.195   4.160   3.276  1.9238 -0.1407  1.7603
 1539SOL     OW16078   2.292   0.923  17.308  0.1386  0.3148  0.0531
 1539SOL    HW116079   2.305   1.001  17.254 -0.1701 -1.0811 -2.0389
 1539SOL    HW216080   2.290   0.957  17.397 -2.7863  1.8877 -0.6053
 1540SOL     OW16081   1.740   0.524   4.705 -0.3963  0.0435  0.6261
 1540SOL    HW116082   1.775   0.577   4.634  0.2709  0.2179  1.0851
 1540SOL    HW216083   1.666   0.492   4.654  1.0775  0.8078 -2.0213
 1541SOL     OW16084   3.853   2.078   3.286 -0.4914 -0.1468  0.2347
 1541SOL    HW116085   3.945   2.097   3.301 -0.9975  1.8331  0.7683
 1541SOL    HW216086   3.825   2.158   3.241  0.2141  0.7583  1.4472
 1542SOL     OW16087   1.889   2.527  10.360  0.4335 -0.3464 -0.3806
 1542SOL    HW116088   1.833   2.457  10.327 -1.1830  0.3317  0.9660
 1542SOL    HW216089   1.958   2.530  10.294  2.8334 -0.7336  2.1162
 1543SOL     OW16090   4.112   4.081  11.354  0.0610 -0.3777  0.3144
 1543SOL    HW116091   4.136   4.168  11.388 -2.3366  0.1576  0.6041
 1543SOL    HW216092   4.017   4.087  11.346 -0.0377  1.4613  2.9318
 1544SOL     OW16093   2.895   2.025   8.526 -0.1017 -0.1153  0.4952
 1544SOL    HW116094   2.909   2.009   8.432 -0.1001  0.2138  0.4363
 1544SOL    HW216095   2.857   1.943   8.556 -0.1423 -0.3475 -0.1943
 1545SOL     OW16096   4.000   4.443  16.107 -0.1320  0.1509 -0.8946
 1545SOL    HW116097   4.058   4.402  16.043  0.6984  2.0600 -1.3600
 1545SOL    HW216098   4.025   4.533  16.130  1.5690 -0.3812 -0.6852
 1546SOL     OW16099   0.116   1.161   0.901 -0.0476 -0.2767 -0.4661
 1546SOL    HW116100   0.090   1.198   0.817 -0.4077  0.7011  0.0759
 1546SOL    HW216101   0.101   1.067   0.891 -0.6520 -0.1893 -0.3535
 1547SOL     OW16102   2.943   1.612   0.705  0.4616 -0.1875 -0.2712
 1547SOL    HW116103   2.979   1.632   0.791 -0.2779 -0.5541  0.1227
 1547SOL    HW216104   2.853   1.642   0.715 -0.3445 -1.8302 -2.4133
 1548SOL     OW16105   2.105   0.331   7.059 -0.2243  0.4183 -0.1269
 1548SOL    HW116106   2.135   0.403   7.004  2.7752  0.2544  1.2925
 1548SOL    HW216107   2.103   0.378   7.143 -0.1107  0.1998 -0.0006
 1549SOL     OW16108   1.809   1.259  10.702  0.6263  0.7251 -0.3521
 1549SOL    HW116109   1.781   1.243  10.792 -1.7051 -0.6844 -1.3188
 1549SOL    HW216110   1.903   1.241  10.710  0.5885  0.5910 -0.2323
 1550SOL     OW16111   4.372   2.971   9.510 -0.3405  0.1492 -0.1381
 1550SOL    HW116112   4.432   3.013   9.571  0.2243 -0.2078 -0.4444
 1550SOL    HW216113   4.379   2.877   9.526  1.4850  0.3917  0.4270
 1551SOL     OW16114   4.084   3.175  15.621 -0.2269 -0.0862 -0.2391
 1551SOL    HW116115   4.083   3.137  15.534  0.4354  2.9427 -1.5578
 1551SOL    HW216116   4.178   3.181  15.637  0.1621 -1.5844 -1.9500
 1552SOL     OW16117   3.420   0.401   4.155 -0.2036  0.3955 -0.1672
 1552SOL    HW116118   3.358   0.398   4.227 -0.5773 -0.7670 -0.5496
 1552SOL    HW216119   3.415   0.313   4.118 -0.9614  0.1813  0.4578
 1553SOL     OW16120   4.250   2.674   7.165 -0.2522 -0.0003 -0.1276
 1553SOL    HW116121   4.312   2.746   7.173  0.2747 -0.6633  1.6771
 1553SOL    HW216122   4.285   2.629   7.087 -0.5855 -0.2302 -0.1466
 1554SOL     OW16123   2.690   0.794   7.254  0.3904 -0.1343  0.8260
 1554SOL    HW116124   2.722   0.800   7.343  0.3922  1.1376  0.7355
 1554SOL    HW216125   2.696   0.886   7.230 -0.7652  0.1598  1.7218
 1555SOL     OW16126   2.186   3.763  12.537  0.1538  0.5990 -0.2735
 1555SOL    HW116127   2.240   3.702  12.587 -1.1990 -1.1454 -0.9751
 1555SOL    HW216128   2.254   3.829  12.523  1.2889 -1.2906 -3.6773
 1556SOL     OW16129   2.959   1.747  11.179 -0.4781  0.0316 -0.0034
 1556SOL    HW116130   3.052   1.752  11.202 -0.2593  0.5100 -0.9895
 1556SOL    HW216131   2.946   1.658  11.147  0.2341 -0.3131  0.6511
 1557SOL     OW16132   4.059   2.831   8.367  0.2208  0.1666 -0.3743
 1557SOL    HW116133   4.093   2.865   8.450  1.4332 -0.0182 -0.7928
 1557SOL    HW216134   4.134   2.856   8.313  0.5796 -0.6350 -0.2512
 1558SOL     OW16135   0.142   0.634   8.448 -0.2755 -0.3859  0.4107
 1558SOL    HW116136   0.143   0.696   8.375 -1.5297 -0.1923  0.5694
 1558SOL    HW216137   0.216   0.574   8.433  0.8653  0.5986  2.0967
 1559SOL     OW16138   0.656   1.910  16.621  0.4514  0.1616  0.0885
 1559SOL    HW116139   0.588   1.887  16.557  0.2632 -1.2948  0.8142
 1559SOL    HW216140   0.644   2.002  16.643  0.9898 -0.2372  2.0485
 1560SOL     OW16141   2.001   4.034  12.890 -0.3427  0.2052 -0.6561
 1560SOL    HW116142   1.990   3.946  12.853 -3.3185  0.5710 -0.6310
 1560SOL    HW216143   2.057   4.066  12.819  1.0566  0.2192  0.4437
 1561SOL     OW16144   3.219   2.295   6.881 -0.4977 -0.0085 -0.0604
 1561SOL    HW116145   3.199   2.202   6.872  3.7124 -0.7358 -2.1247
 1561SOL    HW216146   3.139   2.341   6.856  0.5256  1.3759 -0.7903
 1562SOL     OW16147   0.476   1.475   3.080  0.7162 -0.2662  0.1155
 1562SOL    HW116148   0.458   1.382   3.065  1.1261 -0.5757  1.5454
 1562SOL    HW216149   0.448   1.515   2.998  2.6971  0.4351 -0.2142
 1563SOL     OW16150   3.616   1.360  17.637 -0.8666  0.0287  0.6696
 1563SOL    HW116151   3.690   1.300  17.629  0.2539  1.4683  0.2084
 1563SOL    HW216152   3.588   1.366  17.545  1.3308  1.0800  0.0719
 1564SOL     OW16153   2.121   1.324   7.545 -0.8809 -0.7118  0.0655
 1564SOL    HW116154   2.119   1.345   7.452  1.5102  0.0741  0.1884
 1564SOL    HW216155   2.176   1.397   7.573  0.8205 -2.2976  0.8578
 1565SOL     OW16156   1.831   1.328   6.400  0.0656 -0.1403 -0.4696
 1565SOL    HW116157   1.926   1.328   6.414 -0.1245  2.0272  0.6964
 1565SOL    HW216158   1.806   1.418   6.418 -0.2773 -0.8305  2.4008
 1566SOL     OW16159   4.438   4.585   8.296 -0.4884  0.2239 -0.3160
 1566SOL    HW116160   4.420   4.541   8.213  1.1437  1.4434 -1.3206
 1566SOL    HW216161   4.534   4.590   8.294 -0.3233 -2.6159  0.1766
 1567SOL     OW16162   1.937   3.602   6.246 -0.4100 -0.2618 -0.0622
 1567SOL    HW116163   2.028   3.615   6.271 -0.5477  0.2325  0.2013
 1567SOL    HW216164   1.901   3.602   6.335  0.7440 -0.0098  0.4004
 1568SOL     OW16165   0.977   0.551   8.669  0.6140 -0.0195  0.1673
 1568SOL    HW116166   0.915   0.618   8.641  1.3678  0.8896  0.6531
 1568SOL    HW216167   0.923   0.510   8.736  0.7739 -3.2400 -1.6893
 1569SOL     OW16168   0.064   3.645   3.539 -0.1665 -0.0716 -0.2422
 1569SOL    HW116169   0.063   3.719   3.478 -2.7451 -1.3343 -1.7293
 1569SOL    HW216170   0.117   3.582   3.489 -0.8791 -0.6565 -0.2625
 1570SOL     OW16171   2.284   0.623   3.441  0.5471 -0.4153 -0.2650
 1570SOL    HW116172   2.229   0.651   3.368  1.4084 -5.2316 -2.7582
 1570SOL    HW216173   2.277   0.529   3.428  1.3937 -0.2947 -1.6508
 1571SOL     OW16174   1.485   2.925   5.850 -0.4599 -0.3207  0.4411
 1571SOL    HW116175   1.515   2.972   5.928  3.4226 -0.6388 -0.8569
 1571SOL    HW216176   1.559   2.942   5.792 -0.7447  0.8308  0.4299
 1572SOL     OW16177   3.750   3.494   4.308  0.4044  0.2376  1.0686
 1572SOL    HW116178   3.728   3.587   4.298  1.6078  0.5602  1.3360
 1572SOL    HW216179   3.840   3.493   4.275  0.3533  0.0488  0.9365
 1573SOL     OW16180   2.857   1.414  13.685  0.2164 -0.6596 -0.2029
 1573SOL    HW116181   2.925   1.356  13.651  1.1481 -0.1392  0.7848
 1573SOL    HW216182   2.892   1.495  13.647  0.1651 -0.4045  0.2852
 1574SOL     OW16183   0.152   1.234   0.394  0.6242 -0.5180  0.2949
 1574SOL    HW116184   0.229   1.245   0.338  1.7925 -0.8240  1.8284
 1574SOL    HW216185   0.081   1.274   0.344  0.7796  0.2293  0.6634
 1575SOL     OW16186   0.281   0.295   4.051  0.4910  0.1802 -0.1733
 1575SOL    HW116187   0.364   0.266   4.088  0.1765 -1.4241 -0.7282
 1575SOL    HW216188   0.303   0.383   4.019 -1.3145 -0.1424 -2.2810
 1576SOL     OW16189   0.158   4.475   4.467  0.0777  0.4818 -0.0133
 1576SOL    HW116190   0.135   4.387   4.498  0.1883  0.6650  0.6016
 1576SOL    HW216191   0.235   4.502   4.518 -0.1423 -1.5331  1.4015
 1577SOL     OW16192   1.241   2.132  17.351  0.2849  0.1810 -0.1700
 1577SOL    HW116193   1.187   2.059  17.321  0.6307 -0.4285  0.6737
 1577SOL    HW216194   1.181   2.205  17.335  1.4762  1.7272  2.4873
 1578SOL     OW16195   3.229   1.244   3.467 -0.0680 -0.3376 -0.1983
 1578SOL    HW116196   3.145   1.240   3.512 -1.1363  0.2948 -2.1710
 1578SOL    HW216197   3.251   1.337   3.474 -1.0434 -0.2616  1.7973
 1579SOL     OW16198   1.357   3.228  16.216  0.5416  0.1789 -0.2138
 1579SOL    HW116199   1.279   3.230  16.272  0.6455 -0.8383 -0.0303
 1579SOL    HW216200   1.404   3.162  16.266  1.0789 -0.1371 -1.1381
 1580SOL     OW16201   4.096   2.973  16.140  0.0580 -0.0536 -0.1116
 1580SOL    HW116202   4.144   2.923  16.207 -0.6286 -0.4056  0.1160
 1580SOL    HW216203   4.007   2.940  16.135 -0.1522  0.7409 -1.4921
 1581SOL     OW16204   2.927   2.611   3.804  0.2337  0.1349 -0.1742
 1581SOL    HW116205   2.940   2.666   3.727 -3.1627  0.8593 -0.2161
 1581SOL    HW216206   2.944   2.524   3.767  2.3133  0.3826  0.1942
 1582SOL     OW16207   0.740   1.818   4.402 -0.0881 -0.3889  1.3705
 1582SOL    HW116208   0.729   1.778   4.316  1.9584  1.2003  0.3683
 1582SOL    HW216209   0.696   1.748   4.451 -0.3085 -1.6171 -0.5958
 1583SOL     OW16210   2.466   3.395   9.298  0.2243  0.1100  0.4391
 1583SOL    HW116211   2.490   3.365   9.210 -2.7708 -0.3015 -0.2516
 1583SOL    HW216212   2.370   3.393   9.294  0.3473 -0.6410 -2.5570
 1584SOL     OW16213   3.345   4.694   7.632  0.2330 -0.1609  0.4737
 1584SOL    HW116214   3.422   4.651   7.670  0.5289  0.3920  0.4960
 1584SOL    HW216215   3.377   4.714   7.544 -0.9150 -1.6619 -0.2689
 1585SOL     OW16216   4.010   3.592   1.772 -0.1519  0.9228 -0.4211
 1585SOL    HW116217   3.993   3.503   1.741  1.4700  0.2507  0.6398
 1585SOL    HW216218   4.009   3.585   1.867  2.2306 -0.3678 -0.4923
 1586SOL     OW16219   3.083   4.442   3.378 -0.2104  0.3233 -0.3345
 1586SOL    HW116220   3.004   4.424   3.327 -0.6103  0.6334  0.1768
 1586SOL    HW216221   3.044   4.444   3.465 -1.4430 -3.6164 -0.7781
 1587SOL     OW16222   0.270   1.231   7.775  0.0067 -0.6246  0.1899
 1587SOL    HW116223   0.285   1.307   7.719  0.0321 -1.0647 -0.4111
 1587SOL    HW216224   0.246   1.175   7.701 -3.0567  1.9967 -0.7749
 1588SOL     OW16225   0.677   4.661   8.904  0.5396  0.0872 -0.1108
 1588SOL    HW116226   0.764   4.646   8.867  0.1262  0.5263 -1.2500
 1588SOL    HW216227   0.658   4.583   8.956  0.4577 -0.0464 -0.3445
 1589SOL     OW16228   1.856   0.098   3.229  0.2000  0.4716  0.2545
 1589SOL    HW116229   1.810   0.057   3.302 -0.1636 -0.1504 -0.3328
 1589SOL    HW216230   1.803   0.176   3.209 -1.1923 -0.5662 -0.1079
 1590SOL     OW16231   1.255   2.704  13.278  0.2505 -0.3729 -0.0137
 1590SOL    HW116232   1.319   2.671  13.215 -0.7030 -3.9081  0.8753
 1590SOL    HW216233   1.192   2.738  13.215 -0.2575 -1.7090 -0.2308
 1591SOL     OW16234   1.428   4.539   3.077 -0.4985  0.4464 -0.1484
 1591SOL    HW116235   1.506   4.498   3.039  1.5832  3.5310  0.8486
 1591SOL    HW216236   1.390   4.598   3.012 -1.3653  2.0882  1.8762
 1592SOL     OW16237   3.401   3.397  11.426  0.3689  0.1187 -0.0156
 1592SOL    HW116238   3.443   3.432  11.505  0.7667 -0.3311 -0.0296
 1592SOL    HW216239   3.391   3.304  11.447  0.4044  0.3848  1.1738
 1593SOL     OW16240   4.564   2.802   8.061  0.1885  0.7017 -0.2842
 1593SOL    HW116241   4.611   2.807   7.978 -0.3915  0.3064 -0.6389
 1593SOL    HW216242   4.613   2.734   8.107 -1.8193 -1.2649 -1.0280
 1594SOL     OW16243   0.568   2.122   0.623  0.0393 -0.4232  0.7933
 1594SOL    HW116244   0.563   2.030   0.598 -2.2594 -1.0020  3.3763
 1594SOL    HW216245   0.601   2.148   0.537  0.7503 -0.8365  0.9376
 1595SOL     OW16246   2.274   1.843   5.742  0.3216  0.0838 -0.1256
 1595SOL    HW116247   2.218   1.887   5.807 -0.8452 -0.8313 -0.5070
 1595SOL    HW216248   2.235   1.757   5.729  3.0072 -1.1284 -0.0975
 1596SOL     OW16249   2.477   1.023   1.157  0.0127  0.6290 -0.8905
 1596SOL    HW116250   2.441   0.935   1.149  0.0423  0.4183  1.4865
 1596SOL    HW216251   2.458   1.039   1.249  0.3276  1.4861 -0.9705
 1597SOL     OW16252   0.011   0.150  12.361 -0.2863  0.0720 -0.4586
 1597SOL    HW116253   0.082   0.099  12.322  0.3396 -0.5753  1.5038
 1597SOL    HW216254   4.708   0.203  12.287  0.7241  0.4731 -0.5415
 1598SOL     OW16255   4.723   4.245  15.445 -0.4625  0.3181 -0.3311
 1598SOL    HW116256   4.645   4.284  15.484 -0.6133 -0.7077  0.4088
 1598SOL    HW216257   0.033   4.319  15.395 -1.4905  0.8388 -0.2349
 1599SOL     OW16258   0.113   4.140   1.719 -0.1570  0.0851 -0.3675
 1599SOL    HW116259   0.085   4.212   1.774  0.9271  0.1215  0.1398
 1599SOL    HW216260   0.031   4.099   1.691  0.1554 -1.3239  0.7598
 1600SOL     OW16261   2.379   2.767   7.994 -0.5994  0.5735 -0.2288
 1600SOL    HW116262   2.423   2.808   8.069 -2.7213  0.7780  0.9179
 1600SOL    HW216263   2.291   2.767   8.033 -0.9572  0.1332 -1.0415
 1601SOL     OW16264   0.886   4.184  10.408 -0.2417  0.8631  0.0186
 1601SOL    HW116265   0.882   4.273  10.374 -0.8462  1.0247  0.5217
 1601SOL    HW216266   0.903   4.215  10.498 -3.8227 -0.7962  1.2504
 1602SOL     OW16267   3.375   2.010   9.477  0.2649 -0.0793 -0.5004
 1602SOL    HW116268   3.341   2.091   9.440 -1.5210 -1.1505 -1.2107
 1602SOL    HW216269   3.300   1.951   9.471  0.3803 -0.4224  1.3618
 1603SOL     OW16270   1.218   1.240   5.699  0.0241  0.2428  0.4191
 1603SOL    HW116271   1.179   1.245   5.612  1.5781 -1.0502 -0.3656
 1603SOL    HW216272   1.301   1.193   5.688  0.8299  1.5191  1.1328
 1604SOL     OW16273   2.464   1.287   8.958  0.0649 -1.2285  0.1487
 1604SOL    HW116274   2.441   1.195   8.972 -2.6692 -0.7452 -0.9880
 1604SOL    HW216275   2.413   1.326   9.030 -1.0854  1.3332 -2.0546
 1605SOL     OW16276   0.783   1.514  10.973 -0.4461  0.1920 -0.1215
 1605SOL    HW116277   0.752   1.597  11.010  0.2316 -0.7125  2.4423
 1605SOL    HW216278   0.698   1.481  10.943 -0.3063 -0.9899  0.8192
 1606SOL     OW16279   1.655   0.016   3.737  0.3108 -0.6932 -0.2897
 1606SOL    HW116280   1.712   4.672   3.773  1.0691  1.0303  1.8375
 1606SOL    HW216281   1.616   4.706   3.657  1.6170 -1.1077 -0.7401
 1607SOL     OW16282   0.679   4.271   2.850 -0.9906 -0.1429 -0.3154
 1607SOL    HW116283   0.594   4.296   2.884  0.1362 -0.1144  2.5244
 1607SOL    HW216284   0.724   4.354   2.837  0.9766 -1.3183 -1.1089
 1608SOL     OW16285   4.012   2.252  14.131 -0.0694  0.2671  0.2695
 1608SOL    HW116286   3.947   2.266  14.199 -0.1308  0.3138  0.2010
 1608SOL    HW216287   4.094   2.281  14.173 -0.0285  2.1624 -1.1109
 1609SOL     OW16288   2.915   2.230   8.928  0.1296 -0.3369  0.0274
 1609SOL    HW116289   2.941   2.296   8.991 -2.0137 -2.2952  2.9439
 1609SOL    HW216290   2.968   2.151   8.943 -1.2189 -1.0074  1.2383
 1610SOL     OW16291   0.090   3.674  13.512 -0.1024  0.5692 -0.2624
 1610SOL    HW116292   0.027   3.630  13.569  0.3605 -0.5562 -0.6194
 1610SOL    HW216293   0.170   3.633  13.546 -1.7644 -0.1112  2.8833
 1611SOL     OW16294   3.640   2.520   8.313 -0.3802 -0.2473 -0.0848
 1611SOL    HW116295   3.712   2.522   8.377 -0.2495  2.6381 -0.2988
 1611SOL    HW216296   3.687   2.502   8.232 -1.0425  0.8038 -0.6996
 1612SOL     OW16297   0.560   4.275   4.885  0.4159 -0.6278  0.0956
 1612SOL    HW116298   0.525   4.363   4.899  1.8569 -0.0665  0.1011
 1612SOL    HW216299   0.598   4.260   4.971 -0.3385  0.6037  0.6542
 1613SOL     OW16300   4.060   2.944   7.683  0.5913  0.1248  0.1937
 1613SOL    HW116301   3.998   2.884   7.724  3.4951 -2.3712  0.9077
 1613SOL    HW216302   4.133   2.887   7.661  0.5778 -0.4407  1.6400
 1614SOL     OW16303   1.646   1.061  11.195  0.3943  0.1371  0.1719
 1614SOL    HW116304   1.636   1.152  11.222 -2.7967  0.1694 -1.1566
 1614SOL    HW216305   1.552   1.050  11.178  0.1544  3.6791 -0.6772
 1615SOL     OW16306   2.019   2.816   4.818  0.1791  0.0597 -0.5806
 1615SOL    HW116307   1.938   2.765   4.817 -1.3218  2.4750 -3.7531
 1615SOL    HW216308   2.058   2.808   4.732 -1.9062 -0.6037 -1.4568
 1616SOL     OW16309   4.273   4.462   7.557  0.3542 -0.2084  0.5180
 1616SOL    HW116310   4.256   4.551   7.587  2.1546  0.9832 -1.9635
 1616SOL    HW216311   4.203   4.454   7.492 -0.1896  1.5452  0.8741
 1617SOL     OW16312   2.423   3.615   1.000  0.2700 -0.2999  1.4792
 1617SOL    HW116313   2.444   3.532   1.043 -0.8159 -1.2889  0.1159
 1617SOL    HW216314   2.337   3.593   0.964  1.5542 -1.3981 -0.9286
 1618SOL     OW16315   2.071   2.747  16.493 -0.3241  0.3088 -0.4266
 1618SOL    HW116316   2.094   2.714  16.579 -0.7582 -1.1030 -0.8549
 1618SOL    HW216317   2.070   2.842  16.505 -2.9566  0.0381  1.4340
 1619SOL     OW16318   1.600   0.263  13.189  0.0471 -0.2383 -0.2315
 1619SOL    HW116319   1.624   0.340  13.137 -2.0460  0.5393 -0.0209
 1619SOL    HW216320   1.649   0.277  13.270 -1.2024 -2.0698  0.8460
 1620SOL     OW16321   2.017   4.174  11.129 -0.0616 -0.4366 -0.0654
 1620SOL    HW116322   2.103   4.215  11.119 -0.7997  1.6096  2.1531
 1620SOL    HW216323   1.984   4.192  11.041  2.2301 -1.4937 -1.1316
 1621SOL     OW16324   4.022   3.611  16.571 -0.1467 -1.0278  0.3935
 1621SOL    HW116325   3.970   3.573  16.642  0.5265 -0.9332  0.9359
 1621SOL    HW216326   4.000   3.704  16.574 -2.1447 -1.5150  0.5969
 1622SOL     OW16327   2.384   2.084   6.224 -0.5142 -0.2864  0.1168
 1622SOL    HW116328   2.425   2.033   6.294  1.6393  0.2896 -0.7358
 1622SOL    HW216329   2.425   2.049   6.145 -2.4303 -1.6899 -0.2644
 1623SOL     OW16330   3.586   3.311   3.238  0.1896 -0.0985  0.1640
 1623SOL    HW116331   3.492   3.327   3.238  0.1196 -0.4810 -1.8825
 1623SOL    HW216332   3.613   3.399   3.264  0.0779 -0.1914  0.5879
 1624SOL     OW16333   2.871   2.596   5.656 -0.2044  0.0207  0.2402
 1624SOL    HW116334   2.960   2.633   5.656  0.5031 -1.6910  1.6375
 1624SOL    HW216335   2.853   2.604   5.562 -0.8925  1.3755  0.4807
 1625SOL     OW16336   1.517   0.010   0.882 -0.5340  0.0959 -0.5357
 1625SOL    HW116337   1.601   0.011   0.929 -0.0182 -1.2458 -1.4339
 1625SOL    HW216338   1.487   0.095   0.915 -0.5132 -0.6170  1.3277
 1626SOL     OW16339   1.072   4.467  17.513  0.3984  0.0782  0.4852
 1626SOL    HW116340   1.039   4.444  17.426 -4.5201 -0.2498  2.3873
 1626SOL    HW216341   1.055   4.562  17.508  0.0408  0.0155  0.4534
 1627SOL     OW16342   1.005   3.249  11.519  0.4861  0.1771  0.2909
 1627SOL    HW116343   0.995   3.283  11.431 -0.9217 -1.2126 -0.1046
 1627SOL    HW216344   1.000   3.323  11.580  2.5872 -0.0235  0.6925
 1628SOL     OW16345   1.791   0.898   6.261  0.0923  0.0395  0.3573
 1628SOL    HW116346   1.840   0.957   6.204  0.9840  0.6362  1.7483
 1628SOL    HW216347   1.837   0.816   6.241  2.1042  1.0907  0.6644
 1629SOL     OW16348   2.854   1.501  11.083  0.0990  0.3530  0.3308
 1629SOL    HW116349   2.827   1.410  11.068 -0.8271  0.7877 -0.6361
 1629SOL    HW216350   2.785   1.548  11.036 -0.6278 -2.2952 -1.2756
 1630SOL     OW16351   4.110   1.393   8.564  0.3351 -0.1240 -0.4317
 1630SOL    HW116352   4.099   1.473   8.615 -0.2827 -0.6092  0.1961
 1630SOL    HW216353   4.022   1.392   8.527 -1.6401 -0.9953  4.1974
 1631SOL     OW16354   1.135   1.178  15.437 -0.1982 -0.1907  0.0422
 1631SOL    HW116355   1.040   1.188  15.431 -0.0924  0.9966  0.4987
 1631SOL    HW216356   1.132   1.093  15.481 -0.6531  0.1942  0.7460
 1632SOL     OW16357   3.507   0.397   5.462 -0.3399 -0.1054 -1.1483
 1632SOL    HW116358   3.497   0.308   5.497  1.8136  0.9935  2.2497
 1632SOL    HW216359   3.500   0.434   5.550 -1.5822 -1.8782 -0.4910
 1633SOL     OW16360   3.612   1.477   3.076  0.3754 -0.2223  0.4045
 1633SOL    HW116361   3.639   1.419   3.005  0.6814  0.4462 -0.0218
 1633SOL    HW216362   3.694   1.495   3.123  0.2020  1.8085 -0.0749
 1634SOL     OW16363   1.614   1.804  12.168  0.1041 -0.3376 -0.9211
 1634SOL    HW116364   1.531   1.818  12.123 -0.3277  0.5383  0.1285
 1634SOL    HW216365   1.656   1.745  12.106  2.3986 -0.3755  0.6981
 1635SOL     OW16366   4.270   2.731   1.291  0.1312 -0.1313  0.5907
 1635SOL    HW116367   4.191   2.765   1.331  0.1487  1.7166 -0.9677
 1635SOL    HW216368   4.280   2.797   1.223  0.4549 -1.8832 -1.0604
 1636SOL     OW16369   1.719   1.611   6.509 -0.5927 -0.6872 -0.2385
 1636SOL    HW116370   1.628   1.586   6.523 -0.7398  0.0573  0.1313
 1636SOL    HW216371   1.769   1.582   6.585  0.9782  0.2335 -0.8952
 1637SOL     OW16372   1.905   4.676   5.558 -0.3594  1.1038 -0.2136
 1637SOL    HW116373   1.939   4.590   5.582 -0.3916  0.7007 -1.6310
 1637SOL    HW216374   1.816   4.656   5.530 -0.4637  1.6163 -0.2583
 1638SOL     OW16375   4.679   0.952   0.327  0.5011  0.2381 -0.3802
 1638SOL    HW116376   4.710   0.980   0.413 -2.6517  0.2781  0.7415
 1638SOL    HW216377   4.650   1.040   0.304  1.2047  0.4221 -0.5386
 1639SOL     OW16378   0.000   4.133  13.175 -0.2937  0.1385 -0.1642
 1639SOL    HW116379   0.023   4.040  13.167  0.9858  0.6135 -1.9049
 1639SOL    HW216380   0.021   4.167  13.088  1.6002 -2.3016 -0.6874
 1640SOL     OW16381   3.875   0.936   5.452 -0.0759  0.1232  0.0742
 1640SOL    HW116382   3.823   1.017   5.447 -0.2252 -0.0783 -1.4241
 1640SOL    HW216383   3.808   0.885   5.498 -1.6842 -0.8130 -3.2808
 1641SOL     OW16384   4.057   1.603  13.529  0.3276  0.6407 -0.2033
 1641SOL    HW116385   4.140   1.567  13.498  0.2884  0.3731  0.0014
 1641SOL    HW216386   4.007   1.527  13.558  0.2756  0.7215 -0.0837
 1642SOL     OW16387   0.643   3.366   1.095  0.5014  0.6766 -0.6150
 1642SOL    HW116388   0.597   3.283   1.108  1.6092 -0.1720 -2.0692
 1642SOL    HW216389   0.670   3.396   1.181  0.5869  1.9322 -1.0846
 1643SOL     OW16390   1.124   1.083  14.103 -0.5722  0.3240  0.1241
 1643SOL    HW116391   1.160   1.105  14.188 -0.4573 -1.7916  0.6331
 1643SOL    HW216392   1.171   1.148  14.050 -0.2524 -0.5279 -0.6473
 1644SOL     OW16393   0.431   3.903  13.942  0.0572  0.1030 -0.3265
 1644SOL    HW116394   0.343   3.872  13.919  0.4393 -1.1931 -0.0517
 1644SOL    HW216395   0.422   3.998  13.932  0.3581 -0.1643 -3.1168
 1645SOL     OW16396   1.024   2.830   8.128  0.5574  0.1439 -0.1378
 1645SOL    HW116397   0.929   2.828   8.136  0.4289  1.9087 -1.2822
 1645SOL    HW216398   1.038   2.812   8.035 -1.2581  1.3996 -0.6705
 1646SOL     OW16399   3.110   0.774   5.541  0.3105 -0.0303  0.0351
 1646SOL    HW116400   3.184   0.825   5.506  0.1464  1.9754  2.6053
 1646SOL    HW216401   3.051   0.840   5.578  0.9195  3.0923 -4.5267
 1647SOL     OW16402   0.475   2.970  14.655  0.2874 -0.1953 -0.2631
 1647SOL    HW116403   0.558   2.975  14.608 -0.1261 -0.3266 -0.9938
 1647SOL    HW216404   0.428   3.042  14.615  0.9768  0.9956  1.0534
 1648SOL     OW16405   1.898   2.711   1.782  0.4540 -0.1493 -0.0652
 1648SOL    HW116406   1.900   2.622   1.817  0.2996  0.5925  1.8606
 1648SOL    HW216407   1.818   2.705   1.731 -0.5993 -0.6688  1.6700
 1649SOL     OW16408   4.499   0.046   4.828  0.5027 -0.7894 -0.4891
 1649SOL    HW116409   4.502   0.136   4.794  1.8536 -0.5155  0.3724
 1649SOL    HW216410   4.538   4.723   4.755  0.9054  0.3024 -0.9860
 1650SOL     OW16411   4.156   0.224   4.138 -0.5468  0.2470 -0.2213
 1650SOL    HW116412   4.128   0.184   4.220 -0.7119  0.4862 -0.1590
 1650SOL    HW216413   4.075   0.268   4.111  0.5446  1.0080 -2.2605
 1651SOL     OW16414   2.628   3.957  12.665 -1.0040  0.3840  0.1458
 1651SOL    HW116415   2.544   3.933  12.626 -0.7604  0.2257 -0.2781
 1651SOL    HW216416   2.674   3.982  12.586  2.1033 -1.4892  1.3736
 1652SOL     OW16417   4.514   0.227   6.770  0.0601  0.4512  0.0529
 1652SOL    HW116418   4.447   0.246   6.704  0.8067 -1.3729 -1.2418
 1652SOL    HW216419   4.506   0.132   6.772  0.4787  0.4194  0.2377
 1653SOL     OW16420   4.433   4.137   6.039 -0.4424 -0.2108 -0.5640
 1653SOL    HW116421   4.491   4.089   6.098 -1.5400 -0.5475  0.2388
 1653SOL    HW216422   4.458   4.103   5.953 -1.9109 -1.1619 -0.6127
 1654SOL     OW16423   1.472   4.391   4.782  0.1460  0.0907  0.3199
 1654SOL    HW116424   1.401   4.416   4.842 -0.4979 -0.7449 -0.0924
 1654SOL    HW216425   1.505   4.479   4.765  0.3052  0.1055  0.7041
 1655SOL     OW16426   2.805   2.712   8.632  0.2590 -0.9249 -0.2255
 1655SOL    HW116427   2.769   2.657   8.562  0.8388 -2.4565  0.6794
 1655SOL    HW216428   2.739   2.722   8.701  1.8198  0.7933  1.0150
 1656SOL     OW16429   0.204   0.414   5.614  1.2439  0.3012 -0.2079
 1656SOL    HW116430   0.119   0.456   5.603  1.3531  0.9563  1.3621
 1656SOL    HW216431   0.232   0.399   5.524  1.4613 -0.8758  0.0592
 1657SOL     OW16432   2.743   1.096   4.961 -0.1662  0.0378  0.4310
 1657SOL    HW116433   2.679   1.035   4.924  0.1418  0.8317 -1.3771
 1657SOL    HW216434   2.811   1.100   4.894 -0.4544  0.0643  0.1418
 1658SOL     OW16435   0.111   0.111   3.978  0.6940  0.4608  0.4599
 1658SOL    HW116436   0.178   0.173   4.007  1.4317  0.2850 -0.8993
 1658SOL    HW216437   0.046   0.141   4.042  1.1924  0.7564  0.8268
 1659SOL     OW16438   0.584   2.580   5.714 -0.5662  0.1559 -0.5334
 1659SOL    HW116439   0.540   2.531   5.644 -0.2336  2.2993 -2.2749
 1659SOL    HW216440   0.672   2.591   5.678  0.1927 -1.7534  0.7544
 1660SOL     OW16441   0.592   4.128   1.049  0.1330 -0.5311  0.5766
 1660SOL    HW116442   0.564   4.054   0.996 -2.6024  1.2796 -0.4746
 1660SOL    HW216443   0.687   4.124   1.042 -0.0672  0.4231 -2.5913
 1661SOL     OW16444   0.506   3.122   1.164 -0.3109  0.3313  0.2085
 1661SOL    HW116445   0.576   3.057   1.158 -1.0529 -0.4551  0.1366
 1661SOL    HW216446   0.433   3.068   1.134  1.1201 -0.2877 -2.1827
 1662SOL     OW16447   0.444   2.829   3.682  0.1743  0.1965  0.2750
 1662SOL    HW116448   0.494   2.904   3.648 -0.5261  0.0325 -1.1172
 1662SOL    HW216449   0.516   2.768   3.698 -0.0695 -0.0994  0.2416
 1663SOL     OW16450   0.907   1.369  10.031  0.0718  0.5677  0.3532
 1663SOL    HW116451   0.833   1.411  10.075 -0.1678  1.4617 -0.8898
 1663SOL    HW216452   0.867   1.295   9.984 -2.8005  2.1088  0.3982
 1664SOL     OW16453   4.192   4.407  10.754 -0.0486 -0.2784  0.4998
 1664SOL    HW116454   4.103   4.425  10.783  0.0971  0.7748  0.2976
 1664SOL    HW216455   4.237   4.479  10.798  0.3298  0.1347 -0.5527
 1665SOL     OW16456   0.312   4.452  14.305  0.0340 -0.4025  0.1895
 1665SOL    HW116457   0.352   4.387  14.247  0.7282  0.8140 -0.7047
 1665SOL    HW216458   0.236   4.407  14.343  0.6274 -2.7378 -1.4112
 1666SOL     OW16459   1.118   3.522   4.066 -0.5829  0.1704  0.7350
 1666SOL    HW116460   1.175   3.478   4.128  0.7439  0.2609 -0.4219
 1666SOL    HW216461   1.125   3.466   3.988 -2.3802  1.5420 -0.4320
 1667SOL     OW16462   1.085   3.604   5.352  0.1876 -0.0149 -0.2101
 1667SOL    HW116463   1.076   3.677   5.291  1.1112  1.5780  1.5207
 1667SOL    HW216464   1.162   3.556   5.322  0.7143 -0.6045  2.0439
 1668SOL     OW16465   0.724   1.638   3.051  0.7776  0.2272 -0.8446
 1668SOL    HW116466   0.629   1.626   3.042  0.7487  0.7079 -1.2002
 1668SOL    HW216467   0.743   1.549   3.079 -0.4806 -0.2199 -1.4150
 1669SOL     OW16468   4.092   2.496   8.902 -0.2712  0.4495  0.6446
 1669SOL    HW116469   4.030   2.561   8.935  1.5204  2.6668 -0.3431
 1669SOL    HW216470   4.039   2.454   8.834  1.3380  1.4505 -1.2229
 1670SOL     OW16471   4.596   1.921  12.760  0.2997  0.3156  0.3976
 1670SOL    HW116472   4.582   1.828  12.744  1.2439  0.7707 -2.9388
 1670SOL    HW216473   4.558   1.974  12.690  0.4166  1.6917  1.3608
 1671SOL     OW16474   3.968   0.689   8.833  0.7452  0.3350 -0.4120
 1671SOL    HW116475   3.897   0.726   8.885  1.5675 -1.2892  1.8480
 1671SOL    HW216476   3.929   0.609   8.799  0.6938  0.4467 -0.6174
 1672SOL     OW16477   1.862   1.666  15.604 -0.6969 -0.1313  0.3833
 1672SOL    HW116478   1.840   1.609  15.677  2.7326  2.2893  3.3175
 1672SOL    HW216479   1.863   1.598  15.536 -0.3864 -0.7268  0.9915
 1673SOL     OW16480   4.390   2.699   6.525 -0.0690 -0.2294 -0.1234
 1673SOL    HW116481   4.335   2.629   6.492 -1.6094  0.9632 -0.1007
 1673SOL    HW216482   4.480   2.666   6.529 -0.1048 -0.0284  2.8906
 1674SOL     OW16483   4.648   0.156  13.448 -0.0450 -0.4285 -0.8927
 1674SOL    HW116484   4.667   0.080  13.394  0.1529 -0.9789 -0.0382
 1674SOL    HW216485   4.691   0.223  13.395  0.0065  1.1756  1.1882
 1675SOL     OW16486   3.289   2.637   4.716 -0.4178 -0.6373  0.4537
 1675SOL    HW116487   3.303   2.611   4.625  2.1833  1.2013  0.3335
 1675SOL    HW216488   3.224   2.704   4.696 -2.0696 -1.9579  1.3738
 1676SOL     OW16489   4.682   2.000  10.044 -0.1691  0.2569  0.3487
 1676SOL    HW116490   4.682   1.937  10.117  2.6686 -0.4012 -0.2385
 1676SOL    HW216491   4.613   2.058  10.076 -0.0503 -1.3305  3.5330
 1677SOL     OW16492   1.319   0.505  15.654  0.5392 -0.0606  0.1547
 1677SOL    HW116493   1.400   0.453  15.660 -0.2317 -1.3211 -0.4120
 1677SOL    HW216494   1.303   0.507  15.560  0.6525  1.3778  0.1726
 1678SOL     OW16495   4.530   1.997  16.730 -1.1670 -0.2611  0.4626
 1678SOL    HW116496   4.534   2.013  16.636  0.2428  0.1080  0.5892
 1678SOL    HW216497   4.610   1.947  16.747 -0.7754  0.5916  1.1566
 1679SOL     OW16498   2.140   3.409   8.386 -0.0478 -0.3760  0.3568
 1679SOL    HW116499   2.187   3.330   8.412 -0.5730 -0.3275  1.4512
 1679SOL    HW216500   2.198   3.434   8.314  1.2900 -2.4021  0.7159
 1680SOL     OW16501   2.298   4.668   2.234 -0.1176 -0.1006  0.6130
 1680SOL    HW116502   2.259   4.582   2.220  1.1816 -1.0143  2.5433
 1680SOL    HW216503   2.320   4.672   2.327  2.4830 -0.0175  0.0148
 1681SOL     OW16504   0.529   2.033  16.888  0.0451  0.1738  0.0436
 1681SOL    HW116505   0.617   2.065  16.869 -1.0398  2.9695 -0.1554
 1681SOL    HW216506   0.522   2.068  16.976 -0.9167 -1.7342  0.7257
 1682SOL     OW16507   2.785   2.500   8.137  0.5045 -0.1450  0.8240
 1682SOL    HW116508   2.689   2.506   8.137  0.6715  2.5841  2.8419
 1682SOL    HW216509   2.817   2.585   8.165  1.3011  0.5897 -2.3133
 1683SOL     OW16510   3.023   3.244   6.011  0.3374  0.2863 -0.3245
 1683SOL    HW116511   3.106   3.253   5.964 -0.2458  1.5594 -1.1127
 1683SOL    HW216512   3.059   3.284   6.090 -2.4688  0.4231  0.8907
 1684SOL     OW16513   2.069   1.689  12.423  0.3110  0.1114 -0.2117
 1684SOL    HW116514   2.054   1.663  12.332  1.5074 -2.0397  0.2050
 1684SOL    HW216515   2.024   1.614  12.463 -0.9702  0.5964 -0.7533
 1685SOL     OW16516   0.130   3.753   3.102 -0.0571 -0.1910 -0.0784
 1685SOL    HW116517   0.074   3.738   3.026  0.5745 -0.8601 -0.4099
 1685SOL    HW216518   0.132   3.667   3.143  1.2375 -0.2147 -0.1913
 1686SOL     OW16519   3.584   0.028   2.318 -0.3800 -0.1853 -0.0773
 1686SOL    HW116520   3.513   0.015   2.382 -0.1710  2.5328  0.6776
 1686SOL    HW216521   3.599   0.120   2.336  0.4470 -0.1059 -1.1508
 1687SOL     OW16522   4.651   2.911  16.446 -0.2888 -0.6571  0.2132
 1687SOL    HW116523   4.570   2.922  16.396 -0.1524 -1.1395 -0.1108
 1687SOL    HW216524   4.633   2.934  16.537 -0.0671  0.3137  0.0187
 1688SOL     OW16525   4.515   4.128  12.248 -0.1040 -0.5805 -0.1103
 1688SOL    HW116526   4.457   4.204  12.243 -2.4538 -2.5117 -2.0930
 1688SOL    HW216527   4.537   4.113  12.156 -1.2034  1.2014 -0.6603
 1689SOL     OW16528   4.504   2.727  16.841 -0.2636  0.0620 -0.1519
 1689SOL    HW116529   4.467   2.653  16.793 -0.1373  0.2090 -0.4773
 1689SOL    HW216530   4.595   2.697  16.828 -0.0328  0.2711  0.9341
 1690SOL     OW16531   0.131   4.179   8.765  0.3056  0.2655  0.1369
 1690SOL    HW116532   0.139   4.127   8.845 -2.2988 -2.5392 -1.3933
 1690SOL    HW216533   0.053   4.143   8.722 -0.1137  1.9730 -0.5093
 1691SOL     OW16534   4.316   0.228  11.693  0.3327 -0.1253  0.3785
 1691SOL    HW116535   4.261   0.280  11.752 -1.2421  0.8829 -1.9606
 1691SOL    HW216536   4.253   0.206  11.625  0.3943  0.8430 -0.0022
 1692SOL     OW16537   1.833   1.297  17.420 -0.0952  0.2405 -0.1030
 1692SOL    HW116538   1.754   1.262  17.462  1.2223 -2.9571 -0.2726
 1692SOL    HW216539   1.846   1.378  17.470 -1.8733 -0.1395  0.9910
 1693SOL     OW16540   3.107   4.626   4.274 -0.6773 -0.1606 -0.4245
 1693SOL    HW116541   3.063   4.705   4.306  2.2149  1.4102 -0.3110
 1693SOL    HW216542   3.189   4.622   4.324  0.6142  0.8252 -2.4889
 1694SOL     OW16543   2.974   1.231   7.603 -0.0048 -0.3937  0.0913
 1694SOL    HW116544   3.008   1.313   7.639 -1.9513  0.9820 -1.2138
 1694SOL    HW216545   3.042   1.175   7.641  0.7553  0.4156 -0.0796
 1695SOL     OW16546   1.210   0.296   8.557  0.5442  0.0559 -0.6557
 1695SOL    HW116547   1.138   0.337   8.605  0.7452  0.9283 -1.1104
 1695SOL    HW216548   1.252   0.373   8.519 -0.9114  0.9279 -0.5097
 1696SOL     OW16549   2.465   0.835   8.606 -0.0658  0.0766 -0.1784
 1696SOL    HW116550   2.447   0.909   8.663  2.6575 -0.7730  1.7679
 1696SOL    HW216551   2.381   0.807   8.567 -0.4988  0.3286  0.5872
 1697SOL     OW16552   1.926   1.043   6.548 -0.2685  0.1330 -0.6243
 1697SOL    HW116553   1.888   1.052   6.461  0.7831 -1.4349 -1.2528
 1697SOL    HW216554   1.926   0.947   6.557  0.7475  0.0943 -1.1163
 1698SOL     OW16555   3.818   2.853  16.269  0.4178 -0.6260 -0.3386
 1698SOL    HW116556   3.759   2.785  16.236 -0.0155 -0.1333 -0.5771
 1698SOL    HW216557   3.802   2.923  16.206  1.2076  0.0172  0.1889
 1699SOL     OW16558   2.705   4.284  15.923 -0.1716  0.4087 -0.3494
 1699SOL    HW116559   2.739   4.208  15.876  0.2533  0.5649 -0.2967
 1699SOL    HW216560   2.778   4.344  15.905 -1.7131  2.5829  0.6786
 1700SOL     OW16561   0.929   1.449   0.456 -0.5565 -0.2058  0.1503
 1700SOL    HW116562   1.020   1.476   0.442 -0.8076 -0.2561 -1.5261
 1700SOL    HW216563   0.885   1.535   0.455 -2.5766 -1.2637 -1.2966
 1701SOL     OW16564   1.473   4.284   2.836  0.5646  0.1681  0.1834
 1701SOL    HW116565   1.474   4.234   2.918  0.4120 -2.5312 -1.4742
 1701SOL    HW216566   1.567   4.289   2.819  0.3300 -1.4333 -1.5183
 1702SOL     OW16567   3.779   3.028   2.181 -0.5090 -0.8522 -0.4435
 1702SOL    HW116568   3.859   3.021   2.129 -0.2596  1.1234 -0.3064
 1702SOL    HW216569   3.743   3.115   2.163 -1.9307 -1.2027  0.6985
 1703SOL     OW16570   1.952   0.137   7.162 -0.0904  0.7182 -0.2391
 1703SOL    HW116571   2.005   0.210   7.128  0.9750 -0.6413 -1.5107
 1703SOL    HW216572   1.941   0.087   7.082  1.1170 -0.4665  0.3228
 1704SOL     OW16573   0.241   3.897   1.721 -0.1592  0.7062 -0.2765
 1704SOL    HW116574   0.239   3.992   1.719 -2.3804  0.6777  0.3343
 1704SOL    HW216575   0.147   3.882   1.707 -0.2638 -0.8147  1.9452
 1705SOL     OW16576   1.319   3.392   4.193  0.1576  0.4835  0.2157
 1705SOL    HW116577   1.292   3.306   4.163  3.0981  0.0756 -1.2493
 1705SOL    HW216578   1.341   3.371   4.284 -0.1319 -0.4170  0.0758
 1706SOL     OW16579   1.269   3.787   2.292 -0.1979 -0.2137 -0.3546
 1706SOL    HW116580   1.184   3.825   2.270 -0.7892  0.1076  2.4744
 1706SOL    HW216581   1.324   3.857   2.256  1.5238 -0.9532  0.8944
 1707SOL     OW16582   1.303   3.911   8.353 -0.2285 -0.3960 -0.3189
 1707SOL    HW116583   1.348   3.964   8.418  1.1146 -0.0202 -1.5516
 1707SOL    HW216584   1.227   3.899   8.409 -0.5351 -2.6285 -1.2038
 1708SOL     OW16585   2.230   2.494  10.016  0.4360  0.3709 -0.0036
 1708SOL    HW116586   2.160   2.441  10.053  0.4012 -0.1951 -0.8853
 1708SOL    HW216587   2.210   2.564  10.079  0.3398  0.3853 -0.0515
 1709SOL     OW16588   4.370   0.646   0.397 -0.0228  0.0027  0.0953
 1709SOL    HW116589   4.422   0.714   0.438 -0.5110  0.0200  0.6998
 1709SOL    HW216590   4.307   0.630   0.468 -0.5677 -1.7122 -0.7589
 1710SOL     OW16591   2.002   4.233   9.345 -0.5875 -1.2115 -0.1533
 1710SOL    HW116592   2.008   4.328   9.349 -0.1085 -1.1861 -1.4193
 1710SOL    HW216593   2.072   4.215   9.408 -1.0595 -1.8029  0.1944
 1711SOL     OW16594   1.301   3.329   3.119  0.6121  0.5491 -0.2161
 1711SOL    HW116595   1.323   3.410   3.164 -0.4998 -0.5722  2.3323
 1711SOL    HW216596   1.232   3.365   3.063  1.1232 -0.3670 -1.4590
 1712SOL     OW16597   4.437   1.254   2.669  0.4617 -0.0431  0.7947
 1712SOL    HW116598   4.490   1.174   2.664 -1.5623 -1.5496  3.6342
 1712SOL    HW216599   4.494   1.309   2.723  1.6343 -1.0039  0.5264
 1713SOL     OW16600   1.312   1.091  13.438 -0.5359  0.3425 -0.1064
 1713SOL    HW116601   1.383   1.027  13.437  0.9834  2.0429  2.0823
 1713SOL    HW216602   1.228   1.044  13.430  0.0682 -0.9022  0.8295
 1714SOL     OW16603   0.467   3.850  14.229  0.6720  0.0949  0.2360
 1714SOL    HW116604   0.490   3.883  14.142  0.3522 -0.2721  0.0111
 1714SOL    HW216605   0.515   3.915  14.281 -1.0278  0.2371  1.5987
 1715SOL     OW16606   2.831   2.557  16.972  0.6153 -0.8670  0.2870
 1715SOL    HW116607   2.799   2.612  16.901  0.3435 -0.5747  0.6327
 1715SOL    HW216608   2.844   2.468  16.941 -1.3598 -0.7712 -0.7606
 1716SOL     OW16609   0.135   3.458  15.782 -0.5852  0.1596  0.1761
 1716SOL    HW116610   0.047   3.495  15.771 -0.4790  0.6132  0.8512
 1716SOL    HW216611   0.117   3.369  15.752 -0.8398  0.6260 -1.0710
 1717SOL     OW16612   0.259   1.504   8.954 -0.5729  0.2491 -0.1709
 1717SOL    HW116613   0.235   1.578   8.898  1.7093  0.3556 -1.0331
 1717SOL    HW216614   0.174   1.486   8.994 -1.3752  3.3818 -0.4295
 1718SOL     OW16615   4.038   3.428   7.719  0.1970  0.0933  0.4490
 1718SOL    HW116616   4.129   3.398   7.716  0.3014  0.3464  1.3136
 1718SOL    HW216617   4.017   3.411   7.811  0.4102 -1.5936  0.1735
 1719SOL     OW16618   4.249   2.522   4.381 -0.4691 -0.0969  0.1045
 1719SOL    HW116619   4.336   2.542   4.347 -1.0522 -1.0867 -1.9874
 1719SOL    HW216620   4.200   2.535   4.299  0.7445 -0.3656 -0.6689
 1720SOL     OW16621   3.791   4.242   4.498 -0.2561 -0.6158  0.4789
 1720SOL    HW116622   3.733   4.315   4.520 -0.3470 -1.1006  1.8184
 1720SOL    HW216623   3.865   4.301   4.485  0.7030 -1.8583  0.4318
 1721SOL     OW16624   4.250   3.495   6.033 -0.1644 -0.0064  0.5527
 1721SOL    HW116625   4.277   3.482   6.123 -1.0223 -2.8560  0.3983
 1721SOL    HW216626   4.330   3.535   5.998 -0.6468 -1.6961 -2.4638
 1722SOL     OW16627   1.792   3.239   0.724 -0.4660 -0.4834 -0.3727
 1722SOL    HW116628   1.851   3.286   0.665 -1.0214  0.1981 -0.3772
 1722SOL    HW216629   1.710   3.238   0.675 -1.2714 -2.0837  0.9940
 1723SOL     OW16630   3.931   3.157  15.880 -0.1615 -0.6896 -0.1489
 1723SOL    HW116631   3.953   3.178  15.789 -0.0680  1.8666  0.4580
 1723SOL    HW216632   3.883   3.236  15.901 -0.3123 -0.5898 -0.8497
 1724SOL     OW16633   1.871   0.795   5.519 -0.9310 -0.2377  0.0052
 1724SOL    HW116634   1.848   0.868   5.577  0.2625  0.6073 -0.5780
 1724SOL    HW216635   1.894   0.833   5.434 -2.1378 -0.3362 -0.3570
 1725SOL     OW16636   2.089   1.086   4.043 -0.4458  0.2024  0.0962
 1725SOL    HW116637   2.084   1.180   4.027 -0.0932  0.0614 -0.8599
 1725SOL    HW216638   2.001   1.066   4.012 -0.7843  1.7050  0.1252
 1726SOL     OW16639   1.199   3.973   7.154  0.2646  0.5515  0.3982
 1726SOL    HW116640   1.222   3.997   7.244 -1.3959  0.5858  0.8189
 1726SOL    HW216641   1.211   4.058   7.112 -0.3211  0.0209 -0.8246
 1727SOL     OW16642   0.363   3.382   5.135 -0.4447  0.3485 -0.1971
 1727SOL    HW116643   0.345   3.449   5.069  0.3140 -0.0709 -0.8384
 1727SOL    HW216644   0.374   3.302   5.084 -0.4843 -0.5155  1.1710
 1728SOL     OW16645   1.490   2.331   6.580  0.8165 -0.1406  0.1617
 1728SOL    HW116646   1.400   2.358   6.562  0.5508 -0.4319  1.0240
 1728SOL    HW216647   1.517   2.293   6.496 -4.0464 -0.9101 -1.0626
 1729SOL     OW16648   2.965   2.466   8.690  0.0469 -0.2961 -0.2407
 1729SOL    HW116649   2.890   2.434   8.639  0.4608  3.6146 -3.2842
 1729SOL    HW216650   2.934   2.557   8.689 -1.5107 -0.8474 -1.3841
 1730SOL     OW16651   0.201   1.013   1.227 -0.6026  0.7546  0.2607
 1730SOL    HW116652   0.215   1.106   1.208 -1.7554  1.7698  4.1607
 1730SOL    HW216653   0.124   0.997   1.172  0.5536 -0.6551 -0.9381
 1731SOL     OW16654   4.024   1.569   8.734  0.3809  0.4188  0.4385
 1731SOL    HW116655   4.005   1.652   8.778 -1.7589  1.8567 -3.2083
 1731SOL    HW216656   4.016   1.508   8.807 -0.6627 -1.0868 -0.9307
 1732SOL     OW16657   3.912   0.879   2.435 -0.2788  0.0501  0.0878
 1732SOL    HW116658   3.912   0.841   2.347  2.9639  2.0313 -0.7585
 1732SOL    HW216659   3.841   0.829   2.474  0.9749 -1.2090  0.7675
 1733SOL     OW16660   4.349   1.882   5.987  0.2463 -0.1592 -0.1598
 1733SOL    HW116661   4.305   1.920   6.063  2.4419  0.6323  0.7168
 1733SOL    HW216662   4.435   1.925   5.992  0.0372  0.2715 -0.2202
 1734SOL     OW16663   2.807   2.342   3.937  0.2600 -0.6772 -0.4948
 1734SOL    HW116664   2.830   2.371   3.849  1.5546 -0.6069 -0.1342
 1734SOL    HW216665   2.725   2.295   3.925 -0.6599  0.4594  1.2926
 1735SOL     OW16666   0.217   3.470   4.423  0.4610  0.0762 -0.2110
 1735SOL    HW116667   0.239   3.414   4.498 -1.1613 -1.3048 -0.7413
 1735SOL    HW216668   0.188   3.549   4.469  1.1157  0.7230 -0.9177
 1736SOL     OW16669   3.447   1.497  14.423 -0.3843 -0.5476 -0.3997
 1736SOL    HW116670   3.466   1.403  14.425 -1.2538 -0.7209 -0.3070
 1736SOL    HW216671   3.356   1.493  14.391 -0.8795 -1.9680  1.2043
 1737SOL     OW16672   2.128   0.689   3.157  0.8091  0.1249 -0.5155
 1737SOL    HW116673   2.066   0.681   3.085  1.1439 -1.2963 -0.6289
 1737SOL    HW216674   2.162   0.773   3.126 -1.4657  1.4368  0.5526
 1738SOL     OW16675   0.994   3.478   4.366  0.4049  0.4771  0.0914
 1738SOL    HW116676   1.057   3.544   4.395  0.4618  0.3607  0.2285
 1738SOL    HW216677   1.020   3.413   4.432 -0.2855  1.6480  1.5025
 1739SOL     OW16678   1.142   4.001   5.033 -0.1785 -0.0821 -0.1684
 1739SOL    HW116679   1.055   4.037   5.022 -1.2474 -1.6539  2.9910
 1739SOL    HW216680   1.199   4.058   4.981  0.1331 -0.6836 -0.4887
 1740SOL     OW16681   2.366   0.413   9.408  0.1098 -0.0203 -0.2590
 1740SOL    HW116682   2.441   0.470   9.394 -0.2324  0.4943  0.0384
 1740SOL    HW216683   2.380   0.394   9.501  3.3417  1.3843 -0.4594
 1741SOL     OW16684   0.851   2.692   5.729  0.2211 -0.1844  0.2416
 1741SOL    HW116685   0.813   2.768   5.686 -1.6774 -1.2179  0.0886
 1741SOL    HW216686   0.899   2.727   5.804  0.4951 -1.0166  0.4573
 1742SOL     OW16687   4.559   0.090  15.675 -0.3607  0.0192  0.7489
 1742SOL    HW116688   4.570   0.044  15.592  0.0578  1.6754 -0.1009
 1742SOL    HW216689   4.613   0.167  15.659  0.1315 -0.3998  0.3945
 1743SOL     OW16690   3.767   3.536   3.274  0.3073  0.0930 -0.7553
 1743SOL    HW116691   3.745   3.528   3.367  1.9612  0.8800 -0.2832
 1743SOL    HW216692   3.840   3.598   3.268  0.3410  0.2793  1.4703
 1744SOL     OW16693   0.320   0.313  11.050  0.4548 -1.1422 -1.0892
 1744SOL    HW116694   0.266   0.388  11.024 -0.5290 -1.7690 -0.8957
 1744SOL    HW216695   0.376   0.309  10.972  0.0418  0.2080 -1.4578
 1745SOL     OW16696   3.034   3.433   8.375 -0.5488  0.4060  0.2243
 1745SOL    HW116697   3.000   3.346   8.353  0.6660 -0.1311  0.4146
 1745SOL    HW216698   3.017   3.476   8.292  0.1459  0.4513  0.1078
 1746SOL     OW16699   2.221   0.190   4.835 -0.1610 -0.6124 -0.1879
 1746SOL    HW116700   2.273   0.180   4.914 -3.7589  1.1822  2.4049
 1746SOL    HW216701   2.136   0.224   4.861 -0.8767 -0.9731 -1.9984
 1747SOL     OW16702   2.671   0.267   3.832 -0.4535  0.3531  0.1177
 1747SOL    HW116703   2.708   0.296   3.748  0.3195 -0.4515  0.1767
 1747SOL    HW216704   2.654   0.347   3.880 -1.6505 -0.2290  0.6443
 1748SOL     OW16705   3.484   0.712   0.407 -0.6980 -0.6086  0.4890
 1748SOL    HW116706   3.411   0.767   0.432 -0.6660  0.7030 -2.2827
 1748SOL    HW216707   3.557   0.747   0.458  1.4443 -1.3248 -2.0690
 1749SOL     OW16708   3.507   4.484  10.754  0.1211  0.0936 -0.0770
 1749SOL    HW116709   3.594   4.450  10.775 -0.8091 -2.0734  0.1834
 1749SOL    HW216710   3.516   4.575  10.783 -0.5775  0.2639 -0.4082
 1750SOL     OW16711   1.608   1.439  11.850 -0.3748  0.2170 -0.0580
 1750SOL    HW116712   1.554   1.437  11.929 -0.7951 -0.8480 -0.3811
 1750SOL    HW216713   1.661   1.360  11.860 -0.7529 -0.0856 -0.4217
 1751SOL     OW16714   2.595   4.454  16.108 -0.5682  0.1927  0.6227
 1751SOL    HW116715   2.504   4.484  16.117 -0.8171 -0.0105 -1.3205
 1751SOL    HW216716   2.593   4.413  16.022 -1.8065  0.4912  0.4980
 1752SOL     OW16717   0.045   3.235   5.759  0.3424  0.5542 -0.3302
 1752SOL    HW116718   0.041   3.327   5.734  0.5678  0.7674  0.4269
 1752SOL    HW216719   0.133   3.217   5.726  1.3023 -0.4727  2.7427
 1753SOL     OW16720   3.059   3.582   7.777  0.2217  0.1614 -0.4933
 1753SOL    HW116721   2.982   3.623   7.737  2.1974  2.0263 -2.3705
 1753SOL    HW216722   3.033   3.604   7.866  1.0497  1.7617 -0.6610
 1754SOL     OW16723   4.474   1.485   7.909  0.1003 -0.0575  0.2149
 1754SOL    HW116724   4.502   1.571   7.942  3.5811 -0.3615 -1.9402
 1754SOL    HW216725   4.438   1.453   7.992 -1.6378  3.5028  0.8576
 1755SOL     OW16726   2.596   3.629  14.669 -0.1821 -0.0512  0.6428
 1755SOL    HW116727   2.515   3.579  14.657  1.4913 -1.5264 -4.5360
 1755SOL    HW216728   2.634   3.636  14.581 -0.9404 -0.7752  0.2463
 1756SOL     OW16729   0.626   3.282   5.480  0.2754 -0.4042 -0.1532
 1756SOL    HW116730   0.632   3.204   5.535  2.2240  1.6939  2.5663
 1756SOL    HW216731   0.701   3.337   5.501  0.7241 -1.4385  0.9880
 1757SOL     OW16732   4.024   1.233   1.112  0.1557  0.3504 -0.2748
 1757SOL    HW116733   4.002   1.222   1.204  1.2428  0.2580 -0.0242
 1757SOL    HW216734   4.095   1.171   1.093  0.1916  0.0989  0.6864
 1758SOL     OW16735   0.333   2.615   1.662  0.0356  0.3293  0.1780
 1758SOL    HW116736   0.350   2.535   1.612 -1.4549  0.4581 -0.5392
 1758SOL    HW216737   0.414   2.655   1.693  0.6300 -0.4663 -0.3808
 1759SOL     OW16738   4.316   3.480   3.512  0.1928  0.2750  0.4370
 1759SOL    HW116739   4.406   3.510   3.521  0.6579 -0.9245 -0.3347
 1759SOL    HW216740   4.292   3.460   3.603  1.1890 -1.3130  0.3436
 1760SOL     OW16741   0.410   2.766   4.046 -0.2869 -0.5567 -0.3208
 1760SOL    HW116742   0.377   2.826   3.979 -1.9664  0.3012  1.2969
 1760SOL    HW216743   0.447   2.699   3.988  0.9491 -0.3307  0.1980
 1761SOL     OW16744   0.806   0.596   0.702 -0.3956  0.0341 -0.3565
 1761SOL    HW116745   0.827   0.526   0.640 -4.0306 -0.9438 -0.4912
 1761SOL    HW216746   0.729   0.628   0.656  0.3709  0.5937 -1.2675
 1762SOL     OW16747   1.715   0.321   3.482  0.8349  0.2004  0.6854
 1762SOL    HW116748   1.790   0.357   3.435  0.7535  0.7450  0.9767
 1762SOL    HW216749   1.762   0.301   3.564  1.1000  0.2897  0.5562
 1763SOL     OW16750   2.187   2.635   5.700 -0.6736  0.0134  0.4081
 1763SOL    HW116751   2.160   2.727   5.698 -0.4110  0.1026  0.8427
 1763SOL    HW216752   2.169   2.617   5.608  0.5343 -1.8685  0.5373
 1764SOL     OW16753   0.507   1.280  10.470  0.1244 -0.5291  0.3106
 1764SOL    HW116754   0.439   1.213  10.467 -0.8330  0.5433 -2.0080
 1764SOL    HW216755   0.538   1.268  10.560  4.3752  0.8245 -0.9710
 1765SOL     OW16756   0.589   0.861   6.267  0.5256 -0.4262 -0.0613
 1765SOL    HW116757   0.550   0.774   6.256 -1.4907  0.3934  0.6172
 1765SOL    HW216758   0.545   0.879   6.350 -0.9038  0.5935 -1.0227
 1766SOL     OW16759   1.029   0.921   6.622  0.6187 -0.3849 -0.3844
 1766SOL    HW116760   0.972   0.856   6.582 -0.3284 -1.4836  2.7411
 1766SOL    HW216761   0.979   0.944   6.700  0.1005 -1.5310 -0.3892
 1767SOL     OW16762   2.906   1.094   4.437  0.1729  0.6384  0.0015
 1767SOL    HW116763   2.957   1.091   4.518  0.5670  0.4962 -0.2492
 1767SOL    HW216764   2.830   1.146   4.463 -0.5614  0.4406 -1.6944
 1768SOL     OW16765   0.879   2.563  10.809 -0.2679 -0.9169 -0.1910
 1768SOL    HW116766   0.883   2.557  10.714 -0.5159  0.1844 -0.2712
 1768SOL    HW216767   0.966   2.535  10.835  0.3100  2.6665  1.7424
 1769SOL     OW16768   4.392   3.781   1.848  0.0260 -0.1451  0.0770
 1769SOL    HW116769   4.369   3.842   1.917 -0.9865 -1.2137  0.6855
 1769SOL    HW216770   4.372   3.833   1.770  0.3942  1.3231  0.9785
 1770SOL     OW16771   3.333   3.082   8.733  0.1931  0.0981 -0.4597
 1770SOL    HW116772   3.263   3.053   8.792  0.7049  2.7627  1.4422
 1770SOL    HW216773   3.288   3.073   8.649 -0.1004  2.0696 -0.5349
 1771SOL     OW16774   0.990   1.234   6.558  0.7620 -0.0283 -0.2845
 1771SOL    HW116775   1.027   1.177   6.625 -0.3038 -1.0322 -0.5579
 1771SOL    HW216776   0.901   1.206   6.539  0.7509 -0.2341  0.0695
 1772SOL     OW16777   0.944   2.661   5.341 -0.3512  0.2655  0.4912
 1772SOL    HW116778   1.009   2.631   5.403 -0.4997 -0.8945  0.1001
 1772SOL    HW216779   0.935   2.744   5.386  0.2306  0.6108 -0.0263
 1773SOL     OW16780   0.302   3.397   8.421 -0.0760 -0.1423  0.3289
 1773SOL    HW116781   0.214   3.424   8.445  0.4329 -0.3537  2.4119
 1773SOL    HW216782   0.337   3.355   8.500  0.7603  0.9480  0.5358
 1774SOL     OW16783   1.793   1.543   3.921 -0.6649 -0.1718 -0.3942
 1774SOL    HW116784   1.809   1.514   3.832  2.1828  0.8469 -0.2196
 1774SOL    HW216785   1.824   1.633   3.927  1.4796 -0.9667  0.3437
 1775SOL     OW16786   1.350   3.100   2.193  0.3063  0.2293  0.8712
 1775SOL    HW116787   1.414   3.109   2.263  2.3056 -0.8762 -0.8259
 1775SOL    HW216788   1.313   3.189   2.189  0.4813  0.1321 -3.2123
 1776SOL     OW16789   0.054   2.796   2.897 -0.6982  0.1326 -0.2087
 1776SOL    HW116790   0.123   2.861   2.913 -0.8730  0.4999 -0.9452
 1776SOL    HW216791   0.010   2.834   2.821  1.0220 -1.8936 -2.2049
 1777SOL     OW16792   2.240   1.110  17.512 -0.3590  0.1024  0.7159
 1777SOL    HW116793   2.250   1.203  17.489  1.8891  0.4427  3.0150
 1777SOL    HW216794   2.264   1.111  17.605  1.0478 -1.0743  0.3809
 1778SOL     OW16795   2.104   1.451   0.699 -0.1162 -0.2566 -0.3763
 1778SOL    HW116796   2.089   1.431   0.792  2.3960  0.7812  0.2500
 1778SOL    HW216797   2.051   1.530   0.692  2.2468  1.3412 -0.2385
 1779SOL     OW16798   2.353   3.478  14.697 -0.1618 -0.0660 -0.1330
 1779SOL    HW116799   2.294   3.539  14.654 -0.4118  0.8309  1.4530
 1779SOL    HW216800   2.314   3.394  14.674  1.4340 -0.3833 -1.6666
 1780SOL     OW16801   2.030   3.652  16.246 -0.2889 -0.3132 -0.1338
 1780SOL    HW116802   1.983   3.734  16.255 -0.3314 -0.2244 -1.1151
 1780SOL    HW216803   1.954   3.596  16.230  0.0041 -0.4126 -1.2097
 1781SOL     OW16804   3.688   1.939  14.220  0.0996 -0.1215 -0.0753
 1781SOL    HW116805   3.780   1.912  14.218  0.0262 -0.2605 -1.8664
 1781SOL    HW216806   3.643   1.888  14.153  1.4541 -0.4022 -0.7692
 1782SOL     OW16807   0.563   3.970   3.949  0.1244  0.0346  0.0459
 1782SOL    HW116808   0.639   4.028   3.946 -0.2486  0.7048  3.4891
 1782SOL    HW216809   0.504   4.027   3.999  0.3062  0.8632 -0.6727
 1783SOL     OW16810   4.557   0.622   2.782  0.3249 -0.8491 -0.9001
 1783SOL    HW116811   4.628   0.589   2.837 -1.8007  0.1984  2.4708
 1783SOL    HW216812   4.523   0.698   2.829  0.9200 -2.1486  1.6118
 1784SOL     OW16813   3.854   2.155   5.885 -0.2799  0.4894  0.5947
 1784SOL    HW116814   3.760   2.155   5.868  0.1128 -1.2549 -1.5992
 1784SOL    HW216815   3.883   2.224   5.826  1.3463  0.3682  1.2399
 1785SOL     OW16816   0.459   4.048   8.478  0.0394  0.6189  0.6951
 1785SOL    HW116817   0.412   4.030   8.397 -1.9221  1.6703  1.5845
 1785SOL    HW216818   0.419   4.134   8.491 -0.4105  0.7464 -1.4842
 1786SOL     OW16819   1.470   0.220   8.156 -0.2151  0.3927  0.0601
 1786SOL    HW116820   1.439   0.256   8.073 -1.2849  2.5063  1.3592
 1786SOL    HW216821   1.425   0.136   8.149 -0.4192  0.8453 -3.8585
 1787SOL     OW16822   1.971   1.233  15.084 -0.0100  0.0820  0.0030
 1787SOL    HW116823   1.894   1.257  15.031  0.2400 -1.6104 -1.1408
 1787SOL    HW216824   1.929   1.215  15.168 -1.4725 -0.7404 -0.8830
 1788SOL     OW16825   2.329   1.172   0.109  0.1256 -0.0409 -0.1942
 1788SOL    HW116826   2.414   1.187   0.151  0.6021 -0.7904 -0.9098
 1788SOL    HW216827   2.319   1.257   0.066 -2.3314 -0.5908 -0.6944
 1789SOL     OW16828   1.027   1.499   8.018  0.3239  0.6025 -0.9862
 1789SOL    HW116829   1.039   1.594   8.013  3.1403  0.3814  1.5026
 1789SOL    HW216830   0.932   1.498   8.015  0.3163 -0.3977 -0.2611
 1790SOL     OW16831   0.598   3.752   2.110 -0.4402  0.3694 -0.1921
 1790SOL    HW116832   0.521   3.794   2.071 -0.4450  0.4526 -0.0932
 1790SOL    HW216833   0.579   3.658   2.106  1.8547 -0.1558  1.2187
 1791SOL     OW16834   0.001   2.813   4.659 -0.4121 -0.3885  0.2421
 1791SOL    HW116835   0.035   2.870   4.728  0.2639  0.0868 -0.4890
 1791SOL    HW216836   4.689   2.875   4.596  1.6983 -2.9174 -3.4407
 1792SOL     OW16837   1.314   4.180   9.208  0.0618 -0.1409  0.6069
 1792SOL    HW116838   1.241   4.178   9.270 -1.4452 -4.5464 -1.2720
 1792SOL    HW216839   1.335   4.086   9.214 -3.3038 -0.7986  1.9490
 1793SOL     OW16840   3.890   0.249   0.047  0.0713  0.5342 -0.3682
 1793SOL    HW116841   3.864   0.323   0.101  0.1189 -0.4620  1.0076
 1793SOL    HW216842   3.818   0.193   0.074  0.2300  0.4825 -0.0613
 1794SOL     OW16843   0.011   1.466   9.083  0.0273  0.2314  0.8083
 1794SOL    HW116844   4.664   1.407   9.059  0.8823 -0.9510  1.2370
 1794SOL    HW216845   4.697   1.540   9.131 -1.2398 -0.9623  1.6211
 1795SOL     OW16846   0.976   0.340   5.375  0.5128  0.3569 -0.5443
 1795SOL    HW116847   1.067   0.347   5.347  1.1790 -0.4204  1.3730
 1795SOL    HW216848   0.952   0.432   5.376  1.3402  0.5500  2.3308
 1796SOL     OW16849   1.371   0.317   4.028 -0.3353 -0.6930 -0.2367
 1796SOL    HW116850   1.390   0.245   3.968 -1.3377 -1.5252  0.4707
 1796SOL    HW216851   1.383   0.386   3.962  1.9830 -0.5724  0.3206
 1797SOL     OW16852   1.832   0.568  14.548  0.1675 -0.1674  0.5388
 1797SOL    HW116853   1.911   0.603  14.507 -0.0466 -0.6302 -0.2602
 1797SOL    HW216854   1.772   0.637  14.517 -0.6477 -1.7757 -1.4145
 1798SOL     OW16855   1.380   0.732   3.998  0.8278  0.3166  0.1119
 1798SOL    HW116856   1.427   0.747   4.080  0.5466  0.9905  0.1467
 1798SOL    HW216857   1.427   0.654   3.967  0.3370 -1.0098  2.6954
 1799SOL     OW16858   3.355   1.669  13.335  0.9590  0.8018 -0.0722
 1799SOL    HW116859   3.283   1.625  13.288 -0.3954  1.7084  1.1682
 1799SOL    HW216860   3.308   1.745  13.370 -0.6863 -0.4262  0.4032
 1800SOL     OW16861   2.992   0.829   7.737 -0.5019 -0.3026  0.6502
 1800SOL    HW116862   2.985   0.754   7.796 -0.5007 -0.4255  0.4948
 1800SOL    HW216863   2.978   0.898   7.802 -2.3203  0.4169 -0.4981
 1801SOL     OW16864   4.686   0.719  11.887 -0.4542  0.0943  0.3254
 1801SOL    HW116865   0.021   0.676  11.949  0.6002 -0.8817 -1.3678
 1801SOL    HW216866   4.648   0.644  11.842  0.6269  0.0873 -0.5623
 1802SOL     OW16867   0.310   1.753   4.248 -0.3217 -0.2560  0.6191
 1802SOL    HW116868   0.235   1.701   4.219  0.5314 -0.5655 -1.0533
 1802SOL    HW216869   0.270   1.831   4.285  0.8404  1.2372 -1.2473
 1803SOL     OW16870   2.939   2.885  14.672  0.2497  0.3544  0.1337
 1803SOL    HW116871   3.013   2.831  14.642  0.5228  0.2621  0.9672
 1803SOL    HW216872   2.966   2.915  14.759  1.8440 -1.5700  0.3181
 1804SOL     OW16873   1.564   3.602   6.245  0.5858  0.4403  0.1938
 1804SOL    HW116874   1.544   3.552   6.166 -0.8784  0.4671  0.5454
 1804SOL    HW216875   1.546   3.540   6.316 -0.9986  2.6794  1.7364
 1805SOL     OW16876   3.941   2.945  17.323 -0.0421  0.0363 -0.5782
 1805SOL    HW116877   3.866   2.902  17.365 -1.1553  2.6677  0.1026
 1805SOL    HW216878   3.974   2.877  17.263 -0.5076 -0.0511 -0.7344
 1806SOL     OW16879   1.895   4.573   4.886 -0.1823  0.2682 -0.2189
 1806SOL    HW116880   1.836   4.646   4.904 -1.4324 -1.0908  1.2178
 1806SOL    HW216881   1.946   4.609   4.814 -2.5999  2.6477 -0.7500
 1807SOL     OW16882   2.996   4.069  13.402 -0.1471  0.1004 -0.4060
 1807SOL    HW116883   3.079   4.045  13.361  0.9472  2.1808  0.5688
 1807SOL    HW216884   2.954   3.983  13.400  1.0997 -0.4908 -1.0586
 1808SOL     OW16885   0.674   1.009  15.120 -0.2375 -0.5994  0.7851
 1808SOL    HW116886   0.641   1.010  15.210  0.9791  2.9607  1.1695
 1808SOL    HW216887   0.653   0.918  15.099  0.7661 -0.3978 -1.0303
 1809SOL     OW16888   1.707   2.177  17.490  0.1025 -0.3672  0.4378
 1809SOL    HW116889   1.633   2.167  17.430  1.2715  0.3595 -1.1454
 1809SOL    HW216890   1.752   2.239  17.432 -2.6139 -0.6518 -2.0193
 1810SOL     OW16891   3.215   0.215  16.892  0.2360  0.5873  0.6661
 1810SOL    HW116892   3.268   0.295  16.892  1.8821 -0.4996  0.0586
 1810SOL    HW216893   3.232   0.196  16.984 -1.8382  0.2936  0.9964
 1811SOL     OW16894   2.897   0.162   9.432 -0.0345 -0.1482  0.3714
 1811SOL    HW116895   2.968   0.122   9.383 -0.3155  0.2265 -0.3376
 1811SOL    HW216896   2.942   0.176   9.515  0.9611  1.7971 -0.5000
 1812SOL     OW16897   0.516   0.231   4.147  0.4429 -0.1206 -0.1708
 1812SOL    HW116898   0.543   0.152   4.100 -2.1611 -1.2437  0.2715
 1812SOL    HW216899   0.571   0.225   4.225 -0.2328 -0.3624  0.2843
 1813SOL     OW16900   3.224   0.840   2.130 -0.0010 -0.3177 -0.1047
 1813SOL    HW116901   3.313   0.851   2.163 -0.5993 -0.9255  1.7161
 1813SOL    HW216902   3.183   0.861   2.214 -0.3467  0.8683 -0.5828
 1814SOL     OW16903   0.192   1.497  17.410  0.2706  0.2932  0.1245
 1814SOL    HW116904   0.241   1.444  17.347  2.1402 -1.4259  3.0008
 1814SOL    HW216905   0.136   1.547  17.350 -0.2344 -0.1110  0.2570
 1815SOL     OW16906   1.824   2.496   3.098 -0.1009  0.1373  0.2823
 1815SOL    HW116907   1.849   2.572   3.150  0.3492 -0.8621  1.5415
 1815SOL    HW216908   1.842   2.526   3.009 -0.0918  2.0091  0.9172
 1816SOL     OW16909   1.610   0.138   7.522  0.3316 -0.1008 -0.0138
 1816SOL    HW116910   1.515   0.132   7.513  0.2979  0.6371 -0.1882
 1816SOL    HW216911   1.631   0.157   7.431  0.1200  1.0942  0.1751
 1817SOL     OW16912   1.607   0.771   2.237  0.3725  0.1193 -0.6506
 1817SOL    HW116913   1.581   0.754   2.328  1.3675  0.3084 -0.3272
 1817SOL    HW216914   1.572   0.859   2.222  2.0784  0.6925 -1.2934
 1818SOL     OW16915   4.508   0.834   2.963  0.0942  0.1407  0.3878
 1818SOL    HW116916   4.516   0.899   3.033 -2.6208  0.1616  0.6837
 1818SOL    HW216917   4.413   0.831   2.952  0.0257  0.6662  0.8397
 1819SOL     OW16918   0.740   2.432   5.333  1.0219 -0.2090  0.2379
 1819SOL    HW116919   0.747   2.509   5.275  1.1273  0.8659  1.6793
 1819SOL    HW216920   0.652   2.431   5.370 -0.0177 -0.1394 -2.2131
 1820SOL     OW16921   3.821   2.057   4.333  0.3288  0.6140 -0.1440
 1820SOL    HW116922   3.733   2.025   4.313  0.8396 -1.4544  0.9085
 1820SOL    HW216923   3.804   2.135   4.386 -0.0288 -0.7724  1.7822
 1821SOL     OW16924   4.648   3.967   1.636 -0.4061  0.4045  0.4702
 1821SOL    HW116925   4.554   3.955   1.633 -0.4522  0.9398 -0.3999
 1821SOL    HW216926   4.662   3.908   1.561  0.4976 -1.0461  1.7844
 1822SOL     OW16927   4.341   1.423  11.481 -0.1783  0.5964 -0.4309
 1822SOL    HW116928   4.300   1.507  11.503  1.5852  1.0541  1.0459
 1822SOL    HW216929   4.263   1.369  11.467  0.8892 -1.6285  2.2670
 1823SOL     OW16930   1.707   4.614   7.802 -0.1321  0.1245  0.4018
 1823SOL    HW116931   1.790   4.574   7.825 -0.5095 -0.2746  1.0758
 1823SOL    HW216932   1.718   4.700   7.843 -0.1149  0.6387 -0.6849
 1824SOL     OW16933   0.244   2.805   5.848  0.5579 -0.1429  0.4644
 1824SOL    HW116934   0.237   2.795   5.943 -0.3837  0.2583  0.4348
 1824SOL    HW216935   0.261   2.899   5.841  0.4688 -0.2276 -0.8640
 1825SOL     OW16936   1.066   2.426   0.812 -0.0799  0.0406 -0.3705
 1825SOL    HW116937   1.030   2.370   0.881 -2.3963  0.1588 -1.4730
 1825SOL    HW216938   1.094   2.360   0.748 -1.8382 -1.2199  0.1658
 1826SOL     OW16939   2.951   1.593   1.430  0.3002  0.3410 -0.1372
 1826SOL    HW116940   2.950   1.585   1.334  1.3206 -2.5977  0.1194
 1826SOL    HW216941   2.918   1.683   1.441 -1.2912 -0.3127  0.3861
 1827SOL     OW16942   3.697   3.019  16.975  0.3089 -0.7645 -0.0351
 1827SOL    HW116943   3.687   3.022  17.070 -3.3398  4.3153 -0.6073
 1827SOL    HW216944   3.771   2.958  16.974  2.2765  1.6164 -0.6418
 1828SOL     OW16945   1.551   2.146   6.144 -0.1668 -0.0985  0.5304
 1828SOL    HW116946   1.628   2.090   6.131 -0.5494 -0.0162 -2.1862
 1828SOL    HW216947   1.518   2.145   6.054  1.7069 -2.8725 -0.1403
 1829SOL     OW16948   0.353   4.349  12.929  0.5143  0.1620 -0.1349
 1829SOL    HW116949   0.302   4.321  13.004  0.0237  1.8946  0.1747
 1829SOL    HW216950   0.431   4.294  12.941  1.1226  0.7818 -1.2146
 1830SOL     OW16951   3.240   0.810   7.596 -0.0634  0.2853 -0.2256
 1830SOL    HW116952   3.150   0.815   7.628  0.0656 -3.3987  0.6600
 1830SOL    HW216953   3.226   0.772   7.510 -0.2409  1.0944 -0.5572
 1831SOL     OW16954   3.450   3.384  14.932 -0.4752  0.3319  0.6640
 1831SOL    HW116955   3.377   3.423  14.979  0.1983  2.1946  0.1934
 1831SOL    HW216956   3.521   3.434  14.972  0.7495  1.2073 -2.5446
 1832SOL     OW16957   3.901   1.866   6.925  0.3359  0.1527 -0.3857
 1832SOL    HW116958   3.863   1.840   6.840 -0.0013 -1.0978  0.1397
 1832SOL    HW216959   3.867   1.955   6.934 -2.0221 -0.4735 -2.8758
 1833SOL     OW16960   0.693   2.213   0.295  0.2312 -0.3933  0.1531
 1833SOL    HW116961   0.603   2.231   0.323  0.7863  3.2700 -0.3027
 1833SOL    HW216962   0.689   2.119   0.280 -1.2558 -0.0607 -1.5666
 1834SOL     OW16963   4.048   4.141  11.888  0.3186 -0.2606 -0.2702
 1834SOL    HW116964   3.955   4.152  11.869  0.6066  0.9690 -0.9965
 1834SOL    HW216965   4.103   4.148  11.809  1.1356 -0.2050  0.3013
 1835SOL     OW16966   0.603   2.112   4.753 -0.2343  0.2317  0.2133
 1835SOL    HW116967   0.628   2.204   4.741  2.9961 -0.5698  0.7804
 1835SOL    HW216968   0.670   2.086   4.816 -0.7369  1.1868  1.1392
 1836SOL     OW16969   3.082   3.278   9.557 -0.4390 -0.0567  1.0051
 1836SOL    HW116970   3.098   3.371   9.575  2.2459 -0.0410 -1.5624
 1836SOL    HW216971   3.128   3.271   9.474  0.5316 -0.2225  1.5562
 1837SOL     OW16972   3.079   2.158   6.618 -0.7965  0.2308 -0.2371
 1837SOL    HW116973   3.161   2.128   6.579 -1.4671  1.9436 -2.9102
 1837SOL    HW216974   3.096   2.131   6.709 -2.1897 -1.2343 -0.4188
 1838SOL     OW16975   4.395   0.796   2.111  0.1892 -0.6548  0.0291
 1838SOL    HW116976   4.464   0.750   2.159  0.8685  0.9098  0.5488
 1838SOL    HW216977   4.356   0.722   2.065 -0.9003 -1.1121  1.6516
 1839SOL     OW16978   2.877   1.324   4.971 -0.3637 -0.3180  0.2599
 1839SOL    HW116979   2.841   1.362   4.891 -0.0284 -0.9453 -0.1855
 1839SOL    HW216980   2.827   1.243   4.974  0.6850 -1.0903 -3.2842
 1840SOL     OW16981   0.592   2.779  15.878 -0.5321  0.1722  0.3398
 1840SOL    HW116982   0.588   2.871  15.905  0.0661  1.1828 -3.0664
 1840SOL    HW216983   0.678   2.774  15.837 -1.5289 -0.8867 -1.6109
 1841SOL     OW16984   2.472   2.353  15.732  0.3309  0.6890 -0.0178
 1841SOL    HW116985   2.396   2.400  15.767 -1.1636 -2.3305  0.7787
 1841SOL    HW216986   2.454   2.376  15.641 -2.8805  0.8670  0.6461
 1842SOL     OW16987   3.800   3.321   2.531  0.1983  0.3348  0.3381
 1842SOL    HW116988   3.794   3.228   2.508 -0.0080  0.6316 -0.8007
 1842SOL    HW216989   3.854   3.332   2.609  0.8420 -0.2199 -0.0291
 1843SOL     OW16990   3.151   3.704  11.516 -1.0733 -0.2437 -0.6607
 1843SOL    HW116991   3.064   3.738  11.537 -1.2504 -1.8148  1.1354
 1843SOL    HW216992   3.140   3.653  11.436  2.7029 -0.9498 -0.7211
 1844SOL     OW16993   0.086   2.676   6.699  0.2089  0.3223 -0.3348
 1844SOL    HW116994   0.165   2.729   6.685 -0.3974  0.3900 -3.5675
 1844SOL    HW216995   0.047   2.734   6.764 -1.3284 -0.3916 -0.6149
 1845SOL     OW16996   1.854   4.252   7.756 -0.0199  0.3363  0.2887
 1845SOL    HW116997   1.872   4.322   7.693  2.1838 -1.4203 -1.0311
 1845SOL    HW216998   1.871   4.299   7.837  1.9480  2.6557 -1.4475
 1846SOL     OW16999   0.092   4.245   2.558  0.4035 -0.8171 -0.0144
 1846SOL    HW117000   0.081   4.258   2.652 -1.5873 -0.0433 -0.3627
 1846SOL    HW217001   0.093   4.336   2.528  1.7873 -0.6129  0.6530
 1847SOL     OW17002   3.286   1.758   8.512 -0.6945 -0.1712  0.5012
 1847SOL    HW117003   3.206   1.810   8.512  0.0431  0.9501  0.9285
 1847SOL    HW217004   3.317   1.770   8.601  1.0215 -1.3529  0.0560
 1848SOL     OW17005   0.987   3.938   8.781  0.0879  0.3388 -0.0597
 1848SOL    HW117006   0.918   3.982   8.731  0.3595 -1.7792 -2.2908
 1848SOL    HW217007   1.064   3.937   8.725  0.2941  0.2446  0.2252
 1849SOL     OW17008   4.628   0.819   6.002  0.0830 -0.1608  0.8585
 1849SOL    HW117009   4.720   0.830   6.028  0.4268 -2.2191  0.5481
 1849SOL    HW217010   4.637   0.832   5.908 -0.2898 -1.0302  0.6972
 1850SOL     OW17011   4.570   4.214  13.408  0.4099  0.0900 -0.0861
 1850SOL    HW117012   4.584   4.137  13.464 -0.2927 -2.2173 -3.1164
 1850SOL    HW217013   4.628   4.191  13.336  0.8047 -1.5033  0.7327
 1851SOL     OW17014   2.780   0.604   1.292 -0.4797 -0.7455  0.5243
 1851SOL    HW117015   2.702   0.571   1.336 -1.6865  1.9143  0.3630
 1851SOL    HW217016   2.754   0.576   1.204 -2.4505 -1.9161  1.4706
 1852SOL     OW17017   1.659   0.794   4.804  0.5734  0.5121  0.6646
 1852SOL    HW117018   1.725   0.841   4.855  1.1728 -1.0195  1.3241
 1852SOL    HW217019   1.573   0.816   4.840  0.7224  2.8568 -0.4238
 1853SOL     OW17020   1.856   1.095   8.002 -0.3339  0.3624  0.4588
 1853SOL    HW117021   1.826   1.183   8.023 -0.1034  0.7611 -0.8607
 1853SOL    HW217022   1.908   1.083   8.082 -0.4582  0.3202  0.5330
 1854SOL     OW17023   4.027   1.380   4.969 -0.2241 -0.4834  0.9814
 1854SOL    HW117024   3.942   1.413   4.941 -0.4502 -1.4399  0.5336
 1854SOL    HW217025   4.036   1.451   5.032  0.8492  1.7919 -1.7476
 1855SOL     OW17026   4.584   4.586   9.792 -0.6263 -0.4279 -0.4243
 1855SOL    HW117027   4.553   4.630   9.871  0.4662  1.1361 -0.8559
 1855SOL    HW217028   4.547   4.651   9.731 -1.4509 -1.9283 -1.5265
 1856SOL     OW17029   1.614   1.325  15.204 -0.2898  0.5154 -0.1229
 1856SOL    HW117030   1.545   1.303  15.266 -0.2825 -0.6768 -0.5205
 1856SOL    HW217031   1.687   1.333  15.266 -0.2968  0.4727 -0.1087
 1857SOL     OW17032   2.254   2.921  16.760 -0.3809  0.7707  0.1638
 1857SOL    HW117033   2.196   2.952  16.691 -0.5175 -0.4998 -0.2854
 1857SOL    HW217034   2.234   2.828  16.760 -1.0217  0.9045 -0.2894
 1858SOL     OW17035   1.390   1.109   4.667  0.5361  0.2018 -0.4903
 1858SOL    HW117036   1.296   1.111   4.652  0.3228  2.0457  0.9971
 1858SOL    HW217037   1.419   1.191   4.625  0.2497  0.6482  0.1876
 1859SOL     OW17038   1.152   0.541  10.333  0.3801 -0.1614  0.3364
 1859SOL    HW117039   1.062   0.509  10.327  0.6538 -0.6914 -0.9579
 1859SOL    HW217040   1.197   0.483  10.271  3.3936 -0.0822  2.4276
 1860SOL     OW17041   0.484   4.658   6.862 -0.2020  0.0330 -0.1329
 1860SOL    HW117042   0.522   0.005   6.809  1.1861  0.0999  0.9532
 1860SOL    HW217043   0.431   4.707   6.924 -2.7504 -0.9536 -1.5567
 1861SOL     OW17044   0.324   0.867   7.943 -0.1902  0.2979 -0.2412
 1861SOL    HW117045   0.294   0.929   8.009  0.6022  1.1027 -0.6385
 1861SOL    HW217046   0.411   0.842   7.974 -0.1632 -0.4881 -0.9239
 1862SOL     OW17047   2.155   4.680  10.189  0.1957 -0.1936 -0.7057
 1862SOL    HW117048   2.134   0.027  10.128 -2.3087  0.5122  0.9959
 1862SOL    HW217049   2.141   4.606  10.130  0.6499  0.2232 -1.3433
 1863SOL     OW17050   3.097   0.069  15.212 -0.1196  0.3450 -0.0343
 1863SOL    HW117051   3.094   0.035  15.122  0.3596 -1.5499  0.6670
 1863SOL    HW217052   3.143   0.006  15.268  2.1222  1.6364 -0.3882
 1864SOL     OW17053   2.152   0.955   4.856 -0.1741  0.4022  1.0051
 1864SOL    HW117054   2.224   1.000   4.899 -0.5645 -1.5070  3.6119
 1864SOL    HW217055   2.185   0.936   4.768  1.5705  0.9005  1.5539
 1865SOL     OW17056   2.535   4.373   3.866  0.2292  0.2423  0.4808
 1865SOL    HW117057   2.573   4.339   3.947  1.9576 -1.2361 -0.9442
 1865SOL    HW217058   2.497   4.455   3.899  0.1174  1.1744 -1.9710
 1866SOL     OW17059   0.499   3.852   5.430 -0.0438 -0.3979  0.1134
 1866SOL    HW117060   0.537   3.764   5.432  2.9676  0.9102  0.4093
 1866SOL    HW217061   0.479   3.860   5.337 -0.9211 -1.8933  0.1715
 1867SOL     OW17062   1.922   2.511   8.628 -0.6684  0.4159 -0.3484
 1867SOL    HW117063   1.889   2.434   8.582 -0.7175  1.0411 -1.3478
 1867SOL    HW217064   1.859   2.516   8.700 -1.5527 -0.0035 -1.0955
 1868SOL     OW17065   2.048   2.248   7.201  0.0799  0.0747  0.2014
 1868SOL    HW117066   2.073   2.268   7.291  0.1681  1.0042 -0.0211
 1868SOL    HW217067   2.078   2.331   7.161  1.1722 -0.6677 -0.5281
 1869SOL     OW17068   1.369   1.884  17.333  0.1249 -0.1427  0.4387
 1869SOL    HW117069   1.358   1.976  17.357 -2.2485 -0.5789  1.0210
 1869SOL    HW217070   1.300   1.850  17.390 -1.4761 -0.5157 -1.7676
 1870SOL     OW17071   1.397   1.439   3.236  0.6585 -0.0039  0.2107
 1870SOL    HW117072   1.473   1.431   3.179  0.8020 -0.8331  0.5191
 1870SOL    HW217073   1.330   1.410   3.174  0.6833 -0.5900  0.4588
 1871SOL     OW17074   2.431   4.062  12.845  0.1377  0.1723  0.3332
 1871SOL    HW117075   2.464   4.152  12.842  0.3717  0.0559 -0.5099
 1871SOL    HW217076   2.433   4.041  12.752  1.0369  1.4156  0.0684
 1872SOL     OW17077   4.665   3.786  14.255  0.4436  0.4800 -0.6268
 1872SOL    HW117078   0.026   3.789  14.300  0.8018  1.4258 -1.3679
 1872SOL    HW217079   4.601   3.770  14.324  0.2663  0.0582 -0.8942
 1873SOL     OW17080   1.733   0.444   7.179 -0.4450 -0.3181 -0.2081
 1873SOL    HW117081   1.800   0.512   7.182  0.3234 -0.9252 -3.6210
 1873SOL    HW217082   1.734   0.407   7.091 -2.2840  0.2133 -0.4503
 1874SOL     OW17083   3.342   4.202   1.119  0.2345 -0.1009 -0.3130
 1874SOL    HW117084   3.385   4.239   1.196 -1.5757 -0.7971  1.0375
 1874SOL    HW217085   3.275   4.143   1.153 -0.2180  1.0655  0.7794
 1875SOL     OW17086   4.153   3.344   8.245  0.7823 -0.0691 -0.6172
 1875SOL    HW117087   4.224   3.287   8.276  2.4410  1.5978 -1.2814
 1875SOL    HW217088   4.112   3.375   8.325  2.2676  0.6889 -0.1352
 1876SOL     OW17089   1.722   1.584   7.409  0.7812 -0.0165  0.0676
 1876SOL    HW117090   1.751   1.504   7.366 -2.6046 -2.2107  1.7661
 1876SOL    HW217091   1.733   1.564   7.502 -0.9121 -0.4157  0.1906
 1877SOL     OW17092   0.106   1.217   1.421  0.4639  0.1116 -0.5161
 1877SOL    HW117093   0.111   1.299   1.470 -1.5765 -0.2935  0.3227
 1877SOL    HW217094   0.190   1.228   1.375 -0.2905  1.4287 -1.5886
 1878SOL     OW17095   2.206   4.615   0.868  0.0859  0.4092 -0.2722
 1878SOL    HW117096   2.226   4.690   0.812  0.6869 -0.0649 -0.6783
 1878SOL    HW217097   2.285   4.565   0.847  1.3525  2.1192  0.4447
 1879SOL     OW17098   2.334   0.318   2.993 -0.1529  0.0417  0.1795
 1879SOL    HW117099   2.279   0.267   2.934  2.1442 -2.9553  0.6622
 1879SOL    HW217100   2.300   0.407   2.978 -2.4630 -1.2165 -1.9554
 1880SOL     OW17101   3.584   1.987   4.246 -0.3675 -0.1729  0.5225
 1880SOL    HW117102   3.509   1.931   4.263  0.8077 -1.9614 -0.1666
 1880SOL    HW217103   3.553   2.030   4.167 -1.5016  2.0485  2.1757
 1881SOL     OW17104   1.799   0.323   2.873 -0.0922  0.8361 -0.5896
 1881SOL    HW117105   1.708   0.346   2.892  0.3654  1.9143  0.2665
 1881SOL    HW217106   1.779   0.292   2.785  0.6333 -0.2104 -0.3976
 1882SOL     OW17107   1.039   3.754   5.116 -0.2834 -0.1690 -0.6261
 1882SOL    HW117108   1.100   3.818   5.080 -0.4410  0.7850  0.8150
 1882SOL    HW217109   0.970   3.741   5.051  0.4228 -0.7288 -1.2706
 1883SOL     OW17110   1.800   0.389   3.136  0.5120 -0.1503  0.9196
 1883SOL    HW117111   1.819   0.356   3.048  1.3471  0.1171  1.0024
 1883SOL    HW217112   1.725   0.447   3.128 -1.4857 -2.7086  1.0294
 1884SOL     OW17113   0.916   2.956   1.403  0.0008  0.2273 -0.0651
 1884SOL    HW117114   0.827   2.920   1.406  0.7844 -1.7566 -0.3143
 1884SOL    HW217115   0.905   3.051   1.404 -0.7949  0.1225  0.4216
 1885SOL     OW17116   0.571   3.084   4.271 -0.3232  0.6358 -0.4666
 1885SOL    HW117117   0.602   3.007   4.224  1.2992 -0.4820  2.4020
 1885SOL    HW217118   0.541   3.140   4.200 -1.1822 -2.6572 -2.7109
 1886SOL     OW17119   1.218   2.902   2.504  0.4909  0.7472  0.3475
 1886SOL    HW117120   1.139   2.858   2.471  0.2250  1.0999  0.5128
 1886SOL    HW217121   1.275   2.905   2.428  0.4770 -0.0130  0.3112
 1887SOL     OW17122   4.132   1.199  14.420  0.2201  0.2797  0.1145
 1887SOL    HW117123   4.121   1.118  14.470 -0.5683  0.5561  0.3860
 1887SOL    HW217124   4.198   1.163  14.360  2.7572  0.0115  3.0718
 1888SOL     OW17125   3.927   2.994   9.913  0.2602 -0.5293  0.6071
 1888SOL    HW117126   3.992   3.018   9.847  0.3389 -0.5963  0.6594
 1888SOL    HW217127   3.844   2.985   9.866  0.9989 -0.8397 -0.6344
 1889SOL     OW17128   0.996   2.075   1.849 -0.1541  0.1994  0.4845
 1889SOL    HW117129   0.942   2.080   1.770  0.4558  1.9284  0.1824
 1889SOL    HW217130   0.951   2.127   1.915  1.5325  1.9109  0.2772
 1890SOL     OW17131   2.205   0.942   6.308  0.0767  0.7290 -0.0149
 1890SOL    HW117132   2.115   0.973   6.301 -0.5562 -1.1408 -0.3083
 1890SOL    HW217133   2.205   0.854   6.270  2.6236  0.7889 -0.1302
 1891SOL     OW17134   2.231   2.679   3.901 -0.1834 -0.3887  0.2037
 1891SOL    HW117135   2.241   2.713   3.989  0.4332 -1.4837  0.5557
 1891SOL    HW217136   2.144   2.713   3.880  0.4275  0.5403 -0.7831
 1892SOL     OW17137   4.708   4.303  17.549  0.3591  0.0818  0.0575
 1892SOL    HW117138   0.039   4.246  17.497  1.0624 -0.4863  1.4257
 1892SOL    HW217139   4.637   4.318  17.486 -0.9218 -0.6700  1.3241
 1893SOL     OW17140   4.077   0.931   9.587 -0.0746  0.0306 -0.6017
 1893SOL    HW117141   4.016   0.867   9.625  0.9389 -1.6055 -1.7408
 1893SOL    HW217142   4.130   0.874   9.531 -1.7103 -5.1488  3.1159
 1894SOL     OW17143   2.963   1.009   4.189 -0.7563 -0.2862 -0.1409
 1894SOL    HW117144   2.878   1.038   4.155 -1.2176 -1.7435 -0.2310
 1894SOL    HW217145   2.942   1.024   4.281  0.5341 -1.1526  0.3018
 1895SOL     OW17146   4.588   0.999   2.665 -0.3619 -0.3980  0.0491
 1895SOL    HW117147   4.501   0.960   2.654 -1.0541  1.2956 -0.4712
 1895SOL    HW217148   4.601   0.999   2.760 -0.6131  0.3019  0.0781
 1896SOL     OW17149   4.231   1.406   2.783  0.2076  0.4055  0.2863
 1896SOL    HW117150   4.262   1.340   2.721  0.0217 -1.9920  2.7198
 1896SOL    HW217151   4.168   1.355   2.834  0.1171 -1.0157 -1.2729
 1897SOL     OW17152   1.070   4.435   5.340 -0.3450 -0.2890 -0.8055
 1897SOL    HW117153   1.101   4.381   5.413 -3.2610 -1.6208 -0.5594
 1897SOL    HW217154   0.993   4.382   5.316 -0.5024  1.2352 -3.6238
 1898SOL     OW17155   4.069   4.024   9.762  0.1570  0.1088 -0.1655
 1898SOL    HW117156   4.074   4.089   9.692  0.6961  0.3059  0.0559
 1898SOL    HW217157   4.099   3.945   9.717  1.6908  0.6836 -0.1513
 1899SOL     OW17158   2.521   3.752  14.149 -0.2295 -0.2952  0.3007
 1899SOL    HW117159   2.438   3.706  14.137 -0.2198 -0.6158  1.4793
 1899SOL    HW217160   2.580   3.677  14.152  1.6026  1.1198 -0.2346
 1900SOL     OW17161   2.443   0.613  14.906 -0.3792  0.1146  0.2406
 1900SOL    HW117162   2.500   0.544  14.941  2.1290  1.4740 -1.1875
 1900SOL    HW217163   2.491   0.617  14.824 -0.1499  0.5947  0.3993
 1901SOL     OW17164   4.209   1.642   3.997  0.8309  0.4235 -0.1954
 1901SOL    HW117165   4.117   1.636   3.968  0.3878 -0.7049  1.4539
 1901SOL    HW217166   4.240   1.561   3.956  0.0682 -0.1106  0.2703
 1902SOL     OW17167   3.555   4.051   8.675  0.1392 -0.3580  0.3759
 1902SOL    HW117168   3.646   4.038   8.700  0.5673 -0.5622 -1.2843
 1902SOL    HW217169   3.522   3.961   8.683  2.5742 -1.1313  1.7475
 1903SOL     OW17170   3.728   4.554   0.794 -0.0969  0.4214  0.8079
 1903SOL    HW117171   3.822   4.536   0.782 -0.4549  0.9687 -2.9212
 1903SOL    HW217172   3.721   4.634   0.845  0.1015  0.2346  1.1266
 1904SOL     OW17173   1.745   3.290   7.748 -0.0336  0.6184 -0.3689
 1904SOL    HW117174   1.810   3.353   7.779  3.0899 -2.3402 -0.8798
 1904SOL    HW217175   1.701   3.269   7.830  1.8309 -4.0501 -0.5541
 1905SOL     OW17176   2.399   1.025   4.957 -0.6633 -0.1329  0.2378
 1905SOL    HW117177   2.371   1.112   4.930  1.5175  0.2338 -0.8216
 1905SOL    HW217178   2.451   0.996   4.882  1.1383  1.5780  0.8185
 1906SOL     OW17179   1.725   4.683   3.421 -0.3002  0.2163  0.0958
 1906SOL    HW117180   1.642   4.677   3.374 -0.1874  0.0496 -0.0780
 1906SOL    HW217181   1.754   4.592   3.426 -0.7629  0.0308 -0.6684
 1907SOL     OW17182   3.420   3.584   5.343 -0.2885  0.2589  0.5919
 1907SOL    HW117183   3.507   3.558   5.311 -0.5463  0.3931 -0.2263
 1907SOL    HW217184   3.394   3.636   5.267 -1.1443 -1.3247 -0.2009
 1908SOL     OW17185   4.272   0.549   9.433 -0.2080  0.0541  0.3239
 1908SOL    HW117186   4.221   0.621   9.396 -1.8771 -0.8173  0.9507
 1908SOL    HW217187   4.363   0.572   9.416 -0.0722 -0.0657  0.8744
 1909SOL     OW17188   0.635   2.016   3.766  0.4429  0.1397 -0.0751
 1909SOL    HW117189   0.568   1.975   3.711 -1.0973  0.7595  1.3132
 1909SOL    HW217190   0.687   1.940   3.791  1.3473  0.9348  0.4770
 1910SOL     OW17191   2.852   1.186   6.775 -0.5451 -0.3438  0.0547
 1910SOL    HW117192   2.795   1.150   6.707 -0.3000 -1.2468  0.3372
 1910SOL    HW217193   2.821   1.277   6.777 -1.3903 -0.6314  0.2148
 1911SOL     OW17194   1.941   0.746   2.943  0.0836  0.3911 -0.3180
 1911SOL    HW117195   1.857   0.728   2.901  1.2636 -1.2151 -2.0488
 1911SOL    HW217196   1.988   0.806   2.885 -1.6725  0.7380 -1.3877
 1912SOL     OW17197   0.309   4.551   9.268  0.1036 -0.7142 -0.0268
 1912SOL    HW117198   0.342   4.547   9.178  1.7550 -1.0594  0.5817
 1912SOL    HW217199   0.299   4.647   9.270 -0.4893 -0.7426 -1.4723
 1913SOL     OW17200   2.559   0.692  15.581 -0.4134  0.4595 -0.1750
 1913SOL    HW117201   2.477   0.644  15.588  1.3575 -2.2535  1.9841
 1913SOL    HW217202   2.610   0.627  15.628 -0.9795 -0.6341 -1.0882
 1914SOL     OW17203   2.867   3.839  13.380 -0.1477 -0.6289 -0.4693
 1914SOL    HW117204   2.786   3.890  13.384  0.0971 -0.0312 -3.1307
 1914SOL    HW217205   2.871   3.795  13.465  0.4699  0.7809  0.2337
 1915SOL     OW17206   3.623   3.821   1.412 -0.0581  0.0866 -0.0580
 1915SOL    HW117207   3.588   3.747   1.362  0.5285 -0.2783  0.0635
 1915SOL    HW217208   3.684   3.775   1.471  0.3575 -0.7591 -1.1585
 1916SOL     OW17209   4.206   2.651  15.690 -0.2476  0.1648  0.5704
 1916SOL    HW117210   4.140   2.590  15.724  0.3873 -0.1831  1.1555
 1916SOL    HW217211   4.148   2.721  15.659 -0.4854  0.9178  2.7696
 1917SOL     OW17212   2.578   3.870   2.396  0.1159  0.8520  0.6562
 1917SOL    HW117213   2.581   3.846   2.304 -4.7955 -2.8153  1.4365
 1917SOL    HW217214   2.671   3.867   2.419  0.9024  1.7344 -2.4967
 1918SOL     OW17215   2.463   3.564   5.096 -0.1707 -0.6305 -0.3404
 1918SOL    HW117216   2.467   3.659   5.090  1.2401 -0.5684  1.3396
 1918SOL    HW217217   2.534   3.544   5.034 -0.2438 -1.2716 -0.2217
 1919SOL     OW17218   2.980   2.852   6.851 -0.0872 -0.2766 -0.3069
 1919SOL    HW117219   2.990   2.943   6.823  0.9634 -0.5308 -0.7628
 1919SOL    HW217220   3.064   2.847   6.897 -0.7675 -1.0660  0.8625
 1920SOL     OW17221   2.144   3.170   6.007 -0.4111  0.2390 -0.2760
 1920SOL    HW117222   2.105   3.250   5.971  3.4905  0.8265 -3.1091
 1920SOL    HW217223   2.100   3.162   6.092  1.4530 -2.6139  0.4246
 1921SOL     OW17224   1.461   3.522  16.998 -0.1290 -0.7289  0.1819
 1921SOL    HW117225   1.399   3.530  16.925  0.9855 -1.5452 -0.8635
 1921SOL    HW217226   1.399   3.497  17.066 -1.9684  1.9956 -0.4820
 1922SOL     OW17227   2.512   0.157  16.893  0.1040 -0.1881 -0.6913
 1922SOL    HW117228   2.603   0.164  16.863  1.1213 -0.7170  2.2380
 1922SOL    HW217229   2.468   0.238  16.868  0.1162 -0.5017 -1.7175
 1923SOL     OW17230   3.625   3.303   4.159  0.4166  0.3901  0.0403
 1923SOL    HW117231   3.619   3.228   4.219  2.2049  1.3305  1.4101
 1923SOL    HW217232   3.631   3.370   4.227 -1.8061  1.1615 -0.5505
 1924SOL     OW17233   2.801   1.506   1.060  0.4553  1.1109 -0.4981
 1924SOL    HW117234   2.878   1.451   1.044  0.2713  1.1452 -1.4790
 1924SOL    HW217235   2.737   1.438   1.079  0.6812  1.2998  0.9421
 1925SOL     OW17236   3.753   1.694  13.414  0.2064  0.4857 -0.6066
 1925SOL    HW117237   3.688   1.729  13.353 -0.2993 -0.4624 -0.5913
 1925SOL    HW217238   3.719   1.709  13.502 -1.9003 -0.6575 -1.2383
 1926SOL     OW17239   1.973   1.706  17.614  0.2008  0.7914  0.2976
 1926SOL    HW117240   2.006   1.795  17.608  2.7781 -0.2235 -0.7054
 1926SOL    HW217241   2.019   1.687  17.696  0.2647  0.2438  0.1360
 1927SOL     OW17242   3.139   2.779   6.286 -0.4515 -0.4358  0.1161
 1927SOL    HW117243   3.186   2.859   6.308  0.4593 -0.8310 -0.3979
 1927SOL    HW217244   3.051   2.805   6.315 -0.6584 -1.6588  0.5841
 1928SOL     OW17245   0.175   3.897  13.769 -0.1671  0.3916  0.2909
 1928SOL    HW117246   0.127   3.814  13.767  1.4408 -0.5328  0.2021
 1928SOL    HW217247   0.106   3.963  13.781 -0.4406  0.2350 -0.4593
 1929SOL     OW17248   3.047   3.723  10.797  0.5845  0.4075 -0.3028
 1929SOL    HW117249   3.124   3.775  10.773 -0.0487  1.4813  0.0169
 1929SOL    HW217250   2.970   3.779  10.807 -0.2398 -0.4985 -1.5774
 1930SOL     OW17251   2.344   0.961   0.499  0.5804 -0.1777  0.0089
 1930SOL    HW117252   2.295   1.027   0.549  1.0732 -0.8226  1.3530
 1930SOL    HW217253   2.269   0.907   0.474  1.0949  0.8684 -3.7974
 1931SOL     OW17254   1.344   1.478  16.867  0.3126  0.0005  0.0305
 1931SOL    HW117255   1.283   1.406  16.857  0.6908  0.1741 -3.4165
 1931SOL    HW217256   1.380   1.467  16.955  2.2416  0.1866 -0.7275
 1932SOL     OW17257   2.163   4.667  16.542 -0.1622 -0.2613  0.0012
 1932SOL    HW117258   2.171   4.582  16.498 -1.4437 -0.1491 -0.4523
 1932SOL    HW217259   2.211   0.001  16.484  1.5131 -2.3818 -0.7116
 1933SOL     OW17260   0.681   0.056   9.293  0.7798  0.8671 -0.5528
 1933SOL    HW117261   0.758   0.113   9.296  2.3855 -1.3173  0.0381
 1933SOL    HW217262   0.642   0.073   9.208  0.6234  1.5510 -0.3443
 1934SOL     OW17263   2.458   3.703   8.531 -0.0688  0.0894 -0.4295
 1934SOL    HW117264   2.513   3.766   8.577  1.6927 -0.1393 -2.2522
 1934SOL    HW217265   2.369   3.724   8.559  0.7250  0.0310  2.1297
 1935SOL     OW17266   0.208   4.645  12.232  0.1589  0.0877 -0.1956
 1935SOL    HW117267   0.116   4.647  12.205 -0.4467  0.5661  1.8684
 1935SOL    HW217268   0.246   4.573  12.182  2.4832 -0.0347  1.7260
 1936SOL     OW17269   3.666   1.561  11.817 -0.0828  0.8124  0.1989
 1936SOL    HW117270   3.572   1.546  11.811 -0.0005 -0.2255  1.5404
 1936SOL    HW217271   3.685   1.599  11.731 -0.9747 -1.2473 -0.9299
 1937SOL     OW17272   0.759   1.198   9.886 -0.4532  0.4219  0.0334
 1937SOL    HW117273   0.673   1.197   9.927  0.8106 -1.9545  2.6010
 1937SOL    HW217274   0.759   1.114   9.840 -1.1628  1.0837 -1.1762
 1938SOL     OW17275   1.266   0.483   2.898 -0.6116  0.4267 -0.1564
 1938SOL    HW117276   1.227   0.446   2.819  0.5422  1.9338 -1.4443
 1938SOL    HW217277   1.254   0.575   2.877  1.0795  0.9097  0.9852
 1939SOL     OW17278   4.339   1.280   9.821 -0.1796  0.5579 -0.1967
 1939SOL    HW117279   4.261   1.232   9.793  1.9664 -0.9425 -3.5499
 1939SOL    HW217280   4.313   1.296   9.912  0.9635 -1.3091  0.4286
 1940SOL     OW17281   4.711   2.041  12.277  1.1076 -0.1008 -0.2205
 1940SOL    HW117282   0.065   1.986  12.280  0.7182 -0.6800 -0.7730
 1940SOL    HW217283   0.009   2.121  12.325 -1.4781  0.2680  0.3850
 1941SOL     OW17284   1.443   0.700   5.618  0.6107  0.1343  1.0391
 1941SOL    HW117285   1.455   0.788   5.581 -0.3265  0.6203  1.8746
 1941SOL    HW217286   1.379   0.714   5.688 -0.7132 -0.2675 -0.0794
 1942SOL     OW17287   0.503   3.344  17.080 -0.2697  0.2064  0.3605
 1942SOL    HW117288   0.551   3.353  17.162 -1.1750  1.6818  0.7252
 1942SOL    HW217289   0.545   3.417  17.035  1.3877  1.6763  4.3397
 1943SOL     OW17290   1.908   2.256   1.769  0.2509 -0.8146  0.6875
 1943SOL    HW117291   1.927   2.319   1.700 -0.0213 -1.1873  0.2742
 1943SOL    HW217292   1.851   2.306   1.827 -2.5454 -2.6905 -0.4577
 1944SOL     OW17293   1.517   2.577   7.834 -0.3274  0.2908  0.6004
 1944SOL    HW117294   1.539   2.550   7.923 -1.6869 -0.6368  0.6586
 1944SOL    HW217295   1.573   2.655   7.836 -0.0390  0.0293  2.4318
 1945SOL     OW17296   1.339   0.946  13.036 -0.1227  0.6879  0.5724
 1945SOL    HW117297   1.290   0.962  13.117  0.5749  0.4532  1.0406
 1945SOL    HW217298   1.276   0.943  12.964  0.3734  1.4598  0.1032
 1946SOL     OW17299   1.584   2.013   4.251  0.2114 -0.3534  0.4972
 1946SOL    HW117300   1.549   2.003   4.162 -0.8632  2.3423  0.5966
 1946SOL    HW217301   1.569   2.106   4.268 -1.3787 -0.7841  1.4214
 1947SOL     OW17302   3.605   1.401   8.566 -0.5870  0.5331  0.3336
 1947SOL    HW117303   3.564   1.347   8.498 -2.0314  0.7294  1.0544
 1947SOL    HW217304   3.622   1.480   8.515 -0.4646 -0.8974 -1.8425
 1948SOL     OW17305   3.014   2.026   5.258  0.1426  0.1214 -0.3023
 1948SOL    HW117306   3.080   2.048   5.191 -2.3147  1.4589 -2.2728
 1948SOL    HW217307   3.037   1.934   5.275 -1.3648 -0.5336 -1.8102
 1949SOL     OW17308   4.630   0.113   4.179 -0.7011 -0.7891  0.1015
 1949SOL    HW117309   4.685   0.069   4.245 -0.0562 -1.1129 -0.6488
 1949SOL    HW217310   4.550   0.060   4.178 -0.6222 -0.9456  1.4991
 1950SOL     OW17311   1.674   4.309   2.469 -0.0664  0.3535  0.5789
 1950SOL    HW117312   1.719   4.382   2.427 -1.1046 -1.6594 -4.0007
 1950SOL    HW217313   1.719   4.294   2.552  1.7795  1.5222 -0.2077
 1951SOL     OW17314   3.020   2.171   9.211  0.2434  0.0695 -0.2942
 1951SOL    HW117315   2.995   2.235   9.277 -0.0430  0.0840 -0.4135
 1951SOL    HW217316   2.937   2.135   9.176 -0.4181  1.3037  0.0211
 1952SOL     OW17317   2.687   2.768  13.252 -0.3824  0.2996  0.0838
 1952SOL    HW117318   2.772   2.726  13.236 -0.7222 -0.4602  0.2777
 1952SOL    HW217319   2.653   2.735  13.334 -0.0578 -0.8852 -0.2539
 1953SOL     OW17320   3.650   2.814   8.115 -0.4334 -0.3128  0.1437
 1953SOL    HW117321   3.599   2.852   8.186  0.0198 -0.3883  0.5110
 1953SOL    HW217322   3.739   2.844   8.137  0.1588 -0.7251 -1.7094
 1954SOL     OW17323   2.303   0.727  10.315  0.3908  0.3416  0.8316
 1954SOL    HW117324   2.314   0.643  10.271 -0.5548 -0.0760  1.4044
 1954SOL    HW217325   2.226   0.718  10.371  0.6605 -1.2130  0.9293
 1955SOL     OW17326   4.008   3.776   4.499  0.1561  0.7163  0.3245
 1955SOL    HW117327   3.984   3.684   4.512  1.4077  0.3150 -0.1520
 1955SOL    HW217328   4.051   3.770   4.413 -1.2914 -0.1403 -0.3327
 1956SOL     OW17329   2.315   1.520   6.476 -0.1887  0.6861 -0.5440
 1956SOL    HW117330   2.382   1.537   6.542  0.2747 -0.0867 -0.8261
 1956SOL    HW217331   2.364   1.460   6.421  3.0339  1.4524  1.4852
 1957SOL     OW17332   2.670   1.787   4.706  0.2682 -0.4099  0.1227
 1957SOL    HW117333   2.646   1.765   4.616  0.5478  2.8749 -0.7561
 1957SOL    HW217334   2.752   1.738   4.706  0.8101  0.4822 -0.3192
 1958SOL     OW17335   4.165   0.370  11.880 -0.6167 -0.0153  0.1683
 1958SOL    HW117336   4.174   0.465  11.872  1.0383 -0.1675  0.1533
 1958SOL    HW217337   4.070   0.365  11.878 -0.5878 -0.1105 -0.9288
 1959SOL     OW17338   2.931   4.443   9.801 -0.0466  0.5954 -0.8440
 1959SOL    HW117339   3.008   4.455   9.857 -2.7066  3.5110  2.1933
 1959SOL    HW217340   2.913   4.352   9.825  0.7440  0.7970  0.4847
 1960SOL     OW17341   2.783   4.072   7.024 -0.2529 -0.1000 -0.6295
 1960SOL    HW117342   2.789   4.028   6.940 -1.0100 -0.4429 -0.5083
 1960SOL    HW217343   2.843   4.021   7.078 -0.2349  0.3577 -0.2092
 1961SOL     OW17344   1.539   1.215   8.922 -0.7300  0.2158  0.4948
 1961SOL    HW117345   1.507   1.269   8.994 -0.5835  0.1330  0.6219
 1961SOL    HW217346   1.581   1.136   8.956 -0.7894  0.2767  0.7070
 1962SOL     OW17347   3.176   4.390   1.595 -0.5753 -0.4897  0.1619
 1962SOL    HW117348   3.192   4.466   1.538  0.2304 -0.5849  0.2625
 1962SOL    HW217349   3.113   4.336   1.548 -1.8653  1.9418 -0.9560
 1963SOL     OW17350   2.743   0.957   9.155 -0.3543  0.1291 -0.2568
 1963SOL    HW117351   2.729   0.955   9.061  2.1858  0.3229 -0.6332
 1963SOL    HW217352   2.797   0.879   9.168 -1.6616 -0.7244  0.0206
 1964SOL     OW17353   4.661   0.303  12.157 -0.2389 -0.4983  0.5695
 1964SOL    HW117354   4.629   0.305  12.067 -1.7863  0.2818  1.1436
 1964SOL    HW217355   4.648   0.391  12.193 -1.0975 -0.4375  0.1075
 1965SOL     OW17356   4.163   0.013   9.027  0.4610 -0.0131 -0.5435
 1965SOL    HW117357   4.238   0.072   9.016 -0.3790  1.4333  1.3901
 1965SOL    HW217358   4.093   0.078   9.020  2.7952  2.7845  1.9688
 1966SOL     OW17359   2.371   0.671   2.315  0.2368 -0.0988  0.2926
 1966SOL    HW117360   2.451   0.648   2.362  0.1097 -3.3629 -1.0874
 1966SOL    HW217361   2.311   0.685   2.388 -0.9827  2.4234 -1.2215
 1967SOL     OW17362   1.128   4.091   2.069 -0.3154 -0.0149  0.3390
 1967SOL    HW117363   1.114   4.023   2.135  1.1877 -0.6726 -0.0151
 1967SOL    HW217364   1.038   4.088   2.036 -0.9937 -1.3175  2.3365
 1968SOL     OW17365   3.744   0.462   9.366 -0.0073 -0.8754 -0.1361
 1968SOL    HW117366   3.721   0.548   9.399  1.0364 -0.8968  0.6558
 1968SOL    HW217367   3.771   0.415   9.445  0.1017  2.7809  1.9711
 1969SOL     OW17368   3.871   1.825   4.160 -0.0205  0.3718  0.2338
 1969SOL    HW117369   3.866   1.904   4.215 -2.4199  0.9236 -0.7660
 1969SOL    HW217370   3.932   1.850   4.091 -2.1280 -0.8493 -2.0703
 1970SOL     OW17371   0.431   3.822   8.838  0.0141 -0.0410 -0.1499
 1970SOL    HW117372   0.507   3.872   8.810 -0.4977  0.6497 -0.3025
 1970SOL    HW217373   0.414   3.763   8.764  1.5632 -1.2584  0.4461
 1971SOL     OW17374   1.146   0.437   4.099 -0.1603 -0.4796 -0.5449
 1971SOL    HW117375   1.183   0.512   4.146 -0.2038 -0.6369 -0.2593
 1971SOL    HW217376   1.222   0.389   4.067  0.2161 -0.8385  0.9252
 1972SOL     OW17377   4.491   3.988   0.245  0.0770 -0.5701  0.1795
 1972SOL    HW117378   4.552   4.044   0.198 -0.2924  0.6299  1.1449
 1972SOL    HW217379   4.414   4.008   0.192  0.9455  0.8323 -0.5563
 1973SOL     OW17380   4.648   1.752   2.851  0.4432  0.4705 -0.0039
 1973SOL    HW117381   4.617   1.835   2.815  2.2112  0.6409 -1.1681
 1973SOL    HW217382   4.595   1.739   2.929 -0.1729  1.9580 -0.1785
 1974SOL     OW17383   2.889   0.338  11.909 -0.7877  0.5431  0.5903
 1974SOL    HW117384   2.803   0.373  11.932 -1.2486  0.8119 -1.5691
 1974SOL    HW217385   2.929   0.414  11.866  1.2557 -0.0346  1.4658
 1975SOL     OW17386   4.017   2.866   5.953  0.2755  0.2425  0.3766
 1975SOL    HW117387   4.088   2.916   5.911  1.0659 -0.3117  1.0553
 1975SOL    HW217388   4.054   2.779   5.962  1.5161  0.5598 -1.6272
 1976SOL     OW17389   2.128   1.725   3.980  0.3357  0.0799  0.5087
 1976SOL    HW117390   2.155   1.669   3.907  1.4650 -0.7639  1.5586
 1976SOL    HW217391   2.035   1.713   3.996 -0.3118  0.6224 -2.9701
 1977SOL     OW17392   4.496   4.722  10.009  0.1858  0.1840  0.1730
 1977SOL    HW117393   4.411   0.038  10.025 -0.4219 -1.5613  1.3047
 1977SOL    HW217394   4.540   4.723  10.094 -0.4413  1.9360  0.4803
 1978SOL     OW17395   3.399   1.582  17.356 -0.0042  0.0955  0.1160
 1978SOL    HW117396   3.428   1.538  17.435 -0.8886 -0.6567  0.0081
 1978SOL    HW217397   3.463   1.565  17.286  1.2405  1.0599  1.0004
 1979SOL     OW17398   1.072   1.837  12.609 -0.2847  0.9132 -0.1214
 1979SOL    HW117399   0.980   1.852  12.627  0.3392  2.0461  2.0331
 1979SOL    HW217400   1.111   1.924  12.602  3.3131 -0.7096 -0.4956
 1980SOL     OW17401   4.132   2.715   1.646  0.9733  0.1756 -0.4620
 1980SOL    HW117402   4.157   2.797   1.689 -2.2915  0.6120  0.5847
 1980SOL    HW217403   4.096   2.747   1.563  2.4035  1.2164 -0.6823
 1981SOL     OW17404   2.627   4.548  10.295  0.4962 -0.3150 -0.1990
 1981SOL    HW117405   2.541   4.547  10.338  1.5936 -0.9453  1.9709
 1981SOL    HW217406   2.668   4.465  10.318 -0.6749 -0.4750  1.2696
 1982SOL     OW17407   1.163   0.927   2.511  0.2742  0.3846 -0.0224
 1982SOL    HW117408   1.227   0.983   2.467 -1.6904  3.2109  0.7383
 1982SOL    HW217409   1.205   0.841   2.517  2.0599  1.1953 -0.7707
 1983SOL     OW17410   4.050   0.073   4.621 -0.2245  0.3788  0.1182
 1983SOL    HW117411   3.964   0.033   4.631 -1.4246  2.9484  0.0922
 1983SOL    HW217412   4.041   0.119   4.537  0.3806 -1.0883 -0.7582
 1984SOL     OW17413   2.442   3.642   7.720 -0.2281 -0.1242  0.5915
 1984SOL    HW117414   2.401   3.702   7.659  1.0741 -0.0103 -0.1797
 1984SOL    HW217415   2.504   3.609   7.655 -0.6239  0.4578 -0.0696
 1985SOL     OW17416   3.522   0.131   5.944  0.5011 -0.0121 -0.2761
 1985SOL    HW117417   3.456   0.158   5.880  0.0182  0.8285  0.5808
 1985SOL    HW217418   3.599   0.167   5.902 -1.0425 -0.0072 -3.1298
 1986SOL     OW17419   3.707   2.825  17.403 -0.5250 -0.6894 -1.5384
 1986SOL    HW117420   3.739   2.747  17.447 -1.3861 -0.4481 -0.4878
 1986SOL    HW217421   3.615   2.800  17.412 -0.4302 -0.0052  1.2777
 1987SOL     OW17422   3.866   4.307   3.537 -0.6241  0.1505  0.8105
 1987SOL    HW117423   3.785   4.353   3.519 -0.9393 -1.1267 -0.9541
 1987SOL    HW217424   3.856   4.265   3.623  0.1381 -2.0454 -0.1691
 1988SOL     OW17425   0.372   2.033   3.043  1.2600  0.0287  0.6325
 1988SOL    HW117426   0.391   1.959   2.986 -1.9014 -0.1907 -0.1442
 1988SOL    HW217427   0.321   2.092   2.987  0.9509 -1.8516 -1.0185
 1989SOL     OW17428   0.840   3.695   8.886 -0.1655  0.1536  0.0306
 1989SOL    HW117429   0.886   3.645   8.953 -1.0412 -0.5732  0.0949
 1989SOL    HW217430   0.905   3.748   8.841  0.3107  0.5882  1.2247
 1990SOL     OW17431   3.796   2.510   5.982 -0.3426  0.1136 -0.2191
 1990SOL    HW117432   3.796   2.530   5.888  0.7331  0.6805 -0.0983
 1990SOL    HW217433   3.862   2.441   5.984 -0.8127 -0.3956 -2.1813
 1991SOL     OW17434   2.759   3.511   3.052 -0.1396 -0.1503 -0.2727
 1991SOL    HW117435   2.686   3.549   3.100 -0.3753  0.4110 -1.0690
 1991SOL    HW217436   2.723   3.506   2.963 -1.1605 -0.2546  0.1507
 1992SOL     OW17437   3.743   4.045  12.431 -0.3782  0.0669 -0.1066
 1992SOL    HW117438   3.760   4.067  12.523 -0.4153  0.3592 -0.1688
 1992SOL    HW217439   3.672   3.981  12.427 -0.0603 -0.2794 -0.1459
 1993SOL     OW17440   0.447   2.475   5.918 -0.5843  0.2330 -0.2585
 1993SOL    HW117441   0.514   2.506   5.857 -0.8991  0.2302 -0.6044
 1993SOL    HW217442   0.503   2.459   5.994  0.3900  1.8526 -0.6421
 1994SOL     OW17443   4.074   0.416   8.310 -0.2562  0.2839 -0.9901
 1994SOL    HW117444   4.069   0.510   8.292  1.7122  0.5051 -0.3784
 1994SOL    HW217445   4.104   0.382   8.226 -2.4380 -0.7699 -1.3534
 1995SOL     OW17446   1.690   2.190  11.510 -0.1203  0.1405 -0.2553
 1995SOL    HW117447   1.764   2.136  11.536 -1.5305 -1.6920 -0.0365
 1995SOL    HW217448   1.688   2.166  11.418  0.4717  0.9003 -0.4712
 1996SOL     OW17449   2.421   2.847   5.914  0.1740 -0.1658 -0.4452
 1996SOL    HW117450   2.510   2.866   5.883 -0.1487 -0.5877 -1.6400
 1996SOL    HW217451   2.384   2.818   5.830 -0.9924  1.2908 -0.4435
 1997SOL     OW17452   1.943   2.251   3.345 -0.5916 -0.7768  0.0204
 1997SOL    HW117453   1.995   2.274   3.268  0.7834  0.7715  1.4351
 1997SOL    HW217454   2.015   2.234   3.405  1.3837 -2.4183 -2.8021
 1998SOL     OW17455   0.833   0.565   7.858 -0.2058 -0.3313  0.5705
 1998SOL    HW117456   0.861   0.656   7.851 -0.6881 -0.0639  2.1353
 1998SOL    HW217457   0.893   0.528   7.793 -0.7963 -0.4835  0.1044
 1999SOL     OW17458   4.282   3.863  16.280  0.0617  0.1891 -0.0547
 1999SOL    HW117459   4.241   3.778  16.268  0.0282  0.2067 -0.0672
 1999SOL    HW217460   4.225   3.902  16.347 -1.1982 -0.0718 -0.9816
 2000SOL     OW17461   0.484   1.333   8.027  0.2003  0.1095  0.0472
 2000SOL    HW117462   0.539   1.333   8.105 -2.0003 -0.4802  1.6099
 2000SOL    HW217463   0.502   1.250   7.984 -0.9751  0.2007 -0.6274
 2001SOL     OW17464   0.422   0.182   6.340  0.2020  0.2612  0.1472
 2001SOL    HW117465   0.509   0.159   6.372  0.1852 -0.4816 -0.3338
 2001SOL    HW217466   0.385   0.214   6.422  2.5065 -0.4372  1.4259
 2002SOL     OW17467   0.972   3.647   8.384 -0.0837 -0.3220 -0.0289
 2002SOL    HW117468   1.036   3.581   8.356 -1.2802 -1.1549 -0.7539
 2002SOL    HW217469   0.940   3.671   8.298 -2.0174 -2.6769  0.0478
 2003SOL     OW17470   3.799   3.849   4.967 -0.1764  0.0538  0.0103
 2003SOL    HW117471   3.824   3.917   4.905 -1.3719 -2.0191 -2.7179
 2003SOL    HW217472   3.862   3.777   4.965 -1.3247 -0.8848 -1.7454
 2004SOL     OW17473   1.298   3.731   9.839 -0.3286  0.1551  0.0927
 2004SOL    HW117474   1.374   3.674   9.851 -0.3510  0.3298  1.0572
 2004SOL    HW217475   1.217   3.681   9.840 -0.5842  0.5781  0.7331
 2005SOL     OW17476   2.580   2.396   5.223  0.4206 -0.2361  0.3688
 2005SOL    HW117477   2.516   2.390   5.152 -0.2305 -1.5364  1.0805
 2005SOL    HW217478   2.532   2.402   5.305  1.8126  0.9018  1.1080
 2006SOL     OW17479   3.508   1.473   7.933 -0.2931 -0.0278  0.3908
 2006SOL    HW117480   3.572   1.499   8.000  2.0184 -3.9053 -0.3283
 2006SOL    HW217481   3.572   1.444   7.868 -1.4069  1.6175 -1.4347
 2007SOL     OW17482   4.139   3.190   2.880  0.3773 -0.3294 -0.1562
 2007SOL    HW117483   4.064   3.249   2.874 -0.4515 -1.4415 -0.8119
 2007SOL    HW217484   4.142   3.159   2.789  0.6798 -1.3687  0.2014
 2008SOL     OW17485   0.377   1.586   0.205  0.5143 -0.0968 -0.0048
 2008SOL    HW117486   0.458   1.535   0.210  0.7621  0.5251  2.2495
 2008SOL    HW217487   0.351   1.604   0.295 -0.6307  1.7774 -0.7129
 2009SOL     OW17488   2.169   0.386  11.441  0.0753 -0.2370 -0.3230
 2009SOL    HW117489   2.178   0.439  11.362 -1.6070 -2.3141 -1.9108
 2009SOL    HW217490   2.123   0.435  11.509  0.3719 -0.2999 -0.0785
 2010SOL     OW17491   0.203   1.927   3.960 -0.3493 -0.1053 -0.8095
 2010SOL    HW117492   0.142   1.880   3.904 -1.7632  0.1533  0.5231
 2010SOL    HW217493   0.157   1.923   4.043 -2.2411  0.6673 -1.8319
 2011SOL     OW17494   2.414   3.016   3.393 -0.8970  0.5546  0.2264
 2011SOL    HW117495   2.406   2.967   3.475  0.1827 -0.9827 -0.5902
 2011SOL    HW217496   2.377   2.949   3.336  0.1436  0.7414 -0.6689
 2012SOL     OW17497   4.719   1.379   7.514 -0.5735 -0.3984  0.6516
 2012SOL    HW117498   4.685   1.469   7.513 -1.5343 -0.7628  0.9792
 2012SOL    HW217499   4.687   1.355   7.601 -2.1319 -0.3236  0.0887
 2013SOL     OW17500   0.684   4.066   3.527  0.0537 -0.5402  0.2537
 2013SOL    HW117501   0.591   4.047   3.518 -0.2659  0.0991  2.0637
 2013SOL    HW217502   0.693   4.156   3.497 -2.3551  0.1326  1.5468
 2014SOL     OW17503   3.648   1.168   8.757  0.2681  0.4456 -0.2905
 2014SOL    HW117504   3.561   1.130   8.771  0.9345 -1.4137 -1.2266
 2014SOL    HW217505   3.620   1.246   8.710  0.3833 -0.2259 -1.4553
 2015SOL     OW17506   3.979   3.562   2.286  0.1651 -0.7322  0.0111
 2015SOL    HW117507   3.961   3.585   2.378  1.9378  1.4821 -0.1876
 2015SOL    HW217508   4.045   3.494   2.298 -2.0870 -2.8731  0.2903
 2016SOL     OW17509   1.406   1.331   5.391  0.1896 -0.3185 -0.0610
 2016SOL    HW117510   1.463   1.408   5.403 -1.8794  1.4058 -1.3382
 2016SOL    HW217511   1.470   1.268   5.424  0.4249 -0.7804 -1.3857
 2017SOL     OW17512   0.591   3.668  16.239  0.1675 -0.3006  0.1794
 2017SOL    HW117513   0.681   3.649  16.214  1.1198  0.2548  3.1710
 2017SOL    HW217514   0.568   3.748  16.191  2.3537 -0.2845 -0.8667
 2018SOL     OW17515   0.367   0.315   5.816 -0.1518  0.4921 -0.1237
 2018SOL    HW117516   0.305   0.348   5.751  1.3464 -0.3349 -2.0171
 2018SOL    HW217517   0.362   0.378   5.887 -0.6698  0.5507 -0.2146
 2019SOL     OW17518   4.530   0.931   9.541  0.2178 -0.4270 -0.1160
 2019SOL    HW117519   4.459   0.879   9.580 -1.9833  2.3605 -0.4180
 2019SOL    HW217520   4.606   0.879   9.568  0.6954  1.0569  1.3540
 2020SOL     OW17521   1.247   4.542   4.668 -0.0333  0.1776 -0.1236
 2020SOL    HW117522   1.284   4.546   4.580 -0.4378  2.8738 -0.1730
 2020SOL    HW217523   1.201   4.627   4.665 -1.6610 -0.6721  0.4232
 2021SOL     OW17524   0.980   3.889  12.223 -0.0230 -0.2365 -0.3526
 2021SOL    HW117525   0.921   3.874  12.296  0.5824 -2.9326 -0.4124
 2021SOL    HW217526   1.021   3.803  12.216 -0.1810 -0.3439  0.0959
 2022SOL     OW17527   0.750   4.021   0.381  0.0957  0.2359  0.6526
 2022SOL    HW117528   0.719   4.102   0.422 -0.8625  0.4381 -0.4724
 2022SOL    HW217529   0.722   3.954   0.442  3.0852 -3.4738 -2.0112
 2023SOL     OW17530   0.438   2.862   8.769  0.2279  0.6930  0.3342
 2023SOL    HW117531   0.489   2.897   8.696 -0.8883 -1.1274 -1.3178
 2023SOL    HW217532   0.491   2.785   8.792  0.9281  1.1977  0.4046
 2024SOL     OW17533   2.776   0.482   7.290 -0.0633 -0.7204  0.0028
 2024SOL    HW117534   2.810   0.558   7.244  0.3958  0.8078  2.8670
 2024SOL    HW217535   2.793   0.502   7.382 -0.7386  0.8219 -0.2059
 2025SOL     OW17536   4.592   2.207   8.539  0.0300  0.2819 -0.1173
 2025SOL    HW117537   4.540   2.193   8.618  0.7990  3.8284  1.0182
 2025SOL    HW217538   4.657   2.272   8.566  0.0199 -0.3424  1.4102
 2026SOL     OW17539   2.354   4.136   0.376 -0.2286 -0.0061  0.0679
 2026SOL    HW117540   2.322   4.128   0.286  2.7104 -0.6079 -0.9111
 2026SOL    HW217541   2.448   4.145   0.364 -0.4837  2.8816  0.0743
 2027SOL     OW17542   4.206   0.843   4.683  0.2833 -0.0091  0.2616
 2027SOL    HW117543   4.147   0.866   4.612  1.2956  0.2322 -0.4989
 2027SOL    HW217544   4.179   0.902   4.754  0.5567  0.9035 -0.3836
 2028SOL     OW17545   2.461   2.239   1.317  0.3293 -0.4884 -0.2094
 2028SOL    HW117546   2.384   2.296   1.310  0.6349 -0.2052 -1.3770
 2028SOL    HW217547   2.429   2.149   1.318 -2.5018  0.5089 -1.0771
 2029SOL     OW17548   3.936   2.245   7.763  0.0958  0.5807  0.6417
 2029SOL    HW117549   3.888   2.183   7.817  1.1625 -0.8854 -0.1195
 2029SOL    HW217550   3.949   2.187   7.689 -1.3512  0.7966  0.2181
 2030SOL     OW17551   3.232   0.153   6.209  0.1075 -0.2655  0.1204
 2030SOL    HW117552   3.239   0.249   6.209 -0.5825 -0.2204  1.8079
 2030SOL    HW217553   3.140   0.134   6.226 -0.2423 -0.5091 -1.9650
 2031SOL     OW17554   3.530   3.096   9.318  0.0481  0.3706  0.0487
 2031SOL    HW117555   3.451   3.046   9.337 -0.1119  0.6655  0.1695
 2031SOL    HW217556   3.547   3.140   9.402  1.2288  1.2607 -0.6595
 2032SOL     OW17557   4.276   0.571   3.654 -0.6962 -0.0696 -0.4698
 2032SOL    HW117558   4.328   0.584   3.575  0.0003 -0.0751 -0.0065
 2032SOL    HW217559   4.194   0.563   3.606 -0.0921 -2.4083 -1.0962
 2033SOL     OW17560   1.128   1.191  11.020 -0.3983  0.5373  0.1831
 2033SOL    HW117561   1.098   1.117  10.968  0.6308  1.2514 -1.4059
 2033SOL    HW217562   1.223   1.178  11.033 -0.3927  0.8715  0.4756
 2034SOL     OW17563   2.215   3.941  14.096 -0.2412  0.5612 -0.7063
 2034SOL    HW117564   2.191   3.861  14.051 -1.8317 -0.6924  2.3959
 2034SOL    HW217565   2.147   3.950  14.162  2.0338  1.0847  1.5891
 2035SOL     OW17566   0.623   2.764   7.489 -0.4451 -0.0329  0.5008
 2035SOL    HW117567   0.689   2.832   7.502 -0.1386  0.3746 -3.0138
 2035SOL    HW217568   0.628   2.737   7.397  1.9792 -1.0010  0.9345
 2036SOL     OW17569   3.551   2.828   4.455 -0.5964  0.7903 -0.2864
 2036SOL    HW117570   3.612   2.777   4.508 -0.4424  2.1159  0.7966
 2036SOL    HW217571   3.528   2.761   4.390  1.7255  0.1058 -0.3805
 2037SOL     OW17572   4.547   3.326   0.628  0.1506 -0.0825  0.0911
 2037SOL    HW117573   4.462   3.364   0.650  0.4579  0.4667  0.3223
 2037SOL    HW217574   4.609   3.388   0.666 -2.3757  2.3610  0.2709
 2038SOL     OW17575   0.887   3.725   3.804  0.3592 -0.4229  0.0177
 2038SOL    HW117576   0.840   3.665   3.746  0.6590 -0.5260 -0.1178
 2038SOL    HW217577   0.977   3.698   3.786 -0.6265 -1.6757 -3.0273
 2039SOL     OW17578   2.147   3.040   4.511  0.6564  0.1872 -0.5316
 2039SOL    HW117579   2.181   3.083   4.589 -0.1562 -0.2764  0.0687
 2039SOL    HW217580   2.160   3.118   4.457 -1.2148  1.5203  0.9658
 2040SOL     OW17581   4.410   0.470  13.025 -0.3168 -0.2462  0.4144
 2040SOL    HW117582   4.468   0.393  13.032 -1.2377 -0.8154  1.7567
 2040SOL    HW217583   4.409   0.472  12.929  0.3968 -0.8000  0.3913
 2041SOL     OW17584   0.711   1.580   6.673 -0.2829 -0.4504  0.0532
 2041SOL    HW117585   0.637   1.628   6.638 -0.1601  0.1981  0.6624
 2041SOL    HW217586   0.730   1.649   6.738 -0.5045  0.0453 -0.4120
 2042SOL     OW17587   3.719   3.787   4.371  0.1397 -0.6215  0.0561
 2042SOL    HW117588   3.670   3.865   4.398 -3.5529 -2.9369  0.0240
 2042SOL    HW217589   3.788   3.799   4.437  0.8092 -0.4623 -0.6693
 2043SOL     OW17590   0.426   1.262   5.038 -0.0253 -0.6177  0.3830
 2043SOL    HW117591   0.462   1.181   5.003 -0.5314 -1.3004  1.4421
 2043SOL    HW217592   0.417   1.311   4.957  0.4626  1.2051  1.4176
 2044SOL     OW17593   0.128   2.250   7.273  0.4940 -0.4594 -0.3074
 2044SOL    HW117594   0.212   2.209   7.293  0.6143  1.0244  2.1570
 2044SOL    HW217595   0.111   2.230   7.181 -0.8625 -0.7721  0.0056
 2045SOL     OW17596   1.557   0.043   9.068  0.6282  0.3891 -0.4827
 2045SOL    HW117597   1.464   0.030   9.086  1.0932  1.6474  2.8550
 2045SOL    HW217598   1.577   0.134   9.090  2.0642  0.5122 -2.2700
 2046SOL     OW17599   0.289   0.769  14.846 -0.2844  0.5421  0.4647
 2046SOL    HW117600   0.283   0.709  14.921 -1.0807 -1.5505 -1.2808
 2046SOL    HW217601   0.271   0.847  14.898  0.7027  1.2925 -0.3119
 2047SOL     OW17602   2.920   1.978   5.687  0.0997  0.4483 -0.2550
 2047SOL    HW117603   2.846   2.015   5.735  1.2018 -0.6033  2.2459
 2047SOL    HW217604   2.987   2.042   5.708  0.2308  0.9690 -2.2192
 2048SOL     OW17605   1.946   4.510   7.896  0.2543 -0.1886  0.2250
 2048SOL    HW117606   1.907   4.499   7.982 -1.0373  2.5950 -0.0108
 2048SOL    HW217607   2.037   4.498   7.922  0.2896  1.7204  0.9864
 2049SOL     OW17608   3.781   2.045   1.385  0.1789  0.3402 -0.4525
 2049SOL    HW117609   3.697   2.002   1.402  1.0168 -0.6595  1.1741
 2049SOL    HW217610   3.754   2.135   1.405 -0.4677 -0.0175  0.3113
 2050SOL     OW17611   0.378   2.283  10.340 -0.1812 -0.1855  0.3232
 2050SOL    HW117612   0.313   2.213  10.331  1.3125 -1.5786  0.2084
 2050SOL    HW217613   0.349   2.356  10.286 -0.0616  0.6040  1.3284
 2051SOL     OW17614   1.656   2.308  11.900 -0.4575  0.5757 -0.2450
 2051SOL    HW117615   1.685   2.395  11.872  0.3261  0.4796  0.2693
 2051SOL    HW217616   1.579   2.286  11.849  1.0784 -0.7414 -2.0230
 2052SOL     OW17617   4.246   4.555   8.625 -0.2199  0.4933  0.1827
 2052SOL    HW117618   4.218   4.516   8.543 -1.3653  0.0678  0.7692
 2052SOL    HW217619   4.253   4.646   8.595  1.2916  0.6537  1.0215
 2053SOL     OW17620   2.683   1.016  17.024  0.6018  0.4679  0.6274
 2053SOL    HW117621   2.729   0.932  17.016 -0.1075  0.3365 -1.9706
 2053SOL    HW217622   2.637   0.997  16.943  0.3103 -0.2644  0.9632
 2054SOL     OW17623   1.391   1.985  17.066 -0.7437 -0.3426  0.3540
 2054SOL    HW117624   1.394   1.924  17.140 -0.0724  0.3178  0.8694
 2054SOL    HW217625   1.409   1.922  16.996  0.6962  0.6184 -0.1410
 2055SOL     OW17626   1.176   3.297  11.941  0.0413  0.3641 -0.5016
 2055SOL    HW117627   1.191   3.350  12.019  0.2863 -0.8158  0.2436
 2055SOL    HW217628   1.174   3.371  11.880  0.9168  1.6738  1.0482
 2056SOL     OW17629   0.949   2.830   7.194  0.3690 -0.5615  0.2546
 2056SOL    HW117630   0.957   2.924   7.180 -0.0623 -0.3911  1.1049
 2056SOL    HW217631   1.035   2.790   7.183  0.5896 -0.3949  1.3254
 2057SOL     OW17632   4.138   1.973   2.321  0.0316 -0.1903 -0.5077
 2057SOL    HW117633   4.133   1.889   2.366 -2.5038  0.5969  0.6552
 2057SOL    HW217634   4.231   1.972   2.297 -0.1481  1.2817 -1.2544
 2058SOL     OW17635   4.241   4.109  15.854 -0.1746  0.2109  0.3752
 2058SOL    HW117636   4.281   4.074  15.774  1.3412 -0.0514  1.2543
 2058SOL    HW217637   4.287   4.060  15.922  0.9343  1.2867  0.3970
 2059SOL     OW17638   3.974   3.522   5.609  0.1914 -0.4342  0.0806
 2059SOL    HW117639   3.882   3.529   5.636  0.5251 -1.1556  1.3603
 2059SOL    HW217640   4.022   3.561   5.682 -1.0521 -0.0659  0.7108
 2060SOL     OW17641   0.621   3.063  15.012 -0.1376  0.2459 -0.1640
 2060SOL    HW117642   0.640   2.980  14.967  0.1956  0.9916 -1.3974
 2060SOL    HW217643   0.566   3.014  15.074 -0.3444 -0.5366 -0.9549
 2061SOL     OW17644   1.406   2.894   5.167 -0.0822 -0.2600  0.1654
 2061SOL    HW117645   1.413   2.922   5.258  0.7647  0.1010 -0.0113
 2061SOL    HW217646   1.319   2.858   5.184 -0.3439 -0.0388 -0.6972
 2062SOL     OW17647   3.586   3.131   9.586  0.3829 -0.2922  0.4786
 2062SOL    HW117648   3.625   3.209   9.625  0.6937 -0.1389 -0.1437
 2062SOL    HW217649   3.631   3.070   9.644  4.3281  1.2549 -0.9667
 2063SOL     OW17650   4.539   3.336   6.732  0.4554  0.9159  0.3285
 2063SOL    HW117651   4.607   3.329   6.664 -1.2753  1.9212 -1.4974
 2063SOL    HW217652   4.545   3.430   6.747  2.1898  0.9256 -0.3782
 2064SOL     OW17653   1.753   1.233   0.124  0.0842  0.0379 -0.7155
 2064SOL    HW117654   1.779   1.156   0.073 -1.2691 -2.1923  2.0065
 2064SOL    HW217655   1.687   1.199   0.184  0.1554  2.7450  0.9249
 2065SOL     OW17656   3.091   1.233   3.746 -0.3961  0.5773  0.2451
 2065SOL    HW117657   3.142   1.209   3.823 -0.5946 -0.3280  0.0958
 2065SOL    HW217658   3.039   1.152   3.738 -0.4607  0.8117 -1.8793
 2066SOL     OW17659   2.387   2.468   5.749  0.1140  0.2218 -0.1194
 2066SOL    HW117660   2.306   2.520   5.747  0.2591  0.4699  0.4550
 2066SOL    HW217661   2.447   2.539   5.726  0.2395  0.5757  1.2884
 2067SOL     OW17662   0.972   4.040   7.746 -0.1888  0.0465  0.5385
 2067SOL    HW117663   0.879   4.046   7.725 -0.6082 -0.4281  2.3371
 2067SOL    HW217664   1.009   3.966   7.699 -2.6338 -2.2300  2.2415
 2068SOL     OW17665   0.703   3.802   2.409  0.1385 -0.0370 -0.3786
 2068SOL    HW117666   0.680   3.715   2.375  2.1056  0.8114 -3.8676
 2068SOL    HW217667   0.794   3.782   2.434 -0.4005  1.0081  2.3967
 2069SOL     OW17668   1.079   1.152   4.679 -0.0606 -0.7386  0.4836
 2069SOL    HW117669   1.118   1.134   4.594 -2.5257 -1.2422 -0.5471
 2069SOL    HW217670   1.002   1.204   4.657  1.3488  0.5222 -1.4873
 2070SOL     OW17671   2.775   3.460   3.690  0.4960 -0.0178 -0.1723
 2070SOL    HW117672   2.834   3.534   3.706 -0.3461  0.0856  2.4131
 2070SOL    HW217673   2.817   3.419   3.614 -1.9350  0.8003 -1.9897
 2071SOL     OW17674   1.165   2.927  16.316  0.2713  0.1079  0.2228
 2071SOL    HW117675   1.184   2.925  16.222  0.0630  1.3106  0.1507
 2071SOL    HW217676   1.151   2.833  16.330  3.5688  0.0134  3.0030
 2072SOL     OW17677   4.614   0.157   8.682  0.1145  0.4781 -0.1354
 2072SOL    HW117678   4.640   0.066   8.669 -0.6822  0.3941 -1.1462
 2072SOL    HW217679   4.631   0.175   8.775 -0.0269  0.5332 -0.1203
 2073SOL     OW17680   2.246   3.740   2.776  0.4246 -0.2825 -0.9020
 2073SOL    HW117681   2.288   3.695   2.849  2.2860  1.8816 -0.6387
 2073SOL    HW217682   2.284   3.698   2.699  0.2824 -1.5184 -0.2900
 2074SOL     OW17683   0.858   2.602   2.314 -0.4519 -0.2088 -0.0374
 2074SOL    HW117684   0.799   2.528   2.298 -0.1248 -0.8423  1.6402
 2074SOL    HW217685   0.814   2.681   2.281  0.6409  0.0065 -0.9651
 2075SOL     OW17686   1.228   2.633  15.545  0.3377 -0.3896 -0.6440
 2075SOL    HW117687   1.262   2.554  15.503 -0.8691 -1.6362  0.7432
 2075SOL    HW217688   1.168   2.658  15.474  1.5903  0.6497 -1.3390
 2076SOL     OW17689   3.656   2.259   7.888 -0.2889  0.0821  0.1929
 2076SOL    HW117690   3.619   2.337   7.846 -0.7031 -0.9686 -1.3745
 2076SOL    HW217691   3.609   2.192   7.839 -0.9422  1.2561 -0.8059
 2077SOL     OW17692   2.291   1.664  17.482  0.4509  0.0163 -0.6067
 2077SOL    HW117693   2.301   1.718  17.560  1.8504 -0.6696 -0.3202
 2077SOL    HW217694   2.199   1.673  17.453  0.3442  1.6175  0.2309
 2078SOL     OW17695   3.236   0.942   1.110 -0.0819  0.0703  0.1471
 2078SOL    HW117696   3.191   0.995   1.044  1.4741  2.3330  0.8942
 2078SOL    HW217697   3.178   0.867   1.102  0.0064 -0.1150  1.2376
 2079SOL     OW17698   2.062   0.313   5.862 -0.7057 -0.2862 -0.6478
 2079SOL    HW117699   2.044   0.359   5.780 -0.0567  2.3346  0.7023
 2079SOL    HW217700   2.140   0.261   5.840 -1.1427 -1.4153  0.5219
 2080SOL     OW17701   1.244   0.525   7.349  0.2226  0.3889  0.5038
 2080SOL    HW117702   1.208   0.612   7.330 -0.0738 -0.1271 -1.2942
 2080SOL    HW217703   1.327   0.523   7.301  1.2748  0.6419  2.3120
 2081SOL     OW17704   0.158   0.526   9.806 -0.3221 -0.4281 -0.4147
 2081SOL    HW117705   0.170   0.516   9.901  1.5859 -0.2562 -0.6476
 2081SOL    HW217706   0.071   0.566   9.806 -0.2650 -0.3074 -1.0620
 2082SOL     OW17707   3.910   2.871  16.962 -0.2420 -0.0088  0.0065
 2082SOL    HW117708   3.941   2.811  17.030  1.8425  0.8198 -0.2263
 2082SOL    HW217709   3.965   2.859  16.885 -3.3838 -2.9876 -1.8037
 2083SOL     OW17710   0.453   1.345  15.125 -0.5436  0.0215 -0.0480
 2083SOL    HW117711   0.473   1.336  15.032  1.6674  0.6056  0.3649
 2083SOL    HW217712   0.465   1.440  15.128 -2.9039  0.3670 -1.8173
 2084SOL     OW17713   3.307   0.941   3.256 -0.5091 -0.5968  0.8898
 2084SOL    HW117714   3.253   0.981   3.189  0.2342  0.9178  1.1871
 2084SOL    HW217715   3.288   1.001   3.329 -1.7868 -0.3842  0.3880
 2085SOL     OW17716   2.520   3.508   3.296  0.6460 -0.4512 -0.3130
 2085SOL    HW117717   2.519   3.429   3.349 -1.0364 -0.5987 -0.5591
 2085SOL    HW217718   2.466   3.489   3.219  1.2359 -0.5633 -0.6979
 2086SOL     OW17719   4.370   3.682   0.691  0.3309  0.5533  0.5034
 2086SOL    HW117720   4.456   3.693   0.649  0.9725 -1.4036  1.3315
 2086SOL    HW217721   4.366   3.587   0.701 -0.9941  0.2205 -3.0544
 2087SOL     OW17722   0.249   0.416   9.370  0.4622  0.1488  0.4778
 2087SOL    HW117723   0.222   0.384   9.456  0.2285 -2.6041 -0.6169
 2087SOL    HW217724   0.334   0.374   9.354 -0.5970 -1.4624 -0.9449
 2088SOL     OW17725   0.048   1.880  15.635  0.4175 -0.1202  0.1636
 2088SOL    HW117726   0.105   1.928  15.574  0.6063 -0.9228 -0.2883
 2088SOL    HW217727   4.686   1.903  15.602  0.5290  0.7119  0.4514
 2089SOL     OW17728   0.437   1.903  12.159  0.4458 -0.1588  0.0423
 2089SOL    HW117729   0.410   1.991  12.132  2.2375  1.1567  2.6598
 2089SOL    HW217730   0.451   1.859  12.075  0.2825  1.6004 -0.9157
 2090SOL     OW17731   0.929   2.204  17.143 -0.1420  0.3097  0.0370
 2090SOL    HW117732   0.971   2.249  17.216  1.1741 -0.5488 -0.1813
 2090SOL    HW217733   1.003   2.188  17.084 -0.5019  1.0700 -0.6199
 2091SOL     OW17734   3.620   3.095   4.408 -0.2140 -0.4414 -0.3800
 2091SOL    HW117735   3.536   3.140   4.397 -1.1721 -1.3578  2.9464
 2091SOL    HW217736   3.596   3.003   4.407  2.6728 -1.1698 -0.4741
 2092SOL     OW17737   1.405   1.715  16.288  0.7143 -0.2882  0.1457
 2092SOL    HW117738   1.399   1.797  16.238  0.0751 -1.9958 -2.6032
 2092SOL    HW217739   1.450   1.742  16.368 -0.2660 -1.1358  0.9804
 2093SOL     OW17740   2.916   4.433   0.641  0.0733  0.7212  0.2001
 2093SOL    HW117741   2.965   4.460   0.563 -1.4094  0.6813 -0.7453
 2093SOL    HW217742   2.984   4.416   0.706  0.1240  1.3879  0.3308
 2094SOL     OW17743   0.380   3.559  12.767  0.4061  0.5487  0.6509
 2094SOL    HW117744   0.331   3.640  12.756 -0.1485  0.3367  1.6190
 2094SOL    HW217745   0.472   3.584  12.756 -0.1830  1.6689 -1.7459
 2095SOL     OW17746   1.405   2.160   3.841 -0.6108  0.5122 -0.2841
 2095SOL    HW117747   1.448   2.184   3.759  0.4993 -1.2387 -0.2066
 2095SOL    HW217748   1.314   2.144   3.814 -1.0588  1.2776  0.7747
 2096SOL     OW17749   1.986   0.436   1.988 -0.2277  0.7580  0.2574
 2096SOL    HW117750   2.037   0.481   1.920 -0.1183  2.8169  1.7101
 2096SOL    HW217751   1.897   0.466   1.972 -0.5782 -0.6267 -0.3741
 2097SOL     OW17752   0.983   4.544  10.395 -0.0356  0.3407 -0.2070
 2097SOL    HW117753   1.039   4.481  10.440 -0.3459  1.4005  1.6440
 2097SOL    HW217754   1.011   4.620  10.445  3.7894 -1.5040  0.4290
 2098SOL     OW17755   2.641   0.906  17.513 -0.2483  0.5705  0.3593
 2098SOL    HW117756   2.553   0.874  17.532  0.8791 -2.6703  0.1553
 2098SOL    HW217757   2.626   0.959  17.435 -1.7907  0.6685  0.7286
 2099SOL     OW17758   0.196   0.385   6.978 -0.1703 -0.0202  0.1276
 2099SOL    HW117759   0.158   0.360   6.894  1.5656 -0.1640 -0.6127
 2099SOL    HW217760   0.205   0.479   6.961 -0.9043  0.1282  0.5501
 2100SOL     OW17761   1.968   1.337   9.362 -0.1284 -0.3707  0.1529
 2100SOL    HW117762   1.920   1.348   9.280 -0.0835 -0.9485  0.0443
 2100SOL    HW217763   2.038   1.275   9.340 -0.6444 -1.4713  1.6320
 2101SOL     OW17764   3.807   0.954   1.891  1.0011 -0.3294 -0.4233
 2101SOL    HW117765   3.901   0.945   1.879  1.0858  1.3951 -0.9996
 2101SOL    HW217766   3.796   0.948   1.986  1.2280 -0.6857 -0.4192
 2102SOL     OW17767   0.103   1.375   9.417 -0.1467  0.6552  0.2138
 2102SOL    HW117768   0.161   1.313   9.461 -1.4925 -0.5402  0.3078
 2102SOL    HW217769   0.104   1.346   9.325  0.2289  1.3002  0.0135
 2103SOL     OW17770   4.537   3.037  12.564 -0.4637  0.4199 -0.6000
 2103SOL    HW117771   4.455   3.067  12.603 -0.6124 -1.8792  0.8095
 2103SOL    HW217772   4.605   3.067  12.624 -0.2581 -0.3972 -0.4316
 2104SOL     OW17773   4.146   0.779   5.032  0.5597  0.4415  0.3414
 2104SOL    HW117774   4.072   0.808   5.085  1.1392  1.3515  0.6393
 2104SOL    HW217775   4.217   0.776   5.096 -0.4519  1.9866  1.5158
 2105SOL     OW17776   2.640   3.420   0.310 -0.2940  0.0969  0.0136
 2105SOL    HW117777   2.669   3.412   0.219 -0.5509  0.9867 -0.1505
 2105SOL    HW217778   2.726   3.420   0.351  0.6875  2.7666 -2.0241
 2106SOL     OW17779   0.257   4.096   2.957  0.3685 -0.6505  0.1958
 2106SOL    HW117780   0.167   4.070   2.934  0.4966  0.6609 -1.7933
 2106SOL    HW217781   0.283   4.127   2.870 -0.5609 -1.0458 -0.2268
 2107SOL     OW17782   1.527   0.479  13.469  0.6509 -0.0310  0.0203
 2107SOL    HW117783   1.528   0.511  13.379  2.4891 -1.3451 -0.4345
 2107SOL    HW217784   1.449   0.516  13.509 -0.2754 -0.6499 -1.2273
 2108SOL     OW17785   0.640   0.055   4.597 -0.1429 -0.4027 -0.2370
 2108SOL    HW117786   0.718   0.027   4.550 -1.0890  0.4836 -2.3114
 2108SOL    HW217787   0.577   0.012   4.539 -0.6926  1.8004 -1.2618
 2109SOL     OW17788   3.078   0.987  16.115 -0.0278  0.1982 -0.1152
 2109SOL    HW117789   3.170   0.961  16.106  0.2964  0.8395  1.2894
 2109SOL    HW217790   3.067   1.042  16.038  1.3108  1.1617  0.3679
 2110SOL     OW17791   0.182   2.811   9.058  0.7948 -0.4322 -0.2159
 2110SOL    HW117792   0.171   2.715   9.059  1.9626 -0.5634 -0.2114
 2110SOL    HW217793   0.140   2.833   9.141  0.5097 -0.1351 -0.4392
 2111SOL     OW17794   1.120   1.366   6.347  0.2725 -0.3292  0.0178
 2111SOL    HW117795   1.069   1.339   6.423 -0.2195  0.2352 -0.1035
 2111SOL    HW217796   1.201   1.396   6.387  0.4075  0.6275 -0.9524
 2112SOL     OW17797   3.224   0.269   9.045 -0.0763  0.1566 -0.1228
 2112SOL    HW117798   3.256   0.189   9.004  0.1861  0.9551 -1.4763
 2112SOL    HW217799   3.238   0.337   8.979 -1.5654  1.3720  0.7961
 2113SOL     OW17800   3.548   2.011  13.415 -0.2769  0.1432  0.0044
 2113SOL    HW117801   3.464   1.982  13.449 -0.0623 -2.5576 -1.7646
 2113SOL    HW217802   3.561   1.949  13.344 -2.0380 -1.3894  1.0329
 2114SOL     OW17803   3.882   0.805   8.019  0.0431 -0.1444 -0.2273
 2114SOL    HW117804   3.939   0.863   7.969  2.0138 -0.6524  1.3934
 2114SOL    HW217805   3.811   0.793   7.956 -0.1180  0.6834 -0.1941
 2115SOL     OW17806   0.005   1.653   8.020 -0.6023 -0.0928  0.2599
 2115SOL    HW117807   4.719   1.720   7.951 -1.1986  0.4488  0.8703
 2115SOL    HW217808   0.070   1.588   7.994 -1.0682 -0.4621  0.0274
 2116SOL     OW17809   1.942   1.953   0.151 -0.2049 -0.6000 -0.2608
 2116SOL    HW117810   1.909   1.874   0.195 -2.4733 -0.1479 -1.1002
 2116SOL    HW217811   1.899   1.946   0.066 -1.6451  0.8017  0.3328
 2117SOL     OW17812   1.088   3.401   4.786  0.1152 -0.1993  0.1065
 2117SOL    HW117813   1.000   3.374   4.756  0.1613 -0.1253 -0.0949
 2117SOL    HW217814   1.144   3.376   4.712 -0.4591  0.7360 -0.6420
 2118SOL     OW17815   4.333   2.623   7.771  0.0656  0.2567 -0.0810
 2118SOL    HW117816   4.418   2.607   7.730 -0.1300 -1.2502  0.0809
 2118SOL    HW217817   4.298   2.536   7.751  1.3715  0.0429 -1.4072
 2119SOL     OW17818   2.810   1.597   2.799 -0.3865 -0.0486  0.5239
 2119SOL    HW117819   2.890   1.545   2.786 -1.0767 -1.3357  1.4408
 2119SOL    HW217820   2.767   1.585   2.714 -0.9554 -0.4260  0.8665
 2120SOL     OW17821   1.701   0.986   2.056 -0.4917 -0.3925 -0.0909
 2120SOL    HW117822   1.670   0.897   2.044 -0.3860 -0.4688  0.2066
 2120SOL    HW217823   1.644   1.020   2.125  1.8767  0.8413  1.2571
 2121SOL     OW17824   3.951   0.499  16.312  0.4968 -0.1677 -0.0173
 2121SOL    HW117825   3.908   0.504  16.227 -1.1960  0.9907  0.9238
 2121SOL    HW217826   4.036   0.543  16.306 -0.8835  2.4508 -0.0803
 2122SOL     OW17827   1.477   4.662  12.670 -0.3303  0.5980 -0.2258
 2122SOL    HW117828   1.420   4.588  12.651 -2.2746  1.4283  2.2926
 2122SOL    HW217829   1.560   4.631  12.633  0.2566  1.6190  0.2311
 2123SOL     OW17830   3.801   3.047  16.076  0.5777 -0.1069 -0.2707
 2123SOL    HW117831   3.807   3.129  16.125  2.6615 -0.3332 -0.1510
 2123SOL    HW217832   3.843   3.071  15.993 -0.7203 -0.7800 -1.1308
 2124SOL     OW17833   4.029   0.357   4.838  0.3063  0.4051  0.8925
 2124SOL    HW117834   4.008   0.438   4.792 -2.2970 -0.3665  0.6854
 2124SOL    HW217835   4.031   0.298   4.763 -0.6622  0.7246  0.6122
 2125SOL     OW17836   1.430   3.925   1.367  0.8328  0.0993  0.0619
 2125SOL    HW117837   1.459   3.953   1.454  0.0949 -3.7632  1.5410
 2125SOL    HW217838   1.345   3.969   1.379  1.0122  0.6925 -0.8655
 2126SOL     OW17839   4.029   0.268   9.892  0.1861  0.7102  0.1527
 2126SOL    HW117840   4.020   0.176   9.866 -0.1828  1.4468 -2.3790
 2126SOL    HW217841   3.939   0.295   9.912 -0.4628 -0.7644 -0.7565
 2127SOL     OW17842   2.377   1.078   4.027 -0.1931  0.3241 -0.4402
 2127SOL    HW117843   2.288   1.110   4.011 -0.3487 -0.9238 -2.0656
 2127SOL    HW217844   2.365   1.045   4.116  2.9243  1.9077  0.5479
 2128SOL     OW17845   0.439   2.915   9.056  0.1120  0.4235 -0.3575
 2128SOL    HW117846   0.454   2.932   8.963  1.4004 -0.2880 -0.2786
 2128SOL    HW217847   0.355   2.870   9.061  1.2402 -1.6159  0.6005
 2129SOL     OW17848   2.830   0.904  16.396 -0.5543 -0.4357  0.5269
 2129SOL    HW117849   2.740   0.935  16.387 -0.2337 -0.0163 -1.1065
 2129SOL    HW217850   2.871   0.990  16.409 -0.2062 -0.6817  1.0501
 2130SOL     OW17851   0.726   1.326   1.819  0.2176  0.1269  0.1862
 2130SOL    HW117852   0.746   1.261   1.752  0.0523 -0.8203  1.0623
 2130SOL    HW217853   0.753   1.403   1.769 -0.3414 -0.2632 -0.7044
 2131SOL     OW17854   0.718   4.692   9.965 -0.0297  0.3294 -0.1830
 2131SOL    HW117855   0.682   4.654   9.885  0.7586 -0.2680 -0.2603
 2131SOL    HW217856   0.788   4.631   9.989 -2.7909 -2.5386  0.5824
 2132SOL     OW17857   1.195   1.246   8.578  0.1164 -0.2552  0.2803
 2132SOL    HW117858   1.118   1.211   8.534 -0.0752  0.0853  0.3459
 2132SOL    HW217859   1.239   1.167   8.610 -0.9131 -0.9293  0.0170
 2133SOL     OW17860   1.753   1.720   4.179 -0.4169 -0.1786  0.0100
 2133SOL    HW117861   1.765   1.676   4.095 -0.1046  1.5504 -0.8548
 2133SOL    HW217862   1.788   1.807   4.158  1.4180 -1.0691 -0.6596
 2134SOL     OW17863   3.460   1.372   9.141 -0.1525  0.0233 -0.2250
 2134SOL    HW117864   3.441   1.455   9.185 -0.5795 -0.2395  0.0834
 2134SOL    HW217865   3.554   1.389   9.138 -0.4469  1.5632 -0.8114
 2135SOL     OW17866   3.292   3.580   5.829 -0.5280  0.5100 -0.1335
 2135SOL    HW117867   3.228   3.583   5.899 -0.7289 -2.0603 -0.1803
 2135SOL    HW217868   3.236   3.582   5.752  0.2768 -3.8208 -0.8468
 2136SOL     OW17869   0.021   0.020   9.314 -0.4484  0.2866 -0.0160
 2136SOL    HW117870   0.115   0.032   9.301 -0.4278  1.2685  1.0839
 2136SOL    HW217871   4.710   0.106   9.291  0.7289  1.2073  1.7014
 2137SOL     OW17872   3.520   2.884   8.327  0.7016  0.2533  0.1254
 2137SOL    HW117873   3.469   2.964   8.325  0.1190 -0.0913  1.2765
 2137SOL    HW217874   3.447   2.833   8.360  1.9377 -2.0800 -0.7240
 2138SOL     OW17875   0.239   3.892  10.344  0.0632  0.5486 -0.3570
 2138SOL    HW117876   0.271   3.927  10.428  0.8445  0.6455 -0.7021
 2138SOL    HW217877   0.162   3.949  10.337 -0.0328  0.5640  0.8181
 2139SOL     OW17878   1.185   4.116   8.888 -0.4483  0.3661 -0.3984
 2139SOL    HW117879   1.212   4.039   8.937  0.0974 -0.4992 -2.0473
 2139SOL    HW217880   1.137   4.164   8.955  0.4512  0.1832  0.3805
 2140SOL     OW17881   4.073   0.150  16.711  0.0641  0.1978 -0.2539
 2140SOL    HW117882   4.135   0.082  16.737 -0.5284 -0.7012 -1.1588
 2140SOL    HW217883   4.128   0.212  16.664  1.1905 -0.3212  0.3815
 2141SOL     OW17884   3.684   1.265   6.801 -0.2245 -0.6489 -0.5884
 2141SOL    HW117885   3.721   1.195   6.748  1.0589  0.1903 -0.8127
 2141SOL    HW217886   3.591   1.267   6.779 -0.5160 -2.6295  0.5125
 2142SOL     OW17887   0.452   2.005  14.507 -0.2395 -0.6144 -0.0204
 2142SOL    HW117888   0.437   2.075  14.443 -1.4762 -1.2154 -0.3789
 2142SOL    HW217889   0.410   2.037  14.587  1.7039 -0.4083  0.9157
 2143SOL     OW17890   4.093   2.777   6.315 -0.5450 -0.0431 -0.3375
 2143SOL    HW117891   4.085   2.692   6.358 -0.1828 -0.0407 -0.2667
 2143SOL    HW217892   4.128   2.745   6.232  0.8965 -0.8011  0.5766
 2144SOL     OW17893   3.618   2.855   9.503  0.0724  0.2867  0.1132
 2144SOL    HW117894   3.575   2.786   9.453  0.8764  1.9135 -2.8083
 2144SOL    HW217895   3.575   2.936   9.475  0.8651  0.6846  0.0437
 2145SOL     OW17896   1.069   3.171   8.460 -0.2515  0.2357 -0.0998
 2145SOL    HW117897   0.974   3.184   8.465 -0.0223  1.8292  0.1917
 2145SOL    HW217898   1.089   3.119   8.538  1.8744 -0.6378 -1.2361
 2146SOL     OW17899   1.398   0.194  13.551  0.3170  0.0699 -0.2986
 2146SOL    HW117900   1.412   0.285  13.527 -0.0840  1.2726  3.9596
 2146SOL    HW217901   1.352   0.161  13.474 -1.5734  0.2269  0.7620
 2147SOL     OW17902   4.253   4.543   1.700  0.1364  0.2031  0.2066
 2147SOL    HW117903   4.266   4.638   1.709 -0.5141  0.5857 -2.9991
 2147SOL    HW217904   4.174   4.529   1.648  0.6880  0.2190 -0.6267
 2148SOL     OW17905   4.468   2.654  15.837  0.8991  0.2348 -0.2968
 2148SOL    HW117906   4.381   2.645  15.876  1.8133 -0.7091  1.5086
 2148SOL    HW217907   4.455   2.693  15.751 -0.0382  0.8771  0.1333
 2149SOL     OW17908   1.708   1.265   1.965 -0.3516 -0.3298  0.0796
 2149SOL    HW117909   1.687   1.185   2.014  0.2195  0.5721  1.7843
 2149SOL    HW217910   1.798   1.254   1.933  0.5749  0.6569  2.3633
 2150SOL     OW17911   1.957   3.971   5.782  0.4961  0.4325  0.1864
 2150SOL    HW117912   2.010   4.011   5.850 -0.9367  0.9564  0.9993
 2150SOL    HW217913   1.946   3.882   5.816  0.0039 -0.0152 -1.1092
 2151SOL     OW17914   2.432   1.490  15.493 -0.0110  0.3185 -0.2732
 2151SOL    HW117915   2.402   1.497  15.402 -2.4934 -2.1320  0.3690
 2151SOL    HW217916   2.386   1.562  15.536  0.9382  0.2062  0.9191
 2152SOL     OW17917   1.325   0.767  15.731  0.1679  0.0018 -0.1957
 2152SOL    HW117918   1.258   0.795  15.793  0.9520  0.6606  0.3519
 2152SOL    HW217919   1.334   0.674  15.753 -3.7021 -0.2462  0.3449
 2153SOL     OW17920   3.045   2.514   6.595 -0.3187  0.0685  0.0085
 2153SOL    HW117921   2.960   2.559   6.592 -0.5212 -0.2074  1.6168
 2153SOL    HW217922   3.046   2.499   6.689  0.6673  0.5892  0.0824
 2154SOL     OW17923   2.970   0.353   1.592 -0.1483 -0.0538 -0.3668
 2154SOL    HW117924   3.034   0.345   1.663 -1.7759 -0.5919  1.0461
 2154SOL    HW217925   3.020   0.386   1.517  0.4912  0.7873  0.4310
 2155SOL     OW17926   4.566   0.049   7.644  0.1124 -0.2544 -0.5255
 2155SOL    HW117927   4.630   0.069   7.712  0.6677  0.4234 -1.2404
 2155SOL    HW217928   4.496   0.016   7.700 -0.0349 -1.7235 -1.5881
 2156SOL     OW17929   2.760   1.440   6.823 -0.2498  0.2463  0.4245
 2156SOL    HW117930   2.790   1.522   6.785  1.2285 -0.5766 -0.1840
 2156SOL    HW217931   2.731   1.470   6.909  0.5927  2.6567 -0.1206
 2157SOL     OW17932   4.266   3.034  14.478  0.0349  0.6174 -0.3715
 2157SOL    HW117933   4.333   3.074  14.534 -0.3553  0.0740  0.4865
 2157SOL    HW217934   4.284   3.083  14.398 -0.8325  1.6862  0.1003
 2158SOL     OW17935   1.563   3.678   8.419  0.4742 -0.0413  0.0783
 2158SOL    HW117936   1.539   3.730   8.342  0.7401  2.3190  1.5926
 2158SOL    HW217937   1.651   3.716   8.421  0.7174 -0.5773 -0.4495
 2159SOL     OW17938   3.388   3.609   4.828 -0.0049 -0.4715 -0.5802
 2159SOL    HW117939   3.383   3.517   4.805 -0.5678 -0.6321  0.1680
 2159SOL    HW217940   3.482   3.629   4.826  0.1737 -1.0031  2.2315
 2160SOL     OW17941   2.563   3.511   8.936 -0.4428  0.0504 -0.6877
 2160SOL    HW117942   2.468   3.504   8.939 -0.3048 -1.5466 -0.4858
 2160SOL    HW217943   2.594   3.449   9.002  1.1536  0.8642 -0.6651
 2161SOL     OW17944   1.152   1.400   8.966  0.0872 -0.0691  0.2423
 2161SOL    HW117945   1.134   1.335   8.899  1.6481 -1.7839  1.4817
 2161SOL    HW217946   1.071   1.451   8.974 -1.3591 -2.4833  1.0280
 2162SOL     OW17947   2.726   4.440  13.812  0.0831 -0.0403 -0.7581
 2162SOL    HW117948   2.718   4.454  13.907 -0.3902 -1.0429 -0.6518
 2162SOL    HW217949   2.732   4.524  13.768 -0.9261  1.2121  1.4596
 2163SOL     OW17950   4.612   3.343   4.924  0.6999 -0.5840  0.7525
 2163SOL    HW117951   4.630   3.297   5.006  1.2100 -0.0881  0.9174
 2163SOL    HW217952   4.676   3.414   4.932 -1.7432  1.5812  1.0736
 2164SOL     OW17953   0.201   1.095   6.607 -0.2394  0.4099  0.6705
 2164SOL    HW117954   0.238   1.099   6.695 -1.0189  0.8109  0.9779
 2164SOL    HW217955   0.154   1.178   6.600  0.5845  0.8202 -0.0443
 2165SOL     OW17956   1.211   3.414  12.182 -0.0682  0.1154  0.3531
 2165SOL    HW117957   1.291   3.463  12.201  0.6924 -1.4335  1.1593
 2165SOL    HW217958   1.220   3.339  12.240 -1.3254 -0.1582  0.1798
 2166SOL     OW17959   1.437   0.744   5.250 -0.1541  0.0440  0.0869
 2166SOL    HW117960   1.436   0.726   5.156  0.5856 -0.2726  0.1370
 2166SOL    HW217961   1.522   0.706   5.270  0.4308  1.7750  0.8688
 2167SOL     OW17962   1.327   4.257  12.394  0.1171 -0.1581 -0.3554
 2167SOL    HW117963   1.251   4.207  12.424 -2.0375  1.3886 -3.2179
 2167SOL    HW217964   1.360   4.200  12.325  2.6616 -1.1923  1.7136
 2168SOL     OW17965   3.199   0.884   8.696  0.1451 -0.1293  0.0898
 2168SOL    HW117966   3.105   0.903   8.690 -0.2159 -1.0839  2.4539
 2168SOL    HW217967   3.214   0.819   8.628  2.5889  2.1250 -1.5005
 2169SOL     OW17968   0.123   4.346   2.824 -0.1931  0.2429 -0.1856
 2169SOL    HW117969   0.116   4.417   2.761 -0.1436  0.6900  0.3061
 2169SOL    HW217970   0.066   4.377   2.894  1.4263  1.4651  0.6134
 2170SOL     OW17971   2.335   4.651   3.651 -0.5296 -0.1018  0.2549
 2170SOL    HW117972   2.336   0.007   3.704  0.6504  0.5416 -0.7516
 2170SOL    HW217973   2.241   4.634   3.661 -0.4309 -0.2604  0.9668
 2171SOL     OW17974   1.833   1.560   0.511  0.5933 -0.4531  0.3835
 2171SOL    HW117975   1.760   1.511   0.548  0.4568 -0.5891 -0.0620
 2171SOL    HW217976   1.897   1.491   0.491  1.3467  1.2341 -3.0436
 2172SOL     OW17977   3.446   2.209   6.739 -0.9514 -0.0866 -0.5086
 2172SOL    HW117978   3.358   2.240   6.763  0.0256  1.0068  1.6487
 2172SOL    HW217979   3.492   2.291   6.760 -0.8938 -0.2783  0.1129
 2173SOL     OW17980   2.053   3.967   1.875  0.2202  0.2172  0.2207
 2173SOL    HW117981   2.038   4.052   1.836 -0.1520 -0.4928 -1.1732
 2173SOL    HW217982   2.077   4.003   1.961 -1.3516  1.5933  0.0831
 2174SOL     OW17983   1.056   2.913   3.621 -0.1523 -0.3806  0.1792
 2174SOL    HW117984   1.118   2.945   3.686 -0.4345  0.2763  0.1233
 2174SOL    HW217985   1.003   2.993   3.615  0.3051 -0.0798  0.1745
 2175SOL     OW17986   2.736   3.800  15.411 -0.0074  0.2691  0.1080
 2175SOL    HW117987   2.798   3.820  15.340  0.1419 -0.3751  0.0549
 2175SOL    HW217988   2.777   3.729  15.460  1.7989  0.9867 -0.3620
 2176SOL     OW17989   0.469   2.397   1.545  0.4892  0.0153  0.4913
 2176SOL    HW117990   0.554   2.399   1.589  0.7530  1.2101 -0.0811
 2176SOL    HW217991   0.425   2.319   1.579  1.0672 -0.0453  1.0951
 2177SOL     OW17992   2.604   1.185   5.179 -0.0404  0.3747 -0.6354
 2177SOL    HW117993   2.578   1.274   5.157  1.7452  1.5597  2.0983
 2177SOL    HW217994   2.644   1.157   5.096 -2.4589 -0.5504 -1.4953
 2178SOL     OW17995   0.559   4.158   6.639  0.4020  0.6948  0.3473
 2178SOL    HW117996   0.496   4.228   6.655 -1.9541 -1.5847  1.1196
 2178SOL    HW217997   0.587   4.142   6.729  2.0902  2.3064  0.0938
 2179SOL     OW17998   4.460   2.817  15.617  0.0218  0.1643 -0.4176
 2179SOL    HW117999   4.429   2.868  15.691  0.7138  0.8737 -0.6100
 2179SOL    HW218000   4.425   2.867  15.544  0.8166 -3.5882 -3.3511
 2180SOL     OW18001   2.786   1.662   8.889 -0.1671  0.9631 -0.6378
 2180SOL    HW118002   2.818   1.572   8.881 -2.3440  0.2909 -1.7354
 2180SOL    HW218003   2.866   1.704   8.921 -1.3681  2.5227  0.3383
 2181SOL     OW18004   2.416   2.929   1.267 -0.5338  0.0642 -0.4809
 2181SOL    HW118005   2.393   2.891   1.182 -1.3159 -0.7005  0.0770
 2181SOL    HW218006   2.405   3.024   1.257  1.7158  0.3535 -0.0821
 2182SOL     OW18007   2.239   4.528   4.944  0.1697 -0.2289 -0.1630
 2182SOL    HW118008   2.321   4.527   4.992  0.1253  0.9540 -0.0572
 2182SOL    HW218009   2.263   4.582   4.870 -1.1946 -0.8931 -1.0871
 2183SOL     OW18010   0.228   0.016  13.202  0.5329 -0.0527 -0.0964
 2183SOL    HW118011   0.135   0.001  13.215  0.0528  3.6030  0.7278
 2183SOL    HW218012   0.232   0.108  13.176 -0.5585  1.5314  5.2306
 2184SOL     OW18013   4.437   0.777  12.798 -0.1471  0.6065 -0.1382
 2184SOL    HW118014   4.510   0.810  12.850 -0.2522 -0.3413  0.6134
 2184SOL    HW218015   4.411   0.851  12.743 -3.5869 -1.0859 -0.8325
 2185SOL     OW18016   3.771   1.100   7.911 -0.1111  0.2719 -0.2572
 2185SOL    HW118017   3.739   1.045   7.839  3.1405 -0.1695 -1.4173
 2185SOL    HW218018   3.686   1.106   7.954 -1.4404  2.7714 -3.1945
 2186SOL     OW18019   4.009   3.456   6.349  0.2413  0.5533 -0.3217
 2186SOL    HW118020   3.944   3.400   6.393  0.7587  0.5108  0.3836
 2186SOL    HW218021   4.086   3.416   6.391  0.2352  1.7974  0.8843
 2187SOL     OW18022   0.429   4.498   3.461 -0.1491  0.5353  0.1565
 2187SOL    HW118023   0.351   4.461   3.419  1.5336 -0.7815 -1.8049
 2187SOL    HW218024   0.410   4.473   3.552  0.6555 -0.1513  0.1355
 2188SOL     OW18025   2.159   1.926  11.776 -0.0170 -0.5465  0.5532
 2188SOL    HW118026   2.181   1.961  11.689  1.4255  0.4285  1.2955
 2188SOL    HW218027   2.208   1.992  11.827  0.0362 -0.6553  0.6423
 2189SOL     OW18028   0.698   0.249   2.589 -0.1694 -0.5962  0.0829
 2189SOL    HW118029   0.767   0.254   2.655  0.1961  2.5694 -0.5327
 2189SOL    HW218030   0.731   0.171   2.543 -1.7050 -0.1315 -1.8327
 2190SOL     OW18031   1.375   1.942  10.098 -0.6179  0.1389  0.2823
 2190SOL    HW118032   1.386   1.969  10.189 -1.3355 -1.6970  0.9103
 2190SOL    HW218033   1.335   1.855  10.103  0.8883 -0.7270 -2.8487
 2191SOL     OW18034   2.846   2.259  16.172  0.4608 -0.2479 -0.0262
 2191SOL    HW118035   2.756   2.232  16.153  0.0797  0.9948 -0.0075
 2191SOL    HW218036   2.829   2.346  16.209  1.0283 -1.2018  2.4100
 2192SOL     OW18037   1.215   1.921   7.032  0.2847 -0.0115  0.1690
 2192SOL    HW118038   1.253   1.833   7.034 -0.4324 -0.3039  0.6744
 2192SOL    HW218039   1.233   1.956   7.119  0.6873 -3.0698  1.3155
 2193SOL     OW18040   0.196   2.379   5.609 -0.5714 -0.2655 -0.8796
 2193SOL    HW118041   0.115   2.331   5.630 -1.6380  1.8427 -0.1866
 2193SOL    HW218042   0.257   2.333   5.665  2.8016  2.3715 -2.4190
 2194SOL     OW18043   1.424   4.176   4.092  0.5983 -0.0926  0.2650
 2194SOL    HW118044   1.401   4.083   4.100 -1.8224  0.3924 -1.1751
 2194SOL    HW218045   1.387   4.221   4.167  0.8977 -1.2286  1.0976
 2195SOL     OW18046   0.688   0.472   3.174 -0.6441 -0.2938 -0.0745
 2195SOL    HW118047   0.717   0.417   3.101 -1.4135 -1.6362  0.6224
 2195SOL    HW218048   0.769   0.488   3.221 -0.8694 -0.2150  0.2845
 2196SOL     OW18049   2.368   2.325   8.708  0.1012  0.4904  0.3268
 2196SOL    HW118050   2.318   2.339   8.789 -1.0351  0.4829 -0.3732
 2196SOL    HW218051   2.302   2.355   8.646 -1.2585  0.0601  1.5721
 2197SOL     OW18052   1.584   4.596   2.213 -0.2260  0.0606  0.1069
 2197SOL    HW118053   1.599   4.666   2.150  0.6632  0.8820  1.2395
 2197SOL    HW218054   1.640   4.615   2.288  3.1430  1.3890 -2.7687
 2198SOL     OW18055   1.216   1.150   7.513  0.3061 -0.2559  0.5077
 2198SOL    HW118056   1.123   1.175   7.513 -0.2402 -2.2391  0.3712
 2198SOL    HW218057   1.217   1.104   7.429  0.0060  0.4932  0.0962
 2199SOL     OW18058   2.466   0.036   7.155  0.2368 -0.3019  0.0971
 2199SOL    HW118059   2.517   0.077   7.225 -0.2271  0.2407  0.1130
 2199SOL    HW218060   2.525   0.060   7.084 -1.9174 -0.4256 -1.7033
 2200SOL     OW18061   0.409   0.958   3.597 -0.2468 -0.0332 -0.7023
 2200SOL    HW118062   0.431   1.036   3.546  1.8507 -1.4484 -1.9995
 2200SOL    HW218063   0.463   0.901   3.542  1.5168  2.4489 -1.5028
 2201SOL     OW18064   3.779   4.235   9.338 -0.8493 -0.0357  0.5014
 2201SOL    HW118065   3.709   4.276   9.389 -1.1589 -1.2180  1.0155
 2201SOL    HW218066   3.740   4.249   9.252  0.2918 -1.6743 -0.2670
 2202SOL     OW18067   3.999   0.773   7.274 -0.5814  0.1682 -0.6153
 2202SOL    HW118068   3.993   0.735   7.361  0.7385 -0.6249 -0.8709
 2202SOL    HW218069   3.986   0.693   7.223 -0.8018 -0.8042  0.9640
 2203SOL     OW18070   2.375   2.369  13.763  0.2819 -0.0664 -0.4429
 2203SOL    HW118071   2.316   2.318  13.708  2.2429 -0.6930 -1.9577
 2203SOL    HW218072   2.430   2.300  13.800  0.5453  1.6732  2.3829
 2204SOL     OW18073   3.590   1.755   3.822 -0.0189 -0.2295  0.6810
 2204SOL    HW118074   3.526   1.758   3.893 -0.3463 -1.8672  0.4573
 2204SOL    HW218075   3.615   1.847   3.825 -0.2224 -0.1295 -0.6771
 2205SOL     OW18076   3.166   2.140   2.757  0.1669  0.5462 -0.0242
 2205SOL    HW118077   3.215   2.221   2.769 -0.9879  1.5977 -2.2872
 2205SOL    HW218078   3.150   2.141   2.662  0.4212 -0.2628 -0.0748
 2206SOL     OW18079   3.421   2.778   9.300 -0.1246 -0.0102  0.1462
 2206SOL    HW118080   3.376   2.722   9.237 -0.4360 -1.7439  1.9229
 2206SOL    HW218081   3.350   2.825   9.345 -0.8967  1.6948 -2.8628
 2207SOL     OW18082   0.095   0.617   3.806 -0.0838 -0.3970  0.2918
 2207SOL    HW118083   0.013   0.568   3.807  0.5709 -1.5119 -0.8134
 2207SOL    HW218084   0.065   0.694   3.855  2.7865  1.2149 -0.4783
 2208SOL     OW18085   2.223   0.747   2.571  0.2576 -0.1166 -0.4243
 2208SOL    HW118086   2.152   0.786   2.623 -0.9171 -3.5766  0.5690
 2208SOL    HW218087   2.228   0.657   2.603 -0.7436  0.0113  0.1155
 2209SOL     OW18088   2.133   3.435  14.328  0.7976  0.1831 -0.2894
 2209SOL    HW118089   2.072   3.362  14.335  2.4931 -1.2323 -0.5341
 2209SOL    HW218090   2.090   3.505  14.377  1.4248  0.8112 -0.6317
 2210SOL     OW18091   0.588   3.823   3.673 -0.1303 -0.4680  0.6950
 2210SOL    HW118092   0.623   3.806   3.586  0.4688  2.4479  0.3568
 2210SOL    HW218093   0.627   3.909   3.690 -3.1637  1.0602  0.0003
 2211SOL     OW18094   4.547   1.249   8.237 -0.0529 -0.0305  0.1118
 2211SOL    HW118095   4.511   1.234   8.325  1.3754  2.1342  1.0604
 2211SOL    HW218096   4.568   1.342   8.245 -2.4391  0.5661 -0.4473
 2212SOL     OW18097   3.177   2.471   3.514 -0.1731  0.9903  0.4219
 2212SOL    HW118098   3.240   2.405   3.484 -1.4138  0.0245 -0.0645
 2212SOL    HW218099   3.148   2.498   3.426 -1.1035  2.6876  1.2601
 2213SOL     OW18100   2.041   3.796  12.779  0.5408 -0.1210  0.4347
 2213SOL    HW118101   2.056   3.804  12.684  0.1523  0.2923  0.4042
 2213SOL    HW218102   1.948   3.772  12.784  0.2499  0.9741  0.4311
 2214SOL     OW18103   0.978   3.788  14.680  0.0881  0.2730  0.0007
 2214SOL    HW118104   1.042   3.844  14.638  0.2441  1.4709  1.8362
 2214SOL    HW218105   0.979   3.709  14.626  2.0286 -1.7114  2.9116
 2215SOL     OW18106   0.431   1.434   5.497  0.0092  0.2973  0.3426
 2215SOL    HW118107   0.378   1.504   5.536  0.8793  0.5662  1.0554
 2215SOL    HW218108   0.368   1.369   5.467 -1.5260  1.9919 -0.0903
 2216SOL     OW18109   1.181   2.007   7.512 -0.2460  0.3776  0.6198
 2216SOL    HW118110   1.121   2.080   7.528 -2.6805 -1.8083  1.5783
 2216SOL    HW218111   1.156   1.947   7.583  1.0344  1.2371  1.7887
 2217SOL     OW18112   1.039   1.554  17.122  0.1948 -0.2113 -0.5720
 2217SOL    HW118113   0.993   1.489  17.068  0.4584 -0.7673 -0.1281
 2217SOL    HW218114   0.970   1.598  17.171  1.6549  0.8173  0.5423
 2218SOL     OW18115   2.441   0.215   5.291 -0.6835  0.4374 -0.5190
 2218SOL    HW118116   2.400   0.187   5.209 -0.9219 -2.7495  0.6806
 2218SOL    HW218117   2.374   0.275   5.326 -0.8218 -0.2597  0.4246
 2219SOL     OW18118   4.286   1.649  11.002 -0.2259 -0.3460  0.1440
 2219SOL    HW118119   4.222   1.604  11.057 -1.2120  1.3515  0.3808
 2219SOL    HW218120   4.295   1.736  11.041  1.4013 -0.7850  0.7537
 2220SOL     OW18121   4.339   1.656   8.097  0.1113 -0.1811 -0.4436
 2220SOL    HW118122   4.268   1.599   8.068  0.1124  0.4331 -1.6579
 2220SOL    HW218123   4.282   1.714   8.149  2.0731  1.8654 -0.5801
 2221SOL     OW18124   2.563   2.648   7.096  0.7519 -0.8913 -0.6037
 2221SOL    HW118125   2.507   2.710   7.048  0.4519 -1.4876 -1.0226
 2221SOL    HW218126   2.617   2.714   7.140  1.1515 -0.9762 -0.9642
 2222SOL     OW18127   0.784   4.176   2.407 -0.2104  0.6770 -0.0689
 2222SOL    HW118128   0.778   4.169   2.503  2.4452 -1.0500 -0.0257
 2222SOL    HW218129   0.870   4.216   2.396  0.3300 -0.4970 -0.1625
 2223SOL     OW18130   0.332   3.763   9.324 -0.7055  0.0224  0.6131
 2223SOL    HW118131   0.418   3.727   9.303 -1.3857 -0.6436 -0.9880
 2223SOL    HW218132   0.296   3.785   9.238  0.4162 -0.1543  0.0980
 2224SOL     OW18133   1.033   1.481  15.435  0.6875 -0.2766 -0.4830
 2224SOL    HW118134   1.097   1.474  15.364 -0.3141 -2.3893 -1.1862
 2224SOL    HW218135   1.057   1.567  15.470  0.3324 -0.4214  0.1125
 2225SOL     OW18136   3.345   4.615  12.019 -0.3598 -0.3429 -0.8091
 2225SOL    HW118137   3.306   4.560  12.087 -0.3515 -0.4365 -0.8799
 2225SOL    HW218138   3.270   4.622  11.959 -1.2317 -0.4765  0.2677
 2226SOL     OW18139   2.467   2.837   4.595  0.4038 -0.0923  0.5751
 2226SOL    HW118140   2.525   2.840   4.519 -0.0083 -2.1543  0.1802
 2226SOL    HW218141   2.509   2.902   4.652 -1.9800 -0.2712  2.5245
 2227SOL     OW18142   2.676   2.561   3.249 -0.0876 -0.1688 -0.1607
 2227SOL    HW118143   2.603   2.501   3.236  2.1334 -3.2823  1.9144
 2227SOL    HW218144   2.713   2.508   3.320 -0.7025 -2.6020 -1.6633
 2228SOL     OW18145   0.884   1.221   0.958 -0.3643  0.2199 -0.3300
 2228SOL    HW118146   0.902   1.295   0.901 -0.4914  0.4037 -0.1349
 2228SOL    HW218147   0.855   1.156   0.894  0.1095 -0.7445  0.4362
 2229SOL     OW18148   0.802   2.319   1.949  0.2837  0.1958  0.0839
 2229SOL    HW118149   0.773   2.303   2.039 -0.3185 -0.4573 -0.2266
 2229SOL    HW218150   0.883   2.358   1.980  0.5569 -0.0044 -0.3765
 2230SOL     OW18151   2.781   2.392   9.228 -0.0527 -0.3317 -0.0951
 2230SOL    HW118152   2.729   2.318   9.200  0.1074 -1.0987  1.6276
 2230SOL    HW218153   2.772   2.374   9.322  0.7129  1.4909  0.3301
 2231SOL     OW18154   2.797   3.859   4.696  0.2305  0.1250  0.2152
 2231SOL    HW118155   2.748   3.782   4.726  0.5185  0.4856  1.6284
 2231SOL    HW218156   2.794   3.911   4.777  1.6685 -0.9288  0.9514
 2232SOL     OW18157   1.221   3.039   3.806  0.1649  0.7483  0.0382
 2232SOL    HW118158   1.173   3.031   3.888  0.5889 -0.0975  0.2042
 2232SOL    HW218159   1.311   3.026   3.838 -0.2798  0.6163  1.2318
 2233SOL     OW18160   3.879   1.326   8.000 -0.2629 -0.2661 -0.5319
 2233SOL    HW118161   3.939   1.353   7.930  0.6130 -2.2807 -0.5678
 2233SOL    HW218162   3.829   1.264   7.947 -0.0461 -0.7292 -0.1987
 2234SOL     OW18163   2.396   0.210   7.767  0.2361  0.5888 -0.0451
 2234SOL    HW118164   2.431   0.121   7.770 -0.6524  0.2377  0.0277
 2234SOL    HW218165   2.453   0.252   7.703 -1.0455 -1.3099 -2.4187
 2235SOL     OW18166   0.829   0.405   3.561  0.3243 -0.1442  0.4230
 2235SOL    HW118167   0.760   0.348   3.595  1.4330 -1.5559  0.3301
 2235SOL    HW218168   0.854   0.371   3.475 -0.9382 -3.1415  1.2385
 2236SOL     OW18169   1.444   3.677  10.405  0.0250  0.2187 -0.2490
 2236SOL    HW118170   1.454   3.772  10.409  0.3819  0.2249 -1.4499
 2236SOL    HW218171   1.535   3.650  10.391 -0.1761 -1.2884  1.3435
 2237SOL     OW18172   0.353   0.956   8.649  0.0743  0.2233 -0.4098
 2237SOL    HW118173   0.378   0.911   8.729  1.8795  0.2874 -0.9464
 2237SOL    HW218174   0.386   1.043   8.670  0.3441  0.1190 -0.4036
 2238SOL     OW18175   2.814   1.636   2.006  0.3411  0.3961  0.7083
 2238SOL    HW118176   2.769   1.711   2.045 -1.1465 -1.2721  2.1870
 2238SOL    HW218177   2.744   1.586   1.964  1.4895 -0.5887 -0.0276
 2239SOL     OW18178   3.905   0.114   2.479 -0.1460 -0.0032  0.6771
 2239SOL    HW118179   3.832   0.115   2.541 -0.3015 -0.0437  0.4966
 2239SOL    HW218180   3.914   0.019   2.471  0.4505 -0.0550  2.1040
 2240SOL     OW18181   1.928   3.694   9.066 -0.8745  0.3850 -0.6698
 2240SOL    HW118182   1.988   3.732   9.130 -0.4051 -1.4865 -0.0100
 2240SOL    HW218183   1.959   3.604   9.074 -0.8020  0.5143  0.5042
 2241SOL     OW18184   2.488   1.908   6.408 -0.2408 -0.0990 -0.1822
 2241SOL    HW118185   2.540   1.834   6.377  0.4057  0.9769 -1.7276
 2241SOL    HW218186   2.539   1.927   6.487 -0.6866  1.1311 -0.1958
 2242SOL     OW18187   4.411   4.464  17.141  0.1046  0.2351  0.3553
 2242SOL    HW118188   4.473   4.448  17.212 -0.1312 -0.2873  0.4393
 2242SOL    HW218189   4.420   4.559  17.138 -0.2596  0.2078 -1.4520
 2243SOL     OW18190   0.958   0.896   8.828  0.6262  0.0767  0.1248
 2243SOL    HW118191   0.903   0.972   8.845 -0.5327 -0.6257 -0.4821
 2243SOL    HW218192   0.910   0.853   8.758  2.6845  1.8339 -2.3895
 2244SOL     OW18193   3.385   0.589  15.466 -0.3260  0.3594 -0.5079
 2244SOL    HW118194   3.454   0.590  15.400  0.1104  2.0746 -0.0193
 2244SOL    HW218195   3.312   0.557  15.412  0.9324  2.3674 -3.4143
 2245SOL     OW18196   0.502   1.349   3.996 -0.0442 -0.5496 -0.3865
 2245SOL    HW118197   0.488   1.433   4.040  0.2786 -1.8763  2.2288
 2245SOL    HW218198   0.564   1.306   4.055 -0.6567  0.0415  0.6869
 2246SOL     OW18199   2.800   0.777  17.008 -0.0610 -0.5484  0.4321
 2246SOL    HW118200   2.760   0.699  17.045 -1.5076 -1.1674 -2.3898
 2246SOL    HW218201   2.866   0.733  16.954  0.0116 -1.6769  1.4561
 2247SOL     OW18202   3.488   1.020   0.406  0.1204  0.4908  0.4944
 2247SOL    HW118203   3.545   1.063   0.469  4.4349 -0.6717 -2.6274
 2247SOL    HW218204   3.543   1.004   0.329 -0.8413 -2.1066  0.3337
 2248SOL     OW18205   3.706   4.422  14.471 -0.3111 -0.0709 -0.5081
 2248SOL    HW118206   3.761   4.459  14.402  0.8260 -0.0610  0.3989
 2248SOL    HW218207   3.631   4.389  14.423  0.5529  0.8183 -2.4533
 2249SOL     OW18208   3.010   2.300  10.641  0.4175  0.1318  0.3386
 2249SOL    HW118209   2.947   2.371  10.627  0.0495 -0.5703 -1.5770
 2249SOL    HW218210   3.019   2.276  10.549  0.0098 -2.1671  0.8966
 2250SOL     OW18211   1.995   3.266   6.479  0.3137 -0.4040  0.9635
 2250SOL    HW118212   1.918   3.239   6.528 -0.5114  0.2484  0.0369
 2250SOL    HW218213   2.057   3.266   6.552  0.5221  0.4564  0.7920
 2251SOL     OW18214   3.342   4.245   5.379 -0.0694  0.1322 -0.2878
 2251SOL    HW118215   3.303   4.333   5.373  0.7426  0.4641 -0.7397
 2251SOL    HW218216   3.397   4.247   5.301 -1.1220 -0.1220 -1.0268
 2252SOL     OW18217   4.089   3.785   5.092 -0.5626 -0.0481  0.1961
 2252SOL    HW118218   4.122   3.713   5.145 -2.2266  0.5422  2.0365
 2252SOL    HW218219   4.123   3.760   5.006  1.7841  2.1203  0.4813
 2253SOL     OW18220   0.000   0.509  14.167  0.1671  0.1434  0.4296
 2253SOL    HW118221   4.709   0.596  14.131  1.2323  0.0777 -0.1829
 2253SOL    HW218222   0.088   0.473  14.155 -1.3283 -3.1414 -0.8233
 2254SOL     OW18223   3.549   0.595  10.944 -0.0528 -0.9581  0.2328
 2254SOL    HW118224   3.474   0.616  10.999  0.0291 -1.2779  0.4611
 2254SOL    HW218225   3.520   0.511  10.909 -2.3838  1.3012 -3.3046
 2255SOL     OW18226   3.549   3.088   9.998 -0.0944  0.1841 -0.6984
 2255SOL    HW118227   3.580   3.151  10.063 -0.8724  1.1592 -1.2658
 2255SOL    HW218228   3.472   3.132   9.960 -0.7567 -0.4501 -0.0774
 2256SOL     OW18229   1.752   1.120   7.000 -0.4902 -0.2886 -0.7794
 2256SOL    HW118230   1.769   1.067   6.922 -1.3750 -0.1556 -1.0653
 2256SOL    HW218231   1.807   1.082   7.069 -3.1337 -1.6573  0.5993
 2257SOL     OW18232   2.722   0.243   4.551 -0.0412  0.0155  0.4336
 2257SOL    HW118233   2.698   0.322   4.503 -0.8740 -0.9242 -0.6542
 2257SOL    HW218234   2.729   0.285   4.637 -1.5669  2.2064 -0.5303
 2258SOL     OW18235   3.814   1.053   6.688  0.5645 -0.1148  0.0111
 2258SOL    HW118236   3.782   0.975   6.643 -1.1378  0.2895  0.5375
 2258SOL    HW218237   3.909   1.042   6.695  0.6380 -0.2685 -1.1778
 2259SOL     OW18238   0.114   0.565  15.429  0.0848  0.2162 -0.0278
 2259SOL    HW118239   0.192   0.607  15.465 -0.4014  0.5175  0.6865
 2259SOL    HW218240   0.143   0.491  15.376 -1.1846 -0.9880  0.9320
 2260SOL     OW18241   4.337   2.518  13.171 -0.0409  0.5183 -0.1300
 2260SOL    HW118242   4.298   2.588  13.119  1.7901  1.9240  0.4278
 2260SOL    HW218243   4.316   2.445  13.112  1.1567 -0.1823  0.3119
 2261SOL     OW18244   3.816   3.102  15.450 -0.3295 -0.8365 -0.0300
 2261SOL    HW118245   3.764   3.157  15.392  0.8923 -0.2002 -0.5142
 2261SOL    HW218246   3.897   3.087  15.401 -0.1656  0.2252 -0.0815
 2262SOL     OW18247   0.666   2.510   7.089  0.2773  0.3192 -0.1354
 2262SOL    HW118248   0.720   2.502   7.010  1.2417 -3.3279  0.8719
 2262SOL    HW218249   0.640   2.418   7.098  0.6416  0.5817  3.5385
 2263SOL     OW18250   2.308   4.536  13.460  0.2601 -0.4604 -0.0259
 2263SOL    HW118251   2.271   4.623  13.442  2.6042  0.5091 -0.1407
 2263SOL    HW218252   2.252   4.501  13.528 -0.7650  2.2017  0.5225
 2264SOL     OW18253   2.356   4.367   7.094 -0.5200  0.1484  0.3890
 2264SOL    HW118254   2.437   4.417   7.101 -0.1344 -0.1817 -1.8812
 2264SOL    HW218255   2.294   4.437   7.117  1.0762  0.8932  2.4614
 2265SOL     OW18256   4.283   2.077   6.170 -0.5001  0.5620  0.1785
 2265SOL    HW118257   4.333   2.158   6.156  3.3674 -1.9357 -0.4983
 2265SOL    HW218258   4.217   2.109   6.231 -1.1631  0.8653 -0.6986
 2266SOL     OW18259   3.638   3.664   4.753 -0.3795 -0.2888 -0.4622
 2266SOL    HW118260   3.697   3.732   4.724  0.2758 -0.0947  1.3376
 2266SOL    HW218261   3.692   3.586   4.766 -0.2359 -0.1481 -0.2298
 2267SOL     OW18262   0.239   3.810   5.581  0.0229 -0.6534 -0.7757
 2267SOL    HW118263   0.333   3.826   5.588 -0.4050  0.7714  1.6487
 2267SOL    HW218264   0.222   3.764   5.663 -0.4172 -0.0305 -0.5221
 2268SOL     OW18265   3.397   3.501   3.218  0.4040 -0.2510 -0.1296
 2268SOL    HW118266   3.407   3.594   3.195  0.1838 -0.0255  0.7110
 2268SOL    HW218267   3.326   3.475   3.160 -0.6871  2.3281  0.0354
 2269SOL     OW18268   4.532   2.785   7.645  0.7935 -0.3526 -0.0036
 2269SOL    HW118269   4.585   2.717   7.685  0.4030 -0.9016 -0.4073
 2269SOL    HW218270   4.575   2.867   7.667 -1.3507  1.5385 -2.8187
 2270SOL     OW18271   1.427   3.438   5.691 -0.3251 -0.6654  0.5705
 2270SOL    HW118272   1.395   3.361   5.644  2.0994 -0.8430 -0.7641
 2270SOL    HW218273   1.402   3.508   5.630  1.6216 -0.4591  0.0283
 2271SOL     OW18274   3.866   2.196   9.392  0.5366 -0.3510  0.4963
 2271SOL    HW118275   3.905   2.261   9.450 -2.0980  0.8229  0.9234
 2271SOL    HW218276   3.827   2.139   9.458  1.4199 -2.0775 -0.4522
 2272SOL     OW18277   1.677   2.286   1.214  0.1921 -0.6318 -0.2346
 2272SOL    HW118278   1.675   2.228   1.137  1.7224  0.6417 -1.2351
 2272SOL    HW218279   1.613   2.352   1.188  0.2409 -1.3192 -2.0815
 2273SOL     OW18280   1.487   4.300   3.339  0.2157  0.5690 -0.2398
 2273SOL    HW118281   1.464   4.328   3.428  1.9757 -1.7122  0.9118
 2273SOL    HW218282   1.495   4.208   3.363 -1.4165  0.4503 -0.1629
 2274SOL     OW18283   3.759   4.615   0.488 -0.3607 -0.4278 -0.3083
 2274SOL    HW118284   3.848   4.645   0.507 -0.3847  1.0063 -2.4532
 2274SOL    HW218285   3.713   4.644   0.566 -0.9021  0.0424 -0.7980
 2275SOL     OW18286   3.836   3.392   8.808  0.1375  0.2073 -0.3959
 2275SOL    HW118287   3.850   3.307   8.850  0.6015 -0.4615 -1.8798
 2275SOL    HW218288   3.811   3.433   8.890  2.0083 -0.4080  0.4802
 2276SOL     OW18289   3.567   2.721   8.610  0.0919 -0.0305 -0.6778
 2276SOL    HW118290   3.512   2.724   8.531  0.7093  0.5731 -1.0834
 2276SOL    HW218291   3.516   2.774   8.670  0.1458 -0.1748 -0.5044
 2277SOL     OW18292   4.021   2.845   1.368  0.3551 -0.3131 -0.2561
 2277SOL    HW118293   4.056   2.911   1.309  1.9751 -1.4332 -0.5749
 2277SOL    HW218294   3.933   2.877   1.384  0.2360 -1.0321  0.5491
 2278SOL     OW18295   2.226   3.441   3.751 -0.3131  0.6077 -0.4193
 2278SOL    HW118296   2.222   3.534   3.773  0.4484  0.1419  1.7070
 2278SOL    HW218297   2.310   3.417   3.711  0.8892  3.4107  0.4494
 2279SOL     OW18298   0.868   1.569   7.062  0.3326 -0.0507  0.5153
 2279SOL    HW118299   0.825   1.577   7.147  0.1820  1.1318  0.3218
 2279SOL    HW218300   0.929   1.498   7.081  0.7843  0.4846  1.0794
 2280SOL     OW18301   1.050   3.445   3.470  0.1869 -0.9925  0.0995
 2280SOL    HW118302   1.120   3.396   3.428  0.4887 -0.6912  0.2514
 2280SOL    HW218303   1.081   3.536   3.464 -1.5853 -0.2298  2.4787
 2281SOL     OW18304   4.381   3.825   5.394  0.2227 -0.1940 -0.2816
 2281SOL    HW118305   4.289   3.815   5.421  0.9882  1.1441  2.8734
 2281SOL    HW218306   4.391   3.917   5.370  0.4858  0.7434  3.3438
 2282SOL     OW18307   4.485   3.148   1.807  0.1374  0.5664  0.0029
 2282SOL    HW118308   4.565   3.100   1.788  0.5813  1.0000  0.7662
 2282SOL    HW218309   4.502   3.219   1.746 -1.9305  0.9976 -0.0787
 2283SOL     OW18310   3.713   0.651   8.334 -0.0034  0.3437  0.6598
 2283SOL    HW118311   3.701   0.571   8.384 -5.7323  0.9977  0.2792
 2283SOL    HW218312   3.807   0.664   8.347  0.2021  0.5048 -0.8778
 2284SOL     OW18313   2.584   0.164  16.271  0.2031  0.3397  0.4602
 2284SOL    HW118314   2.666   0.184  16.226 -0.3139  1.7930  0.1800
 2284SOL    HW218315   2.600   0.200  16.358 -1.0249  2.3131 -0.1215
 2285SOL     OW18316   1.337   0.939  11.316 -0.2360  0.6288  0.2281
 2285SOL    HW118317   1.265   0.879  11.298 -0.1493  0.6379 -0.1484
 2285SOL    HW218318   1.369   0.909  11.401 -0.8012  0.5920  0.4225
 2286SOL     OW18319   2.479   2.164   6.951  0.0127  0.2533 -0.3452
 2286SOL    HW118320   2.472   2.258   6.968 -1.9474 -0.0582  0.5317
 2286SOL    HW218321   2.392   2.137   6.980  0.5919 -0.5340  0.6500
 2287SOL     OW18322   1.594   2.283   4.266 -0.3318  0.5086  0.2606
 2287SOL    HW118323   1.526   2.350   4.258  0.0080  1.0789  2.2430
 2287SOL    HW218324   1.659   2.321   4.207 -0.1345 -0.6827 -0.3015
 2288SOL     OW18325   2.140   3.045  16.550  0.5562 -1.0150  0.0829
 2288SOL    HW118326   2.104   3.133  16.563  1.2862 -0.6999 -0.0607
 2288SOL    HW218327   2.213   3.066  16.492 -0.1814 -2.9523 -1.5364
 2289SOL     OW18328   3.650   0.517  11.625  0.6903 -0.1215 -0.0216
 2289SOL    HW118329   3.661   0.423  11.640 -0.0159 -0.1586  0.2267
 2289SOL    HW218330   3.731   0.549  11.584 -0.8397  0.9542 -2.2338
 2290SOL     OW18331   4.219   3.720   4.839 -0.5612  0.3664  0.0917
 2290SOL    HW118332   4.157   3.650   4.822  0.4498  0.0225 -2.1107
 2290SOL    HW218333   4.300   3.668   4.844 -1.6145 -1.1296  1.4372
 2291SOL     OW18334   1.596   1.845   4.451  0.4083 -0.5961 -0.0235
 2291SOL    HW118335   1.598   1.911   4.382  0.5533 -0.8380 -0.2551
 2291SOL    HW218336   1.656   1.776   4.422  0.0150  0.3448 -3.0100
 2292SOL     OW18337   2.449   2.194   4.197 -0.0362 -0.0526  0.6257
 2292SOL    HW118338   2.461   2.282   4.161 -2.4670 -0.1369 -0.3547
 2292SOL    HW218339   2.492   2.145   4.127 -2.0680  0.1546 -0.7443
 2293SOL     OW18340   2.548   0.666  10.977 -0.0328 -0.0903  0.2626
 2293SOL    HW118341   2.605   0.588  10.980  1.0922  0.5992 -3.3487
 2293SOL    HW218342   2.467   0.637  10.935  0.4441 -1.9520  0.5879
 2294SOL     OW18343   2.954   0.294  11.387 -0.2983 -0.2577  0.9671
 2294SOL    HW118344   2.886   0.252  11.439 -0.9661  0.4839  0.6906
 2294SOL    HW218345   2.948   0.221  11.325 -1.3857  1.7329 -1.2404
 2295SOL     OW18346   1.940   1.528   1.266 -0.0183  0.5119  1.0697
 2295SOL    HW118347   1.896   1.565   1.342 -0.6717 -2.8511  2.3246
 2295SOL    HW218348   1.874   1.462   1.244  1.9741 -1.0820 -0.2892
 2296SOL     OW18349   2.509   2.822   3.096  0.6376  0.1019 -0.8034
 2296SOL    HW118350   2.485   2.888   3.030 -0.1775 -0.3740 -0.9772
 2296SOL    HW218351   2.427   2.816   3.144  0.7909  0.6842 -0.4727
 2297SOL     OW18352   2.966   0.538   7.819  1.0556 -0.3712  0.0477
 2297SOL    HW118353   2.954   0.472   7.887 -2.4321 -1.2151 -1.3611
 2297SOL    HW218354   3.058   0.534   7.792  0.9892 -1.9874  0.0950
 2298SOL     OW18355   0.806   4.489   5.845 -0.1368 -0.0663  0.8319
 2298SOL    HW118356   0.899   4.476   5.865  0.7152  1.2144 -2.3651
 2298SOL    HW218357   0.819   4.510   5.753 -1.6202  0.8835  0.8418
 2299SOL     OW18358   2.953   0.570  11.474 -0.1719  0.2342  0.1623
 2299SOL    HW118359   2.959   0.485  11.430  0.3982  0.3306  0.0526
 2299SOL    HW218360   2.992   0.625  11.405 -1.1141  0.2284 -0.3775
 2300SOL     OW18361   2.644   4.383   9.452  0.3739  0.2001 -0.1311
 2300SOL    HW118362   2.615   4.367   9.362  0.8309 -1.7736  0.0674
 2300SOL    HW218363   2.585   4.323   9.498 -0.7319  0.2010 -1.5328
 2301SOL     OW18364   1.060   0.523  15.440 -0.4026 -0.2342 -0.4438
 2301SOL    HW118365   1.021   0.458  15.498  0.1587 -0.7210 -0.6130
 2301SOL    HW218366   0.987   0.586  15.442 -0.8855 -0.8208  0.3786
 2302SOL     OW18367   1.292   1.963   2.067 -0.0664  0.5002 -0.2642
 2302SOL    HW118368   1.216   1.986   2.122 -1.2104 -1.2272 -1.1250
 2302SOL    HW218369   1.259   1.917   1.990 -2.1462  1.3754  0.0939
 2303SOL     OW18370   3.890   3.047   4.439 -0.1552  0.2325  0.5245
 2303SOL    HW118371   3.795   3.049   4.430  0.0175  0.2323 -1.2328
 2303SOL    HW218372   3.907   3.014   4.351  0.3538 -0.5098  0.8915
 2304SOL     OW18373   3.508   2.412  14.224  0.9643 -0.2737 -0.1230
 2304SOL    HW118374   3.530   2.320  14.241  2.1246 -0.0224 -0.2310
 2304SOL    HW218375   3.526   2.442  14.313 -0.5380  1.1853 -0.3211
 2305SOL     OW18376   3.461   4.654   9.144  0.2682  0.4608  0.4522
 2305SOL    HW118377   3.461   4.621   9.234 -0.4455 -2.4018 -0.5990
 2305SOL    HW218378   3.555   4.669   9.135  0.1833  0.3882 -0.5520
 2306SOL     OW18379   4.675   1.009  16.259  0.4196  0.2662  0.8085
 2306SOL    HW118380   4.706   1.080  16.316 -1.6470 -0.2445  2.5341
 2306SOL    HW218381   0.025   1.007  16.198 -0.5547  5.3842 -0.5844
 2307SOL     OW18382   1.055   3.943   9.085  0.4123  0.5378  0.0532
 2307SOL    HW118383   0.985   3.930   9.021  2.1760  1.9842 -2.1456
 2307SOL    HW218384   1.006   3.955   9.166  0.9236  0.3152  0.3949
 2308SOL     OW18385   2.048   1.168   2.620  0.1672 -0.1923  0.0036
 2308SOL    HW118386   2.088   1.181   2.534 -0.5417  1.9203 -0.0038
 2308SOL    HW218387   1.976   1.113   2.588  0.5900  0.2984 -1.8136
 2309SOL     OW18388   2.114   0.577   1.786  0.7783 -0.2035 -0.5323
 2309SOL    HW118389   2.121   0.653   1.728  2.1455 -1.7754 -2.4399
 2309SOL    HW218390   2.131   0.512   1.718 -1.1893 -0.0146 -1.2009
 2310SOL     OW18391   1.249   0.808   6.859  0.2672  0.2286 -0.3969
 2310SOL    HW118392   1.295   0.827   6.941 -0.1910 -2.1599  0.4198
 2310SOL    HW218393   1.286   0.880   6.809  0.6690  1.7881  2.1414
 2311SOL     OW18394   3.087   4.003   8.267 -0.0451  0.3184  0.1853
 2311SOL    HW118395   3.006   3.967   8.302 -0.9787  1.5568 -0.6948
 2311SOL    HW218396   3.048   4.054   8.196 -2.1388 -2.8368 -0.8909
 2312SOL     OW18397   2.619   0.934   2.494  0.3483 -0.4451  0.0615
 2312SOL    HW118398   2.612   0.953   2.587  1.6705  2.0305 -0.3598
 2312SOL    HW218399   2.532   0.967   2.474 -0.2380 -1.8355  0.2848
 2313SOL     OW18400   1.008   3.168   6.212 -0.1009 -0.0974 -0.0918
 2313SOL    HW118401   0.947   3.103   6.248 -0.7968 -0.1493 -1.3461
 2313SOL    HW218402   1.083   3.109   6.221  0.4296  0.4784 -0.7286
 2314SOL     OW18403   1.151   1.848   3.390  0.0632 -0.1734 -0.4162
 2314SOL    HW118404   1.222   1.844   3.325 -1.4830 -2.3399 -1.9564
 2314SOL    HW218405   1.075   1.805   3.351 -0.6747  1.5912 -0.9196
 2315SOL     OW18406   2.310   2.850  17.089  0.2126  0.4791  0.2051
 2315SOL    HW118407   2.250   2.920  17.115 -0.7996 -1.1371  2.1328
 2315SOL    HW218408   2.290   2.857  16.995  3.0092 -1.1710 -0.5219
 2316SOL     OW18409   1.698   4.183   3.584 -0.4658 -0.1393  0.0310
 2316SOL    HW118410   1.788   4.162   3.560 -0.3663 -0.4400  0.6717
 2316SOL    HW218411   1.687   4.116   3.651 -1.7807 -0.8910 -0.9307
 2317SOL     OW18412   1.842   2.573   7.568  0.2916 -0.2082  0.3070
 2317SOL    HW118413   1.931   2.543   7.582  0.1262 -0.6848  0.3446
 2317SOL    HW218414   1.839   2.563   7.472  1.8501 -1.6441  0.4150
 2318SOL     OW18415   1.717   2.448   2.364 -0.3335  0.2441 -0.1776
 2318SOL    HW118416   1.765   2.479   2.441  1.2780 -0.9716 -0.7122
 2318SOL    HW218417   1.662   2.383   2.407  1.5933 -0.9663  0.4240
 2319SOL     OW18418   0.970   4.354   8.144  0.7254 -0.5894  0.4252
 2319SOL    HW118419   1.025   4.404   8.083  0.2559  1.6754  1.8450
 2319SOL    HW218420   0.973   4.271   8.096  0.6071  0.8762 -2.1319
 2320SOL     OW18421   2.022   1.595  17.370  0.2739 -0.5485 -0.2179
 2320SOL    HW118422   1.963   1.636  17.307  0.4018 -1.5218 -0.9648
 2320SOL    HW218423   1.994   1.636  17.453  0.5590 -0.7629 -0.0182
 2321SOL     OW18424   4.363   2.897   8.338  0.6785 -0.6251  0.1927
 2321SOL    HW118425   4.436   2.884   8.277  0.0434 -0.4272 -0.5997
 2321SOL    HW218426   4.385   2.855   8.421 -2.1404 -1.3645  0.5682
 2322SOL     OW18427   1.067   0.634   7.714  0.5080 -0.7354  0.0538
 2322SOL    HW118428   1.069   0.675   7.628 -1.3641  0.2418  0.4638
 2322SOL    HW218429   1.158   0.640   7.742  0.5026  1.3483 -0.3693
 2323SOL     OW18430   3.069   0.806  13.889  0.5065  0.0858 -0.0105
 2323SOL    HW118431   3.099   0.890  13.854  1.7328 -0.1961  0.3467
 2323SOL    HW218432   3.041   0.826  13.978  1.9576 -2.2796  0.9753
 2324SOL     OW18433   2.819   0.057  15.874 -0.3659  0.4813 -0.2570
 2324SOL    HW118434   2.811   0.029  15.965 -2.2448  1.7469 -0.0258
 2324SOL    HW218435   2.849   4.704  15.826  0.0876 -1.0786  2.5369
 2325SOL     OW18436   1.433   0.289   7.150  0.7178 -0.1156  0.8649
 2325SOL    HW118437   1.518   0.270   7.111 -0.0795 -1.4501 -0.2129
 2325SOL    HW218438   1.414   0.381   7.129 -0.7119 -0.7079 -0.4527
 2326SOL     OW18439   1.855   1.254   0.400 -0.2023  0.0000 -0.1530
 2326SOL    HW118440   1.947   1.228   0.397 -0.5431 -1.2343  0.4881
 2326SOL    HW218441   1.832   1.255   0.307 -0.4489 -2.4144 -0.1157
 2327SOL     OW18442   2.226   2.658   1.776  0.3779  0.1036 -0.1183
 2327SOL    HW118443   2.308   2.639   1.730  0.3473 -0.3822  0.0322
 2327SOL    HW218444   2.182   2.721   1.718  0.5475 -1.2869 -1.7684
 2328SOL     OW18445   3.286   3.141   7.234  0.2222 -0.0648 -0.3134
 2328SOL    HW118446   3.195   3.132   7.208  0.2603 -0.6032 -0.2532
 2328SOL    HW218447   3.326   3.062   7.198  0.4507 -0.2656  0.3673
 2329SOL     OW18448   0.834   4.496   2.840  0.2588  0.2007  0.1378
 2329SOL    HW118449   0.813   4.544   2.920 -2.2046  0.1477 -0.4649
 2329SOL    HW218450   0.915   4.540   2.813  0.9901 -0.3742  1.3819
 2330SOL     OW18451   1.271   1.695  10.258  0.6458 -0.2412  0.2033
 2330SOL    HW118452   1.201   1.651  10.211  0.3867  0.2034  0.1767
 2330SOL    HW218453   1.349   1.642  10.243 -0.1157 -1.8129  1.8039
 2331SOL     OW18454   4.461   0.789   4.565  0.1836 -0.3407 -0.4026
 2331SOL    HW118455   4.431   0.790   4.473 -0.0117  1.4240 -0.3314
 2331SOL    HW218456   4.380   0.821   4.605 -1.2807 -1.7202 -2.2255
 2332SOL     OW18457   2.781   0.774   3.880 -0.2072  0.1174  0.0455
 2332SOL    HW118458   2.764   0.680   3.882  0.1607 -0.0060 -2.9329
 2332SOL    HW218459   2.699   0.812   3.909 -0.9772 -1.0898 -0.5583
 2333SOL     OW18460   2.301   3.483   2.084  0.1897  0.9316  0.6599
 2333SOL    HW118461   2.269   3.570   2.107 -1.0695  0.7523 -0.3808
 2333SOL    HW218462   2.219   3.454   2.043  1.8567  0.0214 -2.0949
 2334SOL     OW18463   2.145   2.304   3.035 -0.0050  0.2477 -0.2662
 2334SOL    HW118464   2.225   2.258   3.011 -0.3523  1.4822 -3.6810
 2334SOL    HW218465   2.098   2.258   2.966  0.7423 -1.2036  0.1876
 2335SOL     OW18466   3.048   3.426   7.311 -0.1630 -0.0790 -0.0074
 2335SOL    HW118467   3.142   3.411   7.296 -0.7732 -2.1380 -1.7655
 2335SOL    HW218468   3.034   3.504   7.257 -0.0230 -1.0787 -1.4894
 2336SOL     OW18469   2.357   2.065   8.633 -0.4645  0.4986 -0.0362
 2336SOL    HW118470   2.280   2.040   8.685  0.3066 -3.0107 -0.5920
 2336SOL    HW218471   2.360   2.161   8.637  0.3569  0.4925 -0.4389
 2337SOL     OW18472   1.347   0.819  15.007  0.1066 -0.0610  0.3356
 2337SOL    HW118473   1.255   0.806  15.028 -0.5964  0.4497 -2.3563
 2337SOL    HW218474   1.373   0.864  15.087  2.2923 -3.5995  1.5916
 2338SOL     OW18475   0.179   1.696  10.470  0.8344 -0.0854 -0.5465
 2338SOL    HW118476   0.186   1.767  10.534  0.9391 -1.2877  0.7715
 2338SOL    HW218477   0.088   1.704  10.443  0.7423  0.2644 -0.1260
 2339SOL     OW18478   3.330   0.370   3.510  0.4181  0.2826 -0.3362
 2339SOL    HW118479   3.338   0.315   3.588 -1.2959 -0.4609 -0.6904
 2339SOL    HW218480   3.360   0.455   3.542  0.4718 -0.6930  2.2329
 2340SOL     OW18481   3.151   3.165  16.476 -0.5565  0.8772  0.2901
 2340SOL    HW118482   3.174   3.245  16.428  2.5771  1.5129  2.8612
 2340SOL    HW218483   3.240   3.133  16.491 -0.7607 -0.6801 -1.8083
 2341SOL     OW18484   2.440   0.359   3.673  0.2163 -0.2310 -0.0501
 2341SOL    HW118485   2.514   0.352   3.612  0.1898  0.6633 -0.1851
 2341SOL    HW218486   2.447   0.451   3.698 -0.7521 -1.0687  3.2959
 2342SOL     OW18487   4.615   1.034   0.583 -0.9490 -0.6692 -0.6649
 2342SOL    HW118488   4.587   0.949   0.549 -0.8242 -0.5226 -1.1330
 2342SOL    HW218489   4.532   1.078   0.602 -0.3343  0.0518  0.3310
 2343SOL     OW18490   3.060   0.512   5.514  0.4961 -0.0605 -0.0715
 2343SOL    HW118491   3.083   0.605   5.526 -0.8035  0.1166  1.0322
 2343SOL    HW218492   3.109   0.478   5.589  1.6228 -0.5170 -1.0189
 2344SOL     OW18493   0.559   1.001  15.998 -0.3293  0.5263 -0.1757
 2344SOL    HW118494   0.642   1.046  15.980 -0.1828 -0.0474 -0.9493
 2344SOL    HW218495   0.583   0.913  15.970 -3.3433  0.7957 -3.6701
 2345SOL     OW18496   2.259   1.973   3.967 -0.4108  0.2183  0.7365
 2345SOL    HW118497   2.221   1.886   3.976 -0.2170 -0.0920 -1.4803
 2345SOL    HW218498   2.230   2.023   4.043  1.7208 -1.4937  2.6775
 2346SOL     OW18499   4.702   0.889  10.696  0.3277  0.4868 -0.3656
 2346SOL    HW118500   4.700   0.874  10.790  2.6173 -0.5275 -0.4608
 2346SOL    HW218501   4.614   0.854  10.687  1.6873 -3.1396  0.0883
 2347SOL     OW18502   1.316   3.302   5.481  0.2074  0.3235  0.2561
 2347SOL    HW118503   1.253   3.236   5.452  1.0508  0.2102 -1.3709
 2347SOL    HW218504   1.309   3.363   5.408  0.7045  0.0814  0.0033
 2348SOL     OW18505   0.265   1.989   0.689 -0.5429 -0.2145 -0.9221
 2348SOL    HW118506   0.361   1.985   0.695 -0.7752 -1.8064  1.4766
 2348SOL    HW218507   0.234   1.911   0.735  0.1394  0.5329  0.8473
 2349SOL     OW18508   1.939   1.993   1.802  0.1918  0.0042  0.6289
 2349SOL    HW118509   1.922   2.086   1.786  1.5546  0.1398 -0.0176
 2349SOL    HW218510   1.865   1.978   1.861 -1.2611  2.9215 -0.4949
 2350SOL     OW18511   3.679   3.846   6.607  0.5218 -0.5048 -0.4046
 2350SOL    HW118512   3.641   3.758   6.605 -1.7648  0.5111 -1.4506
 2350SOL    HW218513   3.611   3.886   6.661  0.2843  0.1092 -1.1542
 2351SOL     OW18514   0.474   2.579   0.768 -0.0034  0.0400  0.1980
 2351SOL    HW118515   0.552   2.600   0.820 -0.2818 -0.2777  0.7409
 2351SOL    HW218516   0.467   2.485   0.784 -0.4020  0.1952  0.9362
 2352SOL     OW18517   2.936   4.084   4.528  0.1134  0.0815  0.1025
 2352SOL    HW118518   2.960   4.023   4.457 -1.1884 -1.9694  1.4309
 2352SOL    HW218519   2.905   4.023   4.595 -1.6592  1.4939  0.5775
 2353SOL     OW18520   1.426   2.764   7.428  0.1700 -0.2309 -0.1309
 2353SOL    HW118521   1.390   2.805   7.507  0.2114 -2.2158  0.9055
 2353SOL    HW218522   1.513   2.803   7.418  0.6806 -1.3227  0.0705
 2354SOL     OW18523   0.796   2.923   0.685 -0.4094 -0.7046  0.1808
 2354SOL    HW118524   0.848   2.872   0.747  0.4544 -0.4196 -0.3012
 2354SOL    HW218525   0.818   2.875   0.606  0.8088  0.0316  0.0673
 2355SOL     OW18526   4.191   4.548   6.685 -0.0981 -0.2818  0.8785
 2355SOL    HW118527   4.236   4.467   6.711 -0.4999 -1.1440 -1.1602
 2355SOL    HW218528   4.226   4.575   6.601 -0.9711  1.3453  1.0442
 2356SOL     OW18529   4.294   1.515  16.152  0.4504  0.3926 -0.2506
 2356SOL    HW118530   4.307   1.481  16.240  3.2604  0.3892 -0.6452
 2356SOL    HW218531   4.228   1.453  16.120  2.3543 -1.6051 -0.3087
 2357SOL     OW18532   1.202   0.335   8.237 -0.3353  0.7799 -0.1121
 2357SOL    HW118533   1.214   0.371   8.148 -1.3805  0.9292 -0.1854
 2357SOL    HW218534   1.252   0.255   8.223  0.6911  0.5731  4.9720
 2358SOL     OW18535   4.656   0.810   4.358 -0.3347 -0.6101 -0.1331
 2358SOL    HW118536   4.593   0.824   4.287 -0.8468  1.7619  0.7923
 2358SOL    HW218537   4.619   0.872   4.421  1.9312  1.2835 -0.7019
 2359SOL     OW18538   1.701   1.931  17.292 -0.2221  0.0481  0.2625
 2359SOL    HW118539   1.680   2.006  17.348 -2.9040 -0.9420  0.5776
 2359SOL    HW218540   1.612   1.896  17.299 -0.4580  0.2851 -1.7513
 2360SOL     OW18541   2.366   3.073   8.081 -0.3498 -0.8250  0.0481
 2360SOL    HW118542   2.436   3.060   8.146  0.7090  1.3468 -0.6580
 2360SOL    HW218543   2.291   3.024   8.114 -1.6544  1.0683 -0.0993
 2361SOL     OW18544   1.595   4.312   9.041  0.4207 -0.3071 -0.7840
 2361SOL    HW118545   1.650   4.390   9.034 -0.1384  0.4424  2.8402
 2361SOL    HW218546   1.653   4.251   9.087 -2.4641 -1.7204  0.9873
 2362SOL     OW18547   2.734   1.541   9.203  0.8396  0.2440 -0.4651
 2362SOL    HW118548   2.743   1.500   9.117  0.3518  1.6490 -1.1875
 2362SOL    HW218549   2.656   1.505   9.244  1.3854 -1.5522 -0.9786
 2363SOL     OW18550   0.244   0.491  17.169  0.2306  0.1884  0.1582
 2363SOL    HW118551   0.265   0.538  17.089 -2.7011 -0.6073 -1.0929
 2363SOL    HW218552   0.162   0.451  17.141 -0.6245  1.6935  0.5094
 2364SOL     OW18553   0.090   2.204  14.531 -0.3119 -0.2285  0.2632
 2364SOL    HW118554   0.168   2.240  14.489 -1.9517  0.0213 -2.6155
 2364SOL    HW218555   0.029   2.277  14.521 -1.5301 -1.3094 -0.2341
 2365SOL     OW18556   4.288   0.135   2.966 -1.0100 -0.3511  0.0970
 2365SOL    HW118557   4.230   0.194   2.917 -2.4325 -2.1656 -0.4199
 2365SOL    HW218558   4.219   0.080   3.002  0.2563 -1.0160  1.4969
 2366SOL     OW18559   2.711   1.228   8.817 -0.2353 -0.5317  0.3086
 2366SOL    HW118560   2.616   1.237   8.818 -0.1924 -0.0494  0.0259
 2366SOL    HW218561   2.731   1.225   8.724  0.8179 -0.0515  0.5194
 2367SOL     OW18562   3.832   4.466  13.317  0.0578  0.2807  0.1736
 2367SOL    HW118563   3.828   4.416  13.236 -2.7869  0.4849  0.1887
 2367SOL    HW218564   3.903   4.415  13.357  1.7307  2.4230 -0.0824
 2368SOL     OW18565   2.108   3.926   3.686 -0.6620  0.2507 -0.2562
 2368SOL    HW118566   2.200   3.901   3.691 -0.4517  1.2692  1.0765
 2368SOL    HW218567   2.075   3.844   3.723 -0.9959 -0.6887 -2.6354
 2369SOL     OW18568   4.152   2.422   3.977  0.1632 -0.0746 -0.4045
 2369SOL    HW118569   4.172   2.504   4.024 -0.1960 -0.8149  1.0597
 2369SOL    HW218570   4.144   2.445   3.885  1.5579  2.2383  0.0538
 2370SOL     OW18571   2.953   0.340   9.114  0.4924 -0.4614 -0.0170
 2370SOL    HW118572   2.919   0.274   9.053 -1.0599  0.5304 -0.2064
 2370SOL    HW218573   3.046   0.317   9.115  0.3425 -1.0353  0.8179
 2371SOL     OW18574   2.907   3.312  16.506 -0.1604 -0.5980 -0.3984
 2371SOL    HW118575   2.929   3.358  16.587 -1.4862 -0.6376 -0.0183
 2371SOL    HW218576   2.983   3.256  16.494 -1.1514 -1.6090 -1.9787
 2372SOL     OW18577   4.047   3.291   9.132  0.1362 -0.0587  0.5740
 2372SOL    HW118578   4.000   3.368   9.163 -0.0521  1.0832 -2.5569
 2372SOL    HW218579   4.046   3.243   9.215  1.0666  0.3759  0.8356
 2373SOL     OW18580   1.072   0.064   2.952 -0.4748  0.3237 -0.0700
 2373SOL    HW118581   1.059   4.709   3.004 -0.3026  0.5379  0.2987
 2373SOL    HW218582   1.164   0.058   2.925 -1.0100  0.9026 -2.0427
 2374SOL     OW18583   2.971   0.127   4.407  0.7887  0.1818  0.1273
 2374SOL    HW118584   2.984   0.222   4.414  0.1732  0.3750 -1.5045
 2374SOL    HW218585   2.880   0.115   4.438  0.3703  0.9730 -0.8171
 2375SOL     OW18586   4.498   0.249   7.033  0.3186 -0.0221  0.3212
 2375SOL    HW118587   4.492   0.259   6.938  1.8591 -1.3158  0.0791
 2375SOL    HW218588   4.531   0.335   7.058 -0.8724  0.0011  1.8784
 2376SOL     OW18589   0.321   1.691   2.978  0.7065 -0.0755 -0.4580
 2376SOL    HW118590   0.369   1.744   3.043 -2.5368 -0.3549  2.1598
 2376SOL    HW218591   0.337   1.750   2.905  1.2709  1.0564  0.5773
 2377SOL     OW18592   2.726   3.741   6.734 -0.3183  0.1367  0.1601
 2377SOL    HW118593   2.659   3.734   6.666 -3.3893 -0.1278  3.1644
 2377SOL    HW218594   2.712   3.688   6.813  0.4053  2.1624  1.6563
 2378SOL     OW18595   0.525   3.908   0.888  0.0098  0.1302 -0.4606
 2378SOL    HW118596   0.528   3.823   0.843 -2.3606  0.5011 -1.3219
 2378SOL    HW218597   0.493   3.963   0.816  1.9428  1.2806 -0.4445
 2379SOL     OW18598   3.724   1.326   0.418  0.9709  0.0345  0.0860
 2379SOL    HW118599   3.783   1.291   0.351  1.3296 -2.6298  1.7540
 2379SOL    HW218600   3.666   1.366   0.354  1.6934  0.7745 -0.1006
 2380SOL     OW18601   0.480   1.789   3.168  0.9473  0.3428 -0.0597
 2380SOL    HW118602   0.531   1.867   3.189 -0.0938  0.5523  1.6526
 2380SOL    HW218603   0.485   1.743   3.252  0.6055 -0.6386 -0.5788
 2381SOL     OW18604   4.246   4.478   8.905 -0.6251  0.1369  0.2702
 2381SOL    HW118605   4.249   4.506   8.813 -0.0027  1.4511  0.6982
 2381SOL    HW218606   4.207   4.556   8.944  0.0343 -0.1002  1.3851
 2382SOL     OW18607   1.996   3.924   2.409 -0.0677  0.0492 -0.2766
 2382SOL    HW118608   1.944   3.876   2.473 -0.4111 -1.0309 -1.3620
 2382SOL    HW218609   1.979   3.872   2.330  1.4539  0.9101 -1.1701
 2383SOL     OW18610   2.440   1.644   6.976 -0.1235 -0.0088 -0.3951
 2383SOL    HW118611   2.403   1.688   6.900  0.1174 -0.7041 -0.9209
 2383SOL    HW218612   2.454   1.558   6.936 -1.3226 -0.2479 -0.3032
 2384SOL     OW18613   4.027   3.845   8.719  0.3617 -0.1612 -0.5990
 2384SOL    HW118614   3.986   3.764   8.748  0.5677 -0.0888 -0.1049
 2384SOL    HW218615   4.115   3.824   8.750  0.3254 -0.5523 -0.7638
 2385SOL     OW18616   3.387   0.693  12.241 -0.3036 -0.5223  0.0089
 2385SOL    HW118617   3.457   0.630  12.227  0.1732 -0.3126  1.4716
 2385SOL    HW218618   3.439   0.733  12.310  1.3333 -0.6477 -1.1559
 2386SOL     OW18619   3.359   0.372   5.221  0.0465  0.4573 -0.4068
 2386SOL    HW118620   3.416   0.377   5.298  2.0103  1.8431 -1.9562
 2386SOL    HW218621   3.360   0.461   5.186  0.2890  0.5323 -0.2086
 2387SOL     OW18622   2.704   1.294  12.385 -0.1875 -0.4598  0.4366
 2387SOL    HW118623   2.663   1.286  12.471  0.0125 -1.7341  0.4156
 2387SOL    HW218624   2.784   1.342  12.403 -0.3176  0.1513 -0.6358
 2388SOL     OW18625   4.350   1.538  14.189  0.0844 -0.2171 -0.4175
 2388SOL    HW118626   4.444   1.553  14.201  0.3487 -0.5880 -1.9849
 2388SOL    HW218627   4.325   1.504  14.275  1.0962 -0.3119 -0.1612
 2389SOL     OW18628   4.032   2.942   5.236  0.0075  0.4906  0.3167
 2389SOL    HW118629   4.104   2.883   5.256 -0.2720 -0.0136 -0.1728
 2389SOL    HW218630   4.050   3.012   5.299  2.3046  1.0347 -0.9729
 2390SOL     OW18631   0.693   3.449   9.954 -0.5975  0.4055 -0.6871
 2390SOL    HW118632   0.702   3.464  10.048 -3.5908  0.1870 -0.3665
 2390SOL    HW218633   0.598   3.441   9.959 -0.6761  0.6486 -1.8444
 2391SOL     OW18634   0.993   4.471  11.361  0.1978 -0.1527 -0.6123
 2391SOL    HW118635   1.026   4.509  11.279  1.0486  2.3704  0.8894
 2391SOL    HW218636   0.904   4.446  11.335 -1.0129  2.0805  1.3978
 2392SOL     OW18637   3.323   3.963   5.440 -0.0713 -0.4802  0.1133
 2392SOL    HW118638   3.322   3.933   5.349 -2.7591 -3.1032  1.0019
 2392SOL    HW218639   3.307   4.056   5.424  1.4234  0.0680  1.8509
 2393SOL     OW18640   2.718   1.988  14.974 -0.1956 -0.1249  0.5873
 2393SOL    HW118641   2.725   1.900  15.010  0.9449 -0.3971 -0.3163
 2393SOL    HW218642   2.635   2.017  15.011 -0.7886 -0.1390 -0.7323
 2394SOL     OW18643   1.676   1.757  13.649 -0.0309  0.0435 -0.0459
 2394SOL    HW118644   1.586   1.755  13.683 -0.5114 -1.5373 -1.4309
 2394SOL    HW218645   1.695   1.851  13.645 -0.1235  0.1646  2.2831
 2395SOL     OW18646   0.028   0.000   5.520 -0.0226  0.8394  0.2016
 2395SOL    HW118647   4.695   4.662   5.476  0.8658 -0.6023  1.0751
 2395SOL    HW218648   0.030   4.693   5.610 -0.7905 -1.1519 -0.4881
 2396SOL     OW18649   1.484   0.937   7.523 -0.2961  0.0356 -0.4626
 2396SOL    HW118650   1.433   0.966   7.598  1.4743 -2.0991  1.6014
 2396SOL    HW218651   1.537   1.016   7.509 -1.6781  0.6491 -2.1280
 2397SOL     OW18652   1.172   2.145  16.965  0.0918  0.5627 -0.6243
 2397SOL    HW118653   1.208   2.232  16.981 -0.1748  0.3232  1.2537
 2397SOL    HW218654   1.231   2.084  17.009 -0.8123 -0.7523 -1.2158
 2398SOL     OW18655   4.506   3.419   2.551 -0.6255 -0.3360 -0.2771
 2398SOL    HW118656   4.496   3.499   2.500  0.4602  0.3481  0.5934
 2398SOL    HW218657   4.429   3.437   2.605  1.0850  1.6178  1.5114
 2399SOL     OW18658   4.452   0.481  17.072  0.3004  0.3062 -0.6027
 2399SOL    HW118659   4.503   0.446  17.145  0.8423  0.0165 -1.1168
 2399SOL    HW218660   4.406   0.551  17.118  1.8070  0.8032  0.1397
 2400SOL     OW18661   2.969   0.054  17.004 -0.6255  0.0523  1.1570
 2400SOL    HW118662   3.021   0.110  16.946 -1.3154  0.3047  0.7895
 2400SOL    HW218663   2.942   4.713  16.939 -2.1657  2.2204 -0.3262
 2401SOL     OW18664   4.712   2.567  12.447 -0.1790 -0.5099  0.3814
 2401SOL    HW118665   0.014   2.659  12.448  0.3168 -0.6465 -0.2655
 2401SOL    HW218666   4.619   2.585  12.465 -0.4196 -1.4373  0.0428
 2402SOL     OW18667   3.861   2.217   1.029 -0.3305 -0.0078  0.6909
 2402SOL    HW118668   3.860   2.192   0.937  0.5918 -2.1545  1.2631
 2402SOL    HW218669   3.915   2.149   1.069  0.6081  0.3132 -0.0311
 2403SOL     OW18670   2.221   0.313   1.026 -0.3191  0.4192  0.2324
 2403SOL    HW118671   2.260   0.281   0.944 -1.6686 -0.9273  0.1305
 2403SOL    HW218672   2.236   0.239   1.084 -1.8501 -0.0816 -0.0282
 2404SOL     OW18673   2.836   1.721   5.696  0.2983 -0.1673  0.3339
 2404SOL    HW118674   2.833   1.692   5.605  0.1755 -0.8067  0.5420
 2404SOL    HW218675   2.867   1.812   5.690  3.1753 -1.2406 -0.9917
 2405SOL     OW18676   2.699   0.585   7.798  0.3040  0.1477  0.4455
 2405SOL    HW118677   2.654   0.528   7.859  0.6749  0.0007  0.5846
 2405SOL    HW218678   2.791   0.558   7.809  0.6419  0.3301 -1.9537
 2406SOL     OW18679   2.632   2.562  14.572  0.1273  0.1970  0.6627
 2406SOL    HW118680   2.682   2.639  14.545 -0.0402 -1.0481 -3.3127
 2406SOL    HW218681   2.563   2.603  14.623 -0.8475  1.7562 -1.9034
 2407SOL     OW18682   1.029   1.449   1.838 -0.4268  0.3959 -0.0308
 2407SOL    HW118683   1.104   1.502   1.809 -1.4765  1.3038 -1.0512
 2407SOL    HW218684   0.958   1.512   1.843  0.1417  0.9828  0.7425
 2408SOL     OW18685   4.393   0.950  16.072 -0.6211  0.0100  0.5906
 2408SOL    HW118686   4.313   0.979  16.027  0.5417 -0.6968 -1.9472
 2408SOL    HW218687   4.374   0.866  16.114  0.5751 -0.9737 -0.8201
 2409SOL     OW18688   1.368   0.280  13.090  0.1187 -0.1195  0.7742
 2409SOL    HW118689   1.460   0.275  13.115  0.6818 -0.8098 -1.4735
 2409SOL    HW218690   1.348   0.189  13.069 -2.1148  0.7566 -0.9259
 2410SOL     OW18691   2.284   2.193   4.403  0.1654  0.3232 -0.5229
 2410SOL    HW118692   2.372   2.187   4.440  0.0528  1.3536 -0.1049
 2410SOL    HW218693   2.317   2.199   4.313 -1.5481  1.7161 -1.0433
 2411SOL     OW18694   0.556   2.338  15.992 -0.4806  0.0336  1.1926
 2411SOL    HW118695   0.486   2.403  15.995  0.7376  1.4053  0.3525
 2411SOL    HW218696   0.597   2.350  16.077  0.1863  1.0605  0.7364
 2412SOL     OW18697   3.808   1.604   5.922 -0.1104  0.1428 -0.5429
 2412SOL    HW118698   3.884   1.662   5.924  0.0877 -0.0483 -2.4859
 2412SOL    HW218699   3.768   1.625   6.007  0.1805  0.3431 -0.4553
 2413SOL     OW18700   3.952   0.345   5.676  0.1065 -0.3176  0.3304
 2413SOL    HW118701   4.034   0.319   5.717 -0.1827  1.1419  1.8788
 2413SOL    HW218702   3.992   0.382   5.598 -0.2777 -2.2838 -0.7962
 2414SOL     OW18703   4.575   1.718  15.243 -0.3707 -0.3561  0.2092
 2414SOL    HW118704   4.610   1.738  15.156 -0.9652 -1.2120 -0.2270
 2414SOL    HW218705   4.606   1.628  15.254 -2.2392 -1.2200 -1.6052
 2415SOL     OW18706   0.322   0.547   3.943 -0.4417  0.2966  0.2579
 2415SOL    HW118707   0.244   0.566   3.890 -0.8422 -0.4709  0.5792
 2415SOL    HW218708   0.313   0.615   4.009  0.5319 -0.6960  1.4148
 2416SOL     OW18709   4.044   0.302   9.322  0.0367 -0.3980  0.3432
 2416SOL    HW118710   3.988   0.225   9.329 -0.7203 -0.0758 -2.0351
 2416SOL    HW218711   4.020   0.352   9.399  1.7725  1.5472 -0.3837
 2417SOL     OW18712   4.513   3.573   4.588  0.4545  0.2109  0.5564
 2417SOL    HW118713   4.464   3.562   4.507 -0.0333  1.6359  0.6406
 2417SOL    HW218714   4.443   3.579   4.654 -0.2854  1.5391 -0.3319
 2418SOL     OW18715   4.004   0.688   8.256 -0.5280  0.0121 -0.2278
 2418SOL    HW118716   4.043   0.771   8.284 -1.1127  0.2179 -0.0288
 2418SOL    HW218717   3.969   0.708   8.169 -0.1203  0.2160 -0.3452
 2419SOL     OW18718   2.104   1.603   3.551 -0.1938 -0.4969 -0.5379
 2419SOL    HW118719   2.086   1.659   3.475 -0.9510  0.4345  0.3296
 2419SOL    HW218720   2.169   1.542   3.517 -2.2194 -2.2377 -1.2609
 2420SOL     OW18721   3.180   2.016   6.861  0.1660  0.0053  0.4613
 2420SOL    HW118722   3.253   1.957   6.841 -1.6678 -2.1034 -0.0009
 2420SOL    HW218723   3.129   1.958   6.918 -0.8647  2.9477  2.5456
 2421SOL     OW18724   2.876   4.229   5.463  0.2070  0.2775 -0.1440
 2421SOL    HW118725   2.927   4.232   5.383  2.6154 -0.7543  1.3755
 2421SOL    HW218726   2.810   4.292   5.432  1.8702  1.8953 -0.3953
 2422SOL     OW18727   2.072   3.993   9.222  0.4849  0.1829 -0.1420
 2422SOL    HW118728   2.061   4.081   9.187 -0.1646 -0.1773 -0.8441
 2422SOL    HW218729   2.086   4.000   9.316  2.4512  1.9003 -0.5741
 2423SOL     OW18730   0.897   1.657   3.597 -0.0079  0.2367 -0.2333
 2423SOL    HW118731   0.926   1.642   3.508 -0.2109  1.4465 -0.4987
 2423SOL    HW218732   0.854   1.573   3.613  1.3762 -0.4509 -0.1122
 2424SOL     OW18733   0.871   4.277  15.628  0.1067 -0.6743  0.1993
 2424SOL    HW118734   0.950   4.230  15.602 -1.2745 -1.6233 -2.2434
 2424SOL    HW218735   0.887   4.281  15.723  1.0143 -0.3600  0.0388
 2425SOL     OW18736   4.278   1.143   1.527  0.7440  0.2435  0.3290
 2425SOL    HW118737   4.256   1.184   1.610  1.7990 -1.4133  1.4183
 2425SOL    HW218738   4.369   1.173   1.525  0.0844  2.2019 -0.4041
 2426SOL     OW18739   4.441   3.148   3.405  0.3115  0.0938  0.3074
 2426SOL    HW118740   4.350   3.160   3.377 -0.2278 -0.9247  1.6247
 2426SOL    HW218741   4.492   3.205   3.348 -0.8115  1.2229  0.4090
 2427SOL     OW18742   1.222   3.982   4.202  0.0683 -0.6667 -0.3855
 2427SOL    HW118743   1.138   3.937   4.210 -0.9716  1.2438 -0.5260
 2427SOL    HW218744   1.274   3.917   4.156 -2.4711 -2.9366 -0.0683
 2428SOL     OW18745   2.072   0.880   9.547 -0.4160 -0.3568  0.4766
 2428SOL    HW118746   1.977   0.887   9.549 -0.6366 -3.0886 -0.0053
 2428SOL    HW218747   2.081   0.785   9.542  1.1931 -0.4262  4.5163
 2429SOL     OW18748   3.884   2.050   4.690  0.1497  0.5288 -0.4560
 2429SOL    HW118749   3.836   2.070   4.771 -0.6735  3.2163 -1.5888
 2429SOL    HW218750   3.870   2.134   4.647  0.2548  2.0155  2.3912
 2430SOL     OW18751   3.687   2.838  10.291 -0.5830 -0.4213  0.4959
 2430SOL    HW118752   3.743   2.844  10.213 -0.2390 -0.5511  0.7348
 2430SOL    HW218753   3.716   2.749  10.313 -1.1720 -0.9174 -0.7224
 2431SOL     OW18754   3.193   2.338  11.997 -0.3482 -0.3428  0.4735
 2431SOL    HW118755   3.139   2.276  12.047 -0.5453  0.3706  1.1348
 2431SOL    HW218756   3.122   2.391  11.960  0.1991  0.9438  1.2591
 2432SOL     OW18757   2.776   3.096   8.513  0.3294 -0.2903  0.1329
 2432SOL    HW118758   2.796   3.046   8.434 -2.8668 -1.4516  0.0905
 2432SOL    HW218759   2.728   3.167   8.471  1.1875  1.7715  2.6858
 2433SOL     OW18760   0.223   2.711  10.121 -0.4978 -0.0038  0.4946
 2433SOL    HW118761   0.154   2.682  10.061  0.4204  0.5696 -0.8273
 2433SOL    HW218762   0.226   2.625  10.163 -0.4256 -0.7856 -1.1081
 2434SOL     OW18763   3.656   4.453  15.772  0.2752 -0.5954  0.0021
 2434SOL    HW118764   3.570   4.412  15.769 -0.1923  0.3288  0.6237
 2434SOL    HW218765   3.680   4.415  15.857  0.6129  1.2794  0.7441
 2435SOL     OW18766   1.800   2.056   2.428  0.2679  0.3138 -0.2831
 2435SOL    HW118767   1.808   1.963   2.405  2.2470  0.5727 -0.6192
 2435SOL    HW218768   1.740   2.100   2.367  0.0217  0.9195  0.3972
 2436SOL     OW18769   2.492   1.427   1.669 -0.6828 -0.7799  0.1377
 2436SOL    HW118770   2.548   1.451   1.596 -0.5948 -2.5370 -0.3509
 2436SOL    HW218771   2.507   1.506   1.722  0.7760 -0.3525 -0.9270
 2437SOL     OW18772   0.599   3.592   1.493 -0.0945 -0.3946  0.0638
 2437SOL    HW118773   0.591   3.685   1.472  0.0037 -0.4982 -0.4357
 2437SOL    HW218774   0.615   3.611   1.586 -2.1843  0.2761  0.3006
 2438SOL     OW18775   3.718   3.510   9.031 -0.2658  0.2826 -0.5841
 2438SOL    HW118776   3.698   3.428   9.076 -1.5588  0.8471 -0.1227
 2438SOL    HW218777   3.734   3.567   9.105  0.5857 -1.1037  0.3072
 2439SOL     OW18778   0.963   0.204   7.600  0.3121  0.6846 -0.9339
 2439SOL    HW118779   1.025   0.268   7.564 -0.1745  1.0544 -1.1063
 2439SOL    HW218780   0.993   0.128   7.550  0.5927  0.7464 -0.8617
 2440SOL     OW18781   4.593   1.053  17.218  0.7151 -0.2639  0.2745
 2440SOL    HW118782   4.549   0.969  17.203 -0.3735  0.4629 -0.5924
 2440SOL    HW218783   4.678   1.026  17.251  1.0365  0.9170  0.3956
 2441SOL     OW18784   1.528   4.311   1.745 -0.2101 -0.3816  0.1116
 2441SOL    HW118785   1.605   4.328   1.690 -0.4633  0.3206 -0.0233
 2441SOL    HW218786   1.559   4.315   1.835 -2.7504 -0.2519  0.9810
 2442SOL     OW18787   1.561   4.162   8.838  0.8355 -0.3401  0.1820
 2442SOL    HW118788   1.528   4.234   8.784  1.5557 -0.9989 -1.1467
 2442SOL    HW218789   1.552   4.206   8.922  2.6496 -3.4094  1.9636
 2443SOL     OW18790   1.105   2.994   6.720 -0.4137 -0.2224 -0.4042
 2443SOL    HW118791   1.014   2.963   6.725 -0.4324 -0.1000  0.0433
 2443SOL    HW218792   1.132   2.981   6.811  2.1193  0.1481 -1.0956
 2444SOL     OW18793   1.954   0.437   5.627  0.2810 -0.0391  0.5315
 2444SOL    HW118794   1.876   0.477   5.667 -0.7539  1.1872 -2.7255
 2444SOL    HW218795   1.921   0.347   5.630  1.1528 -0.3455  0.8714
 2445SOL     OW18796   4.004   3.496   4.222 -0.3155 -0.1471  0.2781
 2445SOL    HW118797   4.020   3.402   4.216 -2.5629 -0.5938  1.3596
 2445SOL    HW218798   4.061   3.525   4.151  0.6615 -1.7928  0.3835
 2446SOL     OW18799   4.446   1.265   6.866  0.5168 -0.4326 -0.2068
 2446SOL    HW118800   4.370   1.260   6.925  1.4004  0.4233  0.9865
 2446SOL    HW218801   4.402   1.310   6.794 -1.7229 -2.2422  0.0346
 2447SOL     OW18802   0.696   1.352   6.253 -0.5600  0.0754 -0.7234
 2447SOL    HW118803   0.787   1.383   6.257 -0.3830 -0.5101 -0.1920
 2447SOL    HW218804   0.699   1.279   6.315 -0.6769  0.0071 -0.7980
 2448SOL     OW18805   2.227   1.308   1.465 -0.7220  0.1174 -0.3802
 2448SOL    HW118806   2.296   1.340   1.523 -2.6968  1.8054  1.0818
 2448SOL    HW218807   2.146   1.307   1.517 -0.6602 -1.6621 -0.3123
 2449SOL     OW18808   0.064   4.640   2.277  0.1740 -0.7037 -0.7465
 2449SOL    HW118809   0.045   4.647   2.184  1.1370  0.6259 -0.8524
 2449SOL    HW218810   0.120   4.716   2.293 -0.2919 -0.7499  1.0984
 2450SOL     OW18811   2.534   3.824  13.225  0.3194  0.1668 -0.0002
 2450SOL    HW118812   2.596   3.897  13.229  0.1364  0.4526 -2.7920
 2450SOL    HW218813   2.593   3.749  13.214  1.0210  0.6026  0.7120
 2451SOL     OW18814   1.836   4.502   8.142 -0.3530  0.1410 -0.0958
 2451SOL    HW118815   1.835   4.587   8.186  1.7332 -0.5862  1.3521
 2451SOL    HW218816   1.811   4.457   8.223 -3.0122  0.0940 -0.9278
 2452SOL     OW18817   2.236   1.087   6.073  0.4087 -0.0232  0.6665
 2452SOL    HW118818   2.237   1.027   6.148  1.4369 -2.5102 -1.3587
 2452SOL    HW218819   2.231   1.176   6.108  3.2154 -0.7009  2.7738
 2453SOL     OW18820   1.793   1.148  13.797  0.7403  0.2535  0.0234
 2453SOL    HW118821   1.841   1.066  13.794  0.0873 -0.0256 -3.5240
 2453SOL    HW218822   1.863   1.212  13.811  0.2449  0.7361  0.3409
 2454SOL     OW18823   0.877   3.528   9.114  0.7605  0.1819 -0.5407
 2454SOL    HW118824   0.891   3.439   9.146 -1.6270  0.3000  0.8314
 2454SOL    HW218825   0.845   3.577   9.190  0.1997 -1.3246  0.2023
 2455SOL     OW18826   2.519   3.313   5.876  0.0956  0.0689 -0.2591
 2455SOL    HW118827   2.589   3.248   5.884 -0.5520 -0.1103  3.9953
 2455SOL    HW218828   2.568   3.393   5.897  0.6527 -0.7899  1.7701
 2456SOL     OW18829   1.680   1.593  14.877  0.0170  0.4871 -0.1736
 2456SOL    HW118830   1.741   1.665  14.894  0.7930 -0.3044  0.4199
 2456SOL    HW218831   1.642   1.616  14.792  1.2084  1.5346 -0.4234
 2457SOL     OW18832   3.501   2.329   2.336  0.5146  0.3561 -0.4632
 2457SOL    HW118833   3.514   2.290   2.250  2.6230 -0.8572  0.4053
 2457SOL    HW218834   3.594   2.347   2.343  0.5244 -0.6817  2.2121
 2458SOL     OW18835   0.766   1.919  14.601  0.0849  0.2906 -0.1282
 2458SOL    HW118836   0.706   1.851  14.631 -0.4553  0.8140 -0.0304
 2458SOL    HW218837   0.827   1.918  14.675  0.8718 -1.4959 -0.8072
 2459SOL     OW18838   1.983   1.998   5.286  0.3128  0.2169  0.2179
 2459SOL    HW118839   1.909   2.027   5.340 -0.9467  0.4729 -1.6354
 2459SOL    HW218840   1.991   1.911   5.324  1.6071 -0.6329 -2.0019
 2460SOL     OW18841   2.898   3.697   8.520  0.3479 -0.2938 -0.1971
 2460SOL    HW118842   2.809   3.674   8.494  0.3093  0.9214 -1.1104
 2460SOL    HW218843   2.921   3.629   8.584 -0.2016 -0.4190 -0.1347
 2461SOL     OW18844   0.575   0.057   8.606  0.1567 -0.1552  0.5161
 2461SOL    HW118845   0.529   0.076   8.524  0.1230 -0.0039  0.5711
 2461SOL    HW218846   0.619   4.698   8.587  0.1193  0.1552 -0.9489
 2462SOL     OW18847   4.490   0.926  15.647  0.7034 -0.0202 -0.2826
 2462SOL    HW118848   4.544   0.927  15.726 -1.4000 -0.8189  1.1545
 2462SOL    HW218849   4.412   0.970  15.681  0.2614 -0.6649 -0.4559
 2463SOL     OW18850   2.383   4.133   6.376  0.0800 -0.2504  0.4112
 2463SOL    HW118851   2.351   4.073   6.443 -1.0235  0.6170  0.6586
 2463SOL    HW218852   2.434   4.193   6.430  0.3622  0.1862 -0.3428
 2464SOL     OW18853   0.800   1.791   3.821 -0.0159  0.0197  0.8629
 2464SOL    HW118854   0.802   1.720   3.885 -2.6231 -0.7464  0.0674
 2464SOL    HW218855   0.824   1.746   3.740 -2.1497 -0.2709  0.3960
 2465SOL     OW18856   0.595   4.426   1.413 -0.3401  0.2339  0.0860
 2465SOL    HW118857   0.523   4.364   1.424  1.1921 -1.7066 -0.9445
 2465SOL    HW218858   0.660   4.378   1.464 -1.5076 -0.9216  0.4935
 2466SOL     OW18859   4.631   0.805  10.243  0.0357  0.2378 -0.0246
 2466SOL    HW118860   4.640   0.871  10.312 -0.3223  1.7042 -1.3772
 2466SOL    HW218861   4.536   0.790  10.248  0.1679 -0.0014  1.8455
 2467SOL     OW18862   1.816   3.825   2.592  0.4028  1.1154 -0.7713
 2467SOL    HW118863   1.721   3.824   2.580  0.3063 -0.8548  0.2624
 2467SOL    HW218864   1.840   3.735   2.574 -0.7176  1.1348 -2.3934
 2468SOL     OW18865   2.316   3.951   3.392  0.2333 -0.2931  0.7158
 2468SOL    HW118866   2.395   3.912   3.354 -1.0332 -1.0484 -1.1503
 2468SOL    HW218867   2.323   3.919   3.482 -0.0996 -1.4613  0.3341
 2469SOL     OW18868   4.285   4.203   0.756  0.1180 -0.0157 -0.9552
 2469SOL    HW118869   4.312   4.111   0.750 -0.5008 -0.1900 -1.0271
 2469SOL    HW218870   4.192   4.183   0.762  0.0272  0.2544 -1.5501
 2470SOL     OW18871   1.573   4.542  12.966  0.2042  0.8643 -0.8052
 2470SOL    HW118872   1.567   4.496  12.883 -1.8399 -0.1357 -0.0948
 2470SOL    HW218873   1.665   4.570  12.968 -0.5187  3.1346  0.5300
 2471SOL     OW18874   2.469   0.976   9.675  0.0912 -0.5279 -0.0939
 2471SOL    HW118875   2.454   0.928   9.593  0.8569 -2.5235  0.9323
 2471SOL    HW218876   2.520   0.909   9.721  1.6346  0.3452 -0.5288
 2472SOL     OW18877   4.687   3.258  14.239  0.0919 -0.4202 -0.2818
 2472SOL    HW118878   4.667   3.177  14.286 -1.1319  1.2846  2.1744
 2472SOL    HW218879   0.008   3.220  14.163  1.2744 -1.1171  0.7592
 2473SOL     OW18880   2.181   0.741   4.068 -0.2709  0.4120  0.6103
 2473SOL    HW118881   2.152   0.824   4.032  2.2595  1.0166 -0.0374
 2473SOL    HW218882   2.165   0.751   4.162 -1.6436 -0.1267  0.4333
 2474SOL     OW18883   0.185   0.670  16.641  0.2591  0.0788 -0.4169
 2474SOL    HW118884   0.105   0.625  16.669 -0.6677  2.1084  0.1503
 2474SOL    HW218885   0.177   0.681  16.546 -0.5702  1.2278 -0.2095
 2475SOL     OW18886   2.725   1.331   6.271 -0.2861  0.3205  0.1004
 2475SOL    HW118887   2.785   1.283   6.213 -0.7914  0.2528 -0.3641
 2475SOL    HW218888   2.788   1.338   6.343 -0.3412  0.8838  0.0934
 2476SOL     OW18889   1.678   1.354   4.559  0.4306 -0.3669 -0.3642
 2476SOL    HW118890   1.688   1.410   4.482 -1.0259 -0.4469 -0.5930
 2476SOL    HW218891   1.585   1.335   4.559  0.6440 -1.3907 -4.0361
 2477SOL     OW18892   3.210   1.253   5.849 -0.3619  0.0268 -0.0801
 2477SOL    HW118893   3.125   1.297   5.836  0.0795  1.1129  0.6632
 2477SOL    HW218894   3.268   1.329   5.852 -0.6316  0.2628 -0.7159
 2478SOL     OW18895   4.285   0.961   3.104 -0.3192  0.8669 -0.0034
 2478SOL    HW118896   4.363   1.011   3.125 -1.7080  1.8942  2.7437
 2478SOL    HW218897   4.287   0.893   3.172 -0.4157  1.8134  0.9358
 2479SOL     OW18898   1.108   4.607   8.258  0.2214 -0.2837 -0.5242
 2479SOL    HW118899   1.020   4.570   8.261  0.4753 -0.5538  4.1733
 2479SOL    HW218900   1.110   4.667   8.333  3.8604  1.4343 -2.0270
 2480SOL     OW18901   4.334   1.890   5.710 -0.0270 -0.5562 -0.0232
 2480SOL    HW118902   4.244   1.911   5.734  0.4604  2.5387 -0.9720
 2480SOL    HW218903   4.370   1.861   5.794 -0.0896  0.2747  0.2934
 2481SOL     OW18904   4.337   4.483   9.216  0.2672  0.2516  0.8274
 2481SOL    HW118905   4.297   4.472   9.130 -1.3766 -1.0802  1.7660
 2481SOL    HW218906   4.322   4.577   9.226  0.2499  0.1353  1.8856
 2482SOL     OW18907   1.788   0.295  10.388 -0.0108 -0.4855 -0.5053
 2482SOL    HW118908   1.838   0.369  10.421  0.3475 -1.6212  1.4863
 2482SOL    HW218909   1.835   0.232  10.441 -0.7680 -0.5396  0.0904
 2483SOL     OW18910   1.773   1.945   7.922 -0.7078 -0.0319  0.4031
 2483SOL    HW118911   1.722   2.015   7.881  0.7088  0.9781  0.3650
 2483SOL    HW218912   1.788   1.900   7.838  0.2684  1.8715 -0.4379
 2484SOL     OW18913   3.789   2.723   5.383  0.4245  0.0163 -0.2014
 2484SOL    HW118914   3.768   2.776   5.305  0.7505  1.2775  0.5600
 2484SOL    HW218915   3.819   2.793   5.441  0.0603 -1.0371  1.2538
 2485SOL     OW18916   2.616   1.760   5.877 -0.2244  0.0078  0.9031
 2485SOL    HW118917   2.601   1.666   5.889 -0.3405 -0.0105  0.6125
 2485SOL    HW218918   2.689   1.751   5.816 -0.5787 -1.9439  0.7597
 2486SOL     OW18919   3.360   2.086   5.683 -0.3284  0.7593 -0.1166
 2486SOL    HW118920   3.316   2.040   5.612  2.0966 -0.6552 -0.6947
 2486SOL    HW218921   3.294   2.143   5.723 -1.0392 -0.1011 -0.0527
 2487SOL     OW18922   0.940   1.702   5.577 -0.1994  0.2689  0.3419
 2487SOL    HW118923   0.934   1.611   5.546  1.1094 -0.1476  1.3060
 2487SOL    HW218924   0.855   1.736   5.548 -0.0663  0.5262  0.2552
 2488SOL     OW18925   2.309   2.973   5.493 -0.2139  0.3309  0.0874
 2488SOL    HW118926   2.387   2.996   5.542  0.1042 -0.7116  0.0812
 2488SOL    HW218927   2.243   2.964   5.562 -1.6859  0.8338 -1.2480
 2489SOL     OW18928   0.556   2.695   2.242  0.3062 -0.0105  0.0193
 2489SOL    HW118929   0.568   2.714   2.149  2.0958  1.6634  0.5896
 2489SOL    HW218930   0.583   2.605   2.264  0.8500  0.4718  1.3712
 2490SOL     OW18931   0.418   2.839  11.442 -0.5722  0.0688  0.2312
 2490SOL    HW118932   0.508   2.810  11.431 -0.6022 -0.1052  0.4308
 2490SOL    HW218933   0.437   2.915  11.497 -0.3961  0.4751 -0.3929
 2491SOL     OW18934   1.977   2.323   3.750  0.2442  0.5431  0.1354
 2491SOL    HW118935   1.916   2.254   3.774  0.9558 -0.5053 -1.1120
 2491SOL    HW218936   2.043   2.296   3.814  1.0634  0.5227 -0.7297
 2492SOL     OW18937   1.865   4.523  15.211  0.7253 -0.0873 -0.4226
 2492SOL    HW118938   1.859   4.434  15.177 -2.2909  0.5637 -1.6138
 2492SOL    HW218939   1.886   4.516  15.304  1.2883 -2.1643 -0.7135
 2493SOL     OW18940   2.016   3.070   5.427 -0.0886 -0.9334  0.5296
 2493SOL    HW118941   2.048   3.147   5.474 -2.7837 -1.3186  3.0332
 2493SOL    HW218942   1.943   3.113   5.382  0.3050 -0.7626  0.0639
 2494SOL     OW18943   1.384   2.462   2.960 -0.0083  0.1062 -0.0656
 2494SOL    HW118944   1.391   2.512   3.042  2.8471  0.1498 -0.3130
 2494SOL    HW218945   1.410   2.373   2.983  0.0566 -0.0509 -0.7493
 2495SOL     OW18946   0.357   1.058  11.185  0.0257  0.3093 -0.0909
 2495SOL    HW118947   0.322   1.116  11.117  0.0603  0.3639 -0.0624
 2495SOL    HW218948   0.308   1.090  11.261  0.3501  0.1477  0.1862
 2496SOL     OW18949   4.275   0.184   6.344 -0.0589 -0.1308  0.1012
 2496SOL    HW118950   4.324   0.195   6.262 -0.9876 -1.2227 -0.6045
 2496SOL    HW218951   4.212   0.253   6.328  1.1918  0.4886 -2.2164
 2497SOL     OW18952   0.012   1.674   4.607 -0.3064  0.4040  0.0153
 2497SOL    HW118953   4.692   1.755   4.632  1.0106  0.6570  1.5316
 2497SOL    HW218954   4.701   1.625   4.682 -2.2503 -1.7785 -2.3088
 2498SOL     OW18955   2.545   4.009  11.427  0.3852  0.0767  0.2374
 2498SOL    HW118956   2.534   4.080  11.364 -0.5167 -2.3915 -2.3719
 2498SOL    HW218957   2.634   3.974  11.421  0.0107 -0.3604 -2.6930
 2499SOL     OW18958   0.295   4.659  12.878  0.0010 -0.0831 -0.1892
 2499SOL    HW118959   0.349   4.664  12.957 -3.8541  3.8267  2.1891
 2499SOL    HW218960   0.237   0.010  12.889 -0.0131 -0.0960 -0.1772
 2500SOL     OW18961   1.667   1.161   4.939 -0.1429  0.8251  0.9604
 2500SOL    HW118962   1.614   1.240   4.945 -2.1658 -0.5787  1.6921
 2500SOL    HW218963   1.668   1.134   5.031  0.4956  0.7013  0.9177
 2501SOL     OW18964   3.235   2.257  11.486  0.3431  0.4216  0.3565
 2501SOL    HW118965   3.232   2.173  11.531 -1.8310 -0.3325 -1.1870
 2501SOL    HW218966   3.144   2.286  11.492 -0.1602 -1.1971  0.5643
 2502SOL     OW18967   2.028   1.852   6.546  0.5213  0.0302 -0.1445
 2502SOL    HW118968   2.026   1.765   6.588  0.3260  0.4485  0.7261
 2502SOL    HW218969   2.095   1.846   6.478  0.7162 -1.1158  0.1416
 2503SOL     OW18970   2.732   4.538   8.846  0.5242 -0.0713  0.1740
 2503SOL    HW118971   2.657   4.587   8.811  0.9829 -1.2974 -2.5449
 2503SOL    HW218972   2.807   4.596   8.837  0.6474 -0.7717 -3.2857
 2504SOL     OW18973   3.244   0.875  12.108 -0.5640 -0.0140  0.1788
 2504SOL    HW118974   3.195   0.917  12.179 -2.8673 -1.0445 -0.8103
 2504SOL    HW218975   3.290   0.811  12.162 -1.3638  0.9466  1.9993
 2505SOL     OW18976   0.338   0.815   4.959  0.0251  0.0817 -0.3690
 2505SOL    HW118977   0.317   0.792   4.868 -4.5169 -2.8927  1.4568
 2505SOL    HW218978   0.362   0.728   4.990 -0.0292  0.0585 -0.3922
 2506SOL     OW18979   0.954   2.914   5.459 -0.1487  0.1536  0.5968
 2506SOL    HW118980   1.022   2.981   5.452 -0.4223  0.3627 -0.0669
 2506SOL    HW218981   0.882   2.950   5.510 -1.1558 -1.5799  0.4164
 2507SOL     OW18982   0.426   4.411   6.710 -0.2466  0.2828 -0.1716
 2507SOL    HW118983   0.348   4.425   6.656  2.1982 -1.3233 -4.1058
 2507SOL    HW218984   0.463   4.499   6.713  0.9927 -0.1665 -2.2160
 2508SOL     OW18985   4.496   2.544  11.006 -0.8299 -0.0679 -0.3386
 2508SOL    HW118986   4.483   2.631  10.969 -0.5377  0.3150  0.4651
 2508SOL    HW218987   4.580   2.553  11.052 -0.3484  1.0134 -1.4448
 2509SOL     OW18988   2.889   1.901   3.771 -0.2706  1.0173 -0.2437
 2509SOL    HW118989   2.898   1.840   3.698  0.0862 -0.0796  0.7190
 2509SOL    HW218990   2.857   1.836   3.833 -1.8671  1.6052 -0.4594
 2510SOL     OW18991   0.245   2.861   6.114  0.1396  0.3514 -0.1674
 2510SOL    HW118992   0.322   2.912   6.141 -0.6765  0.8533  1.2007
 2510SOL    HW218993   0.205   2.837   6.198 -0.1804  1.4335 -0.0077
 2511SOL     OW18994   2.658   4.698   6.168  0.3097 -0.0964 -0.1071
 2511SOL    HW118995   2.579   4.645   6.173  1.8726 -2.5505 -1.4156
 2511SOL    HW218996   2.723   4.667   6.231 -1.4608  2.4233  2.9619
 2512SOL     OW18997   4.561   3.640   9.375 -0.6941  0.7539 -0.3695
 2512SOL    HW118998   4.612   3.598   9.305 -0.3828 -0.8358  0.8166
 2512SOL    HW218999   4.616   3.643   9.453  0.1662 -2.2694 -0.8628
 2513SOL     OW19000   2.532   1.008   3.639  0.3356  0.1162  0.6243
 2513SOL    HW119001   2.480   0.970   3.568 -0.4765 -1.0715  1.8398
 2513SOL    HW219002   2.489   1.093   3.651 -0.9257 -0.1478 -1.9453
 2514SOL     OW19003   1.751   1.420   2.260 -0.5871 -0.0321 -0.2516
 2514SOL    HW119004   1.757   1.442   2.167 -1.5837  1.1172 -0.0355
 2514SOL    HW219005   1.807   1.343   2.253  0.1563  0.1665  3.4371
 2515SOL     OW19006   4.722   0.345  12.639 -0.2002  0.2304  0.0333
 2515SOL    HW119007   0.049   0.417  12.602 -1.5469  0.4862 -1.3288
 2515SOL    HW219008   4.635   0.354  12.599  1.0631 -0.9711 -2.9497
 2516SOL     OW19009   0.851   0.048   2.481 -0.3209  0.0751 -0.2455
 2516SOL    HW119010   0.836   0.007   2.396  0.0941  0.8174 -0.6799
 2516SOL    HW219011   0.912   4.709   2.518 -1.3287  0.4396  2.0564
 2517SOL     OW19012   1.656   0.851  14.090 -0.2553  0.2150  0.7492
 2517SOL    HW119013   1.730   0.880  14.144  3.0841 -3.9962 -1.5750
 2517SOL    HW219014   1.684   0.765  14.059 -2.4887 -0.8597  1.6693
 2518SOL     OW19015   1.638   3.335   7.998  0.2763  0.3354 -0.4164
 2518SOL    HW119016   1.669   3.300   8.081 -2.3404 -1.3452 -0.1542
 2518SOL    HW219017   1.639   3.428   8.023  2.5803 -0.2815  1.6417
 2519SOL     OW19018   0.757   4.650  12.657  0.0452 -0.0053 -0.1625
 2519SOL    HW119019   0.814   4.711  12.705  0.9721 -2.0358  1.3018
 2519SOL    HW219020   0.760   4.684  12.568  0.4738  1.2523  0.3292
 2520SOL     OW19021   3.632   0.306   8.966 -0.1187  0.0971  0.1388
 2520SOL    HW119022   3.552   0.255   8.979 -1.3077  1.3915 -2.1275
 2520SOL    HW219023   3.645   0.297   8.872 -2.2668  0.5848 -0.1916
 2521SOL     OW19024   1.127   1.236   8.005 -0.2605 -0.2838  0.3668
 2521SOL    HW119025   1.072   1.314   8.001  2.7101  1.7607 -1.2570
 2521SOL    HW219026   1.217   1.268   8.006 -0.0932 -0.7068 -0.8694
 2522SOL     OW19027   4.352   0.403   5.405 -0.4661 -0.0502 -0.0673
 2522SOL    HW119028   4.328   0.313   5.428 -2.2183 -0.8798 -5.1840
 2522SOL    HW219029   4.436   0.388   5.362 -0.6655  2.0937 -1.1677
 2523SOL     OW19030   3.732   2.956   9.026 -0.1746 -0.4365 -0.2064
 2523SOL    HW119031   3.727   2.883   9.088 -0.5603 -1.3195 -1.2758
 2523SOL    HW219032   3.673   3.025   9.057  0.9788  1.0663 -1.3817
 2524SOL     OW19033   4.339   1.092   0.218 -0.2745  0.5037  0.6025
 2524SOL    HW119034   4.365   1.038   0.294 -0.6535  0.2089  0.5199
 2524SOL    HW219035   4.427   1.124   0.197 -0.9241  1.1289 -1.0951
 2525SOL     OW19036   4.037   4.652   4.347  0.2032  0.2233  0.4922
 2525SOL    HW119037   4.072   4.576   4.394  0.7097 -0.2018 -0.5828
 2525SOL    HW219038   4.006   4.708   4.418  0.6782 -0.2542  1.0764
 2526SOL     OW19039   2.433   1.639   8.075  0.2241 -0.0954  0.1564
 2526SOL    HW119040   2.481   1.708   8.121 -0.0804  0.1204  0.1568
 2526SOL    HW219041   2.503   1.590   8.031 -0.6230 -0.0473 -1.2568
 2527SOL     OW19042   2.762   2.898   2.900 -0.5493  0.2624 -0.0437
 2527SOL    HW119043   2.823   2.826   2.915  0.3583  1.3212  1.3393
 2527SOL    HW219044   2.686   2.878   2.955 -1.7856  1.4725 -1.2945
 2528SOL     OW19045   3.743   0.016   5.349 -0.6405  0.2846 -1.0127
 2528SOL    HW119046   3.704   4.657   5.321  0.5540 -0.4103 -0.6217
 2528SOL    HW219047   3.819   4.702   5.391 -1.5105 -1.1516 -0.7350
 2529SOL     OW19048   0.825   2.168  12.681  0.0781  0.0451 -0.2017
 2529SOL    HW119049   0.800   2.084  12.642  1.2393 -0.1126 -0.6287
 2529SOL    HW219050   0.866   2.216  12.608 -0.7072  0.9416 -0.0534
 2530SOL     OW19051   0.256   3.945  12.976 -0.2868  0.0222  0.5250
 2530SOL    HW119052   0.246   3.904  12.890 -0.0261  1.4575 -0.1970
 2530SOL    HW219053   0.181   3.898  13.011  1.0357 -1.9578  0.6967
 2531SOL     OW19054   2.078   4.628   3.709 -0.2917 -0.0910  0.1318
 2531SOL    HW119055   2.084   4.695   3.778  1.8088 -1.1334  0.9523
 2531SOL    HW219056   1.997   4.588   3.742  0.6038 -1.3751  0.7259
 2532SOL     OW19057   4.636   1.071   9.987 -0.1753  0.2641 -0.4505
 2532SOL    HW119058   4.667   1.044  10.074  0.0432  1.5496 -0.1305
 2532SOL    HW219059   4.619   1.163  10.005 -0.0699  0.0928  0.5276
 2533SOL     OW19060   3.927   0.848  10.763  0.2386 -0.2333 -0.0041
 2533SOL    HW119061   3.855   0.788  10.782 -0.1576  0.2581  0.0393
 2533SOL    HW219062   3.977   0.855  10.845  0.7512 -2.6158 -0.0874
 2534SOL     OW19063   1.033   2.657   3.517  0.2214  0.1819 -0.1862
 2534SOL    HW119064   0.967   2.639   3.583  0.5538 -1.1361 -0.2178
 2534SOL    HW219065   1.072   2.733   3.560  0.0195  0.4923 -0.5474
 2535SOL     OW19066   0.002   3.954   3.795 -0.4963  0.0881  0.6685
 2535SOL    HW119067   4.660   3.967   3.864 -2.2275  0.7006 -1.0875
 2535SOL    HW219068   4.689   3.897   3.728 -2.2926  0.2197  1.5215
 2536SOL     OW19069   3.177   3.257   1.635 -0.1980  0.1486 -0.4008
 2536SOL    HW119070   3.272   3.254   1.624 -0.3058  0.4394 -1.4667
 2536SOL    HW219071   3.157   3.209   1.715  1.8976  0.2771  0.1827
 2537SOL     OW19072   1.241   3.833  10.215  0.2354 -0.0217  0.3820
 2537SOL    HW119073   1.292   3.897  10.166  1.2017 -0.2692  1.0470
 2537SOL    HW219074   1.163   3.886  10.231  0.5291  0.1255  1.3706
 2538SOL     OW19075   3.538   4.595  14.087  0.0701 -0.8158  0.1894
 2538SOL    HW119076   3.501   4.539  14.155  1.2075 -1.7822  0.0078
 2538SOL    HW219077   3.606   4.536  14.056  2.3007  0.9643  1.7273
 2539SOL     OW19078   2.210   4.089   7.277  0.1922 -0.3392 -0.1952
 2539SOL    HW119079   2.150   4.158   7.305 -0.5524 -0.0950 -2.4358
 2539SOL    HW219080   2.290   4.126   7.312 -0.9010  0.3702  1.5571
 2540SOL     OW19081   3.310   2.636   3.677 -0.0191 -0.4676  0.4552
 2540SOL    HW119082   3.342   2.586   3.752  1.3421 -0.4111 -0.0940
 2540SOL    HW219083   3.258   2.570   3.631  0.3842  0.3201 -1.1420
 2541SOL     OW19084   0.880   3.545   8.089 -0.0313 -0.3004  0.1560
 2541SOL    HW119085   0.872   3.499   8.006 -1.5754 -0.0555  0.1741
 2541SOL    HW219086   0.846   3.474   8.143  0.6089  1.3480  2.7323
 2542SOL     OW19087   4.377   3.720   3.259  0.9008 -0.1112  0.4192
 2542SOL    HW119088   4.397   3.790   3.321  1.7969 -1.4328  1.6026
 2542SOL    HW219089   4.286   3.706   3.283  0.2512  0.5790 -1.6022
 2543SOL     OW19090   1.145   4.548   2.142  0.0992  0.3860  0.1233
 2543SOL    HW119091   1.207   4.475   2.134 -0.7871 -0.3809  0.3177
 2543SOL    HW219092   1.208   4.611   2.178  0.8855  0.4284 -1.3193
 2544SOL     OW19093   4.418   3.143   0.383 -0.2054 -0.0991  0.2152
 2544SOL    HW119094   4.323   3.149   0.382 -0.2357 -0.5979 -0.8817
 2544SOL    HW219095   4.414   3.074   0.449 -2.4644 -2.0623 -1.9567
 2545SOL     OW19096   1.723   0.121   5.318 -0.1442 -0.6098  0.1037
 2545SOL    HW119097   1.729   0.046   5.377 -1.0565  3.1862  4.9824
 2545SOL    HW219098   1.689   0.187   5.378 -1.6775  0.9020 -2.4168
 2546SOL     OW19099   1.058   1.775   2.396  0.0517 -0.6985 -0.0009
 2546SOL    HW119100   1.004   1.731   2.331 -0.6294 -0.2884  0.2849
 2546SOL    HW219101   1.096   1.854   2.359 -0.5044 -1.3558 -1.9458
 2547SOL     OW19102   2.431   3.436   3.040 -0.0883  0.0064  0.0115
 2547SOL    HW119103   2.342   3.403   3.035  1.1013 -3.1888  0.0937
 2547SOL    HW219104   2.469   3.372   3.101  1.5120  1.5999  0.6966
 2548SOL     OW19105   1.181   1.086   4.450  0.4543  0.3238  0.7135
 2548SOL    HW119106   1.254   1.025   4.456 -0.9384 -1.5604 -1.4506
 2548SOL    HW219107   1.224   1.148   4.392  1.1239 -0.1794  0.6776
 2549SOL     OW19108   1.898   1.145  16.444 -0.3195 -0.0135  0.0478
 2549SOL    HW119109   1.975   1.190  16.479 -1.8909  0.9151  2.3087
 2549SOL    HW219110   1.936   1.058  16.454  0.8514  0.6445  1.2668
 2550SOL     OW19111   3.570   2.299   9.312  0.4031 -0.2876  0.0146
 2550SOL    HW119112   3.495   2.311   9.253  0.3307 -1.1257 -0.0637
 2550SOL    HW219113   3.533   2.338   9.390 -0.3721 -0.4074 -0.2911
 2551SOL     OW19114   4.529   0.227  12.796  0.1924  0.1728  0.0476
 2551SOL    HW119115   4.600   0.283  12.766 -1.0010  1.0783 -1.0903
 2551SOL    HW219116   4.555   0.217  12.888  1.1840 -1.4960 -0.4086
 2552SOL     OW19117   2.457   1.389   6.287 -0.0231 -0.2501 -0.5246
 2552SOL    HW119118   2.415   1.304   6.301 -0.2681  0.1854  1.4127
 2552SOL    HW219119   2.550   1.369   6.279  0.7417  3.8451 -1.7112
 2553SOL     OW19120   3.115   4.237   6.716 -0.4550 -0.2426  0.3162
 2553SOL    HW119121   3.036   4.276   6.754 -0.3883 -0.5697  0.7904
 2553SOL    HW219122   3.105   4.152   6.757  0.2784 -0.5313 -0.1072
 2554SOL     OW19123   3.827   1.143   2.211  0.1377  0.1404  0.2227
 2554SOL    HW119124   3.894   1.161   2.146 -1.3158  0.4309 -1.1994
 2554SOL    HW219125   3.816   1.050   2.192  1.6150  0.2307 -1.0660
 2555SOL     OW19126   4.643   2.518   0.593  0.6605  1.0231  0.0707
 2555SOL    HW119127   4.616   2.610   0.591 -1.1468  0.5441  2.9509
 2555SOL    HW219128   4.559   2.487   0.628  1.0822 -0.0965  0.0884
 2556SOL     OW19129   1.172   2.015   4.443  0.0123  0.4471  0.1394
 2556SOL    HW119130   1.186   1.932   4.399  0.6890  0.5142  0.2264
 2556SOL    HW219131   1.177   2.083   4.376 -0.0014  1.7391  1.4445
 2557SOL     OW19132   0.176   0.997   5.629 -0.3292  0.1313  0.2248
 2557SOL    HW119133   0.220   0.927   5.676 -0.3475 -0.9477 -1.3474
 2557SOL    HW219134   0.233   0.993   5.552 -0.3971 -0.1554  0.1899
 2558SOL     OW19135   4.660   1.369  16.207  0.4119  0.2588  0.5912
 2558SOL    HW119136   4.607   1.445  16.232  0.3861  0.5699 -0.4249
 2558SOL    HW219137   4.601   1.296  16.226 -1.1998  2.1271  2.7715
 2559SOL     OW19138   2.893   2.440   7.501 -0.2265 -0.1729 -0.4008
 2559SOL    HW119139   2.930   2.433   7.413  0.2601  1.1460 -0.3108
 2559SOL    HW219140   2.811   2.483   7.478 -0.8914 -0.8605  0.7169
 2560SOL     OW19141   3.906   3.923   2.187  0.3088  0.1430 -0.0845
 2560SOL    HW119142   3.852   4.000   2.166 -0.4405 -0.2194  0.5280
 2560SOL    HW219143   3.846   3.884   2.250 -1.0127  1.2565 -0.6258
 2561SOL     OW19144   0.550   0.047   8.224  0.7636 -0.0025  0.2685
 2561SOL    HW119145   0.500   4.712   8.168  0.0849 -1.9035  2.8989
 2561SOL    HW219146   0.481   0.077   8.283 -1.6535 -2.5787 -1.2888
 2562SOL     OW19147   2.301   1.385   3.399  0.2308 -0.2036  0.2381
 2562SOL    HW119148   2.231   1.322   3.415  0.9378 -0.9266  0.4634
 2562SOL    HW219149   2.266   1.432   3.323 -3.6881 -1.8421  1.0432
 2563SOL     OW19150   4.475   4.439   3.340  0.2826 -0.1320 -0.0435
 2563SOL    HW119151   4.514   4.406   3.421 -0.6997  0.5023  0.6861
 2563SOL    HW219152   4.531   4.516   3.330 -0.5820  0.6485  1.1953
 2564SOL     OW19153   0.066   2.230   6.999 -0.2188  0.2675 -0.2052
 2564SOL    HW119154   4.714   2.188   6.958  0.0327  1.0123 -1.4550
 2564SOL    HW219155   0.040   2.322   6.989 -0.1883  0.4492  1.4685
 2565SOL     OW19156   4.371   1.114  15.121 -0.0889  0.5703  0.3756
 2565SOL    HW119157   4.378   1.170  15.044 -0.1356 -0.2269 -0.2112
 2565SOL    HW219158   4.456   1.070  15.116 -0.8197 -0.8305  0.2000
 2566SOL     OW19159   3.038   1.039   8.908  0.0976  0.4808  0.0864
 2566SOL    HW119160   3.074   1.113   8.859 -0.9919  1.1717  0.3290
 2566SOL    HW219161   2.987   1.003   8.836 -0.6948  0.1995  0.7880
 2567SOL     OW19162   2.107   1.453   8.029  0.3381  0.9363 -0.0243
 2567SOL    HW119163   2.106   1.490   8.118  1.2601 -1.7188  1.1074
 2567SOL    HW219164   2.033   1.394   8.040 -0.9347  2.6750  0.7376
 2568SOL     OW19165   2.746   0.264   6.656  0.0936  0.4756 -0.6945
 2568SOL    HW119166   2.663   0.281   6.701  0.9738  2.4760  0.2071
 2568SOL    HW219167   2.720   0.269   6.564  0.3298 -0.7639 -0.8263
 2569SOL     OW19168   4.416   0.465   7.896  0.1251 -0.2024  0.1847
 2569SOL    HW119169   4.391   0.476   7.804  0.5370  2.6007  0.4019
 2569SOL    HW219170   4.511   0.457   7.903  0.1551  0.0776  0.1154
 2570SOL     OW19171   4.304   2.723   5.559  0.1486 -0.5184 -0.6600
 2570SOL    HW119172   4.392   2.696   5.584  0.2368 -0.1377 -0.5652
 2570SOL    HW219173   4.321   2.816   5.573 -2.1291 -0.7215  3.6858
 2571SOL     OW19174   2.905   4.223   8.147  0.0845 -0.3023 -0.3885
 2571SOL    HW119175   2.885   4.315   8.127 -1.2043 -0.4055  0.4252
 2571SOL    HW219176   2.865   4.216   8.234  0.4629  0.8361 -0.1139
 2572SOL     OW19177   4.412   2.301   6.186  1.0627  0.1596  0.8262
 2572SOL    HW119178   4.454   2.342   6.261  3.3118 -0.7274  0.0453
 2572SOL    HW219179   4.433   2.374   6.127 -1.6465  1.0415  0.9342
 2573SOL     OW19180   2.134   2.246   6.003  0.1389  1.0218 -0.2757
 2573SOL    HW119181   2.123   2.282   5.916 -1.2350 -0.4118 -0.6954
 2573SOL    HW219182   2.213   2.290   6.035  0.1743  0.1632  0.8175
 2574SOL     OW19183   2.610   2.190   5.584  0.0411 -0.4276 -1.0509
 2574SOL    HW119184   2.705   2.193   5.572  0.2948 -0.8723  0.8336
 2574SOL    HW219185   2.597   2.096   5.583  1.1764 -0.5799 -1.1076
 2575SOL     OW19186   3.254   0.601   7.776  0.0579  0.5495  0.0689
 2575SOL    HW119187   3.288   0.539   7.711 -2.3718 -1.2405  0.5395
 2575SOL    HW219188   3.259   0.684   7.727 -2.6444  2.0500  2.3518
 2576SOL     OW19189   3.466   3.917   4.719  0.3138 -0.0963 -0.2617
 2576SOL    HW119190   3.393   3.946   4.665  0.3147 -1.2133 -0.8616
 2576SOL    HW219191   3.452   3.826   4.694  3.4668 -0.7823  0.4959
 2577SOL     OW19192   1.139   4.496  10.810 -0.5363  0.1175  0.3113
 2577SOL    HW119193   1.195   4.444  10.868 -2.1945 -1.9547  0.0847
 2577SOL    HW219194   1.132   4.579  10.856 -0.1816  0.9569 -1.1667
 2578SOL     OW19195   2.046   0.020   5.937 -0.1304 -0.5367 -0.5222
 2578SOL    HW119196   1.972   4.705   5.983  0.7735  1.1987  2.4108
 2578SOL    HW219197   2.028   0.113   5.919 -0.0802 -0.0432  1.9420
 2579SOL     OW19198   4.296   1.450   3.631  0.4275 -0.1132  0.3025
 2579SOL    HW119199   4.288   1.434   3.537 -1.3022  1.5177  0.1630
 2579SOL    HW219200   4.234   1.522   3.645 -1.5473 -1.6514 -0.5249
 2580SOL     OW19201   4.092   1.254   9.154 -0.3252  0.9206 -0.1624
 2580SOL    HW119202   4.087   1.159   9.142  0.7212  0.9967 -1.1902
 2580SOL    HW219203   4.072   1.275   9.245  1.4660 -0.5693  0.5779
 2581SOL     OW19204   1.858   2.631  13.840  0.1609 -0.7406 -0.7811
 2581SOL    HW119205   1.844   2.606  13.931 -1.0744  2.2436 -0.1707
 2581SOL    HW219206   1.798   2.705  13.837  0.9471 -0.1781 -2.8959
 2582SOL     OW19207   2.134   2.750  11.636  0.0167 -0.1467 -0.2288
 2582SOL    HW119208   2.225   2.723  11.627 -0.7164 -2.4907 -0.4956
 2582SOL    HW219209   2.122   2.725  11.727  0.8408 -0.6867 -0.2719
 2583SOL     OW19210   4.410   0.418   8.774 -0.5123  0.1739  0.3192
 2583SOL    HW119211   4.427   0.475   8.849 -0.8775  0.3352  0.2797
 2583SOL    HW219212   4.497   0.414   8.736  0.2511  2.7495  1.7826
 2584SOL     OW19213   2.406   0.370   6.498 -0.2482 -0.2169 -0.1815
 2584SOL    HW119214   2.490   0.366   6.452  0.3541 -0.5112  0.9617
 2584SOL    HW219215   2.409   0.287   6.544 -0.2428  1.1669  2.3185
 2585SOL     OW19216   1.072   3.660  15.355  0.2250  0.2904 -0.2013
 2585SOL    HW119217   1.048   3.718  15.427  0.1725 -0.0154  0.0287
 2585SOL    HW219218   1.135   3.605  15.403 -0.8317  0.1840  1.0509
 2586SOL     OW19219   2.185   0.290   8.257  0.4747  0.3056  0.1992
 2586SOL    HW119220   2.259   0.272   8.198 -0.6413  0.0083 -1.1094
 2586SOL    HW219221   2.236   0.293   8.338  0.4436  1.2986  0.1755
 2587SOL     OW19222   3.542   1.800  14.020 -0.3683  0.0641  0.0451
 2587SOL    HW119223   3.540   1.712  14.056  1.0895  0.8936  2.1336
 2587SOL    HW219224   3.626   1.793  13.972  0.9210  2.6154  1.9473
 2588SOL     OW19225   0.854   3.934   0.154  0.4917  0.0515 -0.4082
 2588SOL    HW119226   0.890   3.862   0.204 -1.5610 -1.0502 -0.5150
 2588SOL    HW219227   0.822   3.994   0.221 -0.4840 -1.0199  0.0679
 2589SOL     OW19228   0.086   4.183  12.887  0.6230 -0.1153 -0.0836
 2589SOL    HW119229   0.068   4.272  12.917 -0.4836 -1.0012  1.8714
 2589SOL    HW219230   0.178   4.168  12.908  0.4612  0.2753  0.9185
 2590SOL     OW19231   3.670   0.584   5.360 -0.2999  0.4635 -0.2032
 2590SOL    HW119232   3.613   0.513   5.391  0.7310  0.5302  1.8967
 2590SOL    HW219233   3.738   0.575   5.427 -0.9042  2.2008  0.6528
 2591SOL     OW19234   3.652   4.144   0.492 -0.0110  1.0985  0.3820
 2591SOL    HW119235   3.642   4.157   0.586  1.7700 -0.1801  0.7429
 2591SOL    HW219236   3.748   4.137   0.495  0.3162  4.8022 -0.6018
 2592SOL     OW19237   1.854   1.691  17.172 -0.3997 -0.6393 -0.4282
 2592SOL    HW119238   1.814   1.704  17.087  2.5107  1.0660 -1.5465
 2592SOL    HW219239   1.837   1.774  17.218 -0.2238  0.1123 -1.7310
 2593SOL     OW19240   4.407   1.927   8.383 -0.0869 -0.1067 -0.9385
 2593SOL    HW119241   4.459   1.910   8.461  2.3955 -0.8184 -2.7422
 2593SOL    HW219242   4.482   1.922   8.324  0.3696  2.5824 -0.5641
 2594SOL     OW19243   2.777   0.374  12.729 -0.6874  0.5577 -0.3630
 2594SOL    HW119244   2.816   0.358  12.815 -0.6865 -0.8474 -0.6298
 2594SOL    HW219245   2.833   0.444  12.695 -1.2279  0.9090 -0.5461
 2595SOL     OW19246   0.980   1.996   6.994  0.7380  0.4486 -0.0856
 2595SOL    HW119247   0.950   1.939   6.924  1.1049 -0.6059  0.6135
 2595SOL    HW219248   1.072   1.968   7.002  0.1742 -0.7899  2.1068
 2596SOL     OW19249   3.725   4.395   6.782 -0.2722 -0.3774  0.7149
 2596SOL    HW119250   3.725   4.305   6.749 -1.3605 -0.7437  1.6996
 2596SOL    HW219251   3.797   4.429   6.729 -1.8078 -1.8940 -2.4084
 2597SOL     OW19252   0.020   3.552   7.077  0.2043  0.2235  0.0254
 2597SOL    HW119253   0.013   3.467   7.121 -0.1595 -1.0439 -2.4526
 2597SOL    HW219254   0.103   3.570   7.121  0.5825  1.7555 -1.3056
 2598SOL     OW19255   3.866   2.582   1.582 -0.5007 -0.6067 -0.1718
 2598SOL    HW119256   3.842   2.591   1.490 -0.1317 -0.4682 -0.2544
 2598SOL    HW219257   3.948   2.533   1.574 -0.5249 -0.5642 -0.6786
 2599SOL     OW19258   4.359   3.765   8.543  0.2378 -0.8124  0.0248
 2599SOL    HW119259   4.269   3.749   8.516  0.5894 -1.4491 -0.7876
 2599SOL    HW219260   4.357   3.810   8.627 -1.6007  0.7496 -0.8545
 2600SOL     OW19261   3.502   3.220   4.968  0.6679 -0.0783  0.0365
 2600SOL    HW119262   3.407   3.231   4.974  0.8413 -0.1333  2.8714
 2600SOL    HW219263   3.510   3.130   4.938 -0.6364  0.7367 -2.6972
 2601SOL     OW19264   1.605   0.982   6.017  0.1394  0.5246  0.4969
 2601SOL    HW119265   1.547   0.923   6.065  1.4508 -0.9446  0.2804
 2601SOL    HW219266   1.662   1.009   6.089  0.6010  1.0045 -0.0418
 2602SOL     OW19267   0.392   4.388  15.593  0.2909  0.0045 -0.4205
 2602SOL    HW119268   0.330   4.320  15.622  1.4382 -0.9130 -0.1314
 2602SOL    HW219269   0.435   4.334  15.527  0.4650 -0.1647 -0.1690
 2603SOL     OW19270   2.760   2.078   9.208 -0.1358 -0.0829 -0.1639
 2603SOL    HW119271   2.746   1.987   9.184 -3.4501  0.7547 -1.3374
 2603SOL    HW219272   2.671   2.110   9.195  1.3929  2.9523 -3.0950
 2604SOL     OW19273   2.434   2.704  14.667 -0.7673 -0.4764 -0.9440
 2604SOL    HW119274   2.391   2.771  14.613 -1.6610 -1.0471 -0.9392
 2604SOL    HW219275   2.457   2.751  14.747  1.5494 -0.8304 -1.4143
 2605SOL     OW19276   3.221   3.448   0.518  0.4745 -0.3248 -0.5730
 2605SOL    HW119277   3.269   3.383   0.467  1.4046  1.0663 -1.4615
 2605SOL    HW219278   3.162   3.483   0.451  1.0293 -0.1534 -0.9654
 2606SOL     OW19279   2.019   2.142   2.583 -0.3622  0.3746 -0.2813
 2606SOL    HW119280   2.093   2.093   2.547  0.2350  0.8582  0.2656
 2606SOL    HW219281   1.948   2.108   2.529  2.8421 -4.2722 -1.5101
 2607SOL     OW19282   0.280   3.707   0.962  0.5128  0.2280  0.3211
 2607SOL    HW119283   0.328   3.696   0.879 -0.5553  0.9968 -0.4000
 2607SOL    HW219284   0.196   3.748   0.940  0.1660 -0.2138  0.8302
 2608SOL     OW19285   0.799   1.999   7.194 -0.0119  0.4110  0.2690
 2608SOL    HW119286   0.810   1.910   7.230 -1.1803  0.2257  0.1896
 2608SOL    HW219287   0.853   1.990   7.115  0.0772 -0.8278  0.4611
 2609SOL     OW19288   2.108   0.691   0.157  0.1487  0.0131 -0.5037
 2609SOL    HW119289   2.112   0.785   0.143 -0.0588 -0.1661 -1.8296
 2609SOL    HW219290   2.036   0.685   0.220  0.3270  0.1587 -0.2878
 2610SOL     OW19291   3.980   3.175   9.450 -0.5581  0.1228 -0.1032
 2610SOL    HW119292   4.014   3.264   9.460 -2.3049  0.9379 -1.3763
 2610SOL    HW219293   4.057   3.131   9.415 -0.0554  1.0535 -0.1931
 2611SOL     OW19294   4.435   4.168  16.540 -0.7095 -0.0062  0.3980
 2611SOL    HW119295   4.507   4.140  16.597  0.2655 -0.9780 -1.3025
 2611SOL    HW219296   4.373   4.097  16.525 -0.5780 -0.0654  0.1342
 2612SOL     OW19297   3.308   2.054   6.468  1.3144  0.1309 -0.4047
 2612SOL    HW119298   3.351   2.112   6.405  1.1787 -0.9293 -1.4876
 2612SOL    HW219299   3.317   1.971   6.421 -0.0530 -0.2104 -0.0646
 2613SOL     OW19300   0.619   1.860   9.348  0.0944 -0.0407  0.1815
 2613SOL    HW119301   0.554   1.808   9.395  1.0351 -0.7544  0.6984
 2613SOL    HW219302   0.573   1.933   9.307  1.4972 -0.0226 -1.3664
 2614SOL     OW19303   3.859   4.534   8.778  0.0520 -0.6914  0.3467
 2614SOL    HW119304   3.904   4.619   8.781  1.1306 -1.2898  1.1635
 2614SOL    HW219305   3.846   4.541   8.684  0.4845 -0.1907  0.3237
 2615SOL     OW19306   0.616   2.241   6.014 -0.7004  0.6700  0.0285
 2615SOL    HW119307   0.684   2.174   6.005 -1.4142 -0.0033 -0.3627
 2615SOL    HW219308   0.554   2.184   6.060  1.8478 -0.2337  2.3563
 2616SOL     OW19309   2.680   2.791  11.554 -0.4951 -0.3523 -0.1648
 2616SOL    HW119310   2.597   2.828  11.585  0.9993  1.6476  1.4763
 2616SOL    HW219311   2.743   2.823  11.619  1.6565 -2.8188 -1.0818
 2617SOL     OW19312   1.074   0.037   4.581 -0.0795  0.4678  0.0503
 2617SOL    HW119313   1.037   0.123   4.560 -2.0595 -0.4783 -0.3907
 2617SOL    HW219314   0.994   4.708   4.586  0.7432 -0.7716  0.0199
 2618SOL     OW19315   4.275   2.089   0.915  0.8528  0.3297  0.0416
 2618SOL    HW119316   4.352   2.035   0.927  1.3899  1.6208  2.4168
 2618SOL    HW219317   4.210   2.026   0.882 -1.9120  2.0836  2.1182
 2619SOL     OW19318   2.158   2.241   3.931 -0.3483  0.0724  0.6484
 2619SOL    HW119319   2.208   2.317   3.960  1.2471 -1.4365  1.8595
 2619SOL    HW219320   2.147   2.186   4.008 -0.9550 -1.6243 -0.6336
 2620SOL     OW19321   1.056   1.840   5.966  0.0995  0.4840  0.2094
 2620SOL    HW119322   1.008   1.760   5.985  2.2413 -0.9791 -0.5985
 2620SOL    HW219323   1.134   1.842   6.023 -0.4270  1.1402  0.9132
 2621SOL     OW19324   1.802   1.247   8.829 -0.8648  0.5632  0.4046
 2621SOL    HW119325   1.719   1.238   8.783 -0.8951 -1.4226  0.8553
 2621SOL    HW219326   1.844   1.314   8.774  1.0723 -1.9848 -1.2139
 2622SOL     OW19327   1.139   4.223   9.399 -0.7096 -0.8303  0.2248
 2622SOL    HW119328   1.085   4.288   9.443  0.2696  0.0937  0.0577
 2622SOL    HW219329   1.183   4.186   9.476 -0.3477 -0.0703  0.3814
 2623SOL     OW19330   0.695   3.428   6.198  0.2426 -0.1439  0.8283
 2623SOL    HW119331   0.625   3.481   6.236  0.1596  0.0730  0.3759
 2623SOL    HW219332   0.770   3.482   6.223  1.5574 -2.4681  1.9549
 2624SOL     OW19333   0.408   4.185   4.032  0.1131  0.0513 -0.1794
 2624SOL    HW119334   0.453   4.224   4.107 -1.6339 -0.4580  1.1363
 2624SOL    HW219335   0.316   4.194   4.055 -0.0326 -0.7168 -0.4828
 2625SOL     OW19336   1.249   2.165   6.804 -0.0564 -0.1217 -0.4205
 2625SOL    HW119337   1.291   2.118   6.876  0.8222  2.7788  0.9677
 2625SOL    HW219338   1.258   2.097   6.738 -1.2406  0.6109 -1.3519
 2626SOL     OW19339   1.251   0.650   8.168  0.0690  0.6132  0.1992
 2626SOL    HW119340   1.215   0.730   8.206 -1.7758 -0.7164  1.2240
 2626SOL    HW219341   1.213   0.580   8.220  1.5805 -0.7537 -0.5082
 2627SOL     OW19342   4.652   0.789  15.415 -0.2382  0.3119  0.5331
 2627SOL    HW119343   4.668   0.695  15.414  0.4552  0.4409 -0.9508
 2627SOL    HW219344   4.600   0.800  15.494  0.1274  0.9218  0.6941
 2628SOL     OW19345   1.311   3.206   5.887 -0.1935 -0.1865  0.4139
 2628SOL    HW119346   1.287   3.291   5.924 -1.0996  0.5909 -1.9224
 2628SOL    HW219347   1.322   3.158   5.969  0.9316  1.2186  1.0825
 2629SOL     OW19348   2.312   1.017   0.897  0.0572 -1.0491 -0.1680
 2629SOL    HW119349   2.362   0.936   0.902  0.0016 -1.0093  1.2010
 2629SOL    HW219350   2.226   0.978   0.906 -1.1561  1.6558 -0.0846
 2630SOL     OW19351   0.978   3.300  15.421  0.3562 -0.3184 -0.7947
 2630SOL    HW119352   0.980   3.228  15.484  3.1047  0.6319  0.2031
 2630SOL    HW219353   0.967   3.373  15.482  1.7350 -0.0447 -0.8730
 2631SOL     OW19354   0.878   0.366   0.543  0.8026 -0.1183 -0.3081
 2631SOL    HW119355   0.961   0.318   0.552  0.4868 -0.4781  0.7862
 2631SOL    HW219356   0.822   0.302   0.589  0.2914  1.0108  0.6414
 2632SOL     OW19357   0.097   3.873  17.534  0.5359 -0.2208 -0.0743
 2632SOL    HW119358   0.155   3.817  17.585 -2.3922 -1.8516  1.4420
 2632SOL    HW219359   0.166   3.918  17.484  0.8175 -0.6953 -0.1151
 2633SOL     OW19360   0.434   1.385   9.331 -0.3442  0.4765  0.1245
 2633SOL    HW119361   0.361   1.338   9.290  0.7586 -0.9520 -0.1959
 2633SOL    HW219362   0.388   1.459   9.371 -1.2255  0.0666 -0.1123
 2634SOL     OW19363   1.676   0.592  16.786  0.6311  0.2426  0.1117
 2634SOL    HW119364   1.581   0.602  16.779  0.4506 -3.5428 -2.4519
 2634SOL    HW219365   1.685   0.497  16.798  3.0542  0.3994 -0.5252
 2635SOL     OW19366   0.878   4.073   4.800  0.1872 -0.9454  0.4648
 2635SOL    HW119367   0.784   4.060   4.787  0.0691  1.9729 -1.5464
 2635SOL    HW219368   0.871   4.099   4.892 -1.4914  1.4972 -0.3481
 2636SOL     OW19369   4.416   3.325   7.321 -0.3308 -0.0343 -0.6354
 2636SOL    HW119370   4.494   3.332   7.265  1.9524 -1.3898  2.4317
 2636SOL    HW219371   4.362   3.390   7.274 -1.1621 -1.8878 -2.2367
 2637SOL     OW19372   0.228   1.547   3.255 -0.0419  0.2205 -0.4302
 2637SOL    HW119373   0.301   1.576   3.200 -1.1071  0.9023 -1.4907
 2637SOL    HW219374   0.284   1.536   3.331 -0.3084  1.1583 -0.0931
 2638SOL     OW19375   1.187   2.400   7.262  0.0884 -0.4526  0.1541
 2638SOL    HW119376   1.140   2.373   7.184 -2.0384 -1.8252  1.9192
 2638SOL    HW219377   1.169   2.493   7.274  1.6922 -0.3379  1.7463
 2639SOL     OW19378   3.860   0.727   1.180 -0.0437  0.5208 -0.0325
 2639SOL    HW119379   3.951   0.723   1.210 -0.5794 -0.7698  1.3729
 2639SOL    HW219380   3.834   0.795   1.242  1.1811  0.5388  0.4480
 2640SOL     OW19381   4.336   1.893   0.022 -0.7878  0.1936 -0.1930
 2640SOL    HW119382   4.253   1.933   0.047 -1.8484 -1.9920 -0.2330
 2640SOL    HW219383   4.398   1.965   0.031 -0.9057  0.4561 -1.4754
 2641SOL     OW19384   0.145   0.728   5.364 -0.4105 -0.2989 -0.1281
 2641SOL    HW119385   0.077   0.789   5.396 -0.9014 -0.4796 -0.8267
 2641SOL    HW219386   0.230   0.762   5.391 -0.2170 -1.6303  0.9552
 2642SOL     OW19387   1.764   4.363   0.118  0.3221 -0.4137  0.6581
 2642SOL    HW119388   1.704   4.392   0.049  0.8339 -0.3415  0.2488
 2642SOL    HW219389   1.716   4.281   0.132  0.1869  0.0012  2.5405
 2643SOL     OW19390   3.388   2.774   9.916  0.0337 -0.2748  0.2866
 2643SOL    HW119391   3.364   2.863   9.890  2.8123  0.3242 -0.2202
 2643SOL    HW219392   3.389   2.783  10.011 -0.9493 -0.2446  0.2958
 2644SOL     OW19393   1.593   3.029   4.040 -0.4233  0.3024  0.3115
 2644SOL    HW119394   1.606   3.068   4.126 -0.6153 -0.7063  0.7967
 2644SOL    HW219395   1.588   3.106   3.984 -0.7612  2.1680  2.9158
 2645SOL     OW19396   3.515   4.415   4.313  0.3256  0.6412  0.3749
 2645SOL    HW119397   3.435   4.368   4.292  1.2959  0.3628 -2.7034
 2645SOL    HW219398   3.508   4.412   4.409 -1.7773 -1.2538  0.1627
 2646SOL     OW19399   3.910   2.581   4.627 -0.1412 -0.1166 -0.3690
 2646SOL    HW119400   3.927   2.618   4.714  1.8269  0.7505 -1.1214
 2646SOL    HW219401   3.815   2.590   4.628 -0.2539 -1.4164  2.3109
 2647SOL     OW19402   2.275   4.419  15.429 -0.0172 -0.0104 -0.2265
 2647SOL    HW119403   2.339   4.433  15.498  0.1014 -0.3162 -0.2770
 2647SOL    HW219404   2.330   4.419  15.351 -1.2239 -0.7263 -1.0788
 2648SOL     OW19405   0.164   3.615   8.905  0.3462  0.0677 -0.3870
 2648SOL    HW119406   0.213   3.660   8.973  0.7349  0.9759 -1.2570
 2648SOL    HW219407   0.129   3.689   8.854 -0.5214  0.5045  0.8621
 2649SOL     OW19408   2.307   0.335  16.787  0.2525  0.4390 -0.0254
 2649SOL    HW119409   2.226   0.384  16.800  0.2724  0.8729 -1.6167
 2649SOL    HW219410   2.280   0.244  16.790 -1.6895  0.9842 -1.3542
 2650SOL     OW19411   2.429   0.492   4.602  0.4248 -0.2820  0.0956
 2650SOL    HW119412   2.394   0.403   4.603  2.1672 -0.9649  1.1159
 2650SOL    HW219413   2.510   0.488   4.551  0.7261 -2.5451  0.7539
 2651SOL     OW19414   1.173   0.298   5.979  1.0487 -0.1292 -0.0308
 2651SOL    HW119415   1.135   0.232   6.037 -1.8300  2.4516  1.0148
 2651SOL    HW219416   1.215   0.240   5.915  0.7231 -1.7230  1.1983
 2652SOL     OW19417   4.470   4.134   8.694 -0.0341  0.2992 -0.7597
 2652SOL    HW119418   4.482   4.211   8.749 -2.5939  0.5153 -0.4691
 2652SOL    HW219419   4.528   4.069   8.733 -1.3520 -0.2422  0.2907
 2653SOL     OW19420   2.244   1.603   3.771  0.1239 -0.3020  0.0091
 2653SOL    HW119421   2.187   1.635   3.701  1.8363  2.7875  0.0344
 2653SOL    HW219422   2.216   1.512   3.770 -0.3987 -0.1240 -1.4237
 2654SOL     OW19423   0.683   0.154  16.338 -0.6820 -0.3983 -0.3406
 2654SOL    HW119424   0.661   0.066  16.309  1.3665 -0.9988 -0.0980
 2654SOL    HW219425   0.691   0.208  16.259  3.0700 -1.4115 -0.6790
 2655SOL     OW19426   1.562   4.333   7.791  0.2203 -0.0018 -0.4514
 2655SOL    HW119427   1.532   4.271   7.724  1.4210 -1.2526  0.1845
 2655SOL    HW219428   1.653   4.342   7.762  0.0297  2.6614 -0.2106
 2656SOL     OW19429   1.969   1.637  12.182 -0.2295 -0.3653 -0.2557
 2656SOL    HW119430   2.011   1.663  12.100  0.6448 -0.0553  0.2893
 2656SOL    HW219431   1.882   1.608  12.156  0.1625 -0.0605 -1.9334
 2657SOL     OW19432   4.705   2.675   1.366  0.5656 -0.6755  0.2665
 2657SOL    HW119433   4.643   2.682   1.438 -1.5592  0.2770 -1.6665
 2657SOL    HW219434   4.700   2.580   1.357 -0.5588 -0.7115  1.3572
 2658SOL     OW19435   2.148   2.874   6.285  0.0270  0.2859 -0.6068
 2658SOL    HW119436   2.219   2.856   6.347  1.3311 -2.6724 -2.9283
 2658SOL    HW219437   2.071   2.880   6.341  0.1925  1.7113 -0.5398
 2659SOL     OW19438   0.150   0.072   3.117 -0.2940  0.1978 -0.3387
 2659SOL    HW119439   0.096   0.072   3.038 -0.8142 -2.0543 -0.0016
 2659SOL    HW219440   0.225   0.017   3.094  0.2697  1.6055 -1.8126
 2660SOL     OW19441   1.996   4.347   9.076  0.0669  0.6242 -0.0620
 2660SOL    HW119442   1.941   4.287   9.127 -1.9564  1.6241 -1.0405
 2660SOL    HW219443   1.974   4.433   9.112 -2.4827  0.2828 -0.7742
 2661SOL     OW19444   1.741   4.322  16.756  0.0138  0.4394 -0.1350
 2661SOL    HW119445   1.668   4.354  16.703  0.1023  1.5626  0.4209
 2661SOL    HW219446   1.774   4.404  16.792  0.3835  0.0535  0.4187
 2662SOL     OW19447   3.518   0.695   7.122 -0.1107 -0.6761  0.2564
 2662SOL    HW119448   3.476   0.764   7.175  1.6186  0.3570  0.2814
 2662SOL    HW219449   3.592   0.738   7.080 -0.2868  1.3747  1.9998
 2663SOL     OW19450   3.957   1.945   5.215 -0.4194  0.3688 -0.3385
 2663SOL    HW119451   4.046   1.909   5.202  0.9011  3.3911  0.3793
 2663SOL    HW219452   3.910   1.923   5.135 -2.1661 -0.5952  0.9693
 2664SOL     OW19453   0.500   1.546   4.166 -0.0288 -0.5891  0.2245
 2664SOL    HW119454   0.439   1.609   4.206  2.6202  0.4796  2.6104
 2664SOL    HW219455   0.529   1.494   4.241 -0.1311 -0.4821  0.3388
 2665SOL     OW19456   1.030   3.663   6.095 -0.2562  0.2886 -0.4924
 2665SOL    HW119457   0.981   3.742   6.073  0.8701  1.3315  0.7602
 2665SOL    HW219458   0.986   3.634   6.174 -2.6000 -1.5017 -2.4590
 2666SOL     OW19459   3.454   2.677   5.243 -0.0463 -0.2324  0.0780
 2666SOL    HW119460   3.380   2.659   5.301  1.2522 -0.3146  1.6841
 2666SOL    HW219461   3.515   2.614   5.281  0.3570  1.4907  2.2253
 2667SOL     OW19462   0.431   0.464  14.894  0.0859 -0.1033  0.4438
 2667SOL    HW119463   0.441   0.373  14.865 -1.7256 -0.8071  2.0420
 2667SOL    HW219464   0.478   0.507  14.822  3.1886 -2.1708  1.2599
 2668SOL     OW19465   2.454   1.378  17.091  0.5629  0.1488 -0.2616
 2668SOL    HW119466   2.506   1.381  17.172 -0.9743  0.7740  0.7056
 2668SOL    HW219467   2.392   1.311  17.120 -0.1248  0.2720 -1.4465
 2669SOL     OW19468   3.356   0.875   2.541 -0.1775  0.6479 -0.5503
 2669SOL    HW119469   3.292   0.807   2.561  0.8186 -0.5771 -1.4768
 2669SOL    HW219470   3.342   0.928   2.619 -1.8126 -2.3389  1.1438
 2670SOL     OW19471   1.142   1.285   5.457 -0.5674 -0.3595  0.6218
 2670SOL    HW119472   1.107   1.218   5.399  0.6986  0.6266 -1.2828
 2670SOL    HW219473   1.232   1.297   5.425 -0.8083 -0.4273 -0.0830
 2671SOL     OW19474   0.893   3.146   3.326 -0.5285 -0.0900 -0.4709
 2671SOL    HW119475   0.807   3.150   3.284 -1.1455  1.6445  0.9281
 2671SOL    HW219476   0.932   3.080   3.269  0.4208  0.1999 -0.1571
 2672SOL     OW19477   1.558   3.338  16.670 -0.2218 -0.0891 -0.4821
 2672SOL    HW119478   1.632   3.283  16.644 -1.0728 -2.7280  2.7269
 2672SOL    HW219479   1.594   3.419  16.707 -0.4244 -0.4356  0.4661
 2673SOL     OW19480   2.311   2.724   7.008 -0.1168 -0.5840 -0.1967
 2673SOL    HW119481   2.346   2.744   6.921 -0.9440 -1.8530 -0.8246
 2673SOL    HW219482   2.254   2.800   7.013 -2.3136 -2.3394  1.4108
 2674SOL     OW19483   2.865   3.003   8.745 -0.4383 -0.0335  0.1261
 2674SOL    HW119484   2.807   2.931   8.767  0.5464 -0.4386  1.3758
 2674SOL    HW219485   2.829   3.031   8.660 -0.6242 -0.2379  0.1387
 2675SOL     OW19486   0.969   2.265  13.936 -0.1072  0.5981 -0.2150
 2675SOL    HW119487   1.011   2.187  13.899 -2.1581 -0.2673 -0.7469
 2675SOL    HW219488   0.935   2.301  13.854 -0.7363 -0.5474 -0.4565
 2676SOL     OW19489   0.690   3.606   7.175  0.5629 -0.0124 -0.5248
 2676SOL    HW119490   0.704   3.512   7.164  0.0775  0.0308 -1.5377
 2676SOL    HW219491   0.700   3.611   7.270  2.7476  0.0389 -0.7453
 2677SOL     OW19492   0.646   1.431  15.743  0.3470 -0.5044 -0.2008
 2677SOL    HW119493   0.684   1.417  15.656  1.8286  0.7588  0.2358
 2677SOL    HW219494   0.554   1.453  15.727  0.9736  0.0585 -3.0224
 2678SOL     OW19495   4.592   3.341   4.214 -0.5647 -0.1350 -0.4155
 2678SOL    HW119496   4.684   3.355   4.237 -0.8111 -0.1754  0.6058
 2678SOL    HW219497   4.597   3.258   4.167  1.5738 -0.7612  0.9015
 2679SOL     OW19498   4.355   1.405   6.652 -0.8836  0.2646 -0.4046
 2679SOL    HW119499   4.264   1.387   6.675 -0.7272  0.9690  0.7492
 2679SOL    HW219500   4.347   1.462   6.575  0.4164  2.0131  0.7546
 2680SOL     OW19501   2.946   2.137  12.917 -0.1403 -0.5491 -0.5276
 2680SOL    HW119502   2.954   2.044  12.937 -1.7096 -0.5022  0.3470
 2680SOL    HW219503   2.935   2.133  12.822 -2.5810  1.3724 -0.3515
 2681SOL     OW19504   1.223   1.226   2.552  0.1139 -0.1097 -0.0515
 2681SOL    HW119505   1.267   1.166   2.491  0.6061  2.8505 -2.6409
 2681SOL    HW219506   1.271   1.308   2.539 -1.3158  0.6371 -0.6483
 2682SOL     OW19507   2.780   0.510   5.802 -0.3509  0.3624 -0.5289
 2682SOL    HW119508   2.792   0.434   5.745 -3.1074 -1.9301  1.9452
 2682SOL    HW219509   2.806   0.483   5.890  0.0729  0.5126 -0.6067
 2683SOL     OW19510   0.251   2.188   4.520  0.2378 -0.0343  0.1088
 2683SOL    HW119511   0.209   2.257   4.573  2.2371 -0.6535  2.5515
 2683SOL    HW219512   0.168   2.147   4.498 -0.3623  0.3497  1.6734
 2684SOL     OW19513   3.919   0.572   2.439  0.1575  0.0473 -0.0642
 2684SOL    HW119514   3.983   0.606   2.377  2.3348 -0.6737  1.7780
 2684SOL    HW219515   3.881   0.496   2.397  1.0533  0.0261 -0.8175
 2685SOL     OW19516   4.289   0.901   0.796  0.1919  0.1811  0.3247
 2685SOL    HW119517   4.198   0.877   0.778 -0.0024  0.6011  0.7172
 2685SOL    HW219518   4.325   0.814   0.810  1.5180  0.4751 -1.2701
 2686SOL     OW19519   2.194   3.164   3.857  0.7715 -0.4636 -0.1333
 2686SOL    HW119520   2.192   3.260   3.850  0.0220 -0.3163  2.2834
 2686SOL    HW219521   2.270   3.150   3.914  1.3795  1.4375 -0.4719
 2687SOL     OW19522   2.274   3.221   5.279  0.1098 -0.6347  0.0193
 2687SOL    HW119523   2.215   3.147   5.297 -1.0669  0.9619  2.5869
 2687SOL    HW219524   2.349   3.166   5.256  0.2570 -1.3371  2.1933
 2688SOL     OW19525   1.248   2.518   6.389 -0.3096  0.0449  0.2224
 2688SOL    HW119526   1.336   2.494   6.359 -0.0157  0.1748  0.9768
 2688SOL    HW219527   1.196   2.482   6.317 -0.8245 -1.3307  1.2882
 2689SOL     OW19528   3.719   2.004  12.078 -0.2152 -0.1442 -0.1509
 2689SOL    HW119529   3.775   1.927  12.067 -1.5739 -1.2683  0.9223
 2689SOL    HW219530   3.629   1.983  12.053 -0.0582  1.7146 -2.3638
 2690SOL     OW19531   1.091   1.800   7.748 -0.0058  0.2060  0.3197
 2690SOL    HW119532   1.009   1.754   7.732 -0.8189  1.8049 -0.0425
 2690SOL    HW219533   1.086   1.813   7.842 -3.1076  0.7333  0.0817
 2691SOL     OW19534   0.318   2.070   9.603 -0.4231 -0.0252 -0.1853
 2691SOL    HW119535   0.286   2.071   9.693  0.7258  1.7883  0.2044
 2691SOL    HW219536   0.412   2.078   9.622 -0.6750 -0.1499  1.1202
 2692SOL     OW19537   4.358   3.543   9.627 -1.0862  0.3250  0.0231
 2692SOL    HW119538   4.399   3.629   9.629 -1.5973  0.5462  1.3453
 2692SOL    HW219539   4.429   3.496   9.671 -1.4953 -0.0565  0.2872
 2693SOL     OW19540   2.500   1.716   3.812  0.0259 -0.3444 -0.2581
 2693SOL    HW119541   2.559   1.647   3.784 -3.1733 -3.0213 -0.4627
 2693SOL    HW219542   2.418   1.689   3.770  0.2038 -0.5527 -0.4740
 2694SOL     OW19543   0.641   0.206   7.911  0.2977 -0.2365 -0.2527
 2694SOL    HW119544   0.676   0.208   7.822 -0.1069 -2.9085 -0.4533
 2694SOL    HW219545   0.689   0.134   7.950  0.3831  0.7458  1.4435
 2695SOL     OW19546   0.938   3.234   7.079 -0.1805 -0.2547 -0.5351
 2695SOL    HW119547   0.844   3.253   7.083  0.1078  1.3097 -1.2960
 2695SOL    HW219548   0.969   3.313   7.035  0.6435  0.3421  1.1290
 2696SOL     OW19549   1.544   0.304   8.386 -0.2976 -0.4264  0.1511
 2696SOL    HW119550   1.596   0.374   8.347 -0.5894 -1.0010 -1.2593
 2696SOL    HW219551   1.523   0.256   8.306 -0.0024 -1.6772  0.8259
 2697SOL     OW19552   1.343   3.495  10.593 -0.1738  0.1696  1.0789
 2697SOL    HW119553   1.274   3.556  10.618 -0.2174  0.3734  0.4668
 2697SOL    HW219554   1.382   3.540  10.518 -2.7536  0.5142 -0.0630
 2698SOL     OW19555   1.579   3.851   2.338  0.1564  0.4896  0.4350
 2698SOL    HW119556   1.511   3.794   2.375  1.4296 -0.1188  1.8552
 2698SOL    HW219557   1.530   3.914   2.285  0.3480 -0.4546 -0.8600
 2699SOL     OW19558   0.108   0.549   2.189  0.2100 -0.2605  0.0581
 2699SOL    HW119559   0.092   0.565   2.096 -3.8250 -1.9789  0.4602
 2699SOL    HW219560   0.183   0.492   2.172  0.5559  0.3493 -0.4895
 2700SOL     OW19561   2.371   1.761  10.979  0.2948  1.1686  0.1899
 2700SOL    HW119562   2.399   1.684  11.028 -0.7455  0.6454 -0.0544
 2700SOL    HW219563   2.394   1.736  10.889  3.1342  2.2682  0.5877
 2701SOL     OW19564   3.239   1.402   9.629 -0.3475  0.1004  0.5636
 2701SOL    HW119565   3.249   1.378   9.537  2.4533 -0.3905  0.9896
 2701SOL    HW219566   3.171   1.341   9.658  0.8114 -1.3511  0.2757
 2702SOL     OW19567   0.958   3.225   7.962  0.4648 -0.3691  0.3951
 2702SOL    HW119568   1.020   3.201   8.030  0.2928  1.1860  1.1116
 2702SOL    HW219569   0.881   3.242   8.017  2.3039 -2.1593  3.5081
 2703SOL     OW19570   4.331   4.071  13.453  0.2768  0.7658 -0.4967
 2703SOL    HW119571   4.394   4.131  13.413 -0.1947 -0.7252 -3.4275
 2703SOL    HW219572   4.332   4.090  13.547  1.5644 -1.9414  0.0393
 2704SOL     OW19573   4.189   1.976   7.985 -0.5075 -0.0249 -0.2078
 2704SOL    HW119574   4.120   2.040   8.001 -0.0230  0.7908 -1.2974
 2704SOL    HW219575   4.173   1.964   7.891  0.4643  2.3154 -0.6743
 2705SOL     OW19576   3.022   0.484   4.078 -0.4436 -0.0623  0.5727
 2705SOL    HW119577   3.036   0.443   3.993 -0.7777 -0.3661  0.6670
 2705SOL    HW219578   3.042   0.578   4.071  2.2096 -0.5812  1.2935
 2706SOL     OW19579   1.416   4.039   2.209  0.3042 -0.6590 -0.2560
 2706SOL    HW119580   1.474   4.094   2.157  0.0288 -0.3544 -0.2422
 2706SOL    HW219581   1.384   4.104   2.271 -0.8424 -1.5929  0.1471
 2707SOL     OW19582   1.707   3.472   5.703 -0.1750 -0.3346  0.3797
 2707SOL    HW119583   1.617   3.440   5.708 -0.5699  0.7440  0.1446
 2707SOL    HW219584   1.750   3.387   5.700  2.9226  1.2248 -0.6510
 2708SOL     OW19585   0.309   2.485   2.919  0.1895 -0.2236 -0.6351
 2708SOL    HW119586   0.238   2.532   2.874  0.0789  0.9850  0.7901
 2708SOL    HW219587   0.336   2.416   2.859  1.2561  0.7181 -1.2532
 2709SOL     OW19588   1.145   0.889   2.999  0.1179 -0.3883 -0.3611
 2709SOL    HW119589   1.059   0.847   2.994 -1.0215  1.7340  1.1565
 2709SOL    HW219590   1.117   0.980   2.990 -1.1275 -0.5359  1.8910
 2710SOL     OW19591   1.632   4.713   8.764 -0.0288 -0.5957  0.3292
 2710SOL    HW119592   1.695   4.670   8.821  1.2720 -0.2417 -0.8594
 2710SOL    HW219593   1.562   4.647   8.761 -0.0346 -0.6508  1.5416
 2711SOL     OW19594   2.587   4.663   5.395  0.1710  0.0540  0.0768
 2711SOL    HW119595   2.572   0.009   5.330 -0.3795 -0.3754 -0.2586
 2711SOL    HW219596   2.497   4.650   5.425  0.1706 -0.1337 -0.0078
 2712SOL     OW19597   2.193   2.788   4.553  0.0391 -0.0152 -0.0099
 2712SOL    HW119598   2.287   2.787   4.570 -0.0678 -0.3163  0.5802
 2712SOL    HW219599   2.176   2.879   4.529  0.5918  0.3218  0.8425
 2713SOL     OW19600   2.233   0.189  13.030 -0.2035  0.4784 -0.2775
 2713SOL    HW119601   2.308   0.162  12.977 -0.6345  0.0123 -0.6534
 2713SOL    HW219602   2.181   0.113  13.057  0.1288  0.1412 -0.5842
 2714SOL     OW19603   1.080   0.422  15.194 -0.1564 -0.0273  0.0085
 2714SOL    HW119604   1.132   0.472  15.131  1.0110 -3.3345 -1.6787
 2714SOL    HW219605   1.071   0.482  15.268 -0.0057  1.4082 -1.1418
 2715SOL     OW19606   2.823   0.505   8.712 -0.7675 -0.3213  0.0603
 2715SOL    HW119607   2.805   0.589   8.670 -1.6938 -0.0286  1.0571
 2715SOL    HW219608   2.911   0.484   8.681 -1.7129 -3.4721 -0.4505
 2716SOL     OW19609   1.624   0.021   6.569 -0.1388 -0.0196  0.6002
 2716SOL    HW119610   1.701   0.048   6.519 -0.5542 -0.3316 -0.1955
 2716SOL    HW219611   1.571   4.701   6.502 -0.8897 -0.7716  1.6766
 2717SOL     OW19612   2.854   1.560   4.642 -0.1566 -0.2050 -0.2052
 2717SOL    HW119613   2.768   1.518   4.638 -0.1478 -0.3631  1.2072
 2717SOL    HW219614   2.914   1.487   4.625 -0.5732 -0.0956 -2.2079
 2718SOL     OW19615   1.599   3.449   7.516  0.2755 -0.1292 -0.2091
 2718SOL    HW119616   1.673   3.508   7.531  0.0490  0.2403 -0.5394
 2718SOL    HW219617   1.632   3.378   7.570 -0.5297  1.2211  2.0256
 2719SOL     OW19618   0.889   2.091   6.405 -0.1562 -0.1116  0.7498
 2719SOL    HW119619   0.834   2.029   6.454  2.3294 -3.1711 -0.3177
 2719SOL    HW219620   0.968   2.036   6.401  0.4360  0.8016 -0.0146
 2720SOL     OW19621   0.090   2.580   7.872  0.3694  0.4924  0.1291
 2720SOL    HW119622   0.088   2.661   7.924  0.1358 -1.5650  3.2996
 2720SOL    HW219623   0.140   2.528   7.935 -0.4201 -0.7857 -0.3094
 2721SOL     OW19624   4.003   4.142   2.516  0.0211 -0.1277  0.2602
 2721SOL    HW119625   3.997   4.195   2.437 -0.3962 -1.1842 -0.4130
 2721SOL    HW219626   4.047   4.061   2.490  0.2182  0.3635 -0.9548
 2722SOL     OW19627   0.011   4.379   4.712 -0.6491 -0.1130  0.5551
 2722SOL    HW119628   0.054   4.356   4.794 -0.0234  0.6913  0.4532
 2722SOL    HW219629   0.009   4.473   4.732 -1.7497  0.4455 -2.2131
 2723SOL     OW19630   0.372   2.492  11.242 -0.0511  0.1944  0.1895
 2723SOL    HW119631   0.279   2.472  11.234 -0.2063  1.0249 -0.0689
 2723SOL    HW219632   0.406   2.403  11.250  1.2927  0.6650 -0.2171
 2724SOL     OW19633   0.530   0.097   9.069  0.6845  0.7444 -0.0084
 2724SOL    HW119634   0.578   0.043   9.006 -0.8260  0.5111 -0.9616
 2724SOL    HW219635   0.447   0.051   9.053  1.3304 -0.1134 -0.8428
 2725SOL     OW19636   3.806   1.425   0.811 -0.0944  0.6915 -0.3095
 2725SOL    HW119637   3.756   1.346   0.830  0.7888  0.1893 -0.0573
 2725SOL    HW219638   3.753   1.473   0.748 -1.9719  0.1607  0.8685
 2726SOL     OW19639   0.750   4.213   8.457  0.0162  0.7463 -0.3865
 2726SOL    HW119640   0.818   4.175   8.513 -0.3733  0.5064 -0.0769
 2726SOL    HW219641   0.790   4.206   8.370 -1.0653  0.8160 -0.8922
 2727SOL     OW19642   2.513   0.890   3.867 -0.2895 -0.6672  0.2899
 2727SOL    HW119643   2.461   0.950   3.921 -0.1339 -0.5074  0.2633
 2727SOL    HW219644   2.526   0.940   3.786 -0.2701 -2.9103 -1.0945
 2728SOL     OW19645   0.482   3.373   1.731  0.5529 -0.4746 -0.8231
 2728SOL    HW119646   0.531   3.379   1.813  1.7648  0.6766 -1.6517
 2728SOL    HW219647   0.490   3.465   1.707 -1.7129 -0.3447 -1.1172
 2729SOL     OW19648   4.133   3.112   6.672  0.0224 -0.3453 -0.2260
 2729SOL    HW119649   4.161   3.061   6.596 -0.7460  0.1312 -0.8328
 2729SOL    HW219650   4.178   3.058   6.737  0.5718  1.7032  1.0970
 2730SOL     OW19651   2.560   0.914   4.793  0.3195 -0.6024 -0.1614
 2730SOL    HW119652   2.609   0.889   4.714 -0.4272  0.7017 -1.0290
 2730SOL    HW219653   2.515   0.831   4.806 -0.9685  0.3026  1.1290
 2731SOL     OW19654   3.119   2.654   5.120 -0.4374  0.4373 -0.2287
 2731SOL    HW119655   3.045   2.603   5.088  0.2955  0.1701 -1.4981
 2731SOL    HW219656   3.067   2.727   5.154 -2.4750 -0.8258 -0.6236
 2732SOL     OW19657   3.766   4.629   8.169  0.1891  0.0904 -0.0423
 2732SOL    HW119658   3.777   4.672   8.254 -2.2873  0.3867  0.1164
 2732SOL    HW219659   3.858   4.603   8.159 -0.3930 -1.2753 -1.8259
 2733SOL     OW19660   4.702   2.304   0.373 -0.1270  0.4855 -0.2039
 2733SOL    HW119661   4.671   2.371   0.434  0.2227 -0.3575  0.9016
 2733SOL    HW219662   0.054   2.270   0.420 -0.7093 -1.6544 -0.7862
 2734SOL     OW19663   0.053   2.664  11.121 -0.7040  0.4396  0.2110
 2734SOL    HW119664   0.052   2.584  11.174  2.0044  1.2714  1.4874
 2734SOL    HW219665   0.114   2.721  11.167 -2.3745  2.7406 -0.4327
 2735SOL     OW19666   1.168   0.700  11.554  0.0993 -0.3300  0.0894
 2735SOL    HW119667   1.140   0.619  11.511 -0.4327  1.3304 -2.7321
 2735SOL    HW219668   1.154   0.766  11.486  2.6511  1.0758  0.9220
 2736SOL     OW19669   4.064   2.404   3.158  0.1850  0.1278 -0.1921
 2736SOL    HW119670   4.038   2.471   3.096  1.8386  0.7770 -0.1880
 2736SOL    HW219671   3.980   2.384   3.199  0.7204  0.5762  1.1476
 2737SOL     OW19672   4.189   2.168  13.488  0.0301 -0.1570  0.1276
 2737SOL    HW119673   4.114   2.213  13.527 -0.5024 -0.9719  0.0395
 2737SOL    HW219674   4.251   2.241  13.488 -0.1322 -0.0193  0.1220
 2738SOL     OW19675   0.873   0.659  12.166  0.5411 -0.1134 -0.5002
 2738SOL    HW119676   0.817   0.737  12.170  1.7067  0.7582 -1.0756
 2738SOL    HW219677   0.829   0.598  12.225 -0.2603  0.5796 -0.3804
 2739SOL     OW19678   4.484   0.848  17.091 -0.0052 -0.7775 -0.1985
 2739SOL    HW119679   4.558   0.790  17.108 -0.1761 -1.4973 -1.8891
 2739SOL    HW219680   4.408   0.794  17.113 -0.8534  0.3665 -0.3503
 2740SOL     OW19681   3.751   0.885   2.161 -0.0834 -0.3443  0.0659
 2740SOL    HW119682   3.767   0.792   2.144 -0.5349 -0.6160  1.1362
 2740SOL    HW219683   3.664   0.881   2.201 -1.3313  1.0404 -2.4643
 2741SOL     OW19684   1.738   0.309  14.446  0.0458  0.5178  0.0895
 2741SOL    HW119685   1.753   0.331  14.355 -0.0720  1.5317  0.3203
 2741SOL    HW219686   1.746   0.395  14.486  1.0557  0.9023 -0.9393
 2742SOL     OW19687   3.973   3.986  16.135 -0.5290 -0.0139  0.4453
 2742SOL    HW119688   3.998   3.905  16.180  0.5039 -0.6282 -1.2183
 2742SOL    HW219689   4.004   4.053  16.195 -0.9302  0.0392  0.5925
 2743SOL     OW19690   0.107   4.102   6.319  0.3093  0.0794 -0.0247
 2743SOL    HW119691   0.154   4.060   6.392  0.0199  0.4381  0.3708
 2743SOL    HW219692   0.017   4.119   6.345  0.4331 -0.4513  0.7741
 2744SOL     OW19693   4.106   4.351   6.440  0.2933  0.0330  0.2217
 2744SOL    HW119694   4.101   4.346   6.345 -1.6336  2.2739  0.2109
 2744SOL    HW219695   4.128   4.263   6.470  2.1355 -0.0942 -1.5463
 2745SOL     OW19696   1.969   0.060   7.561  0.4845 -0.2073 -0.3797
 2745SOL    HW119697   1.888   0.106   7.584 -0.1938 -0.4785 -2.2638
 2745SOL    HW219698   2.021   0.087   7.637 -1.3353 -1.3016  1.2670
 2746SOL     OW19699   2.300   2.049   4.925  0.5883  0.0080 -0.0632
 2746SOL    HW119700   2.395   2.042   4.919  0.5689 -0.4189  0.1730
 2746SOL    HW219701   2.280   2.079   4.836 -0.7768  0.0191  0.2475
 2747SOL     OW19702   3.892   3.871   5.394 -0.5220  0.1297  0.0647
 2747SOL    HW119703   3.821   3.901   5.337  1.0994  1.7425 -1.1147
 2747SOL    HW219704   3.846   3.880   5.477  1.5395 -1.9762  1.4157
 2748SOL     OW19705   0.055   0.529   4.885  0.7242 -0.2220  0.0993
 2748SOL    HW119706   0.018   0.513   4.799  0.2244 -0.2918  0.3265
 2748SOL    HW219707   0.041   0.439   4.917 -1.1237 -0.6324 -1.9122
 2749SOL     OW19708   4.631   3.843   5.144  0.5755  0.1549 -0.2797
 2749SOL    HW119709   4.609   3.935   5.152 -1.9756 -0.5126  0.4727
 2749SOL    HW219710   4.714   3.828   5.188 -0.0770 -0.0673  0.8617
 2750SOL     OW19711   3.021   3.947   0.622  0.0801  0.0835  0.4815
 2750SOL    HW119712   3.099   3.980   0.667  1.8105 -1.7273 -1.1909
 2750SOL    HW219713   3.058   3.891   0.554  0.2213 -2.3534  2.5592
 2751SOL     OW19714   1.707   3.562   2.814  0.0951  0.4327  0.2829
 2751SOL    HW119715   1.794   3.537   2.781 -0.1707  2.2407 -1.7574
 2751SOL    HW219716   1.716   3.542   2.907  0.9149 -2.6931 -0.4438
 2752SOL     OW19717   4.512   0.824   9.930  0.3710 -0.1896 -0.4303
 2752SOL    HW119718   4.427   0.847   9.968  0.6587  0.4679 -0.1774
 2752SOL    HW219719   4.567   0.902   9.939 -0.9987  0.9986 -2.0971
 2753SOL     OW19720   2.606   1.835   7.149  0.4802 -0.1148  0.0802
 2753SOL    HW119721   2.654   1.863   7.071  1.6782  0.3389  0.9740
 2753SOL    HW219722   2.547   1.768   7.114 -0.0727  0.0187  0.7544
 2754SOL     OW19723   4.375   4.342   6.202 -0.4391 -0.2310 -0.0716
 2754SOL    HW119724   4.467   4.352   6.178 -1.0551  0.3258 -2.1929
 2754SOL    HW219725   4.367   4.252   6.170 -1.8341 -0.4741  0.9243
 2755SOL     OW19726   3.531   2.622   7.407 -0.0996 -0.8039 -0.1387
 2755SOL    HW119727   3.478   2.652   7.480 -1.5972 -2.3507 -0.5847
 2755SOL    HW219728   3.617   2.618   7.448 -0.4093  0.1970  0.6088
 2756SOL     OW19729   4.449   2.386   7.517 -0.1772  0.4798  0.3352
 2756SOL    HW119730   4.391   2.322   7.558  0.4656 -0.9703 -1.0675
 2756SOL    HW219731   4.494   2.422   7.594 -0.5390  2.0893 -0.1994
 2757SOL     OW19732   0.552   0.744   2.666 -0.3461 -0.4474 -0.3895
 2757SOL    HW119733   0.572   0.773   2.577  0.0782 -0.5199 -0.3152
 2757SOL    HW219734   0.498   0.669   2.640  0.5834 -1.0169 -0.6385
 2758SOL     OW19735   4.423   3.979   6.439  0.4928 -0.2226 -0.0283
 2758SOL    HW119736   4.478   3.979   6.518 -1.3065  0.8578  1.2228
 2758SOL    HW219737   4.346   3.937   6.477  0.6313 -1.4433 -1.1085
 2759SOL     OW19738   0.023   4.219  10.413 -0.3598 -0.1205  0.2399
 2759SOL    HW119739   0.035   4.136  10.366  0.3870  0.7620 -1.0987
 2759SOL    HW219740   0.107   4.225  10.459 -0.1843 -1.1954  0.0809
 2760SOL     OW19741   2.585   3.781  11.109  0.0325 -0.0249  0.3582
 2760SOL    HW119742   2.578   3.859  11.054  2.0724 -0.1629 -0.1231
 2760SOL    HW219743   2.672   3.809  11.139  0.2360  0.3134 -0.5397
 2761SOL     OW19744   2.651   0.149  12.411 -0.1220  0.1275  0.1838
 2761SOL    HW119745   2.659   0.105  12.495  0.2465  0.3238  0.2535
 2761SOL    HW219746   2.694   0.230  12.436  0.1457 -0.2757  1.0176
 2762SOL     OW19747   0.844   0.465   1.145  0.3163  0.2604 -0.6977
 2762SOL    HW119748   0.855   0.547   1.097 -0.2218 -0.1016 -1.4339
 2762SOL    HW219749   0.936   0.442   1.158  0.0166 -1.4709 -1.5757
 2763SOL     OW19750   0.460   4.295   5.276  0.4804 -0.7038  0.5686
 2763SOL    HW119751   0.540   4.314   5.324  0.8194  0.1127 -0.3126
 2763SOL    HW219752   0.398   4.265   5.342  0.7366 -0.2569  1.0105
 2764SOL     OW19753   1.582   1.190   5.527  0.7533 -0.7947  0.7551
 2764SOL    HW119754   1.666   1.230   5.502 -0.4373  0.6605 -0.8749
 2764SOL    HW219755   1.600   1.167   5.619  3.0189 -2.7739 -0.1827
 2765SOL     OW19756   0.291   0.911   2.756  0.3561  0.2529  0.2514
 2765SOL    HW119757   0.378   0.900   2.794  0.4289  0.9375  0.2847
 2765SOL    HW219758   0.244   0.910   2.839 -1.7418 -2.3437 -0.9705
 2766SOL     OW19759   1.393   1.766   2.688  0.3200 -0.0490  0.7748
 2766SOL    HW119760   1.446   1.778   2.609 -0.2392 -1.2903  0.2206
 2766SOL    HW219761   1.376   1.859   2.702  1.0159  0.2744 -0.4862
 2767SOL     OW19762   0.749   1.424   8.379  0.0077 -0.1390  0.7643
 2767SOL    HW119763   0.729   1.374   8.300  0.8249 -2.3614  1.9766
 2767SOL    HW219764   0.668   1.473   8.394  1.0942  1.8269  0.2488
 2768SOL     OW19765   3.404   2.646   2.843  0.0457  0.2786 -0.3923
 2768SOL    HW119766   3.498   2.660   2.832 -0.2641  1.3781 -1.7676
 2768SOL    HW219767   3.376   2.667   2.754  0.2709  0.5989 -0.3880
 2769SOL     OW19768   3.831   4.545   5.097 -0.3912  0.2498  0.3289
 2769SOL    HW119769   3.782   4.607   5.042  0.1679  1.4269  1.1349
 2769SOL    HW219770   3.911   4.598   5.100  0.2903 -0.6771 -1.6500
 2770SOL     OW19771   2.279   3.486   7.200 -0.4462  0.1946  0.1994
 2770SOL    HW119772   2.192   3.464   7.235  0.3235 -1.0137  1.3497
 2770SOL    HW219773   2.333   3.412   7.226  2.3820  3.0277  2.3992
 2771SOL     OW19774   1.133   3.029   1.718 -0.0153  0.1491  0.2538
 2771SOL    HW119775   1.183   3.093   1.769  2.5744 -0.2391 -1.8158
 2771SOL    HW219776   1.046   3.069   1.731  1.4451  2.9711  1.4260
 2772SOL     OW19777   4.114   3.704  12.193  0.1843  0.3159  0.3346
 2772SOL    HW119778   4.140   3.784  12.147 -0.0197  0.5511  0.6277
 2772SOL    HW219779   4.019   3.717  12.192  0.2268  0.3590 -1.9935
 2773SOL     OW19780   1.456   0.593  11.453  0.0612  0.1125  0.0110
 2773SOL    HW119781   1.395   0.614  11.382 -0.4266 -1.4100 -0.0002
 2773SOL    HW219782   1.517   0.532  11.411  0.5535  0.3611  0.3561
 2774SOL     OW19783   0.850   1.882   5.266 -0.1729 -0.0274  0.3381
 2774SOL    HW119784   0.880   1.891   5.176  0.7802  0.3621  0.6910
 2774SOL    HW219785   0.766   1.927   5.261  0.1805  0.6189  0.1984
 2775SOL     OW19786   1.248   4.327   2.080  0.7185  0.0851 -0.5057
 2775SOL    HW119787   1.226   4.235   2.067  0.8087  0.3457 -2.4769
 2775SOL    HW219788   1.344   4.321   2.086  0.9379  0.8684 -3.2573
 2776SOL     OW19789   1.250   4.356   4.267 -0.3229  0.3357  0.2563
 2776SOL    HW119790   1.248   4.367   4.362  0.3166 -1.2053  0.4544
 2776SOL    HW219791   1.280   4.438   4.230 -1.9127  0.6735 -0.3047
 2777SOL     OW19792   4.074   2.837  13.205 -0.1376 -0.8615  0.2288
 2777SOL    HW119793   4.077   2.918  13.153 -0.3936 -1.3293 -0.5075
 2777SOL    HW219794   4.164   2.829  13.236  0.3868  1.3450 -0.6958
 2778SOL     OW19795   3.453   1.601   5.620 -0.4633  0.2034 -0.4692
 2778SOL    HW119796   3.542   1.637   5.617 -0.8371  1.2163  1.0886
 2778SOL    HW219797   3.441   1.575   5.528  1.4968  0.9092 -0.9299
 2779SOL     OW19798   2.713   1.214  16.705  0.1057  0.0434 -0.1624
 2779SOL    HW119799   2.779   1.174  16.648 -0.5259 -0.6756 -0.3940
 2779SOL    HW219800   2.647   1.150  16.733 -0.4401  0.7059  0.0440
 2780SOL     OW19801   0.410   0.288   2.892  0.0202  0.0620  0.3273
 2780SOL    HW119802   0.378   0.376   2.912  4.2015  2.0649 -1.6707
 2780SOL    HW219803   0.381   0.275   2.802  0.2517  3.4615 -0.2503
 2781SOL     OW19804   2.193   1.116   7.724 -1.1462  0.4107 -0.0237
 2781SOL    HW119805   2.155   1.188   7.673 -0.8376  1.6982  1.5646
 2781SOL    HW219806   2.250   1.075   7.660 -0.8242  0.3089  0.3256
 2782SOL     OW19807   0.797   0.260   6.808  0.0661  0.5972  0.0497
 2782SOL    HW119808   0.804   0.190   6.873  1.5717 -0.0630 -0.8194
 2782SOL    HW219809   0.708   0.242   6.777 -0.0891 -0.3214  1.0286
 2783SOL     OW19810   2.787   0.555   8.998  0.9762 -0.3580 -0.2686
 2783SOL    HW119811   2.787   0.539   8.904  0.5509 -1.9219  0.0026
 2783SOL    HW219812   2.822   0.474   9.035 -0.0697 -0.8175 -0.2789
 2784SOL     OW19813   3.399   0.882   4.682 -0.2492 -0.4414  0.1680
 2784SOL    HW119814   3.452   0.912   4.609  0.7228  0.2787  1.1792
 2784SOL    HW219815   3.417   0.788   4.680 -0.6681 -0.5663  2.3615
 2785SOL     OW19816   4.031   2.416   4.227 -0.4459 -0.0560  0.3518
 2785SOL    HW119817   4.046   2.331   4.268 -0.1194  0.0822  0.5232
 2785SOL    HW219818   4.036   2.404   4.133  1.5923  0.1211  0.4369
 2786SOL     OW19819   1.576   2.567   0.251 -0.1100 -0.1026  0.9528
 2786SOL    HW119820   1.504   2.614   0.210  0.4904 -2.2817 -2.6341
 2786SOL    HW219821   1.539   2.479   0.258  2.9866 -1.4626  0.3713
 2787SOL     OW19822   0.725   1.842   6.450  0.5359 -0.3883  0.7201
 2787SOL    HW119823   0.698   1.756   6.482  1.5362 -1.0909 -0.3075
 2787SOL    HW219824   0.750   1.815   6.361 -1.4215 -1.2560  0.4257
 2788SOL     OW19825   2.579   0.849   6.695 -0.1041  0.5942 -0.5733
 2788SOL    HW119826   2.520   0.883   6.763 -1.4669  1.7653 -2.3176
 2788SOL    HW219827   2.551   0.759   6.680  2.9179 -0.8557  2.7027
 2789SOL     OW19828   2.635   0.194  11.626  0.0985  0.1881 -0.3299
 2789SOL    HW119829   2.548   0.223  11.601 -0.1013 -0.5413 -0.4829
 2789SOL    HW219830   2.693   0.268  11.612 -0.8581  1.0361  0.1966
 2790SOL     OW19831   2.031   2.332   8.218  0.3345  0.1005  0.5096
 2790SOL    HW119832   1.952   2.306   8.171 -0.4196  2.1892  0.6351
 2790SOL    HW219833   2.006   2.411   8.265  3.3034  0.6905  1.1249
 2791SOL     OW19834   4.507   2.814   2.387 -0.6583  0.0434  0.3121
 2791SOL    HW119835   4.515   2.732   2.435 -0.6318  1.0175  1.9730
 2791SOL    HW219836   4.421   2.799   2.348 -0.1474  1.7069 -1.4755
 2792SOL     OW19837   4.097   0.242   2.186 -0.4097 -0.1755  0.2722
 2792SOL    HW119838   4.022   0.301   2.192  0.1894  0.7111 -0.8741
 2792SOL    HW219839   4.035   0.169   2.188 -0.8551  0.1435 -1.9899
 2793SOL     OW19840   2.307   1.273  10.141 -0.2154 -0.0057 -0.1309
 2793SOL    HW119841   2.266   1.212  10.079 -2.3573  3.0348 -1.6517
 2793SOL    HW219842   2.364   1.213  10.190 -0.2040  0.2627  0.1821
 2794SOL     OW19843   4.025   3.680   6.491  0.4196 -0.0362  0.3167
 2794SOL    HW119844   3.981   3.754   6.448 -0.5987 -1.0267 -0.3565
 2794SOL    HW219845   4.002   3.597   6.449  2.4806 -0.1298 -0.6082
 2795SOL     OW19846   4.615   3.256   3.218  0.7416 -0.1439  0.1278
 2795SOL    HW119847   4.605   3.228   3.127  0.6382 -1.1386  0.4433
 2795SOL    HW219848   4.693   3.208   3.246  1.2689  2.0709  2.4389
 2796SOL     OW19849   3.861   2.449   7.556  0.5977 -0.2936  0.5459
 2796SOL    HW119850   3.844   2.395   7.633 -0.9356  0.3001  0.6179
 2796SOL    HW219851   3.955   2.470   7.560 -0.2119  3.0464  1.1980
 2797SOL     OW19852   0.401   3.877   3.021  0.1189  0.1964 -0.6626
 2797SOL    HW119853   0.346   3.832   3.086  0.0832 -0.2250 -0.9866
 2797SOL    HW219854   0.369   3.967   3.023  0.0871  0.2020 -1.7815
 2798SOL     OW19855   1.858   0.692   2.147  0.2838 -0.7829  0.4914
 2798SOL    HW119856   1.839   0.615   2.092 -0.8265 -0.7964  0.8968
 2798SOL    HW219857   1.770   0.719   2.173  0.9325  1.3818  0.4384
 2799SOL     OW19858   2.043   0.433  11.004  0.5856  0.4039 -0.0953
 2799SOL    HW119859   2.049   0.438  10.909  0.2422 -2.0376 -0.2590
 2799SOL    HW219860   2.006   0.345  11.009  1.0732  0.3110  2.1098
 2800SOL     OW19861   0.693   4.024   7.234 -0.4096  0.0481  0.2725
 2800SOL    HW119862   0.774   4.050   7.190 -1.5188  1.5632 -0.8318
 2800SOL    HW219863   0.631   4.094   7.217  0.3069 -0.0658 -2.8374
 2801SOL     OW19864   1.911   0.814   2.437  0.1582  0.1034 -0.5762
 2801SOL    HW119865   1.893   0.746   2.502 -0.1806 -0.6584 -1.4746
 2801SOL    HW219866   1.856   0.794   2.362  0.7716 -3.2291 -0.1423
 2802SOL     OW19867   4.450   2.089   5.238 -0.4974 -0.4299  0.1426
 2802SOL    HW119868   4.385   2.154   5.209 -0.6812 -0.7910 -0.2527
 2802SOL    HW219869   4.420   2.078   5.328  0.2372 -1.7056  0.2222
 2803SOL     OW19870   3.683   3.720   5.761 -0.5798 -0.0414 -0.0448
 2803SOL    HW119871   3.598   3.734   5.718 -0.1813  0.1110 -0.7781
 2803SOL    HW219872   3.734   3.793   5.726 -1.6237  0.1749 -1.1493
 2804SOL     OW19873   2.568   1.492   5.536 -0.4070  0.1819 -0.3899
 2804SOL    HW119874   2.655   1.461   5.511 -0.2851  1.5797 -1.7596
 2804SOL    HW219875   2.513   1.416   5.556 -0.6442  0.3080 -0.5549
 2805SOL     OW19876   2.094   4.045   3.310 -0.1515  0.8827 -0.3721
 2805SOL    HW119877   2.092   4.013   3.220 -2.5978 -4.1109  1.4599
 2805SOL    HW219878   2.171   4.001   3.348 -1.4505 -2.3039 -1.4698
 2806SOL     OW19879   1.357   3.682   0.747 -0.1395  0.0878 -0.7711
 2806SOL    HW119880   1.347   3.674   0.653 -1.0293  0.5647 -0.7188
 2806SOL    HW219881   1.297   3.755   0.763  0.6626  0.2571  1.5852
 2807SOL     OW19882   1.680   4.398   3.119  0.3405 -0.1890 -0.5456
 2807SOL    HW119883   1.766   4.368   3.148  0.9189  0.4957 -1.5759
 2807SOL    HW219884   1.625   4.352   3.183 -0.3246 -0.6339 -1.4287
 2808SOL     OW19885   4.136   1.632  14.600  0.2728  0.2951  0.0692
 2808SOL    HW119886   4.129   1.692  14.674 -0.0342  1.5306 -0.9680
 2808SOL    HW219887   4.061   1.574  14.612 -0.3249  0.9490 -0.4996
 2809SOL     OW19888   3.251   3.022  14.655 -0.3902  0.0185  0.7696
 2809SOL    HW119889   3.174   3.032  14.599 -0.1525  0.6290  0.5583
 2809SOL    HW219890   3.312   2.972  14.600 -0.8969  0.6455 -0.3694
 2810SOL     OW19891   3.829   4.317   3.962  0.0826  0.7924  0.2688
 2810SOL    HW119892   3.817   4.282   3.874  0.7400  0.8925  0.1410
 2810SOL    HW219893   3.825   4.412   3.954 -2.4655  0.7542  0.9361
 2811SOL     OW19894   0.539   0.026   5.484  0.7932 -0.5623 -0.1639
 2811SOL    HW119895   0.610   0.078   5.447  0.0615  1.1434  0.8468
 2811SOL    HW219896   0.483   0.008   5.409  0.2598 -1.3177  0.4070
 2812SOL     OW19897   2.927   0.118   5.511  0.1896 -0.3323 -0.6263
 2812SOL    HW119898   2.907   0.196   5.562 -0.3759 -0.2392 -0.9873
 2812SOL    HW219899   3.000   0.148   5.457 -0.2812  1.7089 -0.1030
 2813SOL     OW19900   2.913   1.694   4.361 -0.0453  0.0284  0.2564
 2813SOL    HW119901   2.837   1.748   4.384 -0.9109 -1.2256  0.3293
 2813SOL    HW219902   2.922   1.650   4.446  1.3962  1.3662  0.8067
 2814SOL     OW19903   4.454   1.122  17.458  0.0129 -0.1047  0.0054
 2814SOL    HW119904   4.492   1.116  17.370 -1.7935 -0.8264 -0.7111
 2814SOL    HW219905   4.508   1.063  17.510 -0.0980  0.1752  0.4357
 2815SOL     OW19906   3.739   1.087   9.099  0.0983 -0.1335 -0.1392
 2815SOL    HW119907   3.801   1.125   9.038 -0.1779  1.7286  0.7247
 2815SOL    HW219908   3.670   1.152   9.113 -0.9291 -1.2504 -0.0448
 2816SOL     OW19909   1.886   4.114   2.583  0.6379 -0.0039 -0.2186
 2816SOL    HW119910   1.933   4.100   2.501 -1.2281 -3.3588 -0.7275
 2816SOL    HW219911   1.863   4.025   2.610  0.9497 -0.4363 -1.4108
 2817SOL     OW19912   2.901   2.818  14.308  0.3584 -1.0740  0.2550
 2817SOL    HW119913   2.834   2.807  14.375  1.2193  0.3137  1.3445
 2817SOL    HW219914   2.876   2.763  14.234 -0.0765 -0.4291 -0.0727
 2818SOL     OW19915   4.142   1.105  15.256 -0.6102  0.2766 -0.3307
 2818SOL    HW119916   4.224   1.100  15.208 -0.7285  0.0140 -0.5100
 2818SOL    HW219917   4.125   1.012  15.274 -2.0202  0.3549 -1.2617
 2819SOL     OW19918   1.071   3.451  14.930 -0.3130  0.1646  0.6828
 2819SOL    HW119919   1.021   3.441  15.011 -2.0828 -0.9769 -0.5606
 2819SOL    HW219920   1.121   3.370  14.929  1.9550  1.5658  0.7483
 2820SOL     OW19921   1.798   3.339   4.208  0.6618  0.3267 -0.1984
 2820SOL    HW119922   1.852   3.408   4.244 -0.2137  1.1782 -0.5126
 2820SOL    HW219923   1.859   3.293   4.150  0.6798 -0.7438  0.6677
 2821SOL     OW19924   4.319   3.966   4.879  0.0950  0.2484 -0.4624
 2821SOL    HW119925   4.283   3.878   4.886  1.1041  0.0208  1.9703
 2821SOL    HW219926   4.342   3.960   4.786  0.7062  0.1955 -0.3093
 2822SOL     OW19927   3.806   4.147   3.758  0.1316 -0.3397  0.5472
 2822SOL    HW119928   3.889   4.100   3.772  0.7266 -0.1802 -2.3106
 2822SOL    HW219929   3.748   4.075   3.781  0.7257 -0.5656  1.3088
 2823SOL     OW19930   3.336   2.434   5.084  0.7289 -0.4054 -0.2605
 2823SOL    HW119931   3.296   2.504   5.136 -0.5645 -0.8986 -0.5966
 2823SOL    HW219932   3.426   2.446   5.115  1.0863  1.6904 -2.1402
 2824SOL     OW19933   3.658   0.115   0.171  0.0182  0.2753  0.8302
 2824SOL    HW119934   3.657   0.149   0.261 -0.0438  1.8846  0.2153
 2824SOL    HW219935   3.648   0.022   0.190  2.7840 -0.0281  0.7909
 2825SOL     OW19936   0.280   3.136   7.600  0.6555  0.0467 -0.3397
 2825SOL    HW119937   0.370   3.129   7.632  0.1736  1.8994  1.3885
 2825SOL    HW219938   0.247   3.047   7.613  1.3269 -0.0496  0.7132
 2826SOL     OW19939   4.380   4.602   5.511  0.3180  0.4253  0.1364
 2826SOL    HW119940   4.317   4.548   5.559 -0.0563  1.2628  0.5805
 2826SOL    HW219941   4.458   4.546   5.519  0.9545  1.5703  1.8924
 2827SOL     OW19942   4.192   1.260   1.764  0.0877  0.2348 -0.5498
 2827SOL    HW119943   4.111   1.284   1.809  0.3525 -0.3736  0.2594
 2827SOL    HW219944   4.259   1.271   1.832 -0.1717  0.5194 -0.3370
 2828SOL     OW19945   1.031   0.317   3.056 -0.0443 -0.1113 -0.4655
 2828SOL    HW119946   1.046   0.232   3.016 -0.6763 -0.1355 -0.6507
 2828SOL    HW219947   1.119   0.349   3.078 -0.2133 -1.1380  1.7283
 2829SOL     OW19948   1.581   1.199   3.840  0.1738 -0.0282  0.2387
 2829SOL    HW119949   1.532   1.137   3.893  0.3068 -0.6113 -0.3246
 2829SOL    HW219950   1.530   1.280   3.841  1.4007  0.7973 -2.1370
 2830SOL     OW19951   4.407   2.473   4.932  0.3860 -0.4835  0.5765
 2830SOL    HW119952   4.440   2.518   4.854  1.5274  0.5817  1.6731
 2830SOL    HW219953   4.354   2.545   4.967  0.2201 -1.4707  2.3515
 2831SOL     OW19954   2.136   0.295  17.163  0.1653  0.4006  0.1465
 2831SOL    HW119955   2.218   0.250  17.184  0.8796  0.8461 -1.6175
 2831SOL    HW219956   2.101   0.246  17.088  0.7411 -2.1802  1.5424
 2832SOL     OW19957   0.153   1.024  11.648 -0.4236 -0.5093 -0.0478
 2832SOL    HW119958   0.072   0.973  11.652  1.0591 -2.9253 -0.4462
 2832SOL    HW219959   0.212   0.972  11.702  0.1816 -0.9598 -1.1357
 2833SOL     OW19960   2.349   4.157   4.525  0.3595 -0.0129  0.0395
 2833SOL    HW119961   2.402   4.163   4.445  0.0298 -0.0024 -0.1761
 2833SOL    HW219962   2.292   4.081   4.511 -0.2332  0.5221 -0.4479
 2834SOL     OW19963   4.580   0.331   8.445  0.2984 -0.6576  0.0396
 2834SOL    HW119964   4.603   0.401   8.506 -0.8889 -0.4021  0.1978
 2834SOL    HW219965   4.598   0.261   8.507  0.2280  1.0105  1.9341
 2835SOL     OW19966   2.823   3.343   9.639  0.6564  0.2546 -0.1246
 2835SOL    HW119967   2.791   3.406   9.574  0.3278  0.4375  0.2149
 2835SOL    HW219968   2.900   3.301   9.601 -0.8243 -2.1996 -0.3656
 2836SOL     OW19969   0.699   0.260   3.802 -0.2673 -0.1693 -0.0316
 2836SOL    HW119970   0.635   0.329   3.783  1.4201  1.6626  0.9306
 2836SOL    HW219971   0.638   0.193   3.833 -0.0630 -0.6223 -0.5999
 2837SOL     OW19972   4.405   3.444   2.149 -0.3517 -0.2947 -0.2932
 2837SOL    HW119973   4.448   3.359   2.144  1.3349  0.4181  1.8667
 2837SOL    HW219974   4.370   3.449   2.060 -0.2998 -0.0423 -0.2996
 2838SOL     OW19975   0.936   3.783   7.467 -0.0131 -0.1102 -0.0731
 2838SOL    HW119976   0.936   3.693   7.499  0.4280  0.1153  0.5651
 2838SOL    HW219977   0.845   3.810   7.481  0.0560 -2.2845  4.2458
 2839SOL     OW19978   1.109   2.202  15.371 -0.0839 -0.9034  0.2726
 2839SOL    HW119979   1.072   2.182  15.285  1.0281 -1.9113  0.0373
 2839SOL    HW219980   1.043   2.260  15.409  0.0021 -0.9489  0.4875
 2840SOL     OW19981   4.434   1.047  16.922  0.4804 -0.1085  0.2005
 2840SOL    HW119982   4.470   1.007  17.001  0.9369  2.5050  1.3178
 2840SOL    HW219983   4.446   1.136  16.956 -0.3674  0.7173 -1.7048
 2841SOL     OW19984   0.232   2.724  15.461  0.1148  0.1436 -0.7496
 2841SOL    HW119985   0.281   2.697  15.538 -0.2107  1.2405 -0.1542
 2841SOL    HW219986   0.145   2.709  15.498  0.3233 -0.5407 -0.5346
 2842SOL     OW19987   2.422   4.522   6.196 -0.0172  0.5672  0.4406
 2842SOL    HW119988   2.331   4.546   6.177  1.0471  2.1288 -2.7656
 2842SOL    HW219989   2.418   4.432   6.165  1.0866  1.1806 -1.4445
 2843SOL     OW19990   4.108   1.738   7.263  0.4279 -0.2838  0.3205
 2843SOL    HW119991   4.133   1.825   7.293  2.1238 -0.2064 -1.3052
 2843SOL    HW219992   4.195   1.711   7.232  0.5199  0.3002  0.0772
 2844SOL     OW19993   0.339   3.399   2.749  0.0253 -0.3331 -0.7687
 2844SOL    HW119994   0.251   3.417   2.782 -0.0674 -0.0551 -1.1723
 2844SOL    HW219995   0.382   3.484   2.765  1.4560 -0.9654 -1.2576
 2845SOL     OW19996   2.473   3.871   5.054 -0.1227 -0.0777  0.2281
 2845SOL    HW119997   2.409   3.925   5.100 -1.4978 -1.0424 -0.5454
 2845SOL    HW219998   2.559   3.904   5.081 -0.3416 -1.1707  2.2690
 2846SOL     OW19999   3.537   1.474   3.760  0.4759 -0.0108 -0.3014
 2846SOL    HW120000   3.472   1.471   3.690  1.1046  0.5601 -0.9066
 2846SOL    HW220001   3.552   1.564   3.788  1.9499  0.2793 -1.9875
 2847SOL     OW20002   0.996   2.037  16.754  0.4085  0.3143  0.3176
 2847SOL    HW120003   1.065   2.055  16.817  1.3300  1.9490 -1.1671
 2847SOL    HW220004   1.050   1.999  16.685 -0.1466  1.1759 -0.6017
 2848SOL     OW20005   0.499   3.680   7.871 -0.2832  0.0294 -0.0891
 2848SOL    HW120006   0.480   3.702   7.962 -0.1491  1.4314 -0.4071
 2848SOL    HW220007   0.409   3.658   7.848 -0.5588 -0.2488  1.2205
 2849SOL     OW20008   1.390   0.235   6.829 -0.2951 -0.0010 -0.0091
 2849SOL    HW120009   1.429   0.292   6.763 -0.4351  0.9997  0.7668
 2849SOL    HW220010   1.468   0.188   6.858 -0.4320 -0.1026  0.1941
 2850SOL     OW20011   2.670   2.145  12.742 -0.2779  0.0124 -0.0396
 2850SOL    HW120012   2.657   2.054  12.771 -2.6998 -1.2267 -5.0665
 2850SOL    HW220013   2.660   2.142  12.647 -2.5440 -1.2478  0.2426
 2851SOL     OW20014   4.605   3.912  16.502  0.0987  0.2306 -0.1055
 2851SOL    HW120015   4.605   3.875  16.414  0.1440  0.6588 -0.2900
 2851SOL    HW220016   4.520   3.882  16.533 -0.1614  0.9020 -0.1700
 2852SOL     OW20017   1.722   2.738   3.689  0.3079 -0.0714  0.6298
 2852SOL    HW120018   1.743   2.666   3.630  1.1786 -0.9870  2.0433
 2852SOL    HW220019   1.669   2.791   3.630  0.4914 -1.3021 -0.6188
 2853SOL     OW20020   2.629   0.362  17.091 -0.2705 -0.4298 -0.3190
 2853SOL    HW120021   2.634   0.391  17.000 -0.4730 -0.9539 -0.4971
 2853SOL    HW220022   2.714   0.317  17.093 -0.1042 -0.1308 -0.7652
 2854SOL     OW20023   2.782   1.738   1.252 -0.2973  0.5322 -0.8121
 2854SOL    HW120024   2.774   1.680   1.176  0.5282  1.8951 -1.9306
 2854SOL    HW220025   2.717   1.804   1.229  1.2000  1.7061 -1.6429
 2855SOL     OW20026   1.134   0.330   3.354  0.1153  0.3168 -0.1703
 2855SOL    HW120027   1.186   0.377   3.289 -1.4672  2.1663 -0.1313
 2855SOL    HW220028   1.200   0.278   3.399  2.5064  2.1955 -1.5271
 2856SOL     OW20029   1.778   1.539  10.769 -0.0177  0.1030  0.0369
 2856SOL    HW120030   1.773   1.456  10.721 -0.0842 -0.8055  1.6030
 2856SOL    HW220031   1.701   1.588  10.742  1.9133  2.9788 -0.2679
 2857SOL     OW20032   0.305   2.096   7.029 -0.2322 -0.1309 -0.3553
 2857SOL    HW120033   0.352   2.134   6.955 -1.7074  1.1848 -0.6169
 2857SOL    HW220034   0.229   2.154   7.026 -0.0193  0.1850  0.4597
 2858SOL     OW20035   1.006   0.785   4.607 -0.2236 -0.5030  0.0438
 2858SOL    HW120036   0.960   0.868   4.595  1.1822  0.0857 -1.2781
 2858SOL    HW220037   1.064   0.819   4.675 -1.9615 -1.1276  1.8398
 2859SOL     OW20038   0.632   0.856   3.466  0.1625  0.0907  0.1127
 2859SOL    HW120039   0.671   0.944   3.471  1.5720 -0.5727  0.9211
 2859SOL    HW220040   0.658   0.841   3.375  0.7585  0.7498  0.1679
 2860SOL     OW20041   1.979   4.040   9.708  0.2162 -0.1432 -1.0194
 2860SOL    HW120042   1.895   4.074   9.740  0.5136  0.8851 -1.3233
 2860SOL    HW220043   2.005   3.995   9.788  0.1266  0.7267 -0.4975
 2861SOL     OW20044   3.091   3.789   4.904  0.0732  0.7441 -0.1540
 2861SOL    HW120045   3.023   3.743   4.953  0.6290  0.4346  0.3428
 2861SOL    HW220046   3.163   3.725   4.900 -0.0328  0.5745  0.5428
 2862SOL     OW20047   4.346   3.089   1.459  0.1843  0.1713 -0.5564
 2862SOL    HW120048   4.297   3.088   1.377 -0.6807 -0.0734 -0.0373
 2862SOL    HW220049   4.426   3.041   1.438 -0.8248 -1.8281  0.1732
 2863SOL     OW20050   0.603   2.384   7.803 -0.4078 -0.2509  0.4596
 2863SOL    HW120051   0.509   2.404   7.803 -0.4794 -0.6079 -1.2538
 2863SOL    HW220052   0.639   2.471   7.786  2.1882 -1.6328 -0.9974
 2864SOL     OW20053   1.256   2.497   8.118 -0.3040 -0.2366 -0.3468
 2864SOL    HW120054   1.190   2.557   8.081  1.3450  1.2142 -0.9702
 2864SOL    HW220055   1.271   2.547   8.198  0.4729  0.1974 -0.7626
 2865SOL     OW20056   2.885   4.248   2.618 -0.3252 -0.3170  0.5437
 2865SOL    HW120057   2.790   4.252   2.603 -0.3282  1.7067  1.1369
 2865SOL    HW220058   2.910   4.323   2.564  0.4566 -0.4225  0.7559
 2866SOL     OW20059   1.451   1.033   4.390 -0.7407  0.1478  0.1936
 2866SOL    HW120060   1.472   0.955   4.338 -2.8152  1.4687 -2.6445
 2866SOL    HW220061   1.527   1.086   4.365 -1.4600  0.8351 -0.5222
 2867SOL     OW20062   0.625   4.036   5.115 -0.0302 -0.0072  0.0302
 2867SOL    HW120063   0.559   3.979   5.075  0.5559 -0.4294 -0.3477
 2867SOL    HW220064   0.562   4.098   5.152  0.8777  0.6874  0.3853
 2868SOL     OW20065   1.688   1.532   8.785 -0.6165 -0.1398 -0.1304
 2868SOL    HW120066   1.614   1.586   8.757 -0.2425 -0.2293 -1.2628
 2868SOL    HW220067   1.642   1.468   8.840  0.7785 -0.9633  0.0885
 2869SOL     OW20068   0.144   4.086   3.461  0.7130 -0.4206  0.4809
 2869SOL    HW120069   0.149   4.113   3.370 -0.0807 -0.3081  0.4695
 2869SOL    HW220070   0.089   4.008   3.461  1.1219 -0.6945 -1.3050
 2870SOL     OW20071   1.314   3.048   4.955  0.2879  0.3342 -0.0824
 2870SOL    HW120072   1.236   3.080   5.002  0.5232 -0.3220  0.7367
 2870SOL    HW220073   1.355   2.993   5.021 -2.5078 -0.8704  0.6749
 2871SOL     OW20074   1.612   0.631   8.967 -0.0095 -0.0334  0.2337
 2871SOL    HW120075   1.671   0.563   8.934  0.0843  1.3249 -2.3858
 2871SOL    HW220076   1.661   0.682   9.032 -1.3076  1.2924  0.1744
 2872SOL     OW20077   2.240   3.147   6.350  0.4531  0.1694  0.0324
 2872SOL    HW120078   2.155   3.190   6.339  0.5033  0.3371  0.3033
 2872SOL    HW220079   2.206   3.081   6.411  1.4147  1.2806  1.8007
 2873SOL     OW20080   1.253   2.730   8.264 -0.3026  0.2417 -0.1373
 2873SOL    HW120081   1.255   2.784   8.343  1.9701 -1.4081  0.9072
 2873SOL    HW220082   1.188   2.775   8.210 -0.9063  1.3940  1.5126
 2874SOL     OW20083   1.524   3.519   6.858 -0.1719  0.4613  0.2703
 2874SOL    HW120084   1.577   3.510   6.780  0.3739  1.9208  0.4682
 2874SOL    HW220085   1.461   3.449   6.844 -0.1978  0.2883  1.1944
 2875SOL     OW20086   1.760   4.454  13.270 -0.3795  0.0531 -0.0337
 2875SOL    HW120087   1.677   4.479  13.311 -0.2703 -2.0795  1.5012
 2875SOL    HW220088   1.797   4.538  13.246  1.3933 -1.6002 -3.0987
 2876SOL     OW20089   1.200   2.719   4.022  0.4467  0.5226 -0.5334
 2876SOL    HW120090   1.174   2.632   3.990  0.0838  0.4399 -0.0127
 2876SOL    HW220091   1.295   2.725   4.022  0.5130 -0.5375  1.5772
 2877SOL     OW20092   1.349   0.224   0.996  0.6127 -0.2764 -0.7114
 2877SOL    HW120093   1.272   0.212   0.941  1.2900  3.6279 -2.4707
 2877SOL    HW220094   1.317   0.216   1.086  2.8050  1.1091  0.2120
 2878SOL     OW20095   4.594   3.966   9.425 -0.2099  0.4519  0.3639
 2878SOL    HW120096   4.573   3.877   9.397  0.0812  0.4932  0.0033
 2878SOL    HW220097   4.603   4.003   9.337  0.7503  1.8648  1.0581
 2879SOL     OW20098   2.949   0.995   9.715  0.3664  0.6346 -0.6551
 2879SOL    HW120099   2.907   0.914   9.745  1.5474  0.5632  0.8067
 2879SOL    HW220100   3.036   0.979   9.752  0.4527 -1.2092 -1.6403
 2880SOL     OW20101   0.671   2.530   6.320  0.4042  0.3655  0.4219
 2880SOL    HW120102   0.737   2.468   6.351 -1.2440 -1.5858  0.0451
 2880SOL    HW220103   0.672   2.506   6.227 -2.2603  1.6769  0.0513
 2881SOL     OW20104   0.472   4.723   2.807  0.3443 -0.5331 -0.3227
 2881SOL    HW120105   0.472   4.669   2.886 -1.0395  2.2321  1.5260
 2881SOL    HW220106   0.483   0.084   2.848  1.4364 -0.3558 -0.9937
 2882SOL     OW20107   4.683   1.809   9.001 -0.7841  0.9257 -0.3792
 2882SOL    HW120108   4.654   1.738   9.057  0.7637 -1.7327 -2.9743
 2882SOL    HW220109   4.711   1.874   9.066 -0.8655  0.3455  0.2259
 2883SOL     OW20110   3.585   2.162   5.364 -0.4207 -0.3410  0.2672
 2883SOL    HW120111   3.498   2.186   5.332 -0.3461  0.6855  0.8205
 2883SOL    HW220112   3.640   2.227   5.321  0.3441 -2.6067 -2.1652
 2884SOL     OW20113   4.297   4.407  16.516 -0.2919 -0.1088  0.0580
 2884SOL    HW120114   4.310   4.410  16.421  0.8858  0.6674  0.2551
 2884SOL    HW220115   4.351   4.331  16.537 -0.8642 -0.8316 -1.0844
 2885SOL     OW20116   4.433   1.454   3.931  0.3636 -0.2339 -0.0595
 2885SOL    HW120117   4.416   1.430   3.840  1.4345 -2.1671  0.2535
 2885SOL    HW220118   4.523   1.423   3.937 -0.1105 -1.7114 -0.5799
 2886SOL     OW20119   1.391   3.523   3.852 -0.7786 -0.2629 -0.0579
 2886SOL    HW120120   1.472   3.543   3.805 -1.0039  4.5751  1.5479
 2886SOL    HW220121   1.415   3.489   3.938  0.4536 -0.7755 -0.6159
 2887SOL     OW20122   1.161   0.790   7.248  0.0223  0.1171 -0.8477
 2887SOL    HW120123   1.108   0.818   7.174 -2.4461  1.0549  1.2733
 2887SOL    HW220124   1.248   0.812   7.216  0.2951  0.7692  0.3105
 2888SOL     OW20125   0.417   1.579  16.720 -0.2152 -0.1701 -0.1394
 2888SOL    HW120126   0.422   1.503  16.661  0.4117  0.8744 -1.4262
 2888SOL    HW220127   0.489   1.635  16.693  0.0887  0.9018  2.9733
 2889SOL     OW20128   2.173   1.575   8.509 -0.1951 -0.3833 -0.7384
 2889SOL    HW120129   2.239   1.640   8.535  0.0738 -1.4340  1.1900
 2889SOL    HW220130   2.145   1.555   8.599  2.9061 -3.6193 -0.4948
 2890SOL     OW20131   3.698   1.130   5.513 -0.0223  0.3977  0.5446
 2890SOL    HW120132   3.683   1.210   5.462  1.1747  0.5869  0.4668
 2890SOL    HW220133   3.727   1.159   5.600 -1.6578  2.3954  0.4196
 2891SOL     OW20134   0.122   4.231   4.038  0.0222 -0.0078  0.6303
 2891SOL    HW120135   0.075   4.157   4.077 -0.4930  0.8313  1.5895
 2891SOL    HW220136   0.102   4.230   3.944 -2.2179  0.6005  1.1002
 2892SOL     OW20137   2.411   2.315  15.290  0.3758 -0.4276 -0.3368
 2892SOL    HW120138   2.390   2.388  15.348  0.8701 -1.9707  1.7834
 2892SOL    HW220139   2.452   2.358  15.214  0.6132  0.6824  0.4250
 2893SOL     OW20140   4.513   3.786   9.775 -0.1180 -0.0330  0.3286
 2893SOL    HW120141   4.589   3.805   9.721 -1.4339 -1.7318 -2.0891
 2893SOL    HW220142   4.543   3.752   9.860  1.6745 -0.9258 -0.6577
 2894SOL     OW20143   3.004   3.056   5.717  0.0264 -0.2173  0.3001
 2894SOL    HW120144   3.016   2.962   5.700  0.0851 -0.4201  1.4463
 2894SOL    HW220145   3.097   3.075   5.725 -0.2065  0.6618  0.9134
 2895SOL     OW20146   4.517   1.861  15.464  0.2060 -0.0959 -0.1940
 2895SOL    HW120147   4.543   1.799  15.396 -3.4855 -0.0174 -1.6436
 2895SOL    HW220148   4.535   1.947  15.428  1.0250 -0.2516 -0.1642
 2896SOL     OW20149   3.381   1.650   6.236 -0.4506  0.1994  0.2304
 2896SOL    HW120150   3.353   1.728   6.189 -3.1490 -1.3248 -0.6593
 2896SOL    HW220151   3.472   1.640   6.209  0.1726 -0.6525  2.6416
 2897SOL     OW20152   2.188   1.740   0.534  0.5983 -0.3625  0.1338
 2897SOL    HW120153   2.175   1.827   0.496 -2.4848 -1.2788 -0.8860
 2897SOL    HW220154   2.266   1.747   0.589  2.2649 -2.0381 -2.0137
 2898SOL     OW20155   3.051   2.111   4.305 -0.0114 -0.4308 -0.4095
 2898SOL    HW120156   3.083   2.069   4.385  2.3655 -0.1931 -1.2498
 2898SOL    HW220157   2.981   2.048   4.284  0.1247 -0.5997 -0.3544
 2899SOL     OW20158   3.552   1.345  15.064  0.1038  0.7662 -0.4655
 2899SOL    HW120159   3.489   1.304  15.005  0.1629 -0.6736  0.4720
 2899SOL    HW220160   3.486   1.400  15.106 -1.4093 -0.6981 -0.9446
 2900SOL     OW20161   1.819   0.282  16.341 -0.3132  0.2115  0.1952
 2900SOL    HW120162   1.836   0.287  16.435  1.1338 -1.0725 -0.0028
 2900SOL    HW220163   1.773   0.362  16.315  2.3604  1.3113 -1.1195
 2901SOL     OW20164   1.726   4.649  14.940  0.0756 -0.4664  0.0376
 2901SOL    HW120165   1.821   4.645  14.953  0.3085 -0.0998 -1.5642
 2901SOL    HW220166   1.716   0.004  14.888 -3.0367 -2.0789 -1.8393
 2902SOL     OW20167   2.314   2.889   4.028  0.3743 -0.0478  0.3346
 2902SOL    HW120168   2.370   2.967   4.028  0.5855 -0.1774 -1.2788
 2902SOL    HW220169   2.313   2.875   3.933 -1.3659 -1.6391  0.5950
 2903SOL     OW20170   4.516   3.102   0.794 -0.2615  0.3980 -0.2403
 2903SOL    HW120171   4.444   3.055   0.753  0.3325 -0.2429 -0.5512
 2903SOL    HW220172   4.549   3.155   0.722 -2.2462  2.1037  0.1088
 2904SOL     OW20173   0.628   3.386   3.508  0.3025 -0.3227  0.7848
 2904SOL    HW120174   0.590   3.345   3.586 -1.0923 -0.6051 -0.0636
 2904SOL    HW220175   0.572   3.359   3.436  1.4490  0.9273 -0.5819
 2905SOL     OW20176   1.868   4.580   6.107  0.4296 -0.1740 -0.1513
 2905SOL    HW120177   1.783   4.556   6.070  0.7422  1.5620 -1.9942
 2905SOL    HW220178   1.866   4.539   6.193  1.0852  1.1672  0.5015
 2906SOL     OW20179   0.829   1.257  12.187 -0.4867 -0.5836 -0.0967
 2906SOL    HW120180   0.909   1.310  12.185 -0.2656 -0.8781  0.6772
 2906SOL    HW220181   0.834   1.218  12.275  0.7908  0.3057  0.2246
 2907SOL     OW20182   3.012   1.441  15.805  0.0954  0.0962 -0.1691
 2907SOL    HW120183   2.924   1.477  15.796 -1.1608 -2.9750 -0.2958
 2907SOL    HW220184   3.055   1.512  15.852 -1.8185  1.9060 -1.1475
 2908SOL     OW20185   2.018   4.025   6.844  0.0076 -0.5160 -0.0992
 2908SOL    HW120186   1.970   3.943   6.854 -1.2609  0.2726  0.1917
 2908SOL    HW220187   2.095   4.011   6.899  0.3342 -1.1536 -0.7070
 2909SOL     OW20188   4.194   4.452   5.088  0.3369 -0.4029 -0.2626
 2909SOL    HW120189   4.127   4.519   5.072 -1.3050 -1.8364  0.7533
 2909SOL    HW220190   4.269   4.486   5.039  2.3510 -0.1240  2.9980
 2910SOL     OW20191   3.052   1.833   7.674  0.3519  0.0593 -0.5285
 2910SOL    HW120192   3.010   1.892   7.737  1.1433 -0.0623  0.1201
 2910SOL    HW220193   2.981   1.794   7.623  0.1650  0.8578 -0.8741
 2911SOL     OW20194   0.717   2.223  17.670 -0.2892  0.4141  0.3862
 2911SOL    HW120195   0.645   2.286  17.680 -2.4722 -2.0068 -0.1089
 2911SOL    HW220196   0.732   2.192   0.061  1.1971  0.9388  0.3219
 2912SOL     OW20197   2.160   0.003   1.907  0.1637 -0.5745 -0.2565
 2912SOL    HW120198   2.091   0.015   1.972  0.9871 -0.1716  0.5331
 2912SOL    HW220199   2.178   0.095   1.886 -0.8911 -0.3949 -0.3708
 2913SOL     OW20200   2.197   3.174   7.581 -0.3110 -0.1888  0.1400
 2913SOL    HW120201   2.291   3.156   7.580 -0.2374  0.1972 -0.1476
 2913SOL    HW220202   2.184   3.265   7.555 -0.6989 -0.0803  0.7229
 2914SOL     OW20203   2.433   0.451   8.975 -0.3933  0.2101 -0.1593
 2914SOL    HW120204   2.442   0.410   9.061 -1.5071 -0.9035 -0.5631
 2914SOL    HW220205   2.476   0.535   8.988  0.5774 -0.0558 -1.7351
 2915SOL     OW20206   3.223   3.853   6.583 -0.2287 -0.5980  0.1166
 2915SOL    HW120207   3.264   3.815   6.505 -0.9938 -2.7567  0.7700
 2915SOL    HW220208   3.143   3.801   6.588 -1.7216  1.5756 -1.3811
 2916SOL     OW20209   4.417   1.176   9.398  0.1933 -0.3847 -0.4823
 2916SOL    HW120210   4.471   1.123   9.456 -1.4253 -1.3374  0.1703
 2916SOL    HW220211   4.412   1.252   9.456 -0.6779  0.3106 -1.4757
 2917SOL     OW20212   0.814   3.304   4.248  0.4816 -0.1698 -0.1282
 2917SOL    HW120213   0.834   3.299   4.154 -0.1359 -0.7593 -0.2274
 2917SOL    HW220214   0.881   3.368   4.271 -0.3317 -0.3505  2.7006
 2918SOL     OW20215   3.281   1.715   2.414  0.2337  0.2400 -0.1773
 2918SOL    HW120216   3.333   1.694   2.337 -0.4623 -0.5750 -0.4232
 2918SOL    HW220217   3.283   1.809   2.396  0.5660  0.4756  1.0351
 2919SOL     OW20218   1.587   4.155   0.218 -0.0702  0.5282  0.4923
 2919SOL    HW120219   1.654   4.105   0.265 -1.8140  1.0501  3.5726
 2919SOL    HW220220   1.503   4.136   0.262 -0.1856 -1.3783 -0.5395
 2920SOL     OW20221   2.150   0.080  13.498 -0.0483 -0.0347  0.1454
 2920SOL    HW120222   2.169   0.145  13.431  3.9497  1.8693  3.1311
 2920SOL    HW220223   2.105   0.015  13.444  0.2466 -0.3541  0.2823
 2921SOL     OW20224   2.215   3.830   8.720  0.0966  0.3545  0.3107
 2921SOL    HW120225   2.210   3.881   8.639  2.3414  2.0177  1.2073
 2921SOL    HW220226   2.141   3.872   8.763 -2.1962 -1.9465 -1.3720
 2922SOL     OW20227   3.131   2.431  13.608  0.0494 -0.0675  0.1367
 2922SOL    HW120228   3.115   2.385  13.690  2.6634 -2.3812 -0.6275
 2922SOL    HW220229   3.169   2.370  13.545  1.2581  0.0158  0.7812
 2923SOL     OW20230   2.974   0.291   3.808 -0.1575 -0.1130 -0.2239
 2923SOL    HW120231   2.957   0.236   3.731  0.0544  0.4105 -0.6440
 2923SOL    HW220232   3.045   0.243   3.851 -1.2706 -1.9529 -0.4448
 2924SOL     OW20233   4.060   1.754   5.943  0.1696  0.0621 -0.6989
 2924SOL    HW120234   4.120   1.772   6.015  0.2613 -1.7589 -0.3113
 2924SOL    HW220235   4.111   1.701   5.882 -1.2877 -2.1050 -0.0287
 2925SOL     OW20236   3.828   2.577   8.536  0.3875 -0.2721  0.1831
 2925SOL    HW120237   3.832   2.583   8.631 -2.7042  2.6104  0.0952
 2925SOL    HW220238   3.768   2.650   8.528 -0.5786 -1.2217 -1.3147
 2926SOL     OW20239   0.523   0.763   5.312  0.4799  0.0381  0.0932
 2926SOL    HW120240   0.606   0.793   5.348  0.7117  0.0612 -0.4574
 2926SOL    HW220241   0.554   0.709   5.239 -0.0643  0.8231 -0.7083
 2927SOL     OW20242   0.671   1.050   2.193  0.0864 -0.1832 -0.3424
 2927SOL    HW120243   0.709   0.966   2.166  0.1337  0.7391 -3.1481
 2927SOL    HW220244   0.681   1.112   2.121 -0.5365 -0.0893 -0.3459
 2928SOL     OW20245   4.615   4.318   5.881 -0.1282  0.1628  0.4410
 2928SOL    HW120246   4.673   4.385   5.846  2.0922 -0.8001  2.2714
 2928SOL    HW220247   4.675   4.278   5.943 -1.8215 -0.1304  1.9028
 2929SOL     OW20248   0.243   0.634  16.932  0.1339  0.0235  0.0360
 2929SOL    HW120249   0.289   0.715  16.957 -0.2227  0.8446 -2.0038
 2929SOL    HW220250   0.228   0.639  16.838 -1.9555  1.7550  0.4532
 2930SOL     OW20251   1.297   1.103   6.221  0.3101 -0.7681  0.2263
 2930SOL    HW120252   1.362   1.032   6.221 -0.0564 -1.1100 -1.8365
 2930SOL    HW220253   1.289   1.128   6.313  0.1455 -0.6400  0.1771
 2931SOL     OW20254   3.649   3.278   9.149 -0.2375  0.1932  0.3454
 2931SOL    HW120255   3.602   3.245   9.072  0.4140  0.1764 -0.0435
 2931SOL    HW220256   3.628   3.210   9.214  1.1904  2.1724  2.8469
 2932SOL     OW20257   4.678   1.391   3.686 -0.2541  0.1497 -0.3458
 2932SOL    HW120258   4.721   1.400   3.601 -0.6139  1.3581 -0.3868
 2932SOL    HW220259   4.693   1.303   3.720  5.2882  0.7629 -1.1920
 2933SOL     OW20260   2.792   3.923  17.106 -0.3509  0.5466 -0.0815
 2933SOL    HW120261   2.880   3.949  17.133  1.8452 -2.4031 -4.4133
 2933SOL    HW220262   2.810   3.831  17.088  0.5616  0.7228 -0.0809
 2934SOL     OW20263   4.279   3.877   9.664 -0.4577 -0.0918 -0.9286
 2934SOL    HW120264   4.353   3.931   9.636  0.4597 -1.1768 -0.5859
 2934SOL    HW220265   4.338   3.839   9.729 -0.5105  1.0701 -0.2102
 2935SOL     OW20266   1.835   1.424   9.097  0.3842  0.1277  0.9336
 2935SOL    HW120267   1.785   1.354   9.054 -1.5377  2.1205 -0.0856
 2935SOL    HW220268   1.913   1.411   9.043 -0.5368  2.6900 -1.0001
 2936SOL     OW20269   1.581   2.430   0.853  0.1198 -0.3779 -0.8866
 2936SOL    HW120270   1.496   2.449   0.893  0.2935  1.2826 -1.3047
 2936SOL    HW220271   1.591   2.339   0.881  1.9902  0.2665  0.6338
 2937SOL     OW20272   0.014   2.618   8.163 -0.3750 -0.3708  0.4458
 2937SOL    HW120273   4.670   2.587   8.223  0.7932 -1.8814  0.9751
 2937SOL    HW220274   0.058   2.536   8.143  0.2786 -0.4935  2.4254
 2938SOL     OW20275   1.730   1.014   2.828 -0.5357  0.0871 -0.1460
 2938SOL    HW120276   1.657   0.955   2.809  0.3784 -1.1001  0.0427
 2938SOL    HW220277   1.778   1.003   2.746  0.6632 -0.2644  0.6087
 2939SOL     OW20278   3.349   0.701  13.840  0.5197 -0.2060  0.5277
 2939SOL    HW120279   3.270   0.716  13.893 -0.1376 -2.0476  0.0896
 2939SOL    HW220280   3.379   0.790  13.854  1.5899 -0.5383  0.2954
 2940SOL     OW20281   3.595   4.161  15.370 -0.1879 -0.5307  0.1624
 2940SOL    HW120282   3.635   4.163  15.456 -1.8376  0.2617  0.9098
 2940SOL    HW220283   3.677   4.173  15.322 -0.7298  1.8557 -0.1647
 2941SOL     OW20284   2.985   2.782  13.232 -0.1912 -0.2953 -0.3220
 2941SOL    HW120285   3.018   2.796  13.321 -2.2646  1.6270  0.1352
 2941SOL    HW220286   2.991   2.686  13.232 -0.4595 -0.3119  4.0113
 2942SOL     OW20287   1.712   3.856   4.810  0.0723 -0.2286  0.4368
 2942SOL    HW120288   1.706   3.885   4.719 -2.6541 -0.4733  0.5632
 2942SOL    HW220289   1.721   3.944   4.847  0.9782 -0.6264  1.1680
 2943SOL     OW20290   0.416   0.530   7.380 -0.6132 -0.4669 -0.7793
 2943SOL    HW120291   0.508   0.508   7.365 -0.2986  0.0425  0.3780
 2943SOL    HW220292   0.370   0.486   7.309 -0.5216 -0.3271 -0.9268
 2944SOL     OW20293   0.647   1.974   1.045  0.0490  0.3265 -0.4653
 2944SOL    HW120294   0.670   1.968   1.138 -3.5474  1.3324  0.4802
 2944SOL    HW220295   0.732   1.990   1.004  0.5631  0.1824  0.5231
 2945SOL     OW20296   4.578   4.587   7.420  0.2684 -0.5298 -0.2570
 2945SOL    HW120297   4.483   4.583   7.434  0.6919 -2.9478  1.9686
 2945SOL    HW220298   4.590   4.659   7.481 -2.4802 -1.1941  1.1081
 2946SOL     OW20299   2.138   0.587   4.584 -0.2551  0.2793  0.7117
 2946SOL    HW120300   2.222   0.547   4.563 -0.1774 -0.2882  2.1574
 2946SOL    HW220301   2.124   0.561   4.675 -1.1394  0.4870  0.6372
 2947SOL     OW20302   3.685   3.203   4.680  0.3722  0.4084 -0.0319
 2947SOL    HW120303   3.684   3.176   4.588  2.8333 -0.9623  0.3539
 2947SOL    HW220304   3.648   3.124   4.719 -1.4754  0.5823 -1.4125
 2948SOL     OW20305   1.876   1.873   3.675  0.0790  0.7329 -0.2119
 2948SOL    HW120306   1.830   1.814   3.615  1.1167 -0.3438  0.0295
 2948SOL    HW220307   1.956   1.819   3.683 -0.7317 -0.3220  0.8183
 2949SOL     OW20308   2.259   1.112   5.817 -0.3555 -0.1091  0.4318
 2949SOL    HW120309   2.346   1.150   5.809 -0.3378  0.1336  1.6895
 2949SOL    HW220310   2.255   1.096   5.911 -0.3223 -2.5759  0.0132
 2950SOL     OW20311   4.537   1.277   1.476 -0.1095  0.1134 -0.3353
 2950SOL    HW120312   4.567   1.258   1.387 -2.0312 -0.9253 -0.7691
 2950SOL    HW220313   4.621   1.266   1.522 -2.1334 -1.5075  2.9751
 2951SOL     OW20314   0.555   2.594   3.893  0.3504  0.0660  0.3267
 2951SOL    HW120315   0.625   2.534   3.919  0.1346  0.6349  2.2782
 2951SOL    HW220316   0.499   2.537   3.840 -0.0713 -1.8017  2.7476
 2952SOL     OW20317   3.192   0.995   0.842  0.1862  0.3258 -0.7708
 2952SOL    HW120318   3.111   0.963   0.801  0.2542 -0.3407 -0.3954
 2952SOL    HW220319   3.258   0.935   0.805  0.3669  0.1550 -0.1807
 2953SOL     OW20320   3.786   4.190  17.318 -0.5716  0.1681  0.5397
 2953SOL    HW120321   3.702   4.206  17.275  0.0997  3.4976  0.4894
 2953SOL    HW220322   3.846   4.229  17.255 -2.6096 -0.2332 -1.6477
 2954SOL     OW20323   0.096   1.140  16.035 -0.2163 -0.0161  0.1422
 2954SOL    HW120324   0.160   1.126  15.965 -0.9243  0.4313 -0.5873
 2954SOL    HW220325   0.100   1.234  16.054  2.1627 -0.1773  0.5228
 2955SOL     OW20326   3.216   1.173   7.768  0.0622 -0.6434 -0.0651
 2955SOL    HW120327   3.230   1.252   7.821 -1.0683 -0.3066 -0.2615
 2955SOL    HW220328   3.206   1.106   7.835  0.2526 -0.0855  0.5253
 2956SOL     OW20329   0.703   3.662   8.659  0.9997 -0.1598  0.6448
 2956SOL    HW120330   0.736   3.661   8.748  0.4743  0.2816  0.8417
 2956SOL    HW220331   0.747   3.740   8.626 -2.3565  0.9137 -1.3026
 2957SOL     OW20332   1.465   1.172   3.049 -0.1223  0.4866 -0.2365
 2957SOL    HW120333   1.474   1.267   3.064  0.7789  0.2150  0.9306
 2957SOL    HW220334   1.426   1.180   2.962  3.0884 -0.7518 -1.7858
 2958SOL     OW20335   0.202   2.169   9.308 -0.7907  0.5538  0.0785
 2958SOL    HW120336   0.298   2.173   9.305 -0.7774 -0.1743 -0.5705
 2958SOL    HW220337   0.190   2.126   9.393  0.4715  1.8145  0.8971
 2959SOL     OW20338   4.524   2.270  15.634  0.0895  0.3524  0.0457
 2959SOL    HW120339   4.507   2.354  15.591 -1.6248 -0.6930 -1.3277
 2959SOL    HW220340   4.433   2.243  15.645 -0.2212  1.6405  0.6141
 2960SOL     OW20341   1.565   0.588   2.462  0.4254  0.6599  0.1899
 2960SOL    HW120342   1.549   0.520   2.528 -2.4660  1.6600  0.5309
 2960SOL    HW220343   1.641   0.551   2.417 -0.5205  0.4570 -1.2311
 2961SOL     OW20344   2.133   0.457   8.706 -0.2070  0.0061 -0.3591
 2961SOL    HW120345   2.108   0.535   8.756  0.6890 -1.4145  2.3381
 2961SOL    HW220346   2.083   0.382   8.739 -0.0870  0.0535 -0.0653
 2962SOL     OW20347   4.325   1.902  13.541 -0.5008  0.2364  0.2278
 2962SOL    HW120348   4.302   1.916  13.449  0.4284 -0.2460 -0.0729
 2962SOL    HW220349   4.243   1.920  13.588 -2.2575  0.0516 -2.7599
 2963SOL     OW20350   4.390   3.848   2.630  0.1923 -0.1796 -0.5250
 2963SOL    HW120351   4.476   3.891   2.628  0.8267 -1.5367 -2.1035
 2963SOL    HW220352   4.361   3.857   2.721  1.1149 -0.9519 -0.1594
 2964SOL     OW20353   3.500   3.869   7.613 -0.2304 -0.1314  0.9519
 2964SOL    HW120354   3.571   3.854   7.676 -0.4403  1.2637  1.5300
 2964SOL    HW220355   3.426   3.833   7.662 -1.1436  1.1101  0.4691
 2965SOL     OW20356   0.350   4.154   2.694  0.3010 -0.3951 -0.8642
 2965SOL    HW120357   0.260   4.141   2.664  0.1861 -0.5270 -0.4574
 2965SOL    HW220358   0.380   4.217   2.629  0.8533  0.0063 -0.2131
 2966SOL     OW20359   0.986   2.442  13.714 -0.1316  0.4299  0.2090
 2966SOL    HW120360   0.995   2.467  13.622 -0.7989 -0.9021 -0.2260
 2966SOL    HW220361   1.073   2.402  13.722  0.1003  0.1892 -3.1986
 2967SOL     OW20362   3.018   1.238   8.534  0.2861 -0.1109 -0.0359
 2967SOL    HW120363   3.068   1.246   8.615  0.1854 -1.3079  0.1372
 2967SOL    HW220364   3.075   1.298   8.485 -1.6031 -1.1687 -3.5723
 2968SOL     OW20365   3.158   2.768   8.745 -0.5332  0.1355 -0.3204
 2968SOL    HW120366   3.142   2.675   8.731  0.3449  0.2167 -1.8884
 2968SOL    HW220367   3.118   2.784   8.830  0.9244 -0.7761  0.5122
 2969SOL     OW20368   0.912   0.838   7.905  0.1247  0.2427 -0.6161
 2969SOL    HW120369   0.890   0.888   7.826 -2.7503  0.4416  0.3267
 2969SOL    HW220370   0.999   0.819   7.870  0.1135 -1.0139  0.0444
 2970SOL     OW20371   4.436   1.790  11.930 -0.0440 -0.0907 -0.7097
 2970SOL    HW120372   4.416   1.867  11.877  0.7235 -0.2174 -1.2005
 2970SOL    HW220373   4.467   1.828  12.012 -1.2620 -0.0912 -0.2637
 2971SOL     OW20374   3.913   2.356  17.596 -0.4171 -0.4371  0.0317
 2971SOL    HW120375   4.002   2.377  17.623 -0.0117 -0.4487 -1.2883
 2971SOL    HW220376   3.912   2.261  17.604 -1.7224 -0.5490 -1.4446
 2972SOL     OW20377   1.276   2.831   1.295 -0.0750 -0.7474 -0.1903
 2972SOL    HW120378   1.274   2.903   1.358 -0.0735 -0.4463 -0.5353
 2972SOL    HW220379   1.325   2.874   1.225  1.1235 -2.7354 -0.5620
 2973SOL     OW20380   0.294   0.420  15.277 -0.2757 -0.2942 -0.3674
 2973SOL    HW120381   0.378   0.420  15.322 -0.0281  0.1221 -0.8174
 2973SOL    HW220382   0.298   0.343  15.221  1.0817  0.6800 -1.6275
 2974SOL     OW20383   1.792   0.082  17.128 -0.2011 -0.3002  0.3660
 2974SOL    HW120384   1.728   0.097  17.198 -0.4507 -0.8334  0.2495
 2974SOL    HW220385   1.841   0.010  17.168 -0.0218 -1.1402 -1.3818
 2975SOL     OW20386   4.340   3.001   4.036  0.2126 -0.7839 -0.4752
 2975SOL    HW120387   4.354   2.924   3.981 -1.2066 -2.7398  1.8979
 2975SOL    HW220388   4.403   2.988   4.107 -0.1658 -0.5372 -0.0944
 2976SOL     OW20389   1.094   2.164   3.358  0.1142 -0.4451 -0.0017
 2976SOL    HW120390   1.158   2.215   3.309  1.6994 -2.6829 -0.2568
 2976SOL    HW220391   1.137   2.079   3.362 -2.0596 -1.4709  1.5241
 2977SOL     OW20392   4.475   3.831   3.036 -0.3383 -0.1675  0.6009
 2977SOL    HW120393   4.458   3.921   3.066 -3.2431 -0.7971  0.8498
 2977SOL    HW220394   4.450   3.799   3.123  0.1944 -1.8248  0.1391
 2978SOL     OW20395   0.955   0.915  15.818  0.2351 -0.6238 -0.4234
 2978SOL    HW120396   1.033   0.897  15.870 -0.0936 -0.8871 -0.0091
 2978SOL    HW220397   1.000   0.929  15.735 -0.8423  1.0435 -0.7237
 2979SOL     OW20398   0.263   0.805   5.876  0.6208 -0.0644  0.2631
 2979SOL    HW120399   0.230   0.855   5.950  1.8473  2.4604 -0.8738
 2979SOL    HW220400   0.324   0.750   5.925  0.2681 -0.9102 -0.2619
 2980SOL     OW20401   4.054   4.167  12.162 -0.1466 -0.2314  0.2301
 2980SOL    HW120402   4.035   4.181  12.069  1.3785  1.3310  0.1627
 2980SOL    HW220403   4.136   4.216  12.166 -0.1630 -0.2596  0.9060
 2981SOL     OW20404   2.831   4.311   6.879 -0.1445  0.6151  0.5967
 2981SOL    HW120405   2.793   4.242   6.934 -1.4316  1.5296  0.8382
 2981SOL    HW220406   2.891   4.349   6.943  0.4717 -0.0716  0.4403
 2982SOL     OW20407   0.992   2.756   1.223 -0.7681 -0.1935 -0.8210
 2982SOL    HW120408   1.076   2.737   1.264 -0.6304 -1.8585 -1.8946
 2982SOL    HW220409   0.965   2.834   1.273  0.8615 -0.8444  1.1007
 2983SOL     OW20410   1.195   0.968   8.998  0.0789  0.2275 -0.2784
 2983SOL    HW120411   1.215   1.016   9.079 -0.9934 -2.7946  1.7934
 2983SOL    HW220412   1.104   0.988   8.975 -0.3907 -0.6245  0.8282
 2984SOL     OW20413   1.703   3.252   2.597 -0.5854  0.3086 -0.3054
 2984SOL    HW120414   1.736   3.199   2.670 -3.1722  1.2815  1.5872
 2984SOL    HW220415   1.782   3.245   2.545  1.4532  2.0936  2.5652
 2985SOL     OW20416   3.638   1.611   8.158 -0.4147  0.0445  0.4224
 2985SOL    HW120417   3.707   1.567   8.206 -1.2174  0.5399  2.0390
 2985SOL    HW220418   3.580   1.630   8.232  1.1299  0.0676  1.6278
 2986SOL     OW20419   1.120   0.022  16.266  0.3120 -0.1427  0.5021
 2986SOL    HW120420   1.137   0.070  16.347  0.4358  0.4077  0.1546
 2986SOL    HW220421   1.177   4.669  16.269 -0.4923 -0.7223  0.8301
 2987SOL     OW20422   1.223   3.767  13.400  0.1745  0.2797 -0.3784
 2987SOL    HW120423   1.166   3.710  13.450  2.5246 -1.4974  0.2524
 2987SOL    HW220424   1.162   3.828  13.358 -0.1314 -0.5658 -1.1681
 2988SOL     OW20425   3.968   2.018   1.202  0.0437  0.6122  0.6979
 2988SOL    HW120426   3.985   1.923   1.200  1.1921  0.8085  1.1314
 2988SOL    HW220427   3.898   2.037   1.264  0.5611  1.6449  0.9651
 2989SOL     OW20428   1.129   2.729   4.962 -0.7249  0.0095  0.8097
 2989SOL    HW120429   1.150   2.807   5.013 -0.1238  0.8929 -0.7926
 2989SOL    HW220430   1.195   2.721   4.893 -0.2156 -0.7396  1.3817
 2990SOL     OW20431   0.588   4.005   1.663  0.1576 -0.1384 -0.2279
 2990SOL    HW120432   0.550   3.955   1.591  0.8814 -1.9585  0.6560
 2990SOL    HW220433   0.672   3.961   1.669 -0.3729 -1.4990 -2.6085
 2991SOL     OW20434   0.629   3.963   8.657  0.4688  0.0750  0.6606
 2991SOL    HW120435   0.694   3.946   8.589  0.7285  0.7465  0.7474
 2991SOL    HW220436   0.559   3.978   8.593  0.7258  0.4059  0.4572
 2992SOL     OW20437   1.009   2.645   9.172 -0.7346  0.2301  0.1213
 2992SOL    HW120438   1.072   2.700   9.218  0.1684  0.0188 -0.8574
 2992SOL    HW220439   0.953   2.721   9.158 -0.8195 -0.1290 -1.4968
 2993SOL     OW20440   0.383   2.789   1.349 -0.7114 -0.6416  0.0440
 2993SOL    HW120441   0.384   2.840   1.429 -1.6024 -1.1331  0.3687
 2993SOL    HW220442   0.337   2.848   1.289 -0.9183 -1.4028 -0.5486
 2994SOL     OW20443   3.747   1.341   9.390  0.3649 -0.0082 -0.5293
 2994SOL    HW120444   3.826   1.301   9.427  0.3232  0.5536  0.1610
 2994SOL    HW220445   3.690   1.264   9.386  1.0579 -0.5723  0.4100
 2995SOL     OW20446   1.351   3.781   4.030  0.2159 -0.7189  0.0478
 2995SOL    HW120447   1.419   3.772   3.963  0.2840 -1.2494  0.1905
 2995SOL    HW220448   1.299   3.703   4.011 -1.8372  0.2931  1.4946
 2996SOL     OW20449   3.685   2.958   7.449  0.0869 -0.1043  0.1232
 2996SOL    HW120450   3.709   2.981   7.539 -0.3863 -0.3091  0.3025
 2996SOL    HW220451   3.707   2.864   7.451  1.2128  0.2158  2.4096
 2997SOL     OW20452   2.599   0.280   3.100  0.3192  1.1510  0.4731
 2997SOL    HW120453   2.513   0.300   3.062 -0.2754 -2.0006  0.1260
 2997SOL    HW220454   2.579   0.283   3.194  1.3374 -1.1859  0.7791
 2998SOL     OW20455   3.978   0.973  13.591  0.0963  0.2010  0.2519
 2998SOL    HW120456   4.072   0.986  13.576  0.1984 -2.5578 -1.4510
 2998SOL    HW220457   3.963   0.899  13.533 -0.7243  0.6653 -0.1367
 2999SOL     OW20458   3.374   1.701   9.254 -0.1328  0.0423 -0.2541
 2999SOL    HW120459   3.318   1.741   9.320 -1.1081  1.2783 -1.8184
 2999SOL    HW220460   3.449   1.678   9.309  0.7383  0.0980 -1.3922
 3000SOL     OW20461   3.066   4.677   7.591  0.0338  0.1698 -0.1035
 3000SOL    HW120462   3.162   4.685   7.597  0.2804 -2.6482 -0.0339
 3000SOL    HW220463   3.045   4.625   7.513  4.0637 -1.3518 -0.2129
 3001SOL     OW20464   4.117   1.169   9.415 -0.0679  0.2715 -0.4369
 3001SOL    HW120465   4.108   1.081   9.452 -2.2894  0.7901  0.2082
 3001SOL    HW220466   4.211   1.185   9.407 -0.3778  1.2443 -2.1958
 3002SOL     OW20467   2.362   4.707   2.752  0.2001  0.2659  0.0909
 3002SOL    HW120468   2.418   4.724   2.828 -0.2016  1.9184  0.0267
 3002SOL    HW220469   2.313   0.065   2.738 -0.3737  0.0702  0.9882
 3003SOL     OW20470   3.248   4.474   1.983  0.1215  0.2477  0.2491
 3003SOL    HW120471   3.269   4.497   1.892 -2.2106 -0.4159 -0.4515
 3003SOL    HW220472   3.314   4.531   2.022  1.1181  0.2014 -1.3660
 3004SOL     OW20473   2.944   0.833  15.116  1.0575  0.8096 -0.1626
 3004SOL    HW120474   2.919   0.910  15.065 -0.4812 -0.4930 -1.3953
 3004SOL    HW220475   3.037   0.851  15.130  1.3411 -1.0658  0.3457
 3005SOL     OW20476   4.359   3.863  15.989  0.3309 -0.1794 -0.1128
 3005SOL    HW120477   4.437   3.912  16.017  1.5553 -2.4781  0.4456
 3005SOL    HW220478   4.316   3.862  16.075  0.6907 -0.2062  0.0695
 3006SOL     OW20479   0.979   3.015   4.806 -0.6011 -0.0599  0.7324
 3006SOL    HW120480   1.056   3.071   4.814  0.4638 -1.5632  1.1476
 3006SOL    HW220481   1.006   2.952   4.738 -0.7692 -0.1980  0.7948
 3007SOL     OW20482   2.025   2.696  16.064 -0.4773  0.2025 -0.3487
 3007SOL    HW120483   2.003   2.620  16.011 -0.4875 -1.3716  1.8807
 3007SOL    HW220484   1.962   2.684  16.135  0.8024  0.6776  0.8794
 3008SOL     OW20485   3.948   2.245  13.641  0.3394  0.5595  0.4396
 3008SOL    HW120486   3.890   2.170  13.634  0.3959  0.3717  1.9970
 3008SOL    HW220487   3.904   2.326  13.613 -0.9099  0.7182  2.8839
 3009SOL     OW20488   0.250   1.225   5.413 -0.1963 -0.1957 -0.8719
 3009SOL    HW120489   0.167   1.199   5.453  0.0895  0.7561  0.3206
 3009SOL    HW220490   0.245   1.187   5.325 -1.6792 -1.0275 -0.4274
 3010SOL     OW20491   3.332   1.030   6.233  0.2567  0.6614  0.2125
 3010SOL    HW120492   3.394   0.957   6.245  0.3952  0.6805 -0.3964
 3010SOL    HW220493   3.274   1.011   6.160  1.3765  0.2751 -0.5760
 3011SOL     OW20494   0.782   2.859   3.762 -0.1895  0.2472 -0.2044
 3011SOL    HW120495   0.862   2.912   3.771  0.5151 -0.7611 -0.5214
 3011SOL    HW220496   0.769   2.828   3.851 -0.7262  1.8268  0.2691
 3012SOL     OW20497   1.110   4.262   2.437  0.0257  0.5652  0.3318
 3012SOL    HW120498   1.203   4.258   2.414  0.0081  2.5852 -0.1600
 3012SOL    HW220499   1.107   4.213   2.519  0.4083  1.2071  0.7286
 3013SOL     OW20500   2.181   1.860   0.808 -0.1037 -0.2715  0.2469
 3013SOL    HW120501   2.125   1.922   0.855 -0.9050 -0.4417 -0.4697
 3013SOL    HW220502   2.110   1.809   0.769 -0.2233  1.3266 -1.6115
 3014SOL     OW20503   3.413   4.674   7.918 -0.3166 -0.8814  0.0310
 3014SOL    HW120504   3.382   4.617   7.989  2.0347 -2.8432 -0.5232
 3014SOL    HW220505   3.355   4.652   7.846 -0.8289 -0.6998  0.3873
 3015SOL     OW20506   4.320   3.550   7.186 -0.2439  0.4864 -0.7175
 3015SOL    HW120507   4.249   3.614   7.178  1.1479  2.0007 -0.9073
 3015SOL    HW220508   4.399   3.600   7.167  1.6651 -1.2889  2.4047
 3016SOL     OW20509   4.093   1.278   2.169  0.8337 -0.5467 -0.3456
 3016SOL    HW120510   4.139   1.339   2.112 -0.5201  0.4316 -0.3690
 3016SOL    HW220511   4.077   1.322   2.253 -3.0990 -0.3579 -1.1873
 3017SOL     OW20512   4.249   3.256  10.777 -0.2797 -0.0543  0.2115
 3017SOL    HW120513   4.164   3.286  10.808 -0.7396 -1.3199  0.1867
 3017SOL    HW220514   4.303   3.335  10.778  0.1332 -0.3494  2.4298
 3018SOL     OW20515   0.669   3.263   9.210 -0.1270 -0.0571 -0.0208
 3018SOL    HW120516   0.583   3.288   9.243  0.4812  0.3360  1.2305
 3018SOL    HW220517   0.715   3.246   9.292 -0.3232  2.1127  0.5414
 3019SOL     OW20518   1.507   3.148  10.774  0.2608  0.4943  0.2220
 3019SOL    HW120519   1.571   3.087  10.739  1.7785  1.9124  0.4890
 3019SOL    HW220520   1.482   3.186  10.690  0.3405 -2.2529 -1.0371
 3020SOL     OW20521   1.781   0.199   2.639 -0.1456  0.0265 -0.1359
 3020SOL    HW120522   1.792   0.269   2.575  2.1801 -0.7513 -0.5827
 3020SOL    HW220523   1.685   0.191   2.641 -0.1925  0.6187 -0.1427
 3021SOL     OW20524   1.811   4.274   7.090 -0.3522 -0.6596 -0.1813
 3021SOL    HW120525   1.794   4.186   7.124  2.1478 -1.3625 -0.7017
 3021SOL    HW220526   1.812   4.322   7.172  1.6206  1.3843 -1.4100
 3022SOL     OW20527   0.623   1.958   5.195 -0.3244 -0.7039 -0.3597
 3022SOL    HW120528   0.568   1.918   5.128  0.5473 -1.1552 -0.8059
 3022SOL    HW220529   0.583   2.044   5.208  0.8588 -0.1322 -0.5378
 3023SOL     OW20530   2.222   4.108   3.875 -0.0569 -0.3259  0.5711
 3023SOL    HW120531   2.194   4.108   3.783 -0.1149  3.7265  0.6103
 3023SOL    HW220532   2.214   4.201   3.897 -0.1993 -0.2652  0.2607
 3024SOL     OW20533   1.594   4.593   7.104 -0.4867 -0.1747 -0.5412
 3024SOL    HW120534   1.525   4.588   7.037 -1.2498 -0.2107  0.2503
 3024SOL    HW220535   1.631   4.680   7.088  0.5377 -0.6219 -0.5775
 3025SOL     OW20536   4.109   0.403   6.303 -0.7153  0.5725  0.6301
 3025SOL    HW120537   4.027   0.421   6.258 -0.1870 -1.3385 -1.0794
 3025SOL    HW220538   4.156   0.482   6.275 -0.6276  0.1886 -0.3160
 3026SOL     OW20539   3.022   1.913   4.817  0.4077 -0.2692  0.1721
 3026SOL    HW120540   2.979   1.929   4.901 -0.3226  2.4891 -0.7317
 3026SOL    HW220541   2.968   1.973   4.766  2.4119  0.2380 -1.3644
 3027SOL     OW20542   3.178   2.362   8.451 -0.6435 -0.4548 -0.1313
 3027SOL    HW120543   3.099   2.307   8.447 -1.0178 -0.2382  4.4756
 3027SOL    HW220544   3.199   2.386   8.361 -1.8144 -0.3464 -0.3807
 3028SOL     OW20545   1.963   1.778  11.662 -0.0048 -0.3627  0.1176
 3028SOL    HW120546   1.960   1.683  11.675  0.4028 -0.8300 -3.1847
 3028SOL    HW220547   1.997   1.810  11.746  0.3525 -0.6398  0.0759
 3029SOL     OW20548   0.115   0.610   0.079 -0.3029 -0.4579 -0.4847
 3029SOL    HW120549   0.188   0.615   0.141 -0.7420  1.7455 -0.1455
 3029SOL    HW220550   0.045   0.609   0.145 -1.0740 -2.7035 -1.3446
 3030SOL     OW20551   3.546   2.189   2.585 -0.3805  0.0781  0.5281
 3030SOL    HW120552   3.605   2.227   2.520  1.1870 -2.0326  0.7122
 3030SOL    HW220553   3.462   2.191   2.539 -0.8787  2.1901  1.5083
 3031SOL     OW20554   1.111   0.492   0.890  0.1312 -0.2072  0.2823
 3031SOL    HW120555   1.124   0.462   0.980 -1.2089  1.8600  1.1558
 3031SOL    HW220556   1.053   0.420   0.863  0.4541 -0.2654 -0.2647
 3032SOL     OW20557   4.489   2.881   8.983  0.3518 -0.2676 -0.3500
 3032SOL    HW120558   4.403   2.849   8.956 -0.7366  0.0011  2.8697
 3032SOL    HW220559   4.532   2.883   8.898 -0.7998 -0.8647 -0.9466
 3033SOL     OW20560   3.192   1.107   4.994 -0.2025 -0.8667 -0.1065
 3033SOL    HW120561   3.170   1.157   5.072  0.0611 -2.3387  0.9073
 3033SOL    HW220562   3.264   1.162   4.961  0.9906 -2.0054  0.5999
 3034SOL     OW20563   1.433   1.750   6.359  0.1911  0.2378  0.4305
 3034SOL    HW120564   1.503   1.803   6.397 -1.4644  1.2316  2.1238
 3034SOL    HW220565   1.466   1.735   6.270 -0.2798  2.2920 -0.0953
 3035SOL     OW20566   0.881   1.884   9.432 -0.6647 -0.7089  0.0961
 3035SOL    HW120567   0.804   1.836   9.401  0.1147 -1.2372 -1.0109
 3035SOL    HW220568   0.944   1.880   9.361  1.8599  0.7772  2.2742
 3036SOL     OW20569   0.832   4.105   2.983  0.7111  0.2576  0.0026
 3036SOL    HW120570   0.765   4.086   3.048 -1.0322  1.8031 -1.3625
 3036SOL    HW220571   0.777   4.145   2.916  0.1850 -0.8701 -0.2330
 3037SOL     OW20572   2.948   3.759   1.795  0.7819  0.1060  0.3449
 3037SOL    HW120573   3.021   3.821   1.797  1.5704 -0.7797 -1.4900
 3037SOL    HW220574   2.922   3.753   1.887 -0.7667  1.0331 -0.0187
 3038SOL     OW20575   1.609   1.526   5.470  0.4988 -0.2554 -0.1893
 3038SOL    HW120576   1.582   1.618   5.476  4.1967  0.8059 -0.0200
 3038SOL    HW220577   1.622   1.507   5.563 -0.6783  0.9795  0.2289
 3039SOL     OW20578   2.295   3.164   4.722 -0.4247  0.0733 -0.0593
 3039SOL    HW120579   2.365   3.227   4.706  1.0420 -1.4685  0.1894
 3039SOL    HW220580   2.254   3.200   4.801 -2.0371 -0.2153 -0.7734
 3040SOL     OW20581   0.216   2.838  11.268  0.0393  0.0402  0.4233
 3040SOL    HW120582   0.293   2.846  11.325  0.9951  1.8687 -1.1773
 3040SOL    HW220583   0.168   2.909  11.311 -0.1067  0.1660  0.0543
 3041SOL     OW20584   3.303   0.221   0.674  0.7446  0.6492 -0.4711
 3041SOL    HW120585   3.277   0.294   0.618  1.2613  0.9511 -0.3224
 3041SOL    HW220586   3.371   0.267   0.724 -0.4891  1.9536  0.0068
 3042SOL     OW20587   1.017   2.057   8.981 -0.5573  0.1078  0.3295
 3042SOL    HW120588   1.049   2.144   9.007  0.9820  0.5003 -2.8496
 3042SOL    HW220589   1.031   2.013   9.065  0.9900  0.2487  0.1416
 3043SOL     OW20590   4.419   0.648   6.015 -0.2701 -0.1495  0.2060
 3043SOL    HW120591   4.350   0.713   6.018 -0.8514 -0.7147 -0.9009
 3043SOL    HW220592   4.495   0.704   5.998  1.4832 -2.3329  0.7199
 3044SOL     OW20593   2.833   1.909  17.608  0.0153 -0.3686  0.3728
 3044SOL    HW120594   2.877   1.852  17.545 -0.0015 -0.9277  0.8613
 3044SOL    HW220595   2.899   1.940  17.671 -0.9117  2.7929 -0.2067
 3045SOL     OW20596   1.370   3.812   6.345  0.2154 -0.3197  0.2001
 3045SOL    HW120597   1.426   3.738   6.319  0.0204 -0.6033  0.5860
 3045SOL    HW220598   1.434   3.841   6.409 -0.4101 -1.4242  1.3328
 3046SOL     OW20599   2.555   0.438   8.700 -0.1178 -0.2720 -0.5352
 3046SOL    HW120600   2.506   0.440   8.781 -0.5161  0.8847 -0.7993
 3046SOL    HW220601   2.643   0.441   8.739  0.5018 -0.4893 -1.8834
 3047SOL     OW20602   0.025   4.219  10.764  0.3973  0.1823 -0.0033
 3047SOL    HW120603   4.694   4.169  10.704 -3.7541  2.3442  1.9289
 3047SOL    HW220604   0.009   4.304  10.721  0.4145 -0.1477 -0.6591
 3048SOL     OW20605   0.519   1.308  17.173 -0.6651 -0.0913 -0.2951
 3048SOL    HW120606   0.430   1.343  17.166 -1.1249 -1.3193 -0.5571
 3048SOL    HW220607   0.562   1.366  17.236  0.5075 -2.4625  1.0780
 3049SOL     OW20608   2.500   0.549   5.766 -0.1255 -0.4686 -0.9368
 3049SOL    HW120609   2.593   0.530   5.757  0.2150  1.4985 -1.5377
 3049SOL    HW220610   2.484   0.640   5.740 -1.4363  0.0835  1.7591
 3050SOL     OW20611   3.598   0.887   1.032 -0.1368 -0.0849 -0.3656
 3050SOL    HW120612   3.542   0.884   1.109  1.3413 -0.5206  0.7021
 3050SOL    HW220613   3.666   0.950   1.055 -0.0096 -1.2869  2.5401
 3051SOL     OW20614   1.864   2.872   5.123  0.2155  0.6985 -0.0908
 3051SOL    HW120615   1.852   2.937   5.054 -0.9732  0.2319 -0.3291
 3051SOL    HW220616   1.771   2.858   5.141  0.5279 -0.0134  0.9426
 3052SOL     OW20617   0.485   0.282   9.390 -0.3734  0.8071  0.6226
 3052SOL    HW120618   0.574   0.309   9.367  0.0458 -0.0312  1.2756
 3052SOL    HW220619   0.497   0.264   9.483 -1.8142 -1.1613  0.4072
 3053SOL     OW20620   2.677   0.057  15.552  0.5721 -0.3535 -0.2973
 3053SOL    HW120621   2.644   4.707  15.603 -1.9890 -0.1287 -1.6083
 3053SOL    HW220622   2.735   0.010  15.492  0.4341 -0.5626 -0.2675
 3054SOL     OW20623   0.804   1.894   3.053 -0.0563 -0.4058  0.1224
 3054SOL    HW120624   0.754   1.816   3.029  0.8779 -0.4948 -1.5631
 3054SOL    HW220625   0.758   1.938   3.124  0.7673 -0.5046  0.7195
 3055SOL     OW20626   0.457   3.980   7.859 -0.5425  0.5211 -0.7657
 3055SOL    HW120627   0.531   4.017   7.907 -1.7889 -0.9915  2.3408
 3055SOL    HW220628   0.419   3.915   7.918  1.0692  1.2526  1.0733
 3056SOL     OW20629   0.750   1.219   8.197 -0.1606  0.0419 -0.0843
 3056SOL    HW120630   0.689   1.209   8.271 -0.6609 -0.6495 -0.5881
 3056SOL    HW220631   0.780   1.129   8.185 -0.6815 -0.4536  2.4041
 3057SOL     OW20632   3.190   0.651   2.582 -0.7239 -0.2559 -0.2355
 3057SOL    HW120633   3.211   0.632   2.673  0.9255 -0.6529 -0.6938
 3057SOL    HW220634   3.098   0.627   2.582 -1.0599  1.0085  0.1712
 3058SOL     OW20635   2.995   0.301   7.957  0.1421 -0.5140  0.2594
 3058SOL    HW120636   3.082   0.261   7.966  2.3495  4.0152 -0.9675
 3058SOL    HW220637   2.987   0.358   8.033 -0.6977  2.0277 -1.7301
 3059SOL     OW20638   3.985   1.357   0.069  0.1330  0.0518  0.0502
 3059SOL    HW120639   3.908   1.404   0.102 -0.0105 -0.7813  0.9031
 3059SOL    HW220640   3.992   1.401  17.682 -0.6938 -0.8062 -0.4540
 3060SOL     OW20641   1.412   2.722  17.205  0.1131  0.0765 -0.4845
 3060SOL    HW120642   1.496   2.686  17.233 -0.5200 -2.9864 -2.4555
 3060SOL    HW220643   1.422   2.731  17.110  0.3705 -0.2822 -0.4917
 3061SOL     OW20644   0.994   3.357  10.005 -0.0852  0.7073  0.5012
 3061SOL    HW120645   0.992   3.298   9.930 -1.1366 -0.8724  1.7495
 3061SOL    HW220646   0.994   3.438   9.955  1.4353  0.1220 -0.4475
 3062SOL     OW20647   1.397   3.551  13.355  0.3733 -0.2685 -0.4208
 3062SOL    HW120648   1.341   3.615  13.400  2.6636  1.9404 -0.6909
 3062SOL    HW220649   1.472   3.560  13.414  0.8511 -0.5535 -0.9941
 3063SOL     OW20650   2.761   2.162   4.415  0.2174 -0.0400 -0.1319
 3063SOL    HW120651   2.776   2.240   4.361  2.6377  0.3497  1.1217
 3063SOL    HW220652   2.756   2.097   4.344 -0.4092  1.4744 -1.4652
 3064SOL     OW20653   0.524   4.437   7.019 -0.0304  0.5719  0.0326
 3064SOL    HW120654   0.520   4.530   6.999 -1.6863  0.7861  1.3843
 3064SOL    HW220655   0.443   4.395   6.990 -0.6982  2.0707 -0.2502
 3065SOL     OW20656   2.305   1.251   1.786 -0.3512  0.1216  0.1546
 3065SOL    HW120657   2.379   1.300   1.750  0.0402  0.7228  1.7708
 3065SOL    HW220658   2.291   1.283   1.876  1.0331  0.6584  0.1895
 3066SOL     OW20659   3.112   3.313  16.738  0.5226 -0.2431 -0.4004
 3066SOL    HW120660   3.192   3.349  16.700  0.5048 -0.6593 -0.8269
 3066SOL    HW220661   3.135   3.221  16.732 -2.1243 -0.9197 -0.0263
 3067SOL     OW20662   0.971   1.141   6.809  0.1043  0.4928 -0.0737
 3067SOL    HW120663   0.882   1.168   6.831  0.3619  0.4437  1.0502
 3067SOL    HW220664   1.024   1.146   6.889 -2.8427  0.2592  1.9136
 3068SOL     OW20665   1.797   4.121  11.554 -0.0461 -0.7290 -0.3469
 3068SOL    HW120666   1.757   4.037  11.533 -0.6552 -0.6615  0.5402
 3068SOL    HW220667   1.824   4.115  11.646  0.0138  0.1362 -0.3124
 3069SOL     OW20668   0.495   1.212   8.328 -0.4964 -0.0542  0.4600
 3069SOL    HW120669   0.414   1.254   8.296 -0.1624  0.1524 -0.1258
 3069SOL    HW220670   0.468   1.121   8.317  0.5725 -0.2047 -0.8595
 3070SOL     OW20671   1.379   2.940   7.673  0.1205 -0.2320  0.1638
 3070SOL    HW120672   1.446   2.911   7.735  0.5355 -1.1720 -0.7206
 3070SOL    HW220673   1.389   3.035   7.677  2.3678 -0.4965  0.8177
 3071SOL     OW20674   0.253   2.566   6.073 -0.3028  0.0897  0.2549
 3071SOL    HW120675   0.306   2.529   6.003  0.8385  1.2005  0.5253
 3071SOL    HW220676   0.307   2.619   6.132 -0.3404  0.0751  0.3028
 3072SOL     OW20677   0.515   2.242   3.884  0.1609  0.0940 -0.8217
 3072SOL    HW120678   0.558   2.157   3.886 -0.5718 -0.2144  1.4513
 3072SOL    HW220679   0.424   2.215   3.870  0.2631 -0.4906 -0.3242
 3073SOL     OW20680   2.053   1.039   1.437  0.5169 -0.4375 -0.0862
 3073SOL    HW120681   2.049   1.026   1.342  1.7653 -0.3652 -0.1541
 3073SOL    HW220682   1.979   1.095   1.460  0.7317  0.6983 -2.1206
 3074SOL     OW20683   0.072   3.817   4.911  0.3846  0.1611  0.1283
 3074SOL    HW120684   0.010   3.822   4.839 -0.6753  2.4688  1.1836
 3074SOL    HW220685   0.013   3.832   4.985 -1.1385  0.3684 -1.1218
 3075SOL     OW20686   4.517   0.379  11.950  0.0282 -0.0074 -0.4245
 3075SOL    HW120687   4.461   0.456  11.953 -0.3978 -0.3043 -0.6578
 3075SOL    HW220688   4.561   0.389  11.865 -1.7125 -2.2287 -1.5740
 3076SOL     OW20689   3.563   4.029   1.183 -0.0800 -0.0146 -0.3531
 3076SOL    HW120690   3.565   3.943   1.140 -0.5642 -0.3843  0.3526
 3076SOL    HW220691   3.519   4.077   1.113 -0.4106 -0.3245 -0.3591
 3077SOL     OW20692   2.644   4.119  15.326 -0.1233 -0.1545 -0.2464
 3077SOL    HW120693   2.663   4.029  15.352  3.4227  0.5121 -0.4775
 3077SOL    HW220694   2.555   4.118  15.291 -0.3634 -3.4216  0.4893
 3078SOL     OW20695   4.306   0.290   9.347 -0.4446  0.3665  0.1852
 3078SOL    HW120696   4.320   0.368   9.401 -3.3722  0.9457  0.0747
 3078SOL    HW220697   4.217   0.313   9.319 -0.4634  0.5771  0.4226
 3079SOL     OW20698   2.598   0.961   0.269  0.7024  0.2331  0.3183
 3079SOL    HW120699   2.558   0.883   0.308 -2.3422  1.4778 -0.3191
 3079SOL    HW220700   2.617   0.930   0.181  1.4276 -0.9615  0.9011
 3080SOL     OW20701   0.975   4.264   1.415 -0.1329  0.6610 -0.2046
 3080SOL    HW120702   0.932   4.266   1.329 -0.8218 -1.7478  0.1095
 3080SOL    HW220703   0.901   4.256   1.475 -0.9048  0.1323 -1.2289
 3081SOL     OW20704   1.266   1.746   8.546  0.2388 -0.3139  0.0148
 3081SOL    HW120705   1.211   1.818   8.576 -0.5639 -0.9034 -0.0378
 3081SOL    HW220706   1.203   1.676   8.565  1.3015 -1.0271  0.9910
 3082SOL     OW20707   3.222   3.961  10.741 -0.1192  0.3174  0.8700
 3082SOL    HW120708   3.266   3.925  10.818  0.0193 -1.0270  0.1736
 3082SOL    HW220709   3.223   4.054  10.765  0.1844  1.2528 -2.7838
 3083SOL     OW20710   4.489   3.879  13.312 -0.0063  0.5620 -0.1227
 3083SOL    HW120711   4.545   3.944  13.356  0.5884 -0.8687  1.2242
 3083SOL    HW220712   4.403   3.904  13.345  0.7849  0.6372  1.8983
 3084SOL     OW20713   0.852   3.043   5.831 -0.6741  0.1909  0.4533
 3084SOL    HW120714   0.903   3.077   5.905  0.2157  3.1814 -1.5557
 3084SOL    HW220715   0.896   3.079   5.754  0.6043 -2.0680  0.1307
 3085SOL     OW20716   4.660   2.651   3.079 -0.6431 -0.7274 -0.0749
 3085SOL    HW120717   4.699   2.688   3.000 -2.5684 -0.0696 -0.7147
 3085SOL    HW220718   4.571   2.682   3.068 -0.4789 -0.3093 -0.2065
 3086SOL     OW20719   1.778   3.330   3.568 -0.2368 -0.0070  0.1723
 3086SOL    HW120720   1.857   3.324   3.514 -0.4546  0.9998 -0.2703
 3086SOL    HW220721   1.786   3.254   3.625 -0.3376 -0.7645 -0.8154
 3087SOL     OW20722   2.788   4.413  16.309 -0.4250  0.4455  0.1284
 3087SOL    HW120723   2.807   4.321  16.295 -3.0544 -0.0779 -0.0529
 3087SOL    HW220724   2.723   4.418  16.239  0.4313 -1.8165 -0.8337
 3088SOL     OW20725   0.910   2.783   2.085 -0.5333 -0.1074  0.7891
 3088SOL    HW120726   0.861   2.824   2.013 -0.3561  0.4256  0.9766
 3088SOL    HW220727   0.914   2.851   2.152  0.1378 -0.5424  1.1919
 3089SOL     OW20728   1.651   2.079   7.116  0.0973  0.3425  0.0557
 3089SOL    HW120729   1.737   2.065   7.155 -0.0987  2.1706  1.1792
 3089SOL    HW220730   1.597   2.026   7.174  1.0140 -0.4761  0.1543
 3090SOL     OW20731   1.039   2.002  13.896  0.5352 -0.3605 -0.2428
 3090SOL    HW120732   0.986   1.924  13.914 -1.4993  0.5841 -2.1605
 3090SOL    HW220733   1.108   1.965  13.841 -2.5064 -1.0946 -3.5336
 3091SOL     OW20734   0.190   0.045   6.132  0.5411 -0.3701  0.3307
 3091SOL    HW120735   0.224   0.080   6.214  2.5260  0.9932 -1.0536
 3091SOL    HW220736   0.257   0.068   6.068  0.7343  1.6753  1.2880
 3092SOL     OW20737   2.359   0.111   5.047 -0.0554  0.3879 -0.3890
 3092SOL    HW120738   2.435   0.110   4.988 -0.2295 -1.1793 -0.6082
 3092SOL    HW220739   2.357   0.020   5.077  1.3381 -0.4632 -2.8463
 3093SOL     OW20740   0.680   3.917  10.931 -0.3674  0.0323  0.3532
 3093SOL    HW120741   0.675   4.010  10.950 -0.0821  0.0877  0.1572
 3093SOL    HW220742   0.652   3.895  10.842 -2.6725 -0.2228  1.1471
 3094SOL     OW20743   4.153   2.131  17.594  0.0601  0.6083  0.3090
 3094SOL    HW120744   4.178   2.064  17.531  0.1906  0.2139  0.7855
 3094SOL    HW220745   4.142   2.078  17.673  0.2656  0.3563  0.1633
 3095SOL     OW20746   1.283   3.469  13.121  0.4704  0.2400 -0.4151
 3095SOL    HW120747   1.365   3.455  13.072  0.2627  1.7479 -1.1987
 3095SOL    HW220748   1.312   3.514  13.200 -2.2494  0.5486  0.4061
 3096SOL     OW20749   3.267   3.771   7.713 -0.3382 -0.4478 -0.0790
 3096SOL    HW120750   3.205   3.818   7.657  1.3536  2.7646  0.7792
 3096SOL    HW220751   3.227   3.685   7.728  0.5089 -0.5895  1.3179
 3097SOL     OW20752   2.026   3.907   2.913  0.5554  0.2257  0.5357
 3097SOL    HW120753   2.080   3.984   2.931 -0.4938  1.3356 -0.9917
 3097SOL    HW220754   2.074   3.845   2.859  1.1067  2.1175 -1.1543
 3098SOL     OW20755   2.444   2.700  13.153 -0.1415 -0.1186  0.1905
 3098SOL    HW120756   2.478   2.617  13.122  1.4453  0.1011  1.3167
 3098SOL    HW220757   2.516   2.739  13.203 -0.9612  2.8916 -0.9641
 3099SOL     OW20758   1.998   1.646   5.071  0.0022 -0.1735  0.6305
 3099SOL    HW120759   1.930   1.600   5.120  0.3540 -0.1276  1.1664
 3099SOL    HW220760   2.021   1.586   5.000 -1.1814 -1.9470  1.7559
 3100SOL     OW20761   4.058   0.419   5.105 -0.7261 -0.5031 -0.0576
 3100SOL    HW120762   4.053   0.397   5.012  1.4810  0.8453 -0.4829
 3100SOL    HW220763   4.137   0.367   5.118 -0.8874  0.2185  3.8294
 3101SOL     OW20764   1.802   1.849   9.519  0.2398  0.0692  0.3755
 3101SOL    HW120765   1.769   1.800   9.443  1.9543  0.8265 -0.8459
 3101SOL    HW220766   1.794   1.776   9.581 -1.1377  1.8961  2.3498
 3102SOL     OW20767   1.068   4.711  13.135 -0.4199 -0.6859 -0.0588
 3102SOL    HW120768   1.111   0.060  13.179  1.5706 -2.2477  0.5747
 3102SOL    HW220769   1.142   4.655  13.112  0.6376  0.5942  0.2790
 3103SOL     OW20770   4.689   2.219   3.063 -0.1110  0.1635  0.1192
 3103SOL    HW120771   4.600   2.211   3.030 -0.4922  0.4064  1.0897
 3103SOL    HW220772   4.698   2.304   3.106 -0.3556  0.8692 -1.2201
 3104SOL     OW20773   2.357   3.443   2.410 -0.2699  0.4672 -0.1298
 3104SOL    HW120774   2.365   3.531   2.448 -0.5712  1.1285 -1.6318
 3104SOL    HW220775   2.350   3.466   2.318  0.2203 -1.7342 -0.7234
 3105SOL     OW20776   2.153   0.952   0.069  0.7052 -0.4557 -0.0328
 3105SOL    HW120777   2.226   1.013   0.084  1.2138 -0.5818 -2.0738
 3105SOL    HW220778   2.082   1.013   0.087  0.3712 -0.9219  0.2369
 3106SOL     OW20779   2.841   1.446   7.803  1.3478 -0.1078  0.5741
 3106SOL    HW120780   2.902   1.520   7.801  0.7715  0.3765  0.7349
 3106SOL    HW220781   2.819   1.449   7.710  0.4743 -1.4501  0.7389
 3107SOL     OW20782   0.326   0.549   3.001 -0.4481  0.2389  0.1899
 3107SOL    HW120783   0.298   0.491   3.071 -3.4310  1.0329 -0.3548
 3107SOL    HW220784   0.237   0.579   2.985  0.2363  0.9154 -2.3427
 3108SOL     OW20785   1.206   0.539   6.095 -0.2635  0.0921  0.3068
 3108SOL    HW120786   1.177   0.450   6.080 -1.4866  0.3424  1.2161
 3108SOL    HW220787   1.136   0.585   6.142 -0.0960  1.1350 -0.4736
 3109SOL     OW20788   2.523   1.294   4.097  0.2563 -0.8175  0.3799
 3109SOL    HW120789   2.482   1.220   4.052 -1.1487  0.3782 -0.2644
 3109SOL    HW220790   2.527   1.334   4.011  1.4826 -1.9771 -0.1003
 3110SOL     OW20791   3.734   4.204   0.758 -0.1628 -0.5056 -0.4335
 3110SOL    HW120792   3.666   4.264   0.791 -1.0362  0.6610 -4.2902
 3110SOL    HW220793   3.783   4.164   0.830  1.1209  2.1504  0.1689
 3111SOL     OW20794   0.943   2.272   4.545  0.0207 -0.7519  0.5203
 3111SOL    HW120795   0.897   2.257   4.462  1.3744 -0.0994 -0.3303
 3111SOL    HW220796   0.958   2.185   4.582  1.0608 -0.1607  1.4530
 3112SOL     OW20797   2.319   0.218   8.896  0.2988 -0.0070  0.0815
 3112SOL    HW120798   2.357   0.292   8.943 -0.8919  0.0994  0.8520
 3112SOL    HW220799   2.228   0.246   8.891 -0.6677 -3.1040  0.5013
 3113SOL     OW20800   3.514   1.888   6.336  0.6383 -0.1194 -0.1882
 3113SOL    HW120801   3.496   1.857   6.247 -1.8169 -1.5195  0.7998
 3113SOL    HW220802   3.561   1.967   6.308  0.0343  0.3032 -0.0093
 3114SOL     OW20803   0.222   1.626   2.612  0.1065 -0.6702  0.5446
 3114SOL    HW120804   0.189   1.709   2.645 -1.3189 -0.6659 -0.8507
 3114SOL    HW220805   0.138   1.586   2.589 -1.7420  2.2236  2.2909
 3115SOL     OW20806   0.397   2.702  15.670 -0.3091  0.3445  0.1695
 3115SOL    HW120807   0.449   2.625  15.692  0.6941  0.7724 -0.7237
 3115SOL    HW220808   0.441   2.767  15.725 -1.6770  0.2353  1.3946
 3116SOL     OW20809   1.115   0.977  10.835  0.0541  0.3229 -0.0260
 3116SOL    HW120810   1.080   1.030  10.763 -0.9116  0.4616  0.5433
 3116SOL    HW220811   1.185   0.934  10.786  0.3054 -0.6037  1.1340
 3117SOL     OW20812   2.965   0.619   6.292  0.8865 -0.0760  0.3307
 3117SOL    HW120813   3.009   0.654   6.368 -3.4328 -0.9708  3.2326
 3117SOL    HW220814   2.943   0.699   6.244  0.2934 -1.0073 -0.9821
 3118SOL     OW20815   3.143   1.401  16.177  0.0266 -0.2046 -0.5116
 3118SOL    HW120816   3.066   1.426  16.125 -0.7302 -3.7778 -1.0949
 3118SOL    HW220817   3.190   1.484  16.163 -0.5447  0.1718 -0.2100
 3119SOL     OW20818   1.848   2.019   4.119 -0.2381  0.6368  0.0654
 3119SOL    HW120819   1.806   2.076   4.055 -1.1445  2.2196  2.0769
 3119SOL    HW220820   1.787   2.028   4.193 -0.4085 -0.7188  0.1006
 3120SOL     OW20821   2.733   1.458   5.985 -0.1864  0.2619 -0.3218
 3120SOL    HW120822   2.809   1.491   5.936 -0.2079  0.5264 -0.1789
 3120SOL    HW220823   2.763   1.468   6.075  0.3639 -0.9735 -0.3678
 3121SOL     OW20824   4.688   0.150  16.505 -0.4523  0.4761  0.0505
 3121SOL    HW120825   0.009   0.072  16.471  0.4234  0.2306  1.7888
 3121SOL    HW220826   4.598   0.129  16.482 -0.0742 -0.9023 -0.1970
 3122SOL     OW20827   4.135   3.755  17.279  0.3097  0.5764  0.2372
 3122SOL    HW120828   4.120   3.700  17.356 -0.0316  1.3488  0.7307
 3122SOL    HW220829   4.051   3.802  17.279 -0.0870 -0.1344  0.9781
 3123SOL     OW20830   4.616   1.900   7.041  0.4091  0.0534  0.2163
 3123SOL    HW120831   4.552   1.934   7.103 -0.5403 -1.4422  0.0831
 3123SOL    HW220832   4.573   1.894   6.955 -0.6821 -0.2247  0.7783
 3124SOL     OW20833   1.273   4.336   6.047  0.2778 -0.5574 -0.4463
 3124SOL    HW120834   1.270   4.328   5.952  0.6348 -1.1682 -0.4057
 3124SOL    HW220835   1.219   4.261   6.072 -0.3262 -0.1323 -0.4729
 3125SOL     OW20836   3.940   1.442  14.619  0.0521  0.2646 -0.4570
 3125SOL    HW120837   3.884   1.367  14.596 -0.1710  1.3719 -3.5549
 3125SOL    HW220838   3.933   1.443  14.715 -0.7691  0.7626 -0.5198
 3126SOL     OW20839   1.502   3.400  12.961 -0.8440  0.6962  0.1850
 3126SOL    HW120840   1.509   3.421  12.868 -1.5828 -0.8278 -0.2201
 3126SOL    HW220841   1.566   3.461  12.996 -0.8104  1.5695 -1.4044
 3127SOL     OW20842   0.906   0.012   7.098 -0.0464 -0.0098  0.0302
 3127SOL    HW120843   0.957   0.028   7.018 -1.3357 -0.4559 -0.8874
 3127SOL    HW220844   0.892   4.641   7.091 -2.0315  0.2087  0.9982
 3128SOL     OW20845   4.166   3.982   7.229 -0.3170 -0.1888 -0.4348
 3128SOL    HW120846   4.151   4.003   7.137  0.2467  0.2298 -0.4324
 3128SOL    HW220847   4.260   3.998   7.235 -0.5430  0.4627  1.5906
 3129SOL     OW20848   4.401   2.488  15.529 -0.6535  0.1946 -0.3566
 3129SOL    HW120849   4.368   2.575  15.549 -0.4053  0.7545 -2.4718
 3129SOL    HW220850   4.333   2.436  15.572 -0.3826 -0.6619 -0.9578
 3130SOL     OW20851   0.152   2.884   9.751 -0.2949  0.3543  0.1470
 3130SOL    HW120852   0.079   2.930   9.793 -1.0045  0.3785 -1.1152
 3130SOL    HW220853   0.225   2.943   9.771 -0.5327 -0.3166  2.9431
 3131SOL     OW20854   2.539   1.990  12.113  0.3368 -0.5145  0.0858
 3131SOL    HW120855   2.498   2.063  12.067  1.0123 -1.2087 -1.5940
 3131SOL    HW220856   2.494   1.922  12.064  2.3942  0.8063 -3.5803
 3132SOL     OW20857   3.729   1.293   2.924  0.3438  0.0308 -0.5689
 3132SOL    HW120858   3.680   1.294   2.842 -1.2399  3.2101  0.4405
 3132SOL    HW220859   3.803   1.235   2.904 -0.4177 -1.8022  1.9012
 3133SOL     OW20860   0.259   4.286  13.176 -0.0805 -0.5105 -0.4715
 3133SOL    HW120861   0.273   4.199  13.214 -1.8372 -0.1062  1.1111
 3133SOL    HW220862   0.207   4.318  13.250 -0.6329 -0.5489 -0.8488
 3134SOL     OW20863   0.964   3.791   7.191  0.5466  0.1415  0.2686
 3134SOL    HW120864   0.966   3.798   7.286 -0.3115 -2.2074  0.4659
 3134SOL    HW220865   0.990   3.879   7.166 -1.5505  1.4169  2.5894
 3135SOL     OW20866   0.319   0.587  11.844  0.5278 -0.4372 -0.2814
 3135SOL    HW120867   0.316   0.518  11.910 -1.2837 -0.0941  0.0025
 3135SOL    HW220868   0.373   0.532  11.788 -0.2585 -0.3596 -1.1234
 3136SOL     OW20869   1.362   0.478   6.504 -0.1685  0.5215 -0.0497
 3136SOL    HW120870   1.314   0.494   6.585 -0.5705  3.2082 -0.8188
 3136SOL    HW220871   1.400   0.392   6.527 -0.7444  0.1948 -0.3238
 3137SOL     OW20872   4.195   2.859   4.263 -0.1711  0.4659  0.6906
 3137SOL    HW120873   4.144   2.828   4.339 -0.4487  1.9599  1.1158
 3137SOL    HW220874   4.126   2.899   4.210 -1.3980 -2.8323 -0.2164
 3138SOL     OW20875   1.755   2.798   2.875  0.2975 -0.0799 -0.1794
 3138SOL    HW120876   1.840   2.806   2.919  1.2616 -0.4701 -2.0132
 3138SOL    HW220877   1.721   2.719   2.918  1.7669 -1.0980 -0.9010
 3139SOL     OW20878   4.040   2.815   3.212  0.3725 -0.7441  0.2878
 3139SOL    HW120879   4.028   2.758   3.135 -1.1841 -1.6094  1.1678
 3139SOL    HW220880   3.952   2.797   3.246 -1.4635 -0.4195 -4.2070
 3140SOL     OW20881   2.031   4.330  13.337  0.1046 -0.4998 -0.6847
 3140SOL    HW120882   1.949   4.360  13.377 -0.3304 -0.1142 -1.8627
 3140SOL    HW220883   2.039   4.250  13.389  1.2946  0.2922  0.3384
 3141SOL     OW20884   0.405   3.210   4.910 -0.2691 -0.3192 -0.1036
 3141SOL    HW120885   0.473   3.256   4.862 -1.2210 -0.4880 -1.5979
 3141SOL    HW220886   0.376   3.139   4.852 -0.9853  1.4769 -1.9296
 3142SOL     OW20887   4.520   1.910   4.318 -0.5875 -0.3335  0.3421
 3142SOL    HW120888   4.471   1.977   4.271  0.5575  0.2099 -0.0660
 3142SOL    HW220889   4.447   1.848   4.315 -1.3958  0.6785 -0.8366
 3143SOL     OW20890   2.336   1.082   9.916 -0.6060  0.0413 -0.4344
 3143SOL    HW120891   2.401   1.059   9.850 -0.3406  2.5050 -0.9955
 3143SOL    HW220892   2.347   1.025   9.993 -0.6174 -0.5997 -0.9016
 3144SOL     OW20893   4.649   1.788   3.272 -0.0730 -0.0188  0.0633
 3144SOL    HW120894   4.678   1.804   3.362 -0.0938 -0.7326  0.1967
 3144SOL    HW220895   4.702   1.852   3.224 -1.4759 -0.2216 -1.7377
 3145SOL     OW20896   4.246   2.168   7.100 -0.2198 -0.3138  0.0183
 3145SOL    HW120897   4.274   2.226   7.171  0.0030 -1.0223  0.5209
 3145SOL    HW220898   4.307   2.094   7.110 -0.1550 -0.4847 -1.6697
 3146SOL     OW20899   2.485   2.523   2.660 -0.0786  0.3727  0.4087
 3146SOL    HW120900   2.498   2.567   2.743  0.7004  3.0994 -1.1765
 3146SOL    HW220901   2.527   2.580   2.595 -0.7700  1.1818  0.6741
 3147SOL     OW20902   4.632   4.252  11.192 -0.1985 -0.5557  0.3869
 3147SOL    HW120903   4.617   4.183  11.127 -0.2986  1.0960 -1.3397
 3147SOL    HW220904   4.548   4.266  11.234  0.1339  0.1584  0.8088
 3148SOL     OW20905   0.433   1.844  13.683 -0.2783 -0.2781  0.1727
 3148SOL    HW120906   0.460   1.797  13.604  0.5253  0.4177  0.0356
 3148SOL    HW220907   0.483   1.788  13.743  0.8982  2.4757  1.7336
 3149SOL     OW20908   2.834   0.835   0.797 -0.6182 -0.2764  0.1340
 3149SOL    HW120909   2.880   0.903   0.748 -0.4099 -0.2401  0.3776
 3149SOL    HW220910   2.757   0.883   0.828 -1.3629 -0.5566 -1.2917
 3150SOL     OW20911   2.622   1.223  12.623 -0.2496 -0.8378 -0.3044
 3150SOL    HW120912   2.692   1.229  12.688 -0.5152  0.1515 -0.1097
 3150SOL    HW220913   2.545   1.193  12.670  0.2234 -0.3745  0.7546
 3151SOL     OW20914   2.320   1.397   9.147  0.6177 -0.0145  0.1173
 3151SOL    HW120915   2.338   1.489   9.131 -1.7421  0.5500  0.7365
 3151SOL    HW220916   2.331   1.392   9.242  0.4303  0.2606  0.1526
 3152SOL     OW20917   3.627   2.014   9.402 -0.2829  0.2840  0.4205
 3152SOL    HW120918   3.546   1.999   9.450 -2.1475 -0.2564 -2.9235
 3152SOL    HW220919   3.590   2.090   9.358  0.6709  0.5184  0.0077
 3153SOL     OW20920   0.607   0.340   9.726  0.4785 -0.1820  0.0041
 3153SOL    HW120921   0.597   0.435   9.727  0.6426 -0.1865  3.2512
 3153SOL    HW220922   0.687   0.333   9.778  0.7120  0.8574 -0.2228
 3154SOL     OW20923   4.430   1.650   3.371 -0.5192  0.2969  0.0068
 3154SOL    HW120924   4.487   1.718   3.335 -0.0957 -0.0565  0.0063
 3154SOL    HW220925   4.471   1.575   3.327 -0.1396  1.3882 -1.4841
 3155SOL     OW20926   0.506   2.525   5.136 -0.1794  0.2725  0.4777
 3155SOL    HW120927   0.458   2.557   5.213 -2.9911  0.2159 -1.2254
 3155SOL    HW220928   0.594   2.562   5.143  0.5047 -0.6679 -3.2483
 3156SOL     OW20929   2.675   4.055  13.407  0.6435  0.0532 -0.1550
 3156SOL    HW120930   2.695   4.118  13.338  0.6647 -0.9269 -1.0438
 3156SOL    HW220931   2.590   4.088  13.436  0.4585  0.0831 -0.7250
 3157SOL     OW20932   2.129   2.656  16.749 -0.5750  0.6943 -0.3600
 3157SOL    HW120933   2.157   2.575  16.792  1.8541  3.5126  3.3704
 3157SOL    HW220934   2.095   2.704  16.824 -0.3982  0.7124 -0.2926
 3158SOL     OW20935   1.798   2.033   5.479 -0.0194  0.4068  0.4704
 3158SOL    HW120936   1.827   2.122   5.497  0.3529  0.3811 -0.0160
 3158SOL    HW220937   1.707   2.048   5.506 -0.4535  1.7398 -1.7656
 3159SOL     OW20938   3.096   3.563   0.315 -0.4358  0.4260  0.1619
 3159SOL    HW120939   3.024   3.500   0.306  1.2776 -1.6587  1.0763
 3159SOL    HW220940   3.065   3.640   0.267  0.0921 -0.4551 -1.5942
 3160SOL     OW20941   2.298   1.560   7.575  0.5971  0.1429  0.0185
 3160SOL    HW120942   2.255   1.631   7.529 -2.0915 -0.5371  1.4285
 3160SOL    HW220943   2.295   1.572   7.670 -1.1846 -0.4468  0.0459
 3161SOL     OW20944   4.106   0.238  12.224  0.2301  0.1715 -0.1547
 3161SOL    HW120945   4.052   0.202  12.294  1.5070 -2.4167 -0.4614
 3161SOL    HW220946   4.085   0.175  12.155  0.0233 -1.4518  1.3714
 3162SOL     OW20947   0.432   2.269   0.363  0.5017  0.1332 -0.2303
 3162SOL    HW120948   0.366   2.240   0.426  1.8080 -1.3516  0.4829
 3162SOL    HW220949   0.374   2.289   0.290 -0.2067 -1.1086 -0.0107
 3163SOL     OW20950   3.589   2.436   6.750  0.1469  0.0551 -0.4715
 3163SOL    HW120951   3.622   2.469   6.834 -0.2741 -1.5996  0.3412
 3163SOL    HW220952   3.660   2.478   6.701  0.3099 -1.8435 -1.8539
 3164SOL     OW20953   2.523   2.173   9.019 -0.1533  0.0803  0.4847
 3164SOL    HW120954   2.583   2.164   8.945  1.4300  0.5321  1.7258
 3164SOL    HW220955   2.439   2.141   8.987  0.2879 -2.2601  1.6630
 3165SOL     OW20956   1.415   1.306   5.113  0.0281  0.3086 -0.1379
 3165SOL    HW120957   1.375   1.309   5.200  0.9580 -2.7976  0.3703
 3165SOL    HW220958   1.348   1.342   5.055 -2.0798 -1.8616  0.9830
 3166SOL     OW20959   3.808   3.387  16.010  0.1328 -0.0756  0.4450
 3166SOL    HW120960   3.817   3.356  16.100  1.3627 -0.4751  0.1869
 3166SOL    HW220961   3.792   3.481  16.021  0.1236  0.0051 -0.2277
 3167SOL     OW20962   2.776   4.270  13.273  0.2258 -0.0252  0.2379
 3167SOL    HW120963   2.752   4.363  13.269  0.6266  0.0317 -0.8675
 3167SOL    HW220964   2.789   4.241  13.183  2.0435 -1.4483  0.9664
 3168SOL     OW20965   1.740   4.374   8.599  0.4542 -0.1703 -0.2122
 3168SOL    HW120966   1.777   4.367   8.687 -0.7101  0.2602  0.3098
 3168SOL    HW220967   1.800   4.438   8.562  1.2650 -0.8592 -0.0936
 3169SOL     OW20968   1.909   2.684   5.336 -0.5894  0.2557  0.1431
 3169SOL    HW120969   1.923   2.727   5.252 -0.6211 -0.4894 -0.2448
 3169SOL    HW220970   1.931   2.595   5.307  2.2851  1.1176 -0.3249
 3170SOL     OW20971   0.067   2.549   7.164  0.6811  0.4052 -0.0202
 3170SOL    HW120972   0.160   2.557   7.183  0.6455  0.6965  0.0251
 3170SOL    HW220973   0.058   2.612   7.093  3.2508 -0.7868 -1.4120
 3171SOL     OW20974   1.878   4.453   3.479  0.4938  0.1920 -0.5758
 3171SOL    HW120975   1.832   4.372   3.502  1.5379 -0.3991 -0.5758
 3171SOL    HW220976   1.963   4.408   3.476 -0.1446 -1.0424 -0.0867
 3172SOL     OW20977   3.242   1.180   8.031 -1.0689  0.1070  0.5433
 3172SOL    HW120978   3.150   1.207   8.033 -0.4314  2.2581  1.8958
 3172SOL    HW220979   3.227   1.096   8.074 -1.1601 -0.3386 -0.3739
 3173SOL     OW20980   1.617   2.033  13.835  0.1352 -0.3368 -0.1869
 3173SOL    HW120981   1.548   1.969  13.853 -0.4026  0.5021  0.7711
 3173SOL    HW220982   1.625   2.068  13.924  0.3282  0.8498 -0.6673
 3174SOL     OW20983   3.268   2.742   3.036 -0.5148 -0.3234 -0.0353
 3174SOL    HW120984   3.308   2.703   2.958 -0.4991 -1.8418  0.7227
 3174SOL    HW220985   3.194   2.794   3.004  0.3529  1.5718  1.0309
 3175SOL     OW20986   0.990   2.802   2.418  0.0501 -0.1891 -0.3864
 3175SOL    HW120987   0.976   2.717   2.377  1.7253 -1.3292  1.4150
 3175SOL    HW220988   0.913   2.856   2.402  0.7134  0.3653 -1.7423
 3176SOL     OW20989   1.712   0.360   6.514  0.1406 -0.1288 -0.4264
 3176SOL    HW120990   1.779   0.306   6.471  1.0355 -0.1624  1.0410
 3176SOL    HW220991   1.763   0.398   6.585 -1.0959  0.3306  0.2182
 3177SOL     OW20992   3.059   2.161  12.149 -0.0407  0.2353 -0.0043
 3177SOL    HW120993   3.070   2.139  12.241 -2.4021 -2.0194 -0.2829
 3177SOL    HW220994   2.965   2.160  12.133  0.0700  1.5290 -0.7733
 3178SOL     OW20995   1.209   3.072  11.473  0.1750  0.4349  0.7384
 3178SOL    HW120996   1.272   3.089  11.543 -0.8363 -0.8116  1.9396
 3178SOL    HW220997   1.170   3.159  11.473  0.5916  0.6327 -0.8000
 3179SOL     OW20998   3.095   3.357   1.169 -0.0419  0.1057 -0.2783
 3179SOL    HW120999   3.120   3.406   1.247  0.6082  0.3823 -0.6633
 3179SOL    HW221000   3.032   3.417   1.129 -0.2054 -0.5313 -0.9719
 3180SOL     OW21001   1.893   3.466   8.684 -0.4128 -0.0204 -0.1569
 3180SOL    HW121002   1.806   3.494   8.712  1.5494  3.9806  1.8752
 3180SOL    HW221003   1.949   3.473   8.761 -3.3183  0.0659  1.9757
 3181SOL     OW21004   3.623   1.055   6.319  0.0715 -0.1889 -0.2721
 3181SOL    HW121005   3.591   0.983   6.265 -0.1869 -0.0982 -0.2422
 3181SOL    HW221006   3.712   1.021   6.327 -0.1374 -0.6715  0.0377
 3182SOL     OW21007   4.610   4.333   6.549  0.4174  0.4236 -0.0902
 3182SOL    HW121008   4.636   4.330   6.457  0.6682  1.4507 -0.0602
 3182SOL    HW221009   4.540   4.399   6.548 -2.1724 -2.2919  1.6368
 3183SOL     OW21010   3.961   0.777   9.332  0.0037  0.3509  0.2714
 3183SOL    HW121011   3.955   0.707   9.267  0.7739  1.4914 -0.9963
 3183SOL    HW221012   3.953   0.732   9.416  0.5019 -2.9068 -1.4289
 3184SOL     OW21013   4.101   3.099   2.598 -0.2048 -0.0359 -0.0848
 3184SOL    HW121014   4.006   3.099   2.591 -0.3975  0.7612  2.6327
 3184SOL    HW221015   4.136   3.019   2.558 -1.8500 -0.2256 -1.1406
 3185SOL     OW21016   2.147   1.597   1.531 -0.1567  0.3316 -0.0222
 3185SOL    HW121017   2.053   1.615   1.519 -1.2074 -5.1004  0.2696
 3185SOL    HW221018   2.147   1.503   1.517  0.8778  0.5657 -1.6059
 3186SOL     OW21019   3.495   4.651   3.709  0.3368 -0.0941 -0.6504
 3186SOL    HW121020   3.577   4.675   3.753  0.0395  2.2386 -1.3740
 3186SOL    HW221021   3.471   4.577   3.764 -0.6808  1.2556  0.7079
 3187SOL     OW21022   0.317   0.102   4.315 -0.3582 -0.1608  0.1410
 3187SOL    HW121023   0.322   0.166   4.386 -0.4041  0.1158 -0.1055
 3187SOL    HW221024   0.341   0.157   4.240 -0.9981  0.8230  0.6675
 3188SOL     OW21025   4.312   0.081  16.964  0.1030  0.7083 -0.5907
 3188SOL    HW121026   4.321   0.060  17.057 -0.3017  2.8425 -0.0749
 3188SOL    HW221027   4.314   4.716  16.928  1.8613  1.5254 -2.5345
 3189SOL     OW21028   2.062   3.421   8.895 -0.3754 -0.0619 -0.3781
 3189SOL    HW121029   2.128   3.483   8.863 -0.7477  1.0962  1.1089
 3189SOL    HW221030   2.049   3.454   8.984  3.7738 -1.2719  0.6898
 3190SOL     OW21031   3.720   0.400   0.751 -0.1273  0.1914 -0.3203
 3190SOL    HW121032   3.799   0.435   0.792  1.4976 -0.2155 -3.1392
 3190SOL    HW221033   3.761   0.354   0.678  0.4310 -0.8820  0.6615
 3191SOL     OW21034   2.672   0.898   1.460  0.2416  0.6710 -0.1334
 3191SOL    HW121035   2.636   0.982   1.487  1.3433  0.2608  2.5576
 3191SOL    HW221036   2.652   0.841   1.534  0.7625  0.2866 -0.2809
 3192SOL     OW21037   4.065   3.178   7.505  0.4106 -0.1978  0.5235
 3192SOL    HW121038   4.029   3.247   7.560 -0.4748  0.7371 -1.2291
 3192SOL    HW221039   4.063   3.105   7.566 -0.7503 -2.1020 -1.8109
 3193SOL     OW21040   1.266   3.648  15.121  0.1531  0.4228 -0.6334
 3193SOL    HW121041   1.189   3.659  15.176  1.7902 -0.3070  1.8010
 3193SOL    HW221042   1.300   3.567  15.158 -3.0664 -0.8905 -0.5351
 3194SOL     OW21043   2.996   0.761   4.063 -0.1023  0.5025  0.0350
 3194SOL    HW121044   2.948   0.778   3.982 -0.5435 -1.7168 -0.1681
 3194SOL    HW221045   3.000   0.852   4.092  0.3892  0.1604  1.0690
 3195SOL     OW21046   3.661   4.591   0.241 -0.5483 -0.1193  0.5643
 3195SOL    HW121047   3.664   4.498   0.218  3.2862  0.3309 -0.8451
 3195SOL    HW221048   3.693   4.599   0.331  1.5190 -0.8463 -0.0992
 3196SOL     OW21049   0.865   2.642   2.627  0.4641 -0.0028  0.6145
 3196SOL    HW121050   0.885   2.678   2.540 -1.5023  0.2857  0.2927
 3196SOL    HW221051   0.888   2.717   2.682  0.4395  2.0036 -2.0981
 3197SOL     OW21052   3.869   0.020   7.035 -0.3774 -0.1801 -0.3708
 3197SOL    HW121053   3.832   0.085   7.095 -2.1908 -1.8823  0.3232
 3197SOL    HW221054   3.961   0.019   7.063 -0.2196  0.8807 -0.8525
 3198SOL     OW21055   4.609   3.939   2.334  0.0669 -0.7482  0.1148
 3198SOL    HW121056   4.599   3.988   2.253 -0.6936  1.4774  1.5431
 3198SOL    HW221057   4.695   3.973   2.358  0.1396 -0.2700 -0.8213
 3199SOL     OW21058   4.057   4.065   3.849 -0.0140  0.3169 -0.1504
 3199SOL    HW121059   4.088   4.023   3.929  0.3160 -0.4203 -0.6635
 3199SOL    HW221060   4.138   4.083   3.801 -0.7517 -0.4771 -1.6901
 3200SOL     OW21061   2.696   0.512  16.336  0.3253 -0.6941 -0.0663
 3200SOL    HW121062   2.740   0.585  16.380  2.6389 -2.1182 -0.0272
 3200SOL    HW221063   2.659   0.464  16.409 -1.3101  0.4706 -0.1379
 3201SOL     OW21064   3.570   4.602  13.198  0.4595 -0.4223 -0.7335
 3201SOL    HW121065   3.483   4.563  13.208  1.0113 -1.9546 -1.8849
 3201SOL    HW221066   3.612   4.529  13.152  1.6208  0.3610 -0.9311
 3202SOL     OW21067   4.528   1.722   6.346 -0.4386 -0.5856 -0.0584
 3202SOL    HW121068   4.600   1.745   6.404 -1.4882  1.6390  0.3726
 3202SOL    HW221069   4.518   1.800   6.292  0.2523 -0.1845  0.4055
 3203SOL     OW21070   2.280   0.485  14.033 -0.8953  0.3246  0.0336
 3203SOL    HW121071   2.263   0.532  13.952  2.4565  0.2474 -0.7146
 3203SOL    HW221072   2.293   0.561  14.091  0.3990  0.7799 -0.8736
 3204SOL     OW21073   4.236   2.038   4.890 -0.5074 -0.6596  0.3752
 3204SOL    HW121074   4.230   1.950   4.851 -3.1972  0.8723 -2.7157
 3204SOL    HW221075   4.213   2.092   4.814  1.1895  0.2191  0.4906
 3205SOL     OW21076   2.587   3.942   8.221 -1.2065  0.0896  0.2287
 3205SOL    HW121077   2.588   3.860   8.172  1.5789  0.0622  0.3583
 3205SOL    HW221078   2.655   3.932   8.287 -0.0596  0.6456 -0.8651
 3206SOL     OW21079   1.863   0.605   2.591  0.8128  0.2690 -0.6936
 3206SOL    HW121080   1.827   0.525   2.553 -1.9936  2.1262 -1.9311
 3206SOL    HW221081   1.815   0.619   2.672  0.0550  0.3389 -1.1583
 3207SOL     OW21082   0.605   3.322   2.504  0.6445 -0.5103  0.0212
 3207SOL    HW121083   0.601   3.232   2.474  3.3070 -0.4200 -0.5844
 3207SOL    HW221084   0.512   3.345   2.508  0.7550 -0.1387  0.4757
 3208SOL     OW21085   3.683   3.911  10.269 -0.1806  0.1703  0.6709
 3208SOL    HW121086   3.745   3.864  10.325  1.8489  1.6876 -0.3357
 3208SOL    HW221087   3.640   3.970  10.332 -1.4004  0.5305 -0.5088
 3209SOL     OW21088   0.152   0.940   9.049  0.3395  0.0956  0.3055
 3209SOL    HW121089   0.094   0.925   9.123 -1.9771  1.2484 -1.2755
 3209SOL    HW221090   0.233   0.955   9.098  2.0142  1.2531 -2.8014
 3210SOL     OW21091   4.600   2.317   0.985 -0.2617 -0.1953 -0.7894
 3210SOL    HW121092   4.514   2.323   0.943 -0.5599 -1.7536 -0.4241
 3210SOL    HW221093   4.602   2.222   0.999  0.2137 -0.0101  0.3673
 3211SOL     OW21094   4.678   0.417  10.548  0.1917  0.3827 -0.1751
 3211SOL    HW121095   4.678   0.336  10.496  1.3888  0.7914 -0.8134
 3211SOL    HW221096   4.592   0.457  10.537  0.8960  1.9102 -0.0491
 3212SOL     OW21097   4.528   0.889   6.267 -0.0159 -0.2984  0.3866
 3212SOL    HW121098   4.591   0.938   6.320 -0.5166 -0.0664  0.7686
 3212SOL    HW221099   4.543   0.913   6.176 -1.0607  0.5240  0.4306
 3213SOL     OW21100   0.072   1.431   8.739  0.5915  0.2190  0.2413
 3213SOL    HW121101   4.711   1.404   8.705  1.9372 -1.2824 -1.9869
 3213SOL    HW221102   0.110   1.348   8.768 -2.0970 -0.7077  1.0636
 3214SOL     OW21103   2.902   0.764   4.654 -0.0354 -0.5166  0.1700
 3214SOL    HW121104   2.954   0.844   4.663 -0.7630  0.3193 -3.0037
 3214SOL    HW221105   2.965   0.720   4.597 -0.9435 -0.9836 -0.4698
 3215SOL     OW21106   2.866   0.005   9.983  0.4480 -0.1739 -0.4943
 3215SOL    HW121107   2.810   0.009  10.061 -0.8646  1.4464 -1.5259
 3215SOL    HW221108   2.953   0.011  10.022  0.8734  1.8110 -1.7658
 3216SOL     OW21109   3.690   0.839   8.669 -0.2726 -0.5095 -0.1097
 3216SOL    HW121110   3.655   0.927   8.680  1.2102  0.1077 -0.3294
 3216SOL    HW221111   3.671   0.804   8.755 -1.2208 -1.9928 -0.9220
 3217SOL     OW21112   3.334   4.328   9.284 -0.1556  0.3161  0.2959
 3217SOL    HW121113   3.378   4.271   9.347  0.4265  1.6096  1.0517
 3217SOL    HW221114   3.380   4.408   9.306 -0.2080  1.0579 -2.1969
 3218SOL     OW21115   2.426   0.126   3.440  1.0965  0.3664  0.5960
 3218SOL    HW121116   2.509   0.120   3.394 -0.9526 -1.3759 -2.8803
 3218SOL    HW221117   2.385   0.045   3.410 -1.7670  2.4063 -1.0252
 3219SOL     OW21118   3.911   1.917   6.449 -0.3566 -0.5220  0.3402
 3219SOL    HW121119   3.959   1.986   6.495 -2.8575 -0.0974  2.2819
 3219SOL    HW221120   3.974   1.903   6.378  1.1610  0.8971  1.4159
 3220SOL     OW21121   0.361   2.655   7.211 -0.8457  0.2726 -0.4295
 3220SOL    HW121122   0.440   2.678   7.259 -0.2376  2.1919 -2.3146
 3220SOL    HW221123   0.389   2.652   7.120 -0.5540 -0.2179 -0.3219
 3221SOL     OW21124   1.992   3.744  13.259 -0.2002  0.5260  0.1536
 3221SOL    HW121125   1.945   3.736  13.343  1.4018  2.8070  1.2738
 3221SOL    HW221126   1.979   3.838  13.245  1.3944  0.7386  0.1195
 3222SOL     OW21127   1.703   0.637  16.518  0.0252  0.2574  0.0186
 3222SOL    HW121128   1.698   0.636  16.614  0.3312 -0.9545  0.0179
 3222SOL    HW221129   1.674   0.727  16.501 -0.5018 -0.1868 -1.3679
 3223SOL     OW21130   0.909   4.685   3.611 -0.7681 -0.5324 -0.0917
 3223SOL    HW121131   0.861   0.015   3.548  1.1628  1.1137 -0.1199
 3223SOL    HW221132   0.942   0.028   3.670  0.3971 -0.9940 -0.2291
 3224SOL     OW21133   3.613   4.036  11.994  0.5839 -0.7815 -0.4952
 3224SOL    HW121134   3.552   4.050  11.921 -0.9224 -0.7228  0.7684
 3224SOL    HW221135   3.684   4.091  11.964  2.0780 -1.0770  2.4952
 3225SOL     OW21136   4.409   3.777  12.903 -0.0759  0.1302 -0.9780
 3225SOL    HW121137   4.456   3.758  12.985 -0.6352  0.9661 -0.4698
 3225SOL    HW221138   4.469   3.829  12.849 -0.7014  4.5335  2.5862
 3226SOL     OW21139   3.352   3.286   4.070  0.0433 -1.0411  0.6056
 3226SOL    HW121140   3.441   3.315   4.089 -0.2771  0.0133  0.5031
 3226SOL    HW221141   3.353   3.260   3.978  0.2486  0.9336  0.0499
 3227SOL     OW21142   3.023   1.627   9.589  0.1862 -0.0521  0.2860
 3227SOL    HW121143   2.956   1.564   9.561 -1.2186  1.5454  0.0783
 3227SOL    HW221144   3.104   1.578   9.570  1.1609  1.0511  1.6451
 3228SOL     OW21145   0.946   0.717   9.492  0.0956 -0.0515  0.7100
 3228SOL    HW121146   0.905   0.803   9.486 -0.2552 -0.2802 -0.1095
 3228SOL    HW221147   1.002   0.726   9.570 -0.2284 -0.5235  0.9930
 3229SOL     OW21148   4.124   2.880   0.308 -0.0126  0.2107  0.2192
 3229SOL    HW121149   4.159   2.954   0.257  1.4464 -0.6308  0.0204
 3229SOL    HW221150   4.069   2.918   0.376  1.4393  2.4997  0.1237
 3230SOL     OW21151   3.708   4.353  13.055 -0.6465  0.6072  0.1368
 3230SOL    HW121152   3.770   4.370  12.985 -1.0255 -0.8690 -0.5578
 3230SOL    HW221153   3.755   4.285  13.102 -1.8205  0.1300  0.6224
 3231SOL     OW21154   3.811   2.792   2.732  0.2171 -0.2320  0.4587
 3231SOL    HW121155   3.772   2.763   2.814  0.3556  0.2800  0.7051
 3231SOL    HW221156   3.901   2.763   2.748  0.5810  0.2367 -0.7181
 3232SOL     OW21157   2.708   2.863   7.185  0.5611  0.0655 -0.0075
 3232SOL    HW121158   2.793   2.820   7.186 -0.1341 -1.4081 -3.2642
 3232SOL    HW221159   2.729   2.935   7.244 -1.9389  1.1909 -0.4610
 3233SOL     OW21160   4.646   0.691   0.274 -0.2413  0.2622 -0.6355
 3233SOL    HW121161   4.576   0.680   0.337  1.3571  1.4781  1.3574
 3233SOL    HW221162   4.664   0.785   0.272  1.5393 -0.0907 -1.8467
 3234SOL     OW21163   2.872   4.041   0.840  0.1365 -0.0481 -0.4545
 3234SOL    HW121164   2.899   4.007   0.926  0.4666 -1.4653 -1.1268
 3234SOL    HW221165   2.922   3.992   0.775  1.0101  1.5283 -0.9738
 3235SOL     OW21166   3.685   1.889   4.592 -0.0907 -0.0302 -0.1788
 3235SOL    HW121167   3.721   1.859   4.509 -0.8137 -0.9454 -0.1619
 3235SOL    HW221168   3.752   1.951   4.620 -0.3430 -0.3141  1.0223
 3236SOL     OW21169   3.695   2.072   2.213 -0.1242 -0.3132  0.0747
 3236SOL    HW121170   3.782   2.107   2.194  0.3009 -1.5271 -0.2358
 3236SOL    HW221171   3.632   2.133   2.173 -0.3948 -0.8111 -0.2550
 3237SOL     OW21172   4.601   0.463   6.136  0.8527 -0.2664 -0.4374
 3237SOL    HW121173   4.561   0.496   6.056 -0.1610  2.8009  1.3459
 3237SOL    HW221174   4.555   0.517   6.199  2.1524 -0.9316  1.0943
 3238SOL     OW21175   2.571   0.597  12.756  0.4777 -0.1841 -0.1305
 3238SOL    HW121176   2.580   0.555  12.842 -0.5265  0.9127  0.5214
 3238SOL    HW221177   2.581   0.520  12.700  0.0911  0.8238 -1.5619
 3239SOL     OW21178   1.109   3.962   6.781  0.4229  0.0836  0.2675
 3239SOL    HW121179   1.031   4.018   6.774 -0.1083 -1.0719 -2.8314
 3239SOL    HW221180   1.108   3.919   6.696 -0.1663  0.6439 -0.0102
 3240SOL     OW21181   3.799   2.020  13.591  0.7722  0.0769 -0.1694
 3240SOL    HW121182   3.710   2.013  13.558  1.6031 -2.9770 -1.7759
 3240SOL    HW221183   3.813   1.939  13.640  0.9778  0.7879  0.9477
 3241SOL     OW21184   1.891   3.635   4.764 -0.1065 -0.3093  0.6350
 3241SOL    HW121185   1.830   3.708   4.773  1.8889  1.4839 -0.2981
 3241SOL    HW221186   1.971   3.685   4.785  0.4398 -0.2854 -1.4945
 3242SOL     OW21187   0.900   1.002   1.140 -0.4000 -0.2612  0.2679
 3242SOL    HW121188   0.830   0.945   1.108 -1.2545  1.5415 -1.1039
 3242SOL    HW221189   0.898   1.081   1.085 -0.8021 -0.2678  0.2789
 3243SOL     OW21190   0.610   1.083   7.452  0.2688  0.3793  0.1655
 3243SOL    HW121191   0.647   1.138   7.383 -1.3442  1.5058  0.1773
 3243SOL    HW221192   0.516   1.081   7.431  0.3258 -2.8458  0.2372
 3244SOL     OW21193   0.409   4.014   3.429 -0.2357  0.3696  0.0358
 3244SOL    HW121194   0.317   4.019   3.454 -0.3980 -0.6014 -0.3467
 3244SOL    HW221195   0.419   3.919   3.422  1.1174  0.5620 -0.7364
 3245SOL     OW21196   2.516   2.592   2.925 -0.5385  0.1223  0.2870
 3245SOL    HW121197   2.474   2.540   2.993 -0.7133 -1.8961 -1.3312
 3245SOL    HW221198   2.518   2.671   2.978 -2.7298  1.3663 -1.4616
 3246SOL     OW21199   2.965   0.286   5.896 -0.7186  0.1367  0.0728
 3246SOL    HW121200   2.986   0.335   5.975  3.7631  1.6803 -2.0813
 3246SOL    HW221201   2.894   0.230   5.925  0.6005 -0.8589  1.3249
 3247SOL     OW21202   2.945   0.964   8.657 -0.4184 -0.0846 -0.5038
 3247SOL    HW121203   2.919   0.898   8.592 -0.9638 -2.2669  1.9370
 3247SOL    HW221204   2.965   1.037   8.599  2.0103  0.0120  0.4944
 3248SOL     OW21205   4.394   4.111   5.311 -0.1677 -0.2214  0.1325
 3248SOL    HW121206   4.435   4.161   5.240 -0.0900 -1.0128 -0.3717
 3248SOL    HW221207   4.307   4.152   5.312 -1.3613 -2.7172 -0.4218
 3249SOL     OW21208   1.760   3.242  14.242 -0.0399  0.0143  0.0048
 3249SOL    HW121209   1.673   3.204  14.250 -0.1503  0.3567  0.4765
 3249SOL    HW221210   1.738   3.331  14.214  0.6346  0.3338  0.4949
 3250SOL     OW21211   2.335   1.552   6.083  0.1359 -0.1588 -0.3137
 3250SOL    HW121212   2.367   1.495   6.153  0.4735 -0.5638 -0.7966
 3250SOL    HW221213   2.402   1.531   6.017 -0.3455 -0.1570 -0.7998
 3251SOL     OW21214   0.299   1.393   7.579  0.0247 -0.4422  0.5702
 3251SOL    HW121215   0.269   1.483   7.589  0.4165 -0.0444 -1.8581
 3251SOL    HW221216   0.278   1.367   7.489  0.8479  0.0103  0.2418
 3252SOL     OW21217   2.999   3.575   5.850 -0.1386 -0.0557 -0.1834
 3252SOL    HW121218   2.971   3.575   5.941 -0.1471  1.8919 -0.1706
 3252SOL    HW221219   2.996   3.668   5.827 -0.4183 -0.1710 -0.6201
 3253SOL     OW21220   2.184   2.558   3.392  0.6221 -0.3705  0.2226
 3253SOL    HW121221   2.227   2.501   3.455 -1.2267 -0.7010  1.1962
 3253SOL    HW221222   2.191   2.642   3.437 -0.0711 -1.0146  1.5205
 3254SOL     OW21223   0.655   0.429   7.325 -0.3724 -0.3146  0.2695
 3254SOL    HW121224   0.713   0.503   7.307  2.4099 -2.6008 -0.2215
 3254SOL    HW221225   0.682   0.364   7.259  0.9715 -0.3225  0.8215
 3255SOL     OW21226   1.469   4.475   8.794  0.3163 -0.1909 -0.1419
 3255SOL    HW121227   1.466   4.446   8.885  0.7665  1.9535  0.5370
 3255SOL    HW221228   1.421   4.409   8.743 -1.6283  0.6732  0.5630
 3256SOL     OW21229   3.757   2.539  14.890 -0.1216 -0.2435  0.4160
 3256SOL    HW121230   3.798   2.598  14.953 -1.9528  0.8065  0.6179
 3256SOL    HW221231   3.809   2.460  14.906  0.6084  0.3807  1.0830
 3257SOL     OW21232   3.046   2.385   0.646 -0.0940  0.2917 -0.5826
 3257SOL    HW121233   2.955   2.415   0.650  0.3935  1.6094  0.7183
 3257SOL    HW221234   3.054   2.358   0.737  2.0284 -0.8933 -1.1387
 3258SOL     OW21235   2.788   4.667   7.653 -0.2114 -0.5072  0.4962
 3258SOL    HW121236   2.763   4.578   7.629  1.4382 -0.7571 -0.2920
 3258SOL    HW221237   2.871   4.673   7.606 -0.2248  3.5892  0.9315
 3259SOL     OW21238   3.717   0.535   4.832  0.1121 -0.1103  0.1232
 3259SOL    HW121239   3.808   0.540   4.804 -0.1970  1.8232 -0.5990
 3259SOL    HW221240   3.738   0.553   4.924  1.6703 -0.3690 -0.1929
 3260SOL     OW21241   0.555   0.819   7.621 -0.3011 -0.0453 -0.2971
 3260SOL    HW121242   0.528   0.901   7.579 -0.7537  0.0503  0.1767
 3260SOL    HW221243   0.650   0.826   7.614 -0.3590  0.7523 -0.3290
 3261SOL     OW21244   4.442   2.038   8.049  0.0722  0.4465 -0.4404
 3261SOL    HW121245   4.361   1.996   8.020  1.8116 -2.1514 -1.4838
 3261SOL    HW221246   4.415   2.127   8.024  0.3440  1.2467  2.1149
 3262SOL     OW21247   2.575   3.605   7.462  0.3260  0.0736 -0.0915
 3262SOL    HW121248   2.520   3.651   7.398  0.4973  1.1151  0.5162
 3262SOL    HW221249   2.615   3.535   7.411 -1.7667 -0.7821 -0.5843
 3263SOL     OW21250   3.464   4.577  16.247 -0.1477  0.0176  0.4245
 3263SOL    HW121251   3.423   4.600  16.163  1.1159  0.2708 -0.1292
 3263SOL    HW221252   3.388   4.555  16.300 -0.1804  3.6509  1.8813
 3264SOL     OW21253   4.346   3.181   8.337  0.4918  0.3605 -0.2422
 3264SOL    HW121254   4.414   3.204   8.401 -1.7621 -2.0375  2.9918
 3264SOL    HW221255   4.341   3.088   8.356 -0.5790  0.4116 -0.2929
 3265SOL     OW21256   2.142   1.571  13.337  0.1678  0.0435 -0.1020
 3265SOL    HW121257   2.204   1.621  13.389  0.2753 -0.3066  0.0977
 3265SOL    HW221258   2.156   1.486  13.377  4.1845  1.5450  1.6728
 3266SOL     OW21259   2.484   4.528   1.254 -0.2144  0.0556 -0.3245
 3266SOL    HW121260   2.492   4.495   1.165  0.0782  0.9288 -0.6208
 3266SOL    HW221261   2.476   4.622   1.238  0.2441  0.6847  2.9993
 3267SOL     OW21262   0.009   2.957   5.991 -0.0649  0.0308 -0.2289
 3267SOL    HW121263   0.086   2.922   6.035  0.3991  0.3116 -0.8226
 3267SOL    HW221264   4.674   2.982   6.062  2.5582 -0.5813  2.1487
 3268SOL     OW21265   2.948   4.407   6.114 -0.3094 -0.6566  0.2704
 3268SOL    HW121266   2.954   4.337   6.049 -0.2537 -1.2660  0.9297
 3268SOL    HW221267   2.936   4.364   6.199  0.4321 -3.1264 -0.8899
 3269SOL     OW21268   2.928   3.516   1.366 -0.2007  0.7557 -0.1419
 3269SOL    HW121269   2.840   3.479   1.374 -0.0173  0.3910  0.2130
 3269SOL    HW221270   2.927   3.568   1.286  2.0673  0.0221 -0.6295
 3270SOL     OW21271   4.169   3.178   3.354  0.2660 -0.1017  0.2394
 3270SOL    HW121272   4.139   3.233   3.426 -1.4407  0.1605 -0.6529
 3270SOL    HW221273   4.094   3.120   3.341 -1.6763  2.5871 -0.5708
 3271SOL     OW21274   0.933   2.833   0.962  0.7380 -0.5066 -0.6065
 3271SOL    HW121275   0.941   2.787   1.046 -0.7383 -0.3531 -0.3814
 3271SOL    HW221276   0.939   2.762   0.899 -1.0206 -1.7058  0.5788
 3272SOL     OW21277   0.423   2.770   8.100 -0.3715  0.5399  0.2626
 3272SOL    HW121278   0.422   2.675   8.089  1.0790  0.6442 -0.8871
 3272SOL    HW221279   0.432   2.794   8.007  2.8423 -0.6895  0.2602
 3273SOL     OW21280   0.040   3.054   4.826  0.1411 -0.0978 -0.0145
 3273SOL    HW121281   0.003   3.062   4.914  0.5707  0.5284  0.1064
 3273SOL    HW221282   0.034   3.146   4.802 -2.0393  0.2999  2.1088
 3274SOL     OW21283   4.505   2.101   4.885 -0.2686 -0.2877 -0.2511
 3274SOL    HW121284   4.510   2.062   4.972  2.0354  2.4901  0.8694
 3274SOL    HW221285   4.411   2.100   4.867 -0.6360  0.3370  1.6572
 3275SOL     OW21286   0.557   4.281   4.242  0.1665  0.0974  0.2802
 3275SOL    HW121287   0.617   4.352   4.265  1.5732 -0.9049 -0.3186
 3275SOL    HW221288   0.603   4.213   4.291 -0.4523 -0.7044 -0.2586
 3276SOL     OW21289   3.733   0.270   3.976  0.0244  0.2828 -0.3489
 3276SOL    HW121290   3.655   0.303   3.932 -0.0950  0.6730  0.1471
 3276SOL    HW221291   3.785   0.231   3.906 -0.5387 -2.1719  0.6162
 3277SOL     OW21292   1.251   3.068  10.891 -0.1274 -0.1985  0.4711
 3277SOL    HW121293   1.344   3.047  10.899  0.2940  0.6899 -1.8411
 3277SOL    HW221294   1.240   3.068  10.795  3.3253 -0.0856  0.0629
 3278SOL     OW21295   1.342   0.978  10.611 -0.2419  0.0788 -0.0422
 3278SOL    HW121296   1.435   0.960  10.597 -0.3691  0.7665 -1.7306
 3278SOL    HW221297   1.316   1.003  10.522  0.1800  1.4936  0.2280
 3279SOL     OW21298   4.381   4.559   4.909  0.2653  0.4061 -0.1877
 3279SOL    HW121299   4.433   4.502   4.851  0.7244  0.5347  0.0933
 3279SOL    HW221300   4.434   4.639   4.903 -1.9189  1.7612 -1.5272
 3280SOL     OW21301   0.153   0.926   6.083 -0.2811 -0.1854 -0.9883
 3280SOL    HW121302   0.117   0.936   6.172 -2.2717 -1.0624 -1.6967
 3280SOL    HW221303   0.187   1.013   6.061  0.4196  0.0038  0.7489
 3281SOL     OW21304   2.236   3.026   2.695  0.2230  0.0759 -0.0499
 3281SOL    HW121305   2.218   3.099   2.636 -0.8219 -0.1729 -0.0262
 3281SOL    HW221306   2.162   2.968   2.679 -0.3073  0.8612 -0.4245
 3282SOL     OW21307   4.163   4.519   7.878 -0.4153 -0.0008 -0.1198
 3282SOL    HW121308   4.140   4.465   7.803 -1.7694  1.4477 -0.7407
 3282SOL    HW221309   4.079   4.563   7.890 -1.4757 -2.5436  1.7285
 3283SOL     OW21310   3.895   4.459   4.597  0.2569 -0.4654  0.3578
 3283SOL    HW121311   3.923   4.446   4.687  0.5306  0.3170  0.3805
 3283SOL    HW221312   3.846   4.541   4.596  3.2270  1.2872 -0.2643
 3284SOL     OW21313   1.974   1.824   8.466  0.6198  0.1581 -0.0242
 3284SOL    HW121314   2.035   1.751   8.464 -0.2263 -0.5662  0.4113
 3284SOL    HW221315   2.025   1.885   8.519 -0.1604  1.8398 -1.2011
 3285SOL     OW21316   2.180   0.178   2.827 -0.7118  0.2531 -0.2909
 3285SOL    HW121317   2.118   0.137   2.766 -0.6176 -2.5626  1.5403
 3285SOL    HW221318   2.149   0.136   2.907 -2.2041  0.8162 -0.5673
 3286SOL     OW21319   0.326   0.977   4.644 -0.1540 -0.1104 -0.2762
 3286SOL    HW121320   0.265   0.962   4.716  1.2019  0.4529  0.9860
 3286SOL    HW221321   0.404   1.012   4.687 -1.3629  1.9241  0.2448
 3287SOL     OW21322   0.652   3.222  14.413  0.7658 -0.3877 -0.1253
 3287SOL    HW121323   0.558   3.238  14.409  0.8066  0.0616  0.7300
 3287SOL    HW221324   0.662   3.137  14.456 -0.2315 -0.5847 -0.2912
 3288SOL     OW21325   0.303   0.733   6.515 -0.1580  0.7542 -0.5212
 3288SOL    HW121326   0.248   0.687   6.579  1.9897 -0.7300  0.2958
 3288SOL    HW221327   0.292   0.681   6.435 -0.9926 -0.1286  0.1613
 3289SOL     OW21328   3.178   0.569   1.791  0.3233 -0.0066  0.1542
 3289SOL    HW121329   3.218   0.557   1.705  0.5226 -1.9779  0.5252
 3289SOL    HW221330   3.191   0.481   1.826 -2.4712 -0.8044 -0.7930
 3290SOL     OW21331   1.407   1.745   5.404  0.1673  0.1911 -0.3140
 3290SOL    HW121332   1.471   1.779   5.467 -2.4032  1.5736  1.5289
 3290SOL    HW221333   1.332   1.724   5.459  1.2044 -1.9878  0.2585
 3291SOL     OW21334   0.290   3.229   4.573 -1.1177 -0.3724  0.3944
 3291SOL    HW121335   0.200   3.216   4.544 -1.4305 -1.2772  1.7870
 3291SOL    HW221336   0.332   3.147   4.547  0.5363  0.9505 -1.1085
 3292SOL     OW21337   0.389   2.160   8.053 -0.7245  0.3898  0.7714
 3292SOL    HW121338   0.443   2.175   8.131  1.9796 -1.8375 -0.6638
 3292SOL    HW221339   0.452   2.133   7.986 -0.4575  1.0868  0.7390
 3293SOL     OW21340   3.665   0.476  17.636  0.2416 -0.0862 -0.0441
 3293SOL    HW121341   3.699   0.470   0.028  0.8488 -0.9881 -0.3308
 3293SOL    HW221342   3.573   0.462  17.655 -0.0129 -0.0694 -1.2694
 3294SOL     OW21343   2.030   2.063   5.678  0.3573  0.1414  0.6313
 3294SOL    HW121344   1.935   2.071   5.669  0.4824 -0.4151 -1.0514
 3294SOL    HW221345   2.034   2.022   5.765 -0.0498  2.2088  1.6455
 3295SOL     OW21346   2.478   3.381  16.355  0.3523  0.3259 -0.1687
 3295SOL    HW121347   2.476   3.361  16.261 -1.1032 -1.3563  0.2049
 3295SOL    HW221348   2.403   3.440  16.343 -0.0426 -0.1548 -0.0880
 3296SOL     OW21349   2.967   3.366   3.170  0.0443 -0.1866  0.0161
 3296SOL    HW121350   2.897   3.427   3.149  0.4525 -0.1494 -1.2555
 3296SOL    HW221351   2.986   3.349   3.077  2.8714 -1.7945  0.8791
 3297SOL     OW21352   1.687   0.506  16.263  0.1948  0.1111 -0.1238
 3297SOL    HW121353   1.689   0.590  16.216 -0.3579  0.7369  0.9581
 3297SOL    HW221354   1.676   0.540  16.352 -2.0483 -0.7884 -0.0692
 3298SOL     OW21355   0.109   2.904   7.467  0.1359 -0.8646 -0.1848
 3298SOL    HW121356   0.162   2.830   7.495 -0.4408 -1.2460 -0.1071
 3298SOL    HW221357   0.022   2.866   7.457  0.0631 -0.2650 -1.8683
 3299SOL     OW21358   3.732   2.930   1.894 -0.6975  0.4400  0.2005
 3299SOL    HW121359   3.687   2.932   1.979 -0.4932  0.0489  0.3140
 3299SOL    HW221360   3.819   2.958   1.922 -0.1652  2.1830 -3.1557
 3300SOL     OW21361   0.662   1.503   0.239 -0.0296  0.0717 -0.1709
 3300SOL    HW121362   0.704   1.573   0.290  1.0930  1.4855 -2.9872
 3300SOL    HW221363   0.645   1.449   0.316  1.1991 -0.4346 -0.2552
 3301SOL     OW21364   0.165   1.104  10.720 -0.6801  0.3055 -0.2339
 3301SOL    HW121365   0.090   1.058  10.681  1.4781 -3.1554 -0.3014
 3301SOL    HW221366   0.186   1.059  10.802  0.1225  1.5514  0.2348
 3302SOL     OW21367   3.111   4.260   4.638 -0.9642  0.0650  0.2587
 3302SOL    HW121368   3.195   4.220   4.661 -0.8771 -0.2739 -0.6156
 3302SOL    HW221369   3.048   4.195   4.606  0.6011 -1.0736 -0.5205
 3303SOL     OW21370   3.607   4.333   0.248  0.5455 -0.4989  0.0830
 3303SOL    HW121371   3.616   4.302   0.338  0.9685 -0.4401  0.0587
 3303SOL    HW221372   3.687   4.300   0.206 -0.2002  0.7353 -2.3409
 3304SOL     OW21373   0.750   1.814  12.923  0.3138 -0.6020  0.0205
 3304SOL    HW121374   0.706   1.889  12.883  1.8903 -0.1222 -0.8192
 3304SOL    HW221375   0.817   1.862  12.973  1.1725 -1.7055 -0.0600
 3305SOL     OW21376   1.618   1.618   9.071 -0.1628 -0.3444  0.0404
 3305SOL    HW121377   1.699   1.568   9.060 -0.0263 -0.3176  0.9062
 3305SOL    HW221378   1.554   1.556   9.036  0.7197 -0.7435 -0.8783
 3306SOL     OW21379   3.601   3.451   2.346 -0.5395  0.3542  0.1281
 3306SOL    HW121380   3.525   3.470   2.400 -1.9474 -0.2783 -1.6333
 3306SOL    HW221381   3.670   3.438   2.412 -1.1765 -0.7129  0.5882
 3307SOL     OW21382   0.182   2.053  11.897  0.4395  0.3332 -0.5587
 3307SOL    HW121383   0.197   2.135  11.943  1.4906 -0.1676 -0.0184
 3307SOL    HW221384   0.259   2.006  11.929  0.4568  0.5486 -0.2858
 3308SOL     OW21385   3.388   4.228  16.246  0.0383  0.2369  0.5138
 3308SOL    HW121386   3.298   4.227  16.213  0.6460 -2.2781 -1.0515
 3308SOL    HW221387   3.441   4.279  16.184 -0.0792 -2.3629 -1.7587
 3309SOL     OW21388   0.418   0.585  16.524 -0.1278  0.0540 -0.2887
 3309SOL    HW121389   0.383   0.496  16.514  2.0976 -0.8408  0.0033
 3309SOL    HW221390   0.365   0.628  16.592  1.7390 -1.2393  2.0012
 3310SOL     OW21391   1.699   2.822   7.473 -0.9622 -0.5752  0.2109
 3310SOL    HW121392   1.724   2.731   7.456 -1.9417 -1.2477  2.4179
 3310SOL    HW221393   1.719   2.862   7.388 -1.2127 -0.0608  0.3993
 3311SOL     OW21394   2.992   3.737   4.077 -0.0961 -0.3619  0.3562
 3311SOL    HW121395   3.074   3.698   4.046 -0.2086 -0.1096 -0.2584
 3311SOL    HW221396   2.990   3.816   4.024 -1.3887  0.6029  1.8555
 3312SOL     OW21397   1.249   3.924  14.939 -0.5574 -0.3837  0.1075
 3312SOL    HW121398   1.293   3.843  14.913  0.5366  0.0961  0.4840
 3312SOL    HW221399   1.179   3.874  14.982  0.5234 -0.7752  1.3929
 3313SOL     OW21400   1.104   1.869   3.677 -0.4040 -0.2006 -0.3500
 3313SOL    HW121401   1.114   1.849   3.584  0.0658 -0.2363 -0.2904
 3313SOL    HW221402   1.010   1.872   3.692 -0.1862  0.6139  0.8940
 3314SOL     OW21403   3.184   4.583   0.468 -0.0137  0.3075 -0.0220
 3314SOL    HW121404   3.277   4.597   0.451 -0.0621  1.1296  0.3957
 3314SOL    HW221405   3.185   4.491   0.496  0.2180 -0.0094 -1.0546
 3315SOL     OW21406   4.053   0.862   0.663  0.2831  0.3816  0.4115
 3315SOL    HW121407   3.994   0.926   0.623 -2.3417 -1.4355  1.2830
 3315SOL    HW221408   3.993   0.825   0.729  0.8025 -0.2399  0.5316
 3316SOL     OW21409   4.658   4.705   0.636  0.4245 -0.2530  0.3836
 3316SOL    HW121410   0.025   4.676   0.632  0.9618  1.8650 -2.6881
 3316SOL    HW221411   4.680   0.072   0.620 -1.5015  0.5022  1.9804
 3317SOL     OW21412   2.855   3.358   1.669  0.0758  0.1991  0.2553
 3317SOL    HW121413   2.806   3.279   1.648 -1.0349  0.9536 -0.0377
 3317SOL    HW221414   2.818   3.378   1.755 -0.1588  1.6637 -0.1869
 3318SOL     OW21415   3.130   0.548   7.147  0.4130  0.2977 -0.0669
 3318SOL    HW121416   3.169   0.568   7.062 -0.5593 -1.7125 -0.9696
 3318SOL    HW221417   3.047   0.592   7.129 -0.6924 -0.9132  2.0336
 3319SOL     OW21418   2.595   2.098   5.275 -0.4434 -0.4388  0.0597
 3319SOL    HW121419   2.655   2.099   5.350  0.3011  3.1105 -0.5752
 3319SOL    HW221420   2.591   2.191   5.253  1.8667 -0.6449 -1.1539
 3320SOL     OW21421   0.031   3.046   0.440 -0.4792  0.0666 -0.1035
 3320SOL    HW121422   0.058   2.999   0.520 -2.2237 -1.8879 -0.6594
 3320SOL    HW221423   4.702   2.992   0.382 -1.4862  0.4154  0.4912
 3321SOL     OW21424   3.864   3.854   6.352  0.1057  0.2708  0.0863
 3321SOL    HW121425   3.821   3.781   6.308  1.1480  1.1615 -2.4231
 3321SOL    HW221426   3.792   3.899   6.396  0.2574  0.6292 -0.0340
 3322SOL     OW21427   4.155   2.369   7.856  0.3360 -0.3734 -0.3750
 3322SOL    HW121428   4.122   2.408   7.937 -1.6505  1.5881 -2.1500
 3322SOL    HW221429   4.077   2.337   7.812  0.8770  1.7152 -2.9089
 3323SOL     OW21430   3.682   1.655   6.769  0.0021  0.2571 -0.3231
 3323SOL    HW121431   3.717   1.741   6.744 -3.9960  0.9987 -3.3375
 3323SOL    HW221432   3.756   1.610   6.811 -1.4771  0.7920  2.8815
 3324SOL     OW21433   1.978   2.959   6.490  0.5717  0.4513 -0.2050
 3324SOL    HW121434   1.947   3.035   6.539  1.7413  1.5431 -1.1643
 3324SOL    HW221435   1.978   2.885   6.552 -0.9132  1.0014  0.4502
 3325SOL     OW21436   1.335   3.406   7.453  0.4001  0.5764  0.3134
 3325SOL    HW121437   1.330   3.500   7.470 -2.6776 -0.4649  5.1078
 3325SOL    HW221438   1.424   3.395   7.487  0.3409  1.2352  0.6753
 3326SOL     OW21439   0.725   2.039   8.957 -0.0692  0.1639 -0.3400
 3326SOL    HW121440   0.674   2.092   9.018 -0.0172 -0.2562  0.0699
 3326SOL    HW221441   0.818   2.055   8.977  0.7286 -1.0684 -3.0624
 3327SOL     OW21442   2.551   0.366   2.043  0.2357 -0.5181  0.0911
 3327SOL    HW121443   2.548   0.391   1.951  1.4936  3.5810  1.1638
 3327SOL    HW221444   2.480   0.421   2.077 -1.1220 -1.6975 -0.8540
 3328SOL     OW21445   3.568   2.053   3.687 -0.0240  0.5041 -0.4456
 3328SOL    HW121446   3.571   1.968   3.642  3.2433  1.9899 -2.9866
 3328SOL    HW221447   3.658   2.082   3.675  0.0400 -0.3824 -2.1244
 3329SOL     OW21448   3.272   4.017   5.123 -0.5219  0.3409  0.0938
 3329SOL    HW121449   3.241   4.043   5.036 -1.1462 -0.0171  0.2081
 3329SOL    HW221450   3.350   4.069   5.139 -0.4603  1.0448 -2.4984
 3330SOL     OW21451   0.710   2.586   0.914  0.6298  0.2716  0.1223
 3330SOL    HW121452   0.733   2.494   0.925 -0.0722 -0.1363 -1.8182
 3330SOL    HW221453   0.778   2.620   0.856  0.3766 -1.1931 -1.0325
 3331SOL     OW21454   3.700   4.130  16.353  0.1090  0.8787 -0.2997
 3331SOL    HW121455   3.662   4.217  16.336 -0.5209  0.4395 -1.1354
 3331SOL    HW221456   3.785   4.142  16.310  0.1609 -1.1069 -0.7565
 3332SOL     OW21457   3.501   1.937   6.627  0.0547 -0.0633 -0.8440
 3332SOL    HW121458   3.501   1.986   6.709 -0.3304 -1.3450 -0.0911
 3332SOL    HW221459   3.444   1.993   6.574 -1.2882  0.1528  0.8447
 3333SOL     OW21460   1.651   1.720   9.334  0.2197 -0.0020 -0.1036
 3333SOL    HW121461   1.575   1.663   9.337  1.8146 -2.0347  1.4941
 3333SOL    HW221462   1.652   1.732   9.239 -0.0979 -3.5306 -0.5482
 3334SOL     OW21463   4.632   0.482  11.708  0.0220  0.1863  0.4892
 3334SOL    HW121464   4.593   0.519  11.628  0.9643 -0.2997 -0.1968
 3334SOL    HW221465   4.712   0.443  11.673  0.0418  1.3015 -0.7290
 3335SOL     OW21466   3.869   4.309  14.656  0.0076  0.3845 -0.0867
 3335SOL    HW121467   3.882   4.220  14.622 -1.2833 -0.9889  3.0494
 3335SOL    HW221468   3.825   4.351  14.582  0.9339 -0.3184 -1.0534
 3336SOL     OW21469   2.614   4.583  16.861  0.2787  0.3055 -0.8455
 3336SOL    HW121470   2.599   4.489  16.848 -4.0538  0.8591  0.3488
 3336SOL    HW221471   2.706   4.572  16.884 -0.6221  0.8942  2.9658
 3337SOL     OW21472   3.636   0.588  11.889 -0.0115 -0.3827  0.5228
 3337SOL    HW121473   3.617   0.556  11.801  0.8305  0.5587 -0.0094
 3337SOL    HW221474   3.578   0.664  11.890  1.5441  0.8247 -1.1425
 3338SOL     OW21475   0.024   1.851   6.481  0.0016 -0.0049 -0.1622
 3338SOL    HW121476   0.092   1.890   6.425 -1.3943  0.0601 -1.8266
 3338SOL    HW221477   0.035   1.906   6.558  2.7143  0.6448 -0.9787
 3339SOL     OW21478   3.315   0.642  11.061 -0.1639  0.4368 -0.4171
 3339SOL    HW121479   3.336   0.679  11.147  0.2088  1.2696 -0.8701
 3339SOL    HW221480   3.261   0.568  11.088 -0.3425  0.3640 -0.9759
 3340SOL     OW21481   4.398   4.049   8.106 -0.0063  0.6881  0.3637
 3340SOL    HW121482   4.342   3.975   8.081  0.1209  0.7910 -0.2354
 3340SOL    HW221483   4.420   4.020   8.194  0.0486 -0.7899 -0.1429
 3341SOL     OW21484   2.853   3.936   8.392  0.3102  0.2413 -0.6673
 3341SOL    HW121485   2.861   3.971   8.481 -1.0597 -0.4301 -0.2749
 3341SOL    HW221486   2.866   3.845   8.418  1.3951  0.9043  1.1790
 3342SOL     OW21487   1.376   4.609   4.250 -0.1136 -0.3201  0.0412
 3342SOL    HW121488   1.417   4.590   4.335 -3.0957  0.4329  1.6321
 3342SOL    HW221489   1.358   4.703   4.252 -2.0015 -0.7088  1.6392
 3343SOL     OW21490   1.172   3.464   5.962 -0.2472 -0.4015  1.0703
 3343SOL    HW121491   1.166   3.489   5.870 -0.4807 -0.9058  0.9451
 3343SOL    HW221492   1.152   3.547   6.006 -1.0281 -0.9020  1.6642
 3344SOL     OW21493   1.858   2.507   9.054  0.1682  0.3908  0.7545
 3344SOL    HW121494   1.931   2.454   9.086  1.5694  1.7812 -0.1688
 3344SOL    HW221495   1.872   2.584   9.109  1.1083  2.4279 -2.2821
 3345SOL     OW21496   2.705   1.256   8.514 -0.0460  0.0416 -0.3535
 3345SOL    HW121497   2.796   1.247   8.485 -0.0415 -2.9272  0.5831
 3345SOL    HW221498   2.700   1.351   8.503 -0.0649  0.0801  0.0019
 3346SOL     OW21499   3.705   3.860   3.066  0.3847 -0.5340 -0.2975
 3346SOL    HW121500   3.791   3.834   3.098 -0.1660  1.2590  2.5433
 3346SOL    HW221501   3.731   3.904   2.985 -1.1161  0.4919 -0.2293
 3347SOL     OW21502   1.279   2.403   4.237 -0.3613 -0.2529 -0.2245
 3347SOL    HW121503   1.310   2.397   4.146  2.2786  0.7540  0.6173
 3347SOL    HW221504   1.236   2.318   4.235 -0.7077 -0.1023  0.9022
 3348SOL     OW21505   2.702   2.734  16.022  0.0165  0.0662 -0.0393
 3348SOL    HW121506   2.756   2.669  16.067  0.2141  0.0830 -0.2537
 3348SOL    HW221507   2.707   2.808  16.083 -1.2472 -0.0922  0.2513
 3349SOL     OW21508   2.481   4.358  13.342 -0.3502  0.0365  0.4007
 3349SOL    HW121509   2.487   4.294  13.413  0.4809  1.8266  1.9282
 3349SOL    HW221510   2.437   4.431  13.386  1.9446  1.0943  0.8898
 3350SOL     OW21511   1.479   1.065  14.739 -0.3044  0.4750 -0.0366
 3350SOL    HW121512   1.530   1.046  14.818 -0.0984  0.8275 -0.0843
 3350SOL    HW221513   1.476   1.160  14.737 -1.2068  0.4754  1.4066
 3351SOL     OW21514   1.650   2.849   5.618 -0.0850 -0.2305 -0.1406
 3351SOL    HW121515   1.665   2.790   5.544  0.8502  0.6446 -0.6557
 3351SOL    HW221516   1.660   2.936   5.579 -1.1882  0.2120  0.5661
 3352SOL     OW21517   4.308   4.132   0.084 -0.0402  0.1907 -0.1378
 3352SOL    HW121518   4.373   4.196   0.055  0.9643 -0.5119  0.5432
 3352SOL    HW221519   4.246   4.199   0.113 -0.7640 -0.1235 -0.9757
 3353SOL     OW21520   3.116   1.414   6.936  0.1190  0.3439 -0.0840
 3353SOL    HW121521   3.121   1.439   6.844 -1.0734 -1.0802 -0.5344
 3353SOL    HW221522   3.142   1.322   6.938  0.4178  0.4025 -1.4197
 3354SOL     OW21523   1.054   2.841   4.602  0.5967  0.1666  0.2717
 3354SOL    HW121524   0.960   2.836   4.584  0.6055  0.7118  0.0493
 3354SOL    HW221525   1.083   2.836   4.511 -0.9947  2.1521 -0.3441
 3355SOL     OW21526   0.468   2.246   1.259 -0.5434 -0.1743  0.0897
 3355SOL    HW121527   0.473   2.251   1.354 -0.4271 -3.4381  0.2371
 3355SOL    HW221528   0.429   2.333   1.247  3.1044  1.7709  2.3149
 3356SOL     OW21529   2.709   0.013  14.046 -0.6570  0.0845 -0.1464
 3356SOL    HW121530   2.760   4.657  14.059 -1.5000 -0.7458 -1.8738
 3356SOL    HW221531   2.781   0.073  14.029 -0.4563  0.1220  0.8108
 3357SOL     OW21532   4.004   1.412   8.975  0.2938  0.0502  0.1774
 3357SOL    HW121533   4.035   1.357   9.047  3.4016 -0.2180 -1.4012
 3357SOL    HW221534   3.973   1.345   8.914  0.0701 -0.0278  0.3773
 3358SOL     OW21535   2.789   0.139  14.987 -0.3455 -0.0651 -0.0272
 3358SOL    HW121536   2.858   0.113  14.926 -2.2156 -0.4161 -1.9671
 3358SOL    HW221537   2.840   0.211  15.025 -0.6019  0.4073 -0.5857
 3359SOL     OW21538   2.602   2.564   6.638 -0.2044 -0.3245 -0.0733
 3359SOL    HW121539   2.611   2.589   6.546 -1.2462 -3.3640 -1.0052
 3359SOL    HW221540   2.689   2.596   6.661 -0.2485 -0.0684 -0.2683
 3360SOL     OW21541   3.469   4.534   3.181  0.1567 -0.1472 -0.9266
 3360SOL    HW121542   3.511   4.448   3.185 -1.0083 -0.7867 -2.2134
 3360SOL    HW221543   3.551   4.581   3.196 -0.2269  0.1583  0.1683
 3361SOL     OW21544   1.488   4.013   3.343  0.3060 -0.2151  0.2362
 3361SOL    HW121545   1.397   4.000   3.369  1.2735 -0.3301  3.6167
 3361SOL    HW221546   1.472   3.979   3.255  1.9475  2.9954 -1.2849
 3362SOL     OW21547   0.116   1.403   9.961 -0.0997 -0.0163  0.4872
 3362SOL    HW121548   0.073   1.349  10.027 -0.7595  0.1077  0.1684
 3362SOL    HW221549   0.172   1.340   9.916  0.4926  1.0560 -0.2724
 3363SOL     OW21550   2.064   0.251  16.633 -0.4842 -0.3386 -0.0946
 3363SOL    HW121551   2.127   0.192  16.674 -0.5544  0.3243  0.9652
 3363SOL    HW221552   2.099   0.238  16.545  0.3515 -1.5209  0.4134
 3364SOL     OW21553   1.769   3.292   6.989 -0.5460 -0.5502 -0.8111
 3364SOL    HW121554   1.722   3.354   7.044 -0.5704 -0.8383 -0.5025
 3364SOL    HW221555   1.724   3.214   7.023  1.8699 -1.2576  0.8530
 3365SOL     OW21556   2.317   4.132  16.148  0.1702 -0.3525  0.3311
 3365SOL    HW121557   2.245   4.088  16.193 -0.9625  1.6273  0.4745
 3365SOL    HW221558   2.286   4.213  16.107  1.2013 -0.0803  0.0811
 3366SOL     OW21559   1.635   3.600  11.086  0.5496 -0.0774  0.2440
 3366SOL    HW121560   1.593   3.686  11.078 -0.9065 -1.0692 -2.9415
 3366SOL    HW221561   1.715   3.625  11.133  0.2340  0.5143  0.4693
 3367SOL     OW21562   2.680   2.625   3.898 -0.3184 -0.0875 -0.0349
 3367SOL    HW121563   2.685   2.716   3.927  0.2806  0.1657 -0.9060
 3367SOL    HW221564   2.772   2.622   3.871 -0.0186 -1.4123  1.1476
 3368SOL     OW21565   4.482   1.037  12.603 -0.2598  0.0519  0.4965
 3368SOL    HW121566   4.478   1.108  12.539  0.5439  0.2153  0.6337
 3368SOL    HW221567   4.569   1.050  12.641  0.4313 -2.3476 -0.2443
 3369SOL     OW21568   2.790   2.114  12.037 -0.0356  0.2372 -0.2581
 3369SOL    HW121569   2.714   2.066  12.071  0.1373  0.3006  0.2165
 3369SOL    HW221570   2.840   2.038  12.009  0.9041  1.5090 -2.0304
 3370SOL     OW21571   4.061   3.399  10.978  0.2386 -0.1565  0.0494
 3370SOL    HW121572   3.999   3.390  10.906  1.3859  0.2324 -0.9803
 3370SOL    HW221573   4.035   3.322  11.028  0.7946  0.5237  1.3933
 3371SOL     OW21574   4.377   3.200  14.307  0.0279  0.5160 -0.4150
 3371SOL    HW121575   4.432   3.275  14.328 -2.0156  1.3005  2.1976
 3371SOL    HW221576   4.435   3.142  14.258  1.0364  0.9591  0.2624
 3372SOL     OW21577   3.953   1.827   4.829 -0.2430  0.3100 -0.6814
 3372SOL    HW121578   3.953   1.884   4.752  0.9904  1.1985 -0.0072
 3372SOL    HW221579   3.988   1.745   4.794  0.0115 -1.0702  2.7917
 3373SOL     OW21580   4.599   0.589   4.685  0.2983 -0.2575 -0.1998
 3373SOL    HW121581   4.579   0.680   4.664 -0.2395 -0.3056  0.1336
 3373SOL    HW221582   4.579   0.557   4.597 -3.0894  2.0798 -0.2458
 3374SOL     OW21583   1.084   0.187   2.401  0.4604 -0.0283 -0.0641
 3374SOL    HW121584   1.117   0.117   2.345 -0.3144 -2.7748  2.9031
 3374SOL    HW221585   1.002   0.152   2.437  1.0230 -0.7287  0.5373
 3375SOL     OW21586   2.318   3.270   5.674 -0.6801  0.1312  0.5462
 3375SOL    HW121587   2.315   3.181   5.709 -0.7310  0.5522  1.6171
 3375SOL    HW221588   2.397   3.300   5.719 -0.1887 -0.5295  0.1158
 3376SOL     OW21589   1.430   3.221   6.361  0.7882 -0.5905  0.1375
 3376SOL    HW121590   1.393   3.188   6.443 -2.2967 -0.7264 -1.3411
 3376SOL    HW221591   1.454   3.309   6.392 -2.4295  0.6362 -0.9236
 3377SOL     OW21592   3.734   2.085   5.595  0.6278 -0.6228 -0.1517
 3377SOL    HW121593   3.775   2.001   5.573  3.3803  0.7710 -0.3222
 3377SOL    HW221594   3.673   2.081   5.521 -0.6340  0.7091  0.8114
 3378SOL     OW21595   1.246   4.316   5.758 -0.2171 -0.3922 -0.0749
 3378SOL    HW121596   1.179   4.265   5.713  0.3810 -0.8419 -0.4556
 3378SOL    HW221597   1.323   4.283   5.711  1.1991  1.4804  0.9443
 3379SOL     OW21598   2.315   1.253   4.852 -0.3978  0.2667 -0.2515
 3379SOL    HW121599   2.286   1.310   4.923 -0.4768 -0.9906  0.7405
 3379SOL    HW221600   2.266   1.266   4.771 -2.9993 -0.8330  1.1796
 3380SOL     OW21601   0.486   3.352   6.004 -0.2817 -0.4476  0.0467
 3380SOL    HW121602   0.546   3.406   6.055  0.8354 -1.2325 -0.4391
 3380SOL    HW221603   0.535   3.271   5.990 -0.5180 -0.9905  2.3189
 3381SOL     OW21604   3.385   1.468   2.278 -0.0321 -0.0218  0.3775
 3381SOL    HW121605   3.367   1.512   2.195  2.0088  3.4310  1.7441
 3381SOL    HW221606   3.296   1.446   2.305 -0.6659 -1.9455 -3.2487
 3382SOL     OW21607   1.883   0.447  17.099 -0.4357  0.5176 -0.1685
 3382SOL    HW121608   1.853   0.427  17.187 -1.6368 -2.5557 -1.2860
 3382SOL    HW221609   1.956   0.386  17.087 -1.1359 -0.9079  2.7841
 3383SOL     OW21610   2.421   3.804  12.946 -0.7054 -0.1642  0.5078
 3383SOL    HW121611   2.419   3.882  12.891 -1.5592  0.5115  1.5258
 3383SOL    HW221612   2.481   3.831  13.015  1.0869  2.1851 -1.9783
 3384SOL     OW21613   2.061   1.518   1.841 -0.0715  0.0302 -0.4230
 3384SOL    HW121614   2.047   1.450   1.775  0.5637  0.4826 -1.0359
 3384SOL    HW221615   1.976   1.550   1.872 -1.4872 -1.2191 -3.0654
 3385SOL     OW21616   1.984   3.734   4.024 -0.4297  0.5226 -0.0400
 3385SOL    HW121617   1.904   3.711   4.070 -0.4603  0.2090 -0.2586
 3385SOL    HW221618   2.001   3.659   3.968  0.6912 -0.2487  1.3271
 3386SOL     OW21619   3.332   2.603  14.056  0.4703 -0.6944 -0.4704
 3386SOL    HW121620   3.386   2.532  14.092 -1.1643  0.0351  3.4730
 3386SOL    HW221621   3.360   2.603  13.965  0.4807  0.4378 -0.4627
 3387SOL     OW21622   0.180   1.639   7.620 -0.3829 -0.4958  0.5538
 3387SOL    HW121623   0.183   1.667   7.528  0.6383  0.2029  0.7949
 3387SOL    HW221624   0.085   1.643   7.624 -0.3070  3.0098 -0.8263
 3388SOL     OW21625   3.009   1.675   0.963  0.0401  0.3036  0.0412
 3388SOL    HW121626   3.072   1.645   1.028  1.8188  0.2207 -1.7311
 3388SOL    HW221627   2.928   1.632   0.993  1.7916 -2.4798  0.8106
 3389SOL     OW21628   1.925   4.457  12.741 -0.3055 -0.2534  0.0548
 3389SOL    HW121629   1.894   4.533  12.692 -0.9798 -0.2413  0.5001
 3389SOL    HW221630   2.014   4.489  12.757  0.5262 -2.7608  0.3782
 3390SOL     OW21631   3.973   3.120  13.763  0.2483  0.1793  0.0987
 3390SOL    HW121632   3.916   3.151  13.692 -1.3070 -1.3855  0.6566
 3390SOL    HW221633   4.003   3.200  13.805 -3.2728  1.7255 -0.3479
 3391SOL     OW21634   0.840   4.435  10.900  0.3411  0.3090 -0.7413
 3391SOL    HW121635   0.916   4.490  10.880  0.2043  1.5701  2.2477
 3391SOL    HW221636   0.774   4.485  10.853 -0.6904 -0.1008  0.2828
 3392SOL     OW21637   1.368   3.737   8.623 -0.4926  0.0125  0.0306
 3392SOL    HW121638   1.445   3.722   8.567  0.3495  1.4570  0.7964
 3392SOL    HW221639   1.400   3.816   8.666  2.3395 -0.4008 -1.2901
 3393SOL     OW21640   4.657   2.091  11.818  0.2522 -0.0290 -0.3976
 3393SOL    HW121641   4.602   2.080  11.895 -0.0914  0.0507 -0.6309
 3393SOL    HW221642   0.017   2.065  11.854  1.1452  3.4944  0.0232
 3394SOL     OW21643   2.144   4.030   9.479  0.2056 -0.0825 -0.4196
 3394SOL    HW121644   2.090   4.047   9.556  1.1643 -0.0972  0.2386
 3394SOL    HW221645   2.234   4.035   9.511  0.0551 -1.0201  0.1433
 3395SOL     OW21646   3.732   0.644   6.327 -0.2137  0.4684  0.8717
 3395SOL    HW121647   3.653   0.687   6.294  1.3524 -0.6229 -4.3395
 3395SOL    HW221648   3.715   0.555   6.293  0.7046  0.6693 -0.1038
 3396SOL     OW21649   2.318   3.870   5.910  0.1942  0.5495 -0.1532
 3396SOL    HW121650   2.240   3.824   5.940  0.0199  1.1478  0.3328
 3396SOL    HW221651   2.356   3.886   5.997 -0.2048  1.3045 -0.1177
 3397SOL     OW21652   1.447   0.230   7.879  0.0852  0.4120  0.4757
 3397SOL    HW121653   1.485   0.316   7.858  0.5184  0.0523 -0.2084
 3397SOL    HW221654   1.365   0.230   7.830 -0.6905 -0.8496  1.7961
 3398SOL     OW21655   0.966   4.219   3.699 -0.2706  0.1977  0.1026
 3398SOL    HW121656   1.019   4.219   3.619 -2.8309 -0.7901 -1.5932
 3398SOL    HW221657   0.901   4.285   3.672 -0.9755 -0.5493 -0.0145
 3399SOL     OW21658   0.286   0.722   3.388 -0.0101  0.4508 -0.2369
 3399SOL    HW121659   0.347   0.686   3.324  4.3874  2.0711  3.0342
 3399SOL    HW221660   0.229   0.646   3.402 -0.5461  1.0426  0.8683
 3400SOL     OW21661   2.713   4.254   0.918 -0.5225  0.3720 -0.0805
 3400SOL    HW121662   2.731   4.220   1.006 -1.1131  2.4690  0.8498
 3400SOL    HW221663   2.783   4.205   0.875 -0.0222 -0.6869  1.9220
 3401SOL     OW21664   2.760   0.164   7.812  0.3708  0.3173  0.8944
 3401SOL    HW121665   2.853   0.189   7.809  0.0204  1.5905  0.4981
 3401SOL    HW221666   2.756   0.078   7.770  2.3958  0.2759  0.7673
 3402SOL     OW21667   0.876   4.067   6.653 -0.1376 -0.0911  0.1774
 3402SOL    HW121668   0.807   4.123   6.617  0.7596  0.7295 -0.2794
 3402SOL    HW221669   0.827   3.986   6.659 -0.3818 -0.2532 -3.7416
 3403SOL     OW21670   1.423   0.217   6.550  0.4488  0.9310  0.6130
 3403SOL    HW121671   1.366   0.141   6.552  3.5778 -1.4508  0.1870
 3403SOL    HW221672   1.511   0.179   6.556 -0.4051 -1.2730 -1.1051
 3404SOL     OW21673   0.602   2.768   1.754 -0.0197  0.0347  0.4017
 3404SOL    HW121674   0.654   2.844   1.780 -0.2535  1.2790 -2.8427
 3404SOL    HW221675   0.557   2.762   1.839  2.0147 -1.0574  1.4021
 3405SOL     OW21676   3.557   3.320   7.454 -0.2750 -0.4180  0.1724
 3405SOL    HW121677   3.499   3.250   7.484 -3.6636  2.9887  1.5818
 3405SOL    HW221678   3.609   3.342   7.531 -1.5949 -2.0451  1.5343
 3406SOL     OW21679   2.313   0.535   3.976 -0.3814 -0.5206  0.5428
 3406SOL    HW121680   2.264   0.612   4.006  0.3661 -0.5656  1.8745
 3406SOL    HW221681   2.243   0.472   3.961  0.2147 -1.1786  0.5358
 3407SOL     OW21682   2.830   3.865   2.583  0.2036  0.7337  0.0623
 3407SOL    HW121683   2.807   3.871   2.676  1.1416 -0.4791  0.3875
 3407SOL    HW221684   2.916   3.907   2.594  0.2131  0.4933  0.9035
 3408SOL     OW21685   0.942   1.799   7.374 -0.2883  0.3485  0.3086
 3408SOL    HW121686   0.997   1.721   7.384 -1.9435 -1.0660 -1.9385
 3408SOL    HW221687   0.996   1.866   7.418  1.4481 -0.2183 -0.9697
 3409SOL     OW21688   4.274   4.358  13.285  0.2659 -0.2340  0.7122
 3409SOL    HW121689   4.199   4.300  13.271 -0.1592 -0.2964  3.2715
 3409SOL    HW221690   4.256   4.369  13.378  2.0454  1.1232  0.9000
 3410SOL     OW21691   4.448   1.336   4.570 -0.0710  0.3560 -0.0039
 3410SOL    HW121692   4.355   1.313   4.573  0.4137 -1.1434  3.3632
 3410SOL    HW221693   4.434   1.426   4.598  0.9975  0.6913 -0.5597
 3411SOL     OW21694   4.679   4.295   9.528 -0.1587  0.3146 -0.6428
 3411SOL    HW121695   0.012   4.311   9.602 -0.0978  2.3509 -1.1265
 3411SOL    HW221696   4.661   4.381   9.490 -0.9066  1.0861  1.4677
 3412SOL     OW21697   2.063   4.495   1.794 -0.0322  0.9021 -0.2366
 3412SOL    HW121698   2.106   4.577   1.817 -0.2687  0.6063  1.2473
 3412SOL    HW221699   2.055   4.462   1.883 -1.1953 -1.2183 -1.1328
 3413SOL     OW21700   0.132   1.861   2.731  0.1645 -0.0090  0.6747
 3413SOL    HW121701   0.044   1.832   2.750 -0.4587  1.2176 -0.3130
 3413SOL    HW221702   0.132   1.935   2.792 -1.2236 -0.1383  0.8191
 3414SOL     OW21703   4.401   1.938   2.277 -0.1658  0.0357 -0.1078
 3414SOL    HW121704   4.408   1.862   2.335 -1.3849 -1.2492 -1.6178
 3414SOL    HW221705   4.494   1.959   2.270 -0.1196 -0.4324 -0.9536
 3415SOL     OW21706   0.082   4.069   4.395 -0.2831 -0.2335  0.2798
 3415SOL    HW121707   0.055   4.037   4.310 -1.4676 -1.5557  1.1514
 3415SOL    HW221708   4.724   4.103   4.430 -0.5535 -0.3753 -0.2255
 3416SOL     OW21709   3.214   3.742   6.082  0.0500 -0.0323  0.5669
 3416SOL    HW121710   3.295   3.770   6.040  1.1869  0.5146  3.1047
 3416SOL    HW221711   3.236   3.758   6.174 -0.4192  0.1620  0.6454
 3417SOL     OW21712   2.438   4.095   2.312  0.3735  0.1896 -0.5796
 3417SOL    HW121713   2.456   4.012   2.355 -0.9953  0.5255  0.6545
 3417SOL    HW221714   2.435   4.067   2.220 -0.1262  0.2496 -0.5851
 3418SOL     OW21715   0.170   0.554   6.649 -0.1213 -0.6299 -0.1536
 3418SOL    HW121716   0.192   0.517   6.734 -1.3033 -0.4492  0.2366
 3418SOL    HW221717   0.128   0.481   6.604 -3.2812  1.5187 -0.6794
 3419SOL     OW21718   3.202   2.594   5.906 -0.5113 -0.0291 -0.2827
 3419SOL    HW121719   3.233   2.504   5.893  1.5188  1.0081 -2.8430
 3419SOL    HW221720   3.263   2.629   5.970  0.0096  0.1978 -0.9010
 3420SOL     OW21721   3.827   2.016   7.927  0.1441 -0.3840  0.1450
 3420SOL    HW121722   3.883   2.047   7.998  0.9373  2.1670 -1.5629
 3420SOL    HW221723   3.795   1.932   7.958 -0.1258  0.1984  1.4316
 3421SOL     OW21724   2.751   1.509  15.768  0.6423  0.2186  0.1479
 3421SOL    HW121725   2.691   1.444  15.731 -2.0360  3.1845 -0.7825
 3421SOL    HW221726   2.706   1.539  15.847  0.2919 -0.4571  0.2061
 3422SOL     OW21727   2.296   4.200   5.659 -0.2060 -0.4276  0.1405
 3422SOL    HW121728   2.376   4.246   5.632  0.6708 -1.1499  1.5329
 3422SOL    HW221729   2.271   4.256   5.732  0.3194  1.1177 -0.8647
 3423SOL     OW21730   0.427   4.207  11.502  0.2284  0.1655 -0.0427
 3423SOL    HW121731   0.468   4.137  11.553  1.7686  1.7342  0.8838
 3423SOL    HW221732   0.375   4.250  11.569  0.8917  0.7025  0.1293
 3424SOL     OW21733   1.045   2.956   4.030  0.3417 -0.3870  0.3311
 3424SOL    HW121734   1.110   2.887   4.022 -0.6785 -1.4159  0.9524
 3424SOL    HW221735   0.959   2.915   4.039 -0.2419  0.9940  0.9533
 3425SOL     OW21736   1.902   4.016  13.161 -0.2153 -1.0140  0.1263
 3425SOL    HW121737   1.933   4.009  13.071 -0.7206 -1.2544 -0.0273
 3425SOL    HW221738   1.840   4.089  13.155  0.4622 -0.4555 -0.2075
 3426SOL     OW21739   3.500   4.386  11.767  0.0005  0.0795 -0.4068
 3426SOL    HW121740   3.554   4.321  11.722  0.0032  0.3851 -0.8397
 3426SOL    HW221741   3.555   4.426  11.835  1.5922 -1.2841 -0.8914
 3427SOL     OW21742   3.765   0.754   5.939  0.6071 -0.1675 -0.0905
 3427SOL    HW121743   3.782   0.660   5.946  0.8670 -0.0459  0.9880
 3427SOL    HW221744   3.855   0.785   5.934  0.9544 -1.0282  0.7545
 3428SOL     OW21745   1.174   3.605   7.282 -0.2252 -0.1529 -0.5013
 3428SOL    HW121746   1.102   3.545   7.301 -0.7992  0.7606  0.2227
 3428SOL    HW221747   1.111   3.672   7.255  2.5654  1.0857 -4.0492
 3429SOL     OW21748   2.798   2.537  17.571 -0.0798 -0.0655 -0.0230
 3429SOL    HW121749   2.875   2.511  17.621 -0.6736 -0.1628  0.8382
 3429SOL    HW221750   2.824   2.488  17.493 -3.0357  1.7662 -2.2102
 3430SOL     OW21751   4.184   4.054   5.613  0.2107  0.2103 -0.1067
 3430SOL    HW121752   4.125   4.028   5.684  1.0292 -2.9810 -0.5644
 3430SOL    HW221753   4.224   3.968   5.598  0.7899  0.1398  1.7726
 3431SOL     OW21754   3.939   0.578   1.510 -0.6241 -0.6268 -0.1734
 3431SOL    HW121755   3.875   0.517   1.546 -1.0774 -0.1302 -0.1425
 3431SOL    HW221756   3.899   0.660   1.540 -0.3974 -0.3172 -0.7302
 3432SOL     OW21757   2.968   4.689   2.506  0.0863  0.1337 -0.4001
 3432SOL    HW121758   2.954   4.599   2.478  0.3040 -0.1993  0.5725
 3432SOL    HW221759   3.010   4.693   2.592  0.8551  1.6016 -0.8430
 3433SOL     OW21760   4.718   0.293   5.096  0.1974  0.2068  0.3739
 3433SOL    HW121761   4.719   0.329   5.185  1.2765  0.4861  0.2508
 3433SOL    HW221762   4.646   0.233   5.119 -0.3284  0.6166 -0.2168
 3434SOL     OW21763   0.865   4.570  15.502 -0.0574  0.0031  0.1661
 3434SOL    HW121764   0.788   4.570  15.559 -0.3577 -0.8403 -0.2380
 3434SOL    HW221765   0.910   4.496  15.542  0.1433 -0.1676 -0.3697
 3435SOL     OW21766   2.531   3.382   6.561  0.6659  0.6809 -0.5308
 3435SOL    HW121767   2.511   3.310   6.501 -1.7389  1.0884 -0.1910
 3435SOL    HW221768   2.606   3.426   6.520  2.6069  0.7746  3.0927
 3436SOL     OW21769   1.703   0.686   0.069  0.0243  0.4785  0.1688
 3436SOL    HW121770   1.787   0.656   0.034  0.0140 -0.3611  0.8586
 3436SOL    HW221771   1.651   0.695  17.688 -2.1663 -0.8664  1.4750
 3437SOL     OW21772   4.105   2.788  17.161  0.3095  0.3129  0.3911
 3437SOL    HW121773   4.138   2.716  17.215  1.0471  1.0729  0.9802
 3437SOL    HW221774   4.140   2.754  17.079  0.0465  1.5500 -0.2328
 3438SOL     OW21775   0.826   1.515   7.799 -0.4350 -0.2650 -0.1267
 3438SOL    HW121776   0.832   1.601   7.757 -1.2814 -0.3890 -0.4992
 3438SOL    HW221777   0.742   1.491   7.761  0.3443 -1.8706 -0.8538
 3439SOL     OW21778   3.292   1.434   8.874 -0.5630 -0.0376  0.5285
 3439SOL    HW121779   3.330   1.400   8.955 -1.0442 -0.7284  0.4656
 3439SOL    HW221780   3.232   1.500   8.907  2.1043  1.5449  2.2556
 3440SOL     OW21781   3.927   3.898   8.028  0.1795 -0.1429  0.0509
 3440SOL    HW121782   3.898   3.807   8.027  0.1054 -0.0869 -2.0175
 3440SOL    HW221783   3.997   3.893   7.964 -0.0133 -2.3096  0.0120
 3441SOL     OW21784   0.507   2.108   9.326  0.1558 -0.4672 -0.0916
 3441SOL    HW121785   0.549   2.170   9.267  0.3983 -0.5716 -0.0265
 3441SOL    HW221786   0.571   2.108   9.396  0.2186 -3.0215 -0.1546
 3442SOL     OW21787   2.973   4.712   5.738 -0.4230  0.6492 -1.0592
 3442SOL    HW121788   2.942   0.015   5.651 -2.5725 -2.7791 -1.3561
 3442SOL    HW221789   2.895   0.013   5.787 -1.3286 -1.7229 -1.2809
 3443SOL     OW21790   0.675   3.761  15.013 -0.3067 -0.5851 -0.3433
 3443SOL    HW121791   0.709   3.696  14.951 -1.3409 -1.6683  0.2317
 3443SOL    HW221792   0.642   3.826  14.952  0.1139  1.7377  1.9079
 3444SOL     OW21793   3.743   0.066   2.910 -0.0401  0.3402 -0.0564
 3444SOL    HW121794   3.650   0.043   2.905  0.1350 -0.3469 -0.1621
 3444SOL    HW221795   3.787   4.715   2.870  0.2654 -0.1507  1.2145
 3445SOL     OW21796   3.653   0.245  11.718 -0.3998 -0.1762  0.2457
 3445SOL    HW121797   3.570   0.206  11.745 -0.3515 -0.8527 -0.5776
 3445SOL    HW221798   3.694   0.261  11.803 -0.1673  0.3464  0.0333
 3446SOL     OW21799   3.529   0.793   3.371  0.3508  0.4553 -0.2766
 3446SOL    HW121800   3.487   0.864   3.323 -0.5542  0.0603 -0.0574
 3446SOL    HW221801   3.597   0.835   3.424  1.5953 -0.9780 -0.7427
 3447SOL     OW21802   2.786   4.334   4.834  0.7438  0.0195 -0.9905
 3447SOL    HW121803   2.881   4.329   4.848  0.6153  0.0889 -0.0590
 3447SOL    HW221804   2.750   4.262   4.887  0.2319 -0.0031 -1.3648
 3448SOL     OW21805   3.121   3.925  16.946 -0.4514  0.3990  0.1344
 3448SOL    HW121806   3.072   3.858  16.898 -0.3173 -0.8009  1.6687
 3448SOL    HW221807   3.148   3.977  16.870 -0.8303 -0.2013 -0.4086
 3449SOL     OW21808   4.138   0.733   1.365 -0.1346  0.1951  0.3389
 3449SOL    HW121809   4.180   0.759   1.447  3.4569  1.4064 -1.9109
 3449SOL    HW221810   4.072   0.673   1.402  0.3592  0.4333  1.6084
 3450SOL     OW21811   0.967   3.878   9.477 -0.5162  0.3609  0.0306
 3450SOL    HW121812   1.014   3.940   9.532 -0.7674  3.3525 -3.1688
 3450SOL    HW221813   0.922   3.937   9.417 -1.2461 -2.0447 -1.7881
 3451SOL     OW21814   3.223   0.303   1.758 -0.1474  0.0535  0.8808
 3451SOL    HW121815   3.253   0.246   1.687 -0.1403  0.2361  0.7346
 3451SOL    HW221816   3.264   0.252   1.828  0.1837  1.5345  1.7900
 3452SOL     OW21817   1.755   1.822   3.317  0.1892 -0.8598 -0.0602
 3452SOL    HW121818   1.688   1.770   3.271  1.0005  0.6081 -2.8932
 3452SOL    HW221819   1.738   1.799   3.408 -1.2634  0.9588  0.1276
 3453SOL     OW21820   4.267   1.819   3.485 -0.4010  0.2630  0.5989
 3453SOL    HW121821   4.264   1.789   3.576 -2.1551 -0.5417  0.2729
 3453SOL    HW221822   4.325   1.752   3.448  0.6692  0.8944  1.1569
 3454SOL     OW21823   0.764   1.590   4.695 -0.1560 -0.2420  0.7874
 3454SOL    HW121824   0.784   1.659   4.759 -0.5911  0.8637 -0.2694
 3454SOL    HW221825   0.696   1.633   4.643 -0.9234 -1.6548  0.6374
 3455SOL     OW21826   2.477   3.440   3.629 -0.2071  0.4297  0.2863
 3455SOL    HW121827   2.552   3.484   3.668  1.0655  1.6575 -3.4962
 3455SOL    HW221828   2.519   3.369   3.579  0.6320  0.5524  0.8101
 3456SOL     OW21829   4.657   3.616   2.257  0.5769 -1.0540 -0.6211
 3456SOL    HW121830   4.708   3.537   2.269  1.1178 -0.7748 -1.0943
 3456SOL    HW221831   4.579   3.576   2.218 -0.3209 -0.2608  0.3227
 3457SOL     OW21832   0.546   1.423  10.875 -0.2428 -0.2733  0.2540
 3457SOL    HW121833   0.454   1.443  10.861 -0.0200 -0.2380 -1.1793
 3457SOL    HW221834   0.545   1.330  10.895  0.8182 -0.0538  1.3672
 3458SOL     OW21835   1.381   1.806  16.812 -0.4030 -0.1416 -0.2173
 3458SOL    HW121836   1.424   1.755  16.743 -0.0005  1.4895 -1.1581
 3458SOL    HW221837   1.300   1.755  16.824  0.0275 -1.6415 -3.6510
 3459SOL     OW21838   0.805   2.813   4.015  0.2550 -0.1466  0.1365
 3459SOL    HW121839   0.824   2.721   3.999 -1.1391  0.0116 -2.5077
 3459SOL    HW221840   0.743   2.806   4.087  0.3046  1.5664  0.3618
 3460SOL     OW21841   0.057   0.295  13.975  0.7114 -0.1445  0.1849
 3460SOL    HW121842   0.072   0.312  13.882 -0.0088 -1.8046 -0.2350
 3460SOL    HW221843   0.149   0.287  14.003  0.1889 -0.3551  1.8835
 3461SOL     OW21844   2.652   3.600   4.876  0.1177  0.6774 -0.4269
 3461SOL    HW121845   2.681   3.551   4.799  1.0826  1.0936 -0.3417
 3461SOL    HW221846   2.738   3.627   4.910 -1.1822  3.2067  0.8253
 3462SOL     OW21847   2.404   3.566  10.596 -0.1206  0.7572  0.0689
 3462SOL    HW121848   2.482   3.551  10.543  1.0458 -0.0914  1.9969
 3462SOL    HW221849   2.327   3.562  10.539  1.3856  1.4521 -1.9913
 3463SOL     OW21850   2.793   2.036   6.406  0.5571  0.5762 -0.3518
 3463SOL    HW121851   2.837   2.118   6.425  0.1358  0.9621 -1.0636
 3463SOL    HW221852   2.754   2.055   6.321 -2.3775 -0.6286  0.7221
 3464SOL     OW21853   3.306   3.013   9.182 -0.0098 -0.2902 -0.0601
 3464SOL    HW121854   3.273   2.950   9.118  0.3635  0.7415 -1.2716
 3464SOL    HW221855   3.401   3.003   9.174  0.2119  3.5045 -1.9993
 3465SOL     OW21856   1.858   1.264   4.768 -0.3576 -0.1096  0.4629
 3465SOL    HW121857   1.797   1.225   4.831 -1.1325  1.6944  0.8488
 3465SOL    HW221858   1.800   1.303   4.702 -0.0381  0.0387  0.2665
 3466SOL     OW21859   0.146   1.807  11.721 -1.0172 -0.1015  0.8105
 3466SOL    HW121860   0.170   1.883  11.774  0.4946  1.4184 -2.0685
 3466SOL    HW221861   0.050   1.815  11.729 -1.1583  1.7030 -2.6377
 3467SOL     OW21862   0.069   0.011   1.739  0.2499  0.6043  0.3820
 3467SOL    HW121863   0.157   0.019   1.703  0.1062 -1.8638 -0.5289
 3467SOL    HW221864   0.057   0.077   1.807 -4.1297  0.1371  0.1100
 3468SOL     OW21865   1.217   1.597  13.482 -0.5842  0.7538  0.1298
 3468SOL    HW121866   1.153   1.590  13.553 -0.0044 -0.5803  0.5103
 3468SOL    HW221867   1.286   1.535  13.505  1.6341  3.0984 -0.1893
 3469SOL     OW21868   2.250   1.886  12.463 -0.4520  0.3100 -0.5552
 3469SOL    HW121869   2.202   1.812  12.426 -0.8996  1.0439 -1.4355
 3469SOL    HW221870   2.279   1.853  12.549 -0.0987 -0.0338 -0.8057
 3470SOL     OW21871   3.158   2.910  14.330 -0.3786 -0.0468  0.1712
 3470SOL    HW121872   3.132   3.001  14.317  1.7512  0.5402  0.1705
 3470SOL    HW221873   3.077   2.875  14.291  0.2104 -0.3001 -0.8026
 3471SOL     OW21874   2.950   3.392  13.285  0.4262  0.2435 -0.1163
 3471SOL    HW121875   2.969   3.439  13.365  0.7432 -0.0179 -0.0347
 3471SOL    HW221876   3.016   3.323  13.296 -0.8200 -0.3653  3.4123
 3472SOL     OW21877   4.149   2.868   6.895  0.5887  0.2015  0.5301
 3472SOL    HW121878   4.154   2.850   6.801 -0.2506 -0.8009  0.6608
 3472SOL    HW221879   4.225   2.818   6.926  0.2191 -0.6679  0.0519
 3473SOL     OW21880   1.129   1.043   6.027 -0.2247 -0.3319  0.5049
 3473SOL    HW121881   1.059   1.100   6.058  0.3541  0.7153 -0.1308
 3473SOL    HW221882   1.198   1.064   6.090 -0.1757 -1.8622  0.9773
 3474SOL     OW21883   3.253   3.020   5.538 -0.4348  0.1542 -0.7258
 3474SOL    HW121884   3.254   3.107   5.578 -1.7209  0.2046 -0.8255
 3474SOL    HW221885   3.347   3.007   5.522  0.1834  1.0165  2.1816
 3475SOL     OW21886   1.055   2.811   8.829 -0.2155 -0.4184  0.3233
 3475SOL    HW121887   1.048   2.769   8.915 -1.0525  0.2114  0.5577
 3475SOL    HW221888   0.971   2.856   8.820 -0.1320  0.0602  1.8977
 3476SOL     OW21889   0.865   2.763  14.693 -0.1862 -0.0175  0.2966
 3476SOL    HW121890   0.788   2.769  14.750  0.7120  1.2728  1.3868
 3476SOL    HW221891   0.931   2.790  14.757  1.5752  0.2053 -1.6165
 3477SOL     OW21892   4.346   3.284   5.161 -0.1916 -0.6902 -0.0831
 3477SOL    HW121893   4.439   3.300   5.144  0.0412 -1.5898  0.3644
 3477SOL    HW221894   4.347   3.198   5.202  2.9940 -0.7943 -0.3533
 3478SOL     OW21895   3.144   0.675   6.504  0.1920  0.0747 -0.1384
 3478SOL    HW121896   3.138   0.580   6.517  1.2633 -0.1710 -1.3434
 3478SOL    HW221897   3.215   0.695   6.565  0.3575 -0.1922 -0.2397
 3479SOL     OW21898   4.248   2.774   5.291 -0.2149 -0.0522  0.2098
 3479SOL    HW121899   4.303   2.715   5.239  1.6920  1.2899  0.7070
 3479SOL    HW221900   4.289   2.760   5.376  0.2883  0.8250  0.1144
 3480SOL     OW21901   1.004   0.795   5.943 -0.4917  0.2879 -0.3565
 3480SOL    HW121902   1.033   0.884   5.924 -0.8831  0.6421  0.6844
 3480SOL    HW221903   1.007   0.805   6.038 -0.2355 -1.0850 -0.2284
 3481SOL     OW21904   0.247   4.396   1.954 -0.2983 -0.1709  0.0764
 3481SOL    HW121905   0.152   4.386   1.958 -0.0851 -2.6665 -0.8167
 3481SOL    HW221906   0.264   4.479   1.999  0.9819 -0.6675  0.5074
 3482SOL     OW21907   1.306   3.545   2.569  0.3282 -0.4540 -0.3423
 3482SOL    HW121908   1.397   3.528   2.593 -0.1875 -3.0514 -0.2476
 3482SOL    HW221909   1.292   3.639   2.577  1.2572 -0.1932 -1.7813
 3483SOL     OW21910   2.655   3.972   4.279  0.4639 -0.0497  0.0145
 3483SOL    HW121911   2.584   3.909   4.269 -0.7005  1.4742 -1.3904
 3483SOL    HW221912   2.650   3.977   4.375 -0.7982 -1.9684  0.0388
 3484SOL     OW21913   3.756   2.368   2.367 -0.5086 -0.0001  0.3297
 3484SOL    HW121914   3.821   2.311   2.326  1.4316  2.4597 -0.0226
 3484SOL    HW221915   3.814   2.427   2.415 -2.3841  0.0227  2.5640
 3485SOL     OW21916   0.475   4.149   6.251  0.7436  0.0894  0.0721
 3485SOL    HW121917   0.443   4.067   6.212  0.7233 -0.6137  1.5726
 3485SOL    HW221918   0.396   4.203   6.258  0.1796 -0.5043 -1.6552
 3486SOL     OW21919   3.718   0.920  13.832  0.0065 -0.1260  0.6639
 3486SOL    HW121920   3.668   0.998  13.856  1.2609  1.3747 -1.5516
 3486SOL    HW221921   3.681   0.848  13.883 -1.5615  0.1318 -0.0895
 3487SOL     OW21922   0.353   1.454   6.794  0.4698 -0.0531 -0.3800
 3487SOL    HW121923   0.424   1.403   6.755 -0.4063 -0.9450 -0.7905
 3487SOL    HW221924   0.294   1.380   6.799  2.6397 -1.8303 -1.0172
 3488SOL     OW21925   2.203   0.455  15.026 -0.0467 -0.5260  0.1311
 3488SOL    HW121926   2.245   0.374  14.997  0.3123 -0.5250  0.6445
 3488SOL    HW221927   2.146   0.416  15.092 -2.3214  0.9102 -0.9646
 3489SOL     OW21928   0.332   3.646   3.697 -0.1429  0.7597  0.1865
 3489SOL    HW121929   0.246   3.660   3.656  0.7963  1.0597 -1.6629
 3489SOL    HW221930   0.374   3.683   3.620 -0.0473  0.4498  0.0899
 3490SOL     OW21931   3.238   0.527   8.304 -0.9506  0.4744  0.1098
 3490SOL    HW121932   3.271   0.437   8.297  0.7904  1.1924 -0.9199
 3490SOL    HW221933   3.275   0.567   8.226  0.2609  0.6515  0.7834
 3491SOL     OW21934   2.181   1.742   7.427 -0.5319 -0.0420  0.1438
 3491SOL    HW121935   2.161   1.716   7.337 -0.6944  1.0482 -0.1408
 3491SOL    HW221936   2.099   1.788   7.447  0.8558  3.1538 -1.3847
 3492SOL     OW21937   1.102   1.966   1.463 -0.0676 -0.3416  0.6555
 3492SOL    HW121938   1.155   1.992   1.538  0.2856  0.7295  0.0310
 3492SOL    HW221939   1.097   1.871   1.474 -0.2157 -0.3103  0.8678
 3493SOL     OW21940   3.159   3.039   6.514 -0.2636  0.3166  0.7124
 3493SOL    HW121941   3.218   3.091   6.568  0.2126 -0.3743  0.8665
 3493SOL    HW221942   3.169   3.079   6.428 -2.0593  2.3206  1.4541
 3494SOL     OW21943   0.912   4.496   9.990 -0.5732 -0.8325  0.3853
 3494SOL    HW121944   0.895   4.413  10.034 -3.0845  0.0610  1.0925
 3494SOL    HW221945   1.007   4.489   9.982 -0.4686 -0.8454  1.6621
 3495SOL     OW21946   3.302   4.180   9.967  0.3398 -0.4286 -0.0245
 3495SOL    HW121947   3.279   4.112  10.031 -0.9806 -0.8410 -0.9492
 3495SOL    HW221948   3.358   4.243  10.012 -1.3176  0.8808  0.2122
 3496SOL     OW21949   0.728   3.012   7.961  0.1788  0.5318  0.3974
 3496SOL    HW121950   0.788   3.045   7.895  0.6307 -3.6090 -1.2705
 3496SOL    HW221951   0.744   2.918   7.955 -0.9781  0.3916 -0.3473
 3497SOL     OW21952   1.886   0.451   6.712  0.0200 -0.3633  0.2077
 3497SOL    HW121953   1.939   0.499   6.775  2.2911 -1.0048 -1.2061
 3497SOL    HW221954   1.936   0.369   6.715 -0.6047 -0.7825 -1.0170
 3498SOL     OW21955   1.748   4.391   4.525 -0.3258 -0.1942  0.1373
 3498SOL    HW121956   1.795   4.474   4.518 -0.9253  0.1379  0.0399
 3498SOL    HW221957   1.794   4.339   4.459  0.2823  1.0156 -0.3897
 3499SOL     OW21958   0.992   2.321   2.147  0.3197  0.1604 -0.1490
 3499SOL    HW121959   0.987   2.401   2.200  0.9764  1.4207 -2.0066
 3499SOL    HW221960   0.923   2.270   2.189  1.1908 -0.3739  0.6370
 3500SOL     OW21961   3.904   3.585   5.240 -0.7357 -0.0776 -0.0538
 3500SOL    HW121962   3.878   3.676   5.227  0.1275 -0.0693 -1.6751
 3500SOL    HW221963   3.996   3.597   5.218 -0.2555  2.1474  3.1324
 3501SOL     OW21964   3.523   0.109  13.438  0.0340 -0.2347 -0.1877
 3501SOL    HW121965   3.437   0.128  13.399  0.2291  2.0039  0.4463
 3501SOL    HW221966   3.507   0.143  13.526 -3.6256  2.7577 -1.9983
 3502SOL     OW21967   0.823   1.791   7.704  0.1604 -0.0242  0.0596
 3502SOL    HW121968   0.748   1.786   7.644  1.0023 -1.3097 -0.8698
 3502SOL    HW221969   0.782   1.836   7.778 -2.3478 -0.1531 -1.2476
 3503SOL     OW21970   0.041   1.635   5.701 -0.0356 -0.3045  0.1337
 3503SOL    HW121971   0.060   1.542   5.717  0.5500 -0.4944 -1.6910
 3503SOL    HW221972   0.079   1.646   5.614  2.0992  2.1164  1.3865
 3504SOL     OW21973   1.076   2.174   4.234 -0.3924  0.0712 -0.5881
 3504SOL    HW121974   0.994   2.200   4.277  0.3921  1.1557  0.2287
 3504SOL    HW221975   1.052   2.156   4.143 -0.1492 -1.5911 -0.3302
 3505SOL     OW21976   3.668   3.966   7.903 -0.0631 -0.0755 -0.5382
 3505SOL    HW121977   3.746   3.953   7.957 -1.1410  1.7331  1.4747
 3505SOL    HW221978   3.606   3.991   7.971 -0.3894  0.6600 -1.0993
 3506SOL     OW21979   1.889   2.853   8.895  0.2276 -0.1651  0.5903
 3506SOL    HW121980   1.807   2.831   8.939 -0.5124  2.8931  0.6920
 3506SOL    HW221981   1.932   2.908   8.960 -1.8751  0.5636  1.3370
 3507SOL     OW21982   1.370   3.097  12.037 -0.4678 -0.3651  0.1759
 3507SOL    HW121983   1.355   3.132  12.125  2.3360  0.5476  0.2847
 3507SOL    HW221984   1.439   3.031  12.053  0.3783  0.7884  1.3262
 3508SOL     OW21985   3.599   4.235   8.165 -0.2576 -0.3857 -0.3986
 3508SOL    HW121986   3.531   4.168   8.173  0.8281 -1.2376  1.6835
 3508SOL    HW221987   3.684   4.190   8.159 -0.3023 -0.3436 -1.2926
 3509SOL     OW21988   0.589   2.777   5.484  0.3877 -0.1591  0.0665
 3509SOL    HW121989   0.514   2.717   5.477 -0.4944  1.0213 -0.7002
 3509SOL    HW221990   0.587   2.813   5.395 -0.0102  0.1997  0.2180
 3510SOL     OW21991   1.873   3.755  13.500  0.3509 -0.3534  0.4204
 3510SOL    HW121992   1.886   3.839  13.544 -2.8273  0.0199  0.6481
 3510SOL    HW221993   1.821   3.711  13.567  0.0444 -1.1747 -0.3568
 3511SOL     OW21994   1.148   4.381   7.806 -0.0747  0.5273 -0.8749
 3511SOL    HW121995   1.175   4.461   7.761 -0.0917  0.9960 -0.0372
 3511SOL    HW221996   1.054   4.379   7.786  0.4005  0.3981 -3.1622
 3512SOL     OW21997   2.457   4.180   3.679 -0.1986 -0.1487 -0.1322
 3512SOL    HW121998   2.480   4.251   3.739 -0.2514 -0.9270  0.8047
 3512SOL    HW221999   2.418   4.126   3.747  1.8562 -0.4727  0.7839
 3513SOL     OW22000   2.392   3.662   3.888  0.5999 -0.1766 -0.4548
 3513SOL    HW122001   2.460   3.725   3.911 -0.0931  0.1477  0.7062
 3513SOL    HW222002   2.386   3.591   3.952 -0.5803 -1.8826 -2.4367
 3514SOL     OW22003   0.728   1.139   6.540 -0.4183 -0.1775 -0.2859
 3514SOL    HW122004   0.677   1.208   6.584 -2.2213 -0.4533 -1.9766
 3514SOL    HW222005   0.695   1.054   6.568  1.2136 -0.7712 -0.1891
 3515SOL     OW22006   3.318   2.001   7.343  0.2174  1.1561  0.0399
 3515SOL    HW122007   3.307   1.916   7.385 -2.7500  1.1988 -0.6649
 3515SOL    HW222008   3.377   1.965   7.277 -0.3751 -0.3955  0.3661
 3516SOL     OW22009   3.719   2.234   7.392 -0.3001  0.2410 -0.4340
 3516SOL    HW122010   3.749   2.324   7.403 -4.3422  1.1447  3.3933
 3516SOL    HW222011   3.635   2.238   7.439  0.7848 -1.6564  1.6786
 3517SOL     OW22012   3.103   2.005   8.751 -0.5841  0.2102  0.2364
 3517SOL    HW122013   3.181   2.060   8.761  0.3776 -0.7748 -1.8724
 3517SOL    HW222014   3.090   2.029   8.659 -1.2525  1.9513  0.7717
 3518SOL     OW22015   4.652   3.875   1.890  0.2659 -0.0752 -0.3495
 3518SOL    HW122016   4.580   3.815   1.866 -1.1411  0.8467  1.6012
 3518SOL    HW222017   4.660   3.933   1.814  1.0354  0.5641  0.2238
 3519SOL     OW22018   3.442   2.382   4.298  0.0219 -0.2149 -1.0849
 3519SOL    HW122019   3.531   2.408   4.277 -0.0612  0.4859 -0.5700
 3519SOL    HW222020   3.418   2.336   4.218 -1.4052 -4.8247  2.0086
 3520SOL     OW22021   4.230   0.355  16.610 -0.4883  0.0640  0.1618
 3520SOL    HW122022   4.209   0.447  16.594 -0.9769 -0.3946 -1.8453
 3520SOL    HW222023   4.287   0.360  16.687  0.0479  0.0538 -0.2360
 3521SOL     OW22024   4.501   0.034   6.006  0.3661 -0.0546 -0.6138
 3521SOL    HW122025   4.466   0.108   6.054 -1.0989 -1.5962  0.7062
 3521SOL    HW222026   4.424   4.720   5.962  1.3814 -2.4697 -0.3331
 3522SOL     OW22027   2.523   3.155   6.344 -0.1561  0.0778  0.5015
 3522SOL    HW122028   2.429   3.160   6.325 -0.6294  2.7505  3.5922
 3522SOL    HW222029   2.560   3.130   6.259  0.3290  0.5559  0.5756
 3523SOL     OW22030   0.779   0.888   3.225  0.2894  0.3112 -0.6799
 3523SOL    HW122031   0.863   0.912   3.265 -1.3006  1.5047  1.9427
 3523SOL    HW222032   0.812   0.826   3.161 -0.3113 -0.0037 -0.6832
 3524SOL     OW22033   0.511   0.732  14.729 -0.0463 -0.2093  0.2583
 3524SOL    HW122034   0.500   0.690  14.644  1.5486  1.1024 -0.6113
 3524SOL    HW222035   0.421   0.743  14.759 -0.8769 -2.7464 -1.3278
 3525SOL     OW22036   0.916   4.148   5.786  0.4056  0.0275 -0.4073
 3525SOL    HW122037   0.980   4.148   5.715 -0.2115  3.1565 -0.9608
 3525SOL    HW222038   0.973   4.141   5.863  1.7229  1.1025 -1.2820
 3526SOL     OW22039   0.001   0.751  14.047 -0.1234 -0.0301 -0.1260
 3526SOL    HW122040   4.647   0.785  14.002  0.7393  1.4185 -0.5084
 3526SOL    HW222041   0.075   0.797  14.008 -1.6403  0.0490 -2.9045
 3527SOL     OW22042   0.421   0.569   9.140 -0.1143 -0.1466  0.0509
 3527SOL    HW122043   0.510   0.540   9.161  0.3905  3.0562  2.2707
 3527SOL    HW222044   0.394   0.497   9.083  1.7237 -1.7295  1.1813
 3528SOL     OW22045   2.741   0.776  11.228 -0.0907 -0.8467  0.0901
 3528SOL    HW122046   2.829   0.750  11.255  0.1953  0.3038  0.2721
 3528SOL    HW222047   2.754   0.871  11.231  0.5007 -0.8949 -1.1924
 3529SOL     OW22048   0.080   2.316  14.835 -0.7116  0.4653  0.3208
 3529SOL    HW122049   0.004   2.340  14.783 -1.0301 -1.2661  0.0076
 3529SOL    HW222050   0.125   2.400  14.827 -0.6507  0.6988  2.9481
 3530SOL     OW22051   3.442   2.565   3.399  0.2857 -0.0617  0.0860
 3530SOL    HW122052   3.419   2.499   3.465  1.1254 -3.1795 -2.7303
 3530SOL    HW222053   3.444   2.510   3.321  1.1201  0.1984 -0.0706
 3531SOL     OW22054   0.985   2.567   4.402 -0.3425  0.1599  0.3296
 3531SOL    HW122055   0.923   2.530   4.339 -0.1768 -0.4970  0.5569
 3531SOL    HW222056   0.936   2.546   4.481 -1.0476 -2.2590 -0.7311
 3532SOL     OW22057   1.441   1.182  15.044 -0.1967  0.2324 -0.7088
 3532SOL    HW122058   1.348   1.185  15.068 -0.0573  3.0702 -0.5053
 3532SOL    HW222059   1.494   1.228  15.108  0.0028 -1.6919  0.4908
 3533SOL     OW22060   0.484   0.323   3.284  0.3118  0.2137  0.3682
 3533SOL    HW122061   0.413   0.368   3.239  0.8152  0.2220 -0.4152
 3533SOL    HW222062   0.559   0.370   3.248  0.5237 -0.7004 -0.3987
 3534SOL     OW22063   1.237   1.025  10.368  0.3354 -0.3654  0.3650
 3534SOL    HW122064   1.230   0.965  10.294 -1.5243  0.2102  0.0702
 3534SOL    HW222065   1.246   1.108  10.321 -1.3629 -1.0628 -1.2157
 3535SOL     OW22066   0.423   0.257   3.527 -0.0922  0.2768  0.2379
 3535SOL    HW122067   0.328   0.252   3.515 -0.0630 -0.3132  0.2728
 3535SOL    HW222068   0.450   0.298   3.445 -0.4782  1.9949  0.9674
 3536SOL     OW22069   2.833   1.438   4.162 -0.4403  0.5076 -0.8269
 3536SOL    HW122070   2.792   1.353   4.146 -1.3284  0.7739  0.0476
 3536SOL    HW222071   2.925   1.424   4.140 -0.0379  0.6548  0.7880
 3537SOL     OW22072   2.130   2.227  13.953 -0.1714 -0.5175 -0.5419
 3537SOL    HW122073   2.130   2.232  13.858 -1.0052 -1.7067 -0.6024
 3537SOL    HW222074   2.197   2.160  13.963  0.9017  0.7852  0.9401
 3538SOL     OW22075   3.245   2.992   2.624 -0.2224 -0.6051  0.0218
 3538SOL    HW122076   3.299   3.069   2.608  0.1729 -0.7740  0.5424
 3538SOL    HW222077   3.240   3.005   2.719 -1.6926 -0.6734 -0.0534
 3539SOL     OW22078   0.283   1.331   7.283 -0.1379 -0.0620  0.0533
 3539SOL    HW122079   0.192   1.306   7.267 -0.1518 -0.7105  1.1495
 3539SOL    HW222080   0.307   1.401   7.223  2.1591 -1.0047 -0.1478
 3540SOL     OW22081   1.501   2.325  11.655 -0.2960  0.2402 -0.2658
 3540SOL    HW122082   1.556   2.259  11.612 -0.2877 -1.2725  2.1114
 3540SOL    HW222083   1.420   2.322  11.604 -0.1228  0.4297 -0.5524
 3541SOL     OW22084   2.709   0.463   2.300 -0.1425  0.7875 -0.4912
 3541SOL    HW122085   2.669   0.490   2.384  3.1948  0.5541  1.1744
 3541SOL    HW222086   2.717   0.546   2.252  0.6519  1.7804  1.3407
 3542SOL     OW22087   1.001   3.134  11.772 -0.5221  0.4911 -0.7138
 3542SOL    HW122088   0.908   3.126  11.751 -1.3545 -0.8755  3.3308
 3542SOL    HW222089   1.031   3.158  11.684 -0.4810  0.1809 -0.7845
 3543SOL     OW22090   0.466   1.402   2.390 -0.7124  0.0281 -0.0608
 3543SOL    HW122091   0.510   1.407   2.305  1.1995  3.7143  1.1393
 3543SOL    HW222092   0.386   1.353   2.372  0.6486 -2.2660  0.1165
 3544SOL     OW22093   3.184   0.470  15.654 -0.0135  0.0094 -0.4786
 3544SOL    HW122094   3.197   0.385  15.613  2.2136  0.4067 -0.6394
 3544SOL    HW222095   3.233   0.527  15.594 -1.1148 -0.6795 -2.0077
 3545SOL     OW22096   1.157   3.362   2.811 -0.0820  0.1925  0.1939
 3545SOL    HW122097   1.147   3.457   2.804 -0.8271 -0.1521 -3.5775
 3545SOL    HW222098   1.247   3.342   2.784  0.4633 -1.7111  3.4079
 3546SOL     OW22099   1.900   2.811  11.517  0.7190  0.2005  0.9139
 3546SOL    HW122100   1.857   2.726  11.521 -0.7139  0.9301  1.1750
 3546SOL    HW222101   1.980   2.796  11.566  1.4050 -4.1573 -1.6327
 3547SOL     OW22102   3.597   0.045   0.922  0.5974  0.4603  0.6757
 3547SOL    HW122103   3.609   0.128   0.967  0.2650  2.2408 -2.5403
 3547SOL    HW222104   3.539   0.072   0.851  0.3626  0.6651  0.9458
 3548SOL     OW22105   4.720   4.393   6.867 -0.0633  0.1549  0.7218
 3548SOL    HW122106   4.680   4.434   6.791  0.2130 -0.6933  0.1141
 3548SOL    HW222107   0.086   4.424   6.854 -0.4381  0.5808 -0.8121
 3549SOL     OW22108   0.617   1.822   7.524 -0.5386  0.0224 -0.0287
 3549SOL    HW122109   0.545   1.772   7.563 -0.9701 -0.2377 -1.1669
 3549SOL    HW222110   0.588   1.837   7.434 -1.9662 -0.3206  0.3649
 3550SOL     OW22111   0.200   3.863  14.328  0.4475  0.2848  0.1103
 3550SOL    HW122112   0.225   3.828  14.413 -1.0194  1.9024  1.1931
 3550SOL    HW222113   0.283   3.854  14.281  0.9105 -0.3825  1.0661
 3551SOL     OW22114   1.576   0.104  16.915 -0.2103  0.1398 -0.3388
 3551SOL    HW122115   1.514   0.031  16.910 -4.1887  3.5767 -1.2153
 3551SOL    HW222116   1.641   0.079  16.981 -3.0525 -1.2101  1.9647
 3552SOL     OW22117   4.468   2.880   3.363  0.0542  0.3424  0.2186
 3552SOL    HW122118   4.474   2.975   3.377 -0.4478  0.2542  1.0319
 3552SOL    HW222119   4.545   2.854   3.413  0.8996 -0.9093 -1.7425
 3553SOL     OW22120   0.617   0.590   8.848  0.5674 -0.2865  0.5045
 3553SOL    HW122121   0.533   0.583   8.893  0.5547  0.4624  0.6078
 3553SOL    HW222122   0.657   0.505   8.866  2.1246  0.6524  1.4351
 3554SOL     OW22123   1.133   1.356   5.935 -0.1625 -0.0222  0.1167
 3554SOL    HW122124   1.078   1.303   5.992  1.1620  0.7755  2.1337
 3554SOL    HW222125   1.152   1.288   5.871  1.3143  0.8223 -0.3459
 3555SOL     OW22126   3.712   3.545  11.113  0.0480  0.0448  0.5911
 3555SOL    HW122127   3.804   3.567  11.126  0.0955 -0.0199  0.3761
 3555SOL    HW222128   3.708   3.535  11.018  1.4021 -1.3031  0.6755
 3556SOL     OW22129   2.305   0.702  11.589  0.3546 -0.1482 -0.7180
 3556SOL    HW122130   2.227   0.647  11.578  0.3764 -0.6362  1.5221
 3556SOL    HW222131   2.345   0.666  11.669 -0.6045 -0.8546 -0.5479
 3557SOL     OW22132   0.386   1.487   7.063  0.0023  0.1612  0.5422
 3557SOL    HW122133   0.374   1.484   6.969 -1.9460  1.4087  0.7647
 3557SOL    HW222134   0.298   1.518   7.086 -0.4735 -0.3568 -0.5879
 3558SOL     OW22135   4.065   1.046   1.997  0.8402  0.2197  0.7382
 3558SOL    HW122136   4.102   1.107   2.060  0.5526  0.3097  0.8190
 3558SOL    HW222137   4.085   0.961   2.036  1.5601  0.5472  1.0794
 3559SOL     OW22138   4.387   3.740   6.786 -0.0490 -0.6097  0.7439
 3559SOL    HW122139   4.470   3.693   6.785 -0.2547 -1.0014  1.6716
 3559SOL    HW222140   4.403   3.812   6.848  1.4153  0.9943 -1.5148
 3560SOL     OW22141   2.717   4.080   3.831  0.1023  0.1531  0.3364
 3560SOL    HW122142   2.692   4.154   3.887  0.9658  0.4639  0.3086
 3560SOL    HW222143   2.696   4.093   3.739  0.8919  0.9134  0.2579
 3561SOL     OW22144   2.658   1.849   9.124  0.4683 -0.0789 -0.3739
 3561SOL    HW122145   2.665   1.883   9.035  0.0312 -1.7670 -1.0553
 3561SOL    HW222146   2.691   1.761   9.108 -0.8816 -0.9263  1.6177
 3562SOL     OW22147   0.870   1.537  10.495 -0.0493  0.3539 -0.8022
 3562SOL    HW122148   0.906   1.625  10.496  0.7202  0.0567 -2.3095
 3562SOL    HW222149   0.947   1.486  10.471 -1.1734 -0.6296 -2.3837
 3563SOL     OW22150   2.260   0.802  11.123 -0.4900 -0.5524 -0.5612
 3563SOL    HW122151   2.235   0.883  11.166 -0.0595 -0.5361 -0.3373
 3563SOL    HW222152   2.244   0.824  11.031 -0.9227 -0.2430 -0.4129
 3564SOL     OW22153   4.523   1.591   0.591  0.5578 -0.1621  0.2637
 3564SOL    HW122154   4.478   1.590   0.675 -0.7547 -1.7129 -0.4674
 3564SOL    HW222155   4.545   1.683   0.574 -1.5731  0.9413  3.6591
 3565SOL     OW22156   1.078   1.558   7.385  0.3914  0.4314  0.3507
 3565SOL    HW122157   1.060   1.495   7.316 -0.8940 -2.3403  3.1962
 3565SOL    HW222158   1.129   1.503   7.444 -0.4371  0.7226  1.3558
 3566SOL     OW22159   0.104   2.114   8.875  0.0780 -0.4917 -0.3981
 3566SOL    HW122160   0.137   2.111   8.785 -0.8547  1.4389 -0.8090
 3566SOL    HW222161   0.171   2.167   8.919  2.2529 -1.6598 -2.2837
 3567SOL     OW22162   4.146   0.390   3.086  0.2373  0.2918  0.3067
 3567SOL    HW122163   4.094   0.448   3.142  2.0047  1.7936  0.4035
 3567SOL    HW222164   4.076   0.355   3.031  0.7068 -0.0434 -0.0847
 3568SOL     OW22165   4.682   0.589  16.766 -0.4005 -0.7511  0.4066
 3568SOL    HW122166   4.684   0.497  16.738  2.8692 -0.1906 -1.1103
 3568SOL    HW222167   4.689   0.588  16.862  0.0410  0.3606  0.3842
 3569SOL     OW22168   2.908   2.363  11.865  0.4360 -0.6644  0.1494
 3569SOL    HW122169   2.953   2.399  11.789 -0.8972  0.1979 -0.2295
 3569SOL    HW222170   2.914   2.268  11.854 -0.1933 -0.6613 -0.2296
 3570SOL     OW22171   2.381   3.706   2.519 -0.1951 -0.2929  0.0182
 3570SOL    HW122172   2.335   3.783   2.485  0.6287 -0.1901 -0.8821
 3570SOL    HW222173   2.470   3.736   2.504  0.0435 -0.9526  0.1151
 3571SOL     OW22174   0.236   1.152   3.764  0.1034 -0.2173  0.0782
 3571SOL    HW122175   0.266   1.082   3.706 -1.9076 -2.0222  1.2151
 3571SOL    HW222176   0.157   1.115   3.803  1.7338  0.5632  4.1273
 3572SOL     OW22177   4.292   4.596   2.818  0.4226  0.3701  0.0322
 3572SOL    HW122178   4.311   4.571   2.908 -0.8949  2.7884  0.9977
 3572SOL    HW222179   4.311   4.688   2.835  0.6609  0.4877 -0.8744
 3573SOL     OW22180   4.563   2.020   2.805 -0.4738 -0.4539  0.6627
 3573SOL    HW122181   4.508   2.056   2.874 -2.3214  1.4011 -1.7860
 3573SOL    HW222182   4.539   2.071   2.728  1.7941 -0.3897 -0.0123
 3574SOL     OW22183   3.811   2.329   1.408 -0.0990 -0.4410 -0.5352
 3574SOL    HW122184   3.725   2.316   1.448  0.6751 -1.0869  0.8913
 3574SOL    HW222185   3.793   2.376   1.326  0.9286  0.3699 -0.2930
 3575SOL     OW22186   4.587   0.470   3.182 -0.3861  0.3490 -0.6324
 3575SOL    HW122187   4.515   0.504   3.127 -0.8836 -2.2150 -1.5838
 3575SOL    HW222188   4.572   0.376   3.186  1.5930  0.0180 -1.0431
 3576SOL     OW22189   3.992   0.016   0.618 -0.3022  0.7273  0.7974
 3576SOL    HW122190   4.084   0.034   0.596 -0.0659 -0.4497  0.8507
 3576SOL    HW222191   4.000   4.681   0.693 -1.2568 -0.3809  0.0076
 3577SOL     OW22192   1.326   0.551  15.363  0.0291  0.1039 -0.0080
 3577SOL    HW122193   1.236   0.530  15.341  0.5685 -4.4851  2.2705
 3577SOL    HW222194   1.370   0.546  15.278 -1.6508  3.8605 -1.1048
 3578SOL     OW22195   2.550   2.774  14.926 -0.4889 -0.6450  0.5310
 3578SOL    HW122196   2.560   2.866  14.901  0.7217 -0.9917 -0.2318
 3578SOL    HW222197   2.639   2.749  14.951  0.6010  0.9675 -1.7645
 3579SOL     OW22198   2.273   3.133   6.940 -0.2920  0.1120 -0.4542
 3579SOL    HW122199   2.247   3.213   6.987  2.3976 -0.3494  1.8173
 3579SOL    HW222200   2.197   3.080   6.963 -0.4161  1.7253  2.7862
 3580SOL     OW22201   0.725   1.419   2.661 -0.5038 -0.3866 -0.6918
 3580SOL    HW122202   0.722   1.498   2.715  2.4326 -1.7073  1.3802
 3580SOL    HW222203   0.819   1.413   2.642 -0.3501 -1.0296  0.3038
 3581SOL     OW22204   1.311   4.648   9.226  0.6352 -0.0578 -0.6805
 3581SOL    HW122205   1.385   4.591   9.248  1.5848  1.3185 -0.3399
 3581SOL    HW222206   1.253   4.575   9.203 -0.5716  0.4471  0.7759
 3582SOL     OW22207   2.464   2.720   4.188 -0.0075  0.2728  0.1359
 3582SOL    HW122208   2.534   2.761   4.239  0.9596 -0.7590 -0.3618
 3582SOL    HW222209   2.430   2.798   4.145 -0.8718 -0.7324 -0.9827
 3583SOL     OW22210   0.813   0.743  16.145 -0.1052 -0.6657  0.5880
 3583SOL    HW122211   0.785   0.753  16.054  1.0536  0.9517  0.4154
 3583SOL    HW222212   0.870   0.666  16.134  0.4950 -0.5639  2.8165
 3584SOL     OW22213   4.004   3.589   1.334  0.4059  0.4031 -0.0700
 3584SOL    HW122214   4.063   3.525   1.373 -2.0522 -1.2565  0.9335
 3584SOL    HW222215   4.014   3.672   1.382  1.5666  0.0256  0.3394
 3585SOL     OW22216   2.118   2.516   4.859 -0.3288 -0.5754  0.1888
 3585SOL    HW122217   2.206   2.553   4.852 -0.3603 -0.3399  0.9527
 3585SOL    HW222218   2.076   2.585   4.911 -0.3205 -1.4590  1.3647
 3586SOL     OW22219   2.597   0.631   2.493 -0.2956 -0.2460 -0.1220
 3586SOL    HW122220   2.553   0.606   2.574 -0.9560  0.9581 -0.1186
 3586SOL    HW222221   2.666   0.690   2.525 -0.6736  0.5529 -0.7933
 3587SOL     OW22222   3.045   2.744   7.447  0.3430  0.4166 -0.0018
 3587SOL    HW122223   2.955   2.733   7.478 -0.2983  1.3335 -1.5535
 3587SOL    HW222224   3.032   2.836   7.424 -0.0859  0.3347 -0.0761
 3588SOL     OW22225   4.529   1.071   3.132 -0.4696 -0.2571  0.6643
 3588SOL    HW122226   4.592   1.024   3.186 -0.0616 -0.1685  0.2675
 3588SOL    HW222227   4.583   1.149   3.118 -0.0294 -0.2808  2.2132
 3589SOL     OW22228   2.939   1.545   5.855 -0.4514 -0.1986 -0.3266
 3589SOL    HW122229   3.033   1.561   5.863 -0.4132 -1.7221  2.4506
 3589SOL    HW222230   2.921   1.616   5.794  2.4378 -1.6977 -2.8909
 3590SOL     OW22231   2.484   2.926   6.162 -0.1853 -0.1733 -0.0798
 3590SOL    HW122232   2.477   2.883   6.077  1.8327 -1.3552  0.3425
 3590SOL    HW222233   2.397   2.932   6.200 -0.4362  1.6144 -0.9282
 3591SOL     OW22234   1.780   2.702  12.628  0.2053  0.4025 -0.2692
 3591SOL    HW122235   1.775   2.683  12.722 -0.0514 -2.9290 -0.9631
 3591SOL    HW222236   1.773   2.614  12.590 -1.3699  0.6163 -0.4815
 3592SOL     OW22237   3.593   0.911  15.555 -0.0599  0.3081 -1.0338
 3592SOL    HW122238   3.669   0.944  15.506  2.2850 -1.4235  1.4523
 3592SOL    HW222239   3.546   0.994  15.557  2.0583  1.4818  0.2424
 3593SOL     OW22240   3.149   0.680   9.073  0.2721  0.0867  0.2506
 3593SOL    HW122241   3.228   0.704   9.121  0.6820  1.0364 -0.8795
 3593SOL    HW222242   3.132   0.757   9.019 -1.0937  0.2413  0.9059
 3594SOL     OW22243   0.157   2.109   2.904  0.3264  0.0194  0.1694
 3594SOL    HW122244   0.089   2.163   2.945 -0.6439 -1.1198  0.0573
 3594SOL    HW222245   0.164   2.148   2.817 -1.2956  0.6467  0.3167
 3595SOL     OW22246   1.057   2.699   5.913 -0.3484  0.3797  0.0561
 3595SOL    HW122247   1.150   2.696   5.938 -0.8197  0.3184  1.8226
 3595SOL    HW222248   1.017   2.723   5.997 -1.8754 -0.0033 -0.5607
 3596SOL     OW22249   4.031   0.302   7.204  0.5688 -0.9895  0.0941
 3596SOL    HW122250   4.077   0.224   7.173  2.3421 -0.2461  0.8171
 3596SOL    HW222251   3.942   0.269   7.208  0.6260 -1.2385 -0.5595
 3597SOL     OW22252   2.304   1.136   6.628 -0.0183  0.0910  0.5172
 3597SOL    HW122253   2.286   1.166   6.539 -0.8322 -2.1636 -0.0857
 3597SOL    HW222254   2.337   1.047   6.612 -0.1001  0.3083 -0.8889
 3598SOL     OW22255   1.913   1.057   5.618 -0.0086  0.0216 -0.3100
 3598SOL    HW122256   1.925   1.133   5.674 -1.3150  0.6854 -0.9403
 3598SOL    HW222257   1.918   1.090   5.529 -2.7038 -3.3406 -1.7143
 3599SOL     OW22258   0.104   2.038   6.319  0.6829 -0.5053 -0.0332
 3599SOL    HW122259   0.163   2.082   6.258 -1.3338  1.6748 -0.3882
 3599SOL    HW222260   0.085   2.112   6.376  0.9782 -1.6900  1.5935
 3600SOL     OW22261   4.357   3.723   7.870 -0.1864 -0.0177 -0.0348
 3600SOL    HW122262   4.267   3.755   7.877 -0.1276  0.5066 -1.5422
 3600SOL    HW222263   4.399   3.805   7.843  1.5147 -1.6423 -2.2572
 3601SOL     OW22264   2.689   1.676   5.060 -0.8706  0.7781 -0.4808
 3601SOL    HW122265   2.748   1.627   5.118  2.3770  0.9140 -3.7058
 3601SOL    HW222266   2.744   1.700   4.986  1.5383  0.5635  1.2513
 3602SOL     OW22267   1.813   4.112   7.487 -0.3144  0.1753  0.0112
 3602SOL    HW122268   1.849   4.093   7.574  1.0886  2.2270 -0.1116
 3602SOL    HW222269   1.871   4.183   7.457 -0.2024  0.1887  0.2597
 3603SOL     OW22270   3.485   4.698   6.413  0.1419  0.0715  0.4529
 3603SOL    HW122271   3.436   4.653   6.482 -1.3649 -0.8979 -1.2565
 3603SOL    HW222272   3.418   0.017   6.359  0.2841  1.0392  1.0363
 3604SOL     OW22273   1.265   3.552  11.343  0.1619 -0.1591 -0.4429
 3604SOL    HW122274   1.198   3.617  11.319 -0.0939 -0.2993 -0.1001
 3604SOL    HW222275   1.294   3.522  11.256 -1.0972 -2.8182  0.0683
 3605SOL     OW22276   3.334   0.892  16.066 -0.0662 -0.2023 -0.2499
 3605SOL    HW122277   3.425   0.865  16.055  0.4534  0.9752  1.2025
 3605SOL    HW222278   3.352   0.985  16.081  1.5183 -0.6658  0.6819
 3606SOL     OW22279   2.373   1.494   0.536 -0.1752 -0.4880 -0.1341
 3606SOL    HW122280   2.415   1.524   0.617 -0.4025  0.1553 -0.2605
 3606SOL    HW222281   2.280   1.498   0.555 -0.5708  0.4755 -2.2894
 3607SOL     OW22282   0.809   2.093   4.382 -0.4077  0.2017  0.3200
 3607SOL    HW122283   0.738   2.092   4.447 -0.7237 -1.2062 -0.0482
 3607SOL    HW222284   0.810   1.998   4.368  2.6946  0.3042 -0.0821
 3608SOL     OW22285   4.074   3.485   4.812 -0.1273  0.2416 -0.1291
 3608SOL    HW122286   3.978   3.480   4.803 -0.1229  2.2110 -1.1619
 3608SOL    HW222287   4.091   3.394   4.837  1.8352  1.0276  1.3504
 3609SOL     OW22288   2.364   4.261   3.429 -0.6382  0.3430  0.4699
 3609SOL    HW122289   2.389   4.210   3.506 -0.9497 -0.3700  0.1029
 3609SOL    HW222290   2.392   4.193   3.367  1.0238  1.8084 -0.3827
 3610SOL     OW22291   0.970   3.770  16.402 -0.0560 -0.1852  0.0662
 3610SOL    HW122292   0.956   3.857  16.441  0.2949 -0.7368  1.4302
 3610SOL    HW222293   1.058   3.751  16.435 -0.1359  0.5201  0.7063
 3611SOL     OW22294   4.621   3.733   8.082 -0.2183  0.2964 -0.5825
 3611SOL    HW122295   4.620   3.638   8.091 -0.3039  0.2604 -0.9588
 3611SOL    HW222296   4.552   3.765   8.140  0.6354  1.7164 -0.3476
 3612SOL     OW22297   1.784   3.850   6.868  0.8424 -0.3794 -0.8059
 3612SOL    HW122298   1.798   3.761   6.902  3.0069 -0.6844 -2.4831
 3612SOL    HW222299   1.693   3.861   6.894  1.1349 -1.8714  0.8617
 3613SOL     OW22300   3.225   0.852   4.899  0.3154 -0.0237  0.3096
 3613SOL    HW122301   3.295   0.861   4.836  0.5093 -1.0767  0.3715
 3613SOL    HW222302   3.222   0.941   4.936  0.1251 -1.1679  3.1095
 3614SOL     OW22303   2.103   1.820  13.202  0.2148 -0.3826 -0.3542
 3614SOL    HW122304   2.090   1.737  13.248  2.4421  0.4653  1.8094
 3614SOL    HW222305   2.012   1.846  13.189  0.4956  1.6389  1.8997
 3615SOL     OW22306   0.335   2.584   2.622 -0.5059 -0.4586 -0.0334
 3615SOL    HW122307   0.427   2.597   2.599 -0.8285  0.8020 -0.6171
 3615SOL    HW222308   0.305   2.507   2.575 -0.8879  1.1676 -2.4199
 3616SOL     OW22309   4.137   4.072   6.572  0.3986  0.1527 -0.3305
 3616SOL    HW122310   4.185   3.990   6.584  0.5356  0.0753 -1.3905
 3616SOL    HW222311   4.046   4.050   6.591  0.2106 -0.1453 -1.5417
 3617SOL     OW22312   3.619   4.019   4.411  0.0633 -0.1565  0.2372
 3617SOL    HW122313   3.540   4.071   4.428  2.1665  2.4466  2.0744
 3617SOL    HW222314   3.687   4.086   4.418 -0.0749 -0.0796  0.8350
 3618SOL     OW22315   0.113   3.097   3.323  0.1707 -0.8131 -0.3129
 3618SOL    HW122316   0.064   3.058   3.395  1.0196 -1.1443  0.0894
 3618SOL    HW222317   0.130   3.022   3.266 -2.3350 -0.0859 -2.0162
 3619SOL     OW22318   2.802   1.559  12.810  0.3671 -0.0794  0.0220
 3619SOL    HW122319   2.738   1.580  12.742  0.1249 -0.3128  0.1771
 3619SOL    HW222320   2.794   1.464  12.808  1.6341 -0.1535 -0.9966
 3620SOL     OW22321   1.534   2.878   2.719 -0.2425 -0.5220 -0.0682
 3620SOL    HW122322   1.622   2.859   2.751  0.5464 -0.2242 -2.0570
 3620SOL    HW222323   1.497   2.939   2.783 -0.4785  1.7525 -2.3654
 3621SOL     OW22324   4.367   2.196   3.704  0.4296 -0.2773  0.1906
 3621SOL    HW122325   4.446   2.142   3.695  1.3421  1.3858 -1.8905
 3621SOL    HW222326   4.372   2.244   3.621  0.1234 -2.5989 -1.1568
 3622SOL     OW22327   4.420   2.526  16.706 -0.4709  0.1723 -0.0774
 3622SOL    HW122328   4.486   2.458  16.692  0.0526  0.8575 -0.9558
 3622SOL    HW222329   4.338   2.479  16.687 -0.2777 -0.2717  0.1952
 3623SOL     OW22330   2.285   3.828   0.862  0.0422 -0.3779  0.4190
 3623SOL    HW122331   2.268   3.791   0.776  0.8238 -2.1552  1.0205
 3623SOL    HW222332   2.204   3.877   0.878 -0.9602 -1.5247 -1.1662
 3624SOL     OW22333   2.115   1.392   6.118  0.4747 -0.1304 -0.6560
 3624SOL    HW122334   2.042   1.435   6.073  0.3954 -1.8915 -2.2104
 3624SOL    HW222335   2.180   1.457   6.093 -2.5221  2.4825 -1.6228
 3625SOL     OW22336   1.462   4.265   7.245 -0.3297 -0.3041 -0.9537
 3625SOL    HW122337   1.404   4.252   7.169 -0.1169  0.1623 -1.1951
 3625SOL    HW222338   1.527   4.195   7.244 -0.7703 -0.7359  0.1968
 3626SOL     OW22339   3.209   3.074   3.272 -0.0825  0.0042 -0.6812
 3626SOL    HW122340   3.231   2.980   3.272 -0.0420  0.0131  0.3582
 3626SOL    HW222341   3.142   3.084   3.206 -1.4356  0.8787  0.8264
 3627SOL     OW22342   2.774   3.126   4.063  0.1653 -0.1709 -0.3191
 3627SOL    HW122343   2.734   3.150   3.980  1.2065 -0.0553 -0.7862
 3627SOL    HW222344   2.852   3.181   4.056  0.9407 -1.1335  0.7628
 3628SOL     OW22345   2.599   2.156   3.908 -0.3670 -0.3947  0.2891
 3628SOL    HW122346   2.639   2.144   3.822 -0.7453  0.7399 -0.0468
 3628SOL    HW222347   2.607   2.070   3.950  2.5593  0.4720  1.4697
 3629SOL     OW22348   2.980   1.313   4.640  0.5873 -0.1522 -0.2210
 3629SOL    HW122349   3.067   1.300   4.604  0.7610 -2.1673  0.9073
 3629SOL    HW222350   2.977   1.246   4.708  1.5239 -0.4626 -0.4977
 3630SOL     OW22351   3.913   0.212  11.522 -0.1345  0.4430 -0.1243
 3630SOL    HW122352   3.994   0.165  11.541 -0.9110 -0.1323  1.8145
 3630SOL    HW222353   3.928   0.293  11.572 -3.4854  0.6430  0.5622
 3631SOL     OW22354   1.700   0.195   7.292  0.1624 -0.1895  0.1009
 3631SOL    HW122355   1.712   0.286   7.265  1.0743 -0.1764  0.5673
 3631SOL    HW222356   1.787   0.167   7.264  1.4805  2.1397  1.8365
 3632SOL     OW22357   1.518   3.827   2.668 -0.0422  0.0481 -0.0246
 3632SOL    HW122358   1.560   3.743   2.651 -4.4042 -2.2543  0.6041
 3632SOL    HW222359   1.443   3.807   2.613  0.9941 -1.6898 -0.8146
 3633SOL     OW22360   2.936   1.245   2.482  0.3651 -0.1587 -0.3654
 3633SOL    HW122361   2.840   1.243   2.492  0.4902 -1.2871  0.5629
 3633SOL    HW222362   2.959   1.156   2.453 -0.1317 -0.5428  0.4058
 3634SOL     OW22363   1.738   2.280   0.184 -0.6247 -0.2817 -0.2506
 3634SOL    HW122364   1.649   2.311   0.166 -0.1965 -0.0731 -1.9767
 3634SOL    HW222365   1.735   2.297   0.278 -3.4492  0.1474 -0.4293
 3635SOL     OW22366   3.898   4.574   5.765 -0.0991  0.1428  0.1721
 3635SOL    HW122367   3.902   4.493   5.714  0.6900 -0.1407  0.6998
 3635SOL    HW222368   3.837   4.559   5.837  0.8433  0.2890  0.9935
 3636SOL     OW22369   2.236   0.221   7.445 -0.2632  0.4435  0.5063
 3636SOL    HW122370   2.190   0.253   7.368  2.0127  0.0188 -1.0560
 3636SOL    HW222371   2.215   0.293   7.505  0.4393  0.9992  0.0905
 3637SOL     OW22372   0.780   1.135  15.897  0.3783  0.2844  0.2091
 3637SOL    HW122373   0.845   1.066  15.888  0.5769  0.4400  0.4518
 3637SOL    HW222374   0.748   1.147  15.808 -1.4763  0.6079  0.9088
 3638SOL     OW22375   4.492   3.500   3.113  0.4237  0.1953 -0.0982
 3638SOL    HW122376   4.477   3.423   3.166 -0.9160 -1.1833 -2.4692
 3638SOL    HW222377   4.438   3.562   3.161  1.9388  0.0758  1.7496
 3639SOL     OW22378   2.487   2.758   7.466 -0.4965  0.3490  0.1673
 3639SOL    HW122379   2.459   2.775   7.556 -1.2607  1.5825 -0.3095
 3639SOL    HW222380   2.500   2.844   7.426  1.7294 -0.8928 -1.7167
 3640SOL     OW22381   1.750   3.395   6.125 -0.2929  0.1807  0.3104
 3640SOL    HW122382   1.760   3.304   6.152 -0.8023  0.0263 -0.0132
 3640SOL    HW222383   1.815   3.451   6.169 -1.1338  2.7811 -1.7448
 3641SOL     OW22384   4.703   0.506   5.293  0.6534  0.7725  0.0408
 3641SOL    HW122385   0.059   0.558   5.299  1.3157  0.2082 -3.4844
 3641SOL    HW222386   4.658   0.569   5.237 -1.4972  0.5496  1.5293
 3642SOL     OW22387   1.193   1.486   7.661  0.5975  0.8008  0.0355
 3642SOL    HW122388   1.188   1.557   7.726 -0.7845  0.1248  0.6784
 3642SOL    HW222389   1.120   1.434   7.694  1.1510  0.0441  0.0590
 3643SOL     OW22390   3.706   1.751   0.653 -0.5005  0.5096  0.2680
 3643SOL    HW122391   3.688   1.657   0.657  1.6782  0.1142  0.5598
 3643SOL    HW222392   3.744   1.766   0.739  2.2385 -0.7871 -0.7291
 3644SOL     OW22393   0.145   0.948  15.755 -0.6677  0.3279  0.4301
 3644SOL    HW122394   0.152   0.853  15.749 -2.7088  0.1180  1.3687
 3644SOL    HW222395   0.062   0.955  15.803 -0.2352  0.6077  1.1453
 3645SOL     OW22396   0.926   2.681   0.747  0.3674 -0.1668 -0.0636
 3645SOL    HW122397   0.888   2.693   0.660  0.4192  0.3287 -0.0171
 3645SOL    HW222398   0.971   2.597   0.743 -1.1038 -1.0452  1.9205
 3646SOL     OW22399   4.538   0.287   8.169  0.3611  0.8196 -0.2513
 3646SOL    HW122400   4.535   0.305   8.263  3.3372  1.4229 -0.2704
 3646SOL    HW222401   4.630   0.264   8.176  0.6174  2.3572  1.4780
 3647SOL     OW22402   4.426   0.766   7.611 -0.6755 -0.1673 -0.7207
 3647SOL    HW122403   4.350   0.756   7.668 -0.8497 -0.7228 -1.0554
 3647SOL    HW222404   4.467   0.844   7.650 -0.4050 -0.6234 -0.1031
 3648SOL     OW22405   4.169   4.221   5.218 -0.0394 -0.7103 -0.2679
 3648SOL    HW122406   4.180   4.311   5.186  0.0300 -0.2941  0.9229
 3648SOL    HW222407   4.158   4.170   5.138  1.9119 -1.3705 -0.1187
 3649SOL     OW22408   3.829   1.645   8.527 -0.2400  0.1992  0.4884
 3649SOL    HW122409   3.765   1.708   8.558  0.2845  1.4108 -0.8852
 3649SOL    HW222410   3.867   1.616   8.610  0.7301 -0.4682 -0.1895
 3650SOL     OW22411   1.265   3.540  16.812  0.1469 -0.0703  0.1612
 3650SOL    HW122412   1.224   3.623  16.788 -1.2608 -1.0063 -0.6457
 3650SOL    HW222413   1.189   3.482  16.819 -0.6449  1.0040  0.4448
 3651SOL     OW22414   0.321   0.814   0.904 -0.2906 -0.1240  0.0591
 3651SOL    HW122415   0.358   0.774   0.983  1.8428  1.1277 -0.3100
 3651SOL    HW222416   0.227   0.796   0.909 -0.5534  1.7731  1.8706
 3652SOL     OW22417   1.656   2.178   2.230  0.5154 -0.3505 -0.0824
 3652SOL    HW122418   1.566   2.153   2.250  1.3736 -3.0010  0.4742
 3652SOL    HW222419   1.662   2.264   2.270  2.8998  0.4787 -2.2400
 3653SOL     OW22420   4.570   2.913  12.194  0.3418 -0.3255 -0.2240
 3653SOL    HW122421   4.546   2.933  12.284 -0.4401 -0.9041 -0.3059
 3653SOL    HW222422   4.485   2.885  12.161 -0.4758  0.0260  1.6074
 3654SOL     OW22423   2.112   3.423   7.900 -0.4793  0.7126  0.0433
 3654SOL    HW122424   2.182   3.359   7.898  0.9673  2.3008  0.1707
 3654SOL    HW222425   2.126   3.466   7.816  0.9539 -1.2637 -0.7131
 3655SOL     OW22426   2.218   1.072  13.015 -0.2244  0.7034  0.1860
 3655SOL    HW122427   2.213   1.106  12.925 -2.7089 -2.2607 -0.8232
 3655SOL    HW222428   2.127   1.047  13.031 -0.4894  1.5286 -0.0359
 3656SOL     OW22429   1.582   2.689   5.119 -0.5062 -0.2841 -0.0421
 3656SOL    HW122430   1.586   2.663   5.028  1.2034 -0.4274  0.0795
 3656SOL    HW222431   1.526   2.767   5.108  0.4294  0.2949 -0.6447
 3657SOL     OW22432   2.751   1.507   7.554 -0.1790 -0.5452  0.0297
 3657SOL    HW122433   2.759   1.550   7.469 -0.7454  1.1261  0.8257
 3657SOL    HW222434   2.701   1.569   7.607  0.0287  0.3157 -0.7798
 3658SOL     OW22435   2.143   0.131   3.832  0.3047 -0.1626  0.2476
 3658SOL    HW122436   2.107   0.219   3.839  1.0922  0.0995  0.8940
 3658SOL    HW222437   2.233   0.154   3.810 -0.0106 -0.0526 -0.9361
 3659SOL     OW22438   4.582   2.410   1.309 -0.1555 -0.1052 -0.4586
 3659SOL    HW122439   4.551   2.397   1.398 -1.0562 -0.0322 -0.7599
 3659SOL    HW222440   4.510   2.364   1.267  0.0753 -0.5561 -0.3567
 3660SOL     OW22441   4.183   3.384   2.298  0.2030  0.1455  0.1291
 3660SOL    HW122442   4.267   3.397   2.253  0.1033 -1.2722 -0.4412
 3660SOL    HW222443   4.200   3.293   2.322  1.3472 -0.2547 -2.2052
 3661SOL     OW22444   1.524   0.422   2.678  0.0492  0.4238  0.0985
 3661SOL    HW122445   1.454   0.394   2.619  0.9153  0.1461 -0.8013
 3661SOL    HW222446   1.493   0.410   2.768  2.2238 -1.3770  0.6155
 3662SOL     OW22447   1.660   3.839   5.892  0.5083 -0.3128 -0.0995
 3662SOL    HW122448   1.664   3.835   5.987  1.4669  1.1499 -0.0802
 3662SOL    HW222449   1.575   3.796   5.879  0.8918 -1.1145  0.0129
 3663SOL     OW22450   0.408   2.957   4.482 -0.3415  0.3588  0.1677
 3663SOL    HW122451   0.449   2.998   4.406  3.2646 -0.3937  1.7131
 3663SOL    HW222452   0.358   2.885   4.443  0.0682  0.6050 -0.8207
 3664SOL     OW22453   0.717   3.025   2.849 -0.3191 -0.9036  1.0478
 3664SOL    HW122454   0.703   2.957   2.783  0.8546 -0.5338  0.4081
 3664SOL    HW222455   0.633   3.071   2.849  1.0210  1.5422  0.3665
 3665SOL     OW22456   0.048   0.632   0.712  0.2017  0.3057  0.5175
 3665SOL    HW122457   0.110   0.579   0.661 -1.0568 -1.1536  0.5024
 3665SOL    HW222458   0.060   0.597   0.801  1.1090 -0.7882 -0.0334
 3666SOL     OW22459   3.807   0.544   5.589 -0.7453  0.3697  0.9110
 3666SOL    HW122460   3.761   0.570   5.669 -0.8505  0.6863  0.7445
 3666SOL    HW222461   3.869   0.477   5.621 -0.2948  0.9412  1.2409
 3667SOL     OW22462   0.252   2.445   6.651 -0.2353 -1.2017 -0.6141
 3667SOL    HW122463   0.177   2.491   6.689 -0.1519 -0.1875 -1.6527
 3667SOL    HW222464   0.309   2.428   6.726 -0.2812 -2.3718 -0.8481
 3668SOL     OW22465   1.470   1.672  17.129  0.4324 -0.3669  0.5528
 3668SOL    HW122466   1.504   1.583  17.138  0.4486 -0.2689  1.5366
 3668SOL    HW222467   1.391   1.673  17.182  1.0585 -1.4147  1.5272
 3669SOL     OW22468   4.008   0.175   7.608  0.2653  0.4100 -0.1399
 3669SOL    HW122469   3.924   0.138   7.635  0.9035  1.5886  3.3977
 3669SOL    HW222470   3.979   0.264   7.590  0.9498  0.2587 -1.9764
 3670SOL     OW22471   2.162   1.101   9.388  0.0239  0.2559 -0.0794
 3670SOL    HW122472   2.109   1.039   9.439 -0.9011  1.2596  0.1827
 3670SOL    HW222473   2.213   1.150   9.453  3.4602 -0.7715 -1.9953
 3671SOL     OW22474   2.356   0.984   5.228  0.3485 -0.2829  0.3413
 3671SOL    HW122475   2.316   1.065   5.261 -0.1697  0.0127 -0.9824
 3671SOL    HW222476   2.388   1.014   5.143 -1.1279 -2.2735 -0.9284
 3672SOL     OW22477   0.271   2.939   2.798  0.5680  0.1050  0.5486
 3672SOL    HW122478   0.211   2.930   2.723  0.8460 -0.4436  0.3921
 3672SOL    HW222479   0.317   2.855   2.801 -0.3491 -0.3716  1.0926
 3673SOL     OW22480   3.990   1.208   3.149  0.0645  0.6775 -0.1193
 3673SOL    HW122481   3.980   1.136   3.086 -2.0733 -0.1389  1.1350
 3673SOL    HW222482   3.935   1.179   3.222  0.5628 -0.3553 -0.1535
 3674SOL     OW22483   2.140   2.772   3.570 -0.0744  0.4685  0.3556
 3674SOL    HW122484   2.069   2.712   3.593  1.5069 -1.4972  0.0607
 3674SOL    HW222485   2.097   2.851   3.604  0.7785  0.7415  0.8026
 3675SOL     OW22486   4.138   4.359  15.906  0.9781 -0.2478  0.1023
 3675SOL    HW122487   4.192   4.283  15.886  2.3018 -0.1115  3.1668
 3675SOL    HW222488   4.183   4.427  15.856  0.3645 -0.7862 -1.1886
 3676SOL     OW22489   4.550   2.524   8.355 -0.3114  0.1016 -0.3570
 3676SOL    HW122490   4.587   2.469   8.424 -1.3826 -0.9724 -0.6425
 3676SOL    HW222491   4.482   2.467   8.319  0.3931 -0.6735 -0.4620
 3677SOL     OW22492   2.144   0.832  14.132  0.1257 -0.0644 -0.4116
 3677SOL    HW122493   2.107   0.765  14.073 -0.4353  0.4873 -0.6822
 3677SOL    HW222494   2.212   0.784  14.179 -0.6097 -0.8571 -0.1515
 3678SOL     OW22495   3.074   1.018   5.675  0.0306  0.1194  0.1080
 3678SOL    HW122496   3.072   1.111   5.700  0.9666  0.0561  0.3986
 3678SOL    HW222497   2.980   1.002   5.662 -0.2850  1.5797  0.5206
 3679SOL     OW22498   0.929   2.508   4.657 -0.0287 -0.0608  0.4762
 3679SOL    HW122499   1.025   2.505   4.658 -0.0669 -1.2680  1.2744
 3679SOL    HW222500   0.909   2.421   4.621 -1.1945  0.3800  0.0796
 3680SOL     OW22501   3.774   1.080   1.084 -0.6703 -0.0076 -0.0255
 3680SOL    HW122502   3.863   1.113   1.067 -0.9674  0.5215 -0.5280
 3680SOL    HW222503   3.754   1.077   1.178 -1.4943 -3.3351 -0.2827
 3681SOL     OW22504   1.746   2.025   1.997  0.0677  0.6607  0.4029
 3681SOL    HW122505   1.667   2.073   1.973  0.2762  1.9883  2.4430
 3681SOL    HW222506   1.758   2.066   2.082 -0.0998  1.9397 -0.1915
 3682SOL     OW22507   3.940   3.903   9.098 -0.4928  0.6017 -0.1862
 3682SOL    HW122508   3.887   3.872   9.024 -0.6794  0.4743  0.0014
 3682SOL    HW222509   3.906   3.846   9.167 -0.7614  3.5292  2.1179
 3683SOL     OW22510   0.635   1.055   5.300  0.0253  0.5268 -0.1452
 3683SOL    HW122511   0.611   1.054   5.393  0.5007  0.9768 -0.0190
 3683SOL    HW222512   0.638   1.149   5.284  1.9123 -0.0323 -3.0639
 3684SOL     OW22513   3.288   1.850   2.931  0.4189 -0.3553 -0.2453
 3684SOL    HW122514   3.330   1.911   2.870  0.1003 -0.1355 -0.2470
 3684SOL    HW222515   3.344   1.854   3.009 -0.4301 -0.8885  0.3872
 3685SOL     OW22516   4.647   1.803  10.675  0.2256 -0.1820 -0.1158
 3685SOL    HW122517   4.634   1.894  10.649 -0.5372 -0.0186  0.8270
 3685SOL    HW222518   4.653   1.751  10.594 -0.4092 -0.9747  0.3416
 3686SOL     OW22519   4.300   0.926   8.985  0.0946 -0.1561  0.7824
 3686SOL    HW122520   4.213   0.934   9.023 -0.2364 -1.6072  0.3297
 3686SOL    HW222521   4.337   1.007   9.019 -2.1401  1.4289 -0.6076
 3687SOL     OW22522   4.380   1.715   8.784 -0.4140 -0.0484  0.7274
 3687SOL    HW122523   4.359   1.649   8.850  1.4542 -0.9309  0.4449
 3687SOL    HW222524   4.293   1.724   8.746  0.8183 -1.9129 -2.5070
 3688SOL     OW22525   3.371   3.612   7.132  0.6501  0.2078 -0.2933
 3688SOL    HW122526   3.456   3.638   7.167  1.1461 -1.0422 -0.5676
 3688SOL    HW222527   3.342   3.549   7.198 -0.2622  2.3969  1.4235
 3689SOL     OW22528   2.999   0.271   6.814  0.2887  1.1464  0.6015
 3689SOL    HW122529   2.909   0.288   6.784  0.1459 -0.4749  0.0843
 3689SOL    HW222530   2.990   0.216   6.892  0.3250  0.2796  0.0016
 3690SOL     OW22531   0.725   3.637  17.302  0.3261 -0.1344  0.5316
 3690SOL    HW122532   0.660   3.655  17.370 -1.7996 -2.0962 -0.9918
 3690SOL    HW222533   0.695   3.560  17.254  0.4351  0.2394 -0.1387
 3691SOL     OW22534   0.184   1.980  14.330 -0.4577  0.6162 -0.8854
 3691SOL    HW122535   0.161   2.029  14.409 -0.2793  0.1150 -0.5210
 3691SOL    HW222536   0.107   1.997  14.277 -1.4887 -0.7817  0.1722
 3692SOL     OW22537   1.232   2.683  16.056 -0.0227 -0.0456 -0.2331
 3692SOL    HW122538   1.282   2.762  16.076 -0.0233 -0.0468 -0.2271
 3692SOL    HW222539   1.191   2.656  16.138  1.4839 -0.7723  0.2765
 3693SOL     OW22540   0.375   0.957   3.119 -0.0032  0.1854 -0.0801
 3693SOL    HW122541   0.466   0.983   3.133 -0.2536  0.5780  0.8288
 3693SOL    HW222542   0.384   0.864   3.099  0.4809  0.2017  0.0709
 3694SOL     OW22543   1.781   1.930  14.813 -0.6020  0.1708 -0.0783
 3694SOL    HW122544   1.785   1.879  14.732 -1.3399  0.3191 -0.2161
 3694SOL    HW222545   1.849   1.996  14.800 -1.7701  1.5577  0.7425
 3695SOL     OW22546   0.812   3.240   6.773  0.3428  0.4901 -0.1052
 3695SOL    HW122547   0.851   3.322   6.803  0.6942  0.1197  0.4503
 3695SOL    HW222548   0.843   3.235   6.682 -1.7500 -0.3205 -0.7777
 3696SOL     OW22549   3.265   2.096  13.154  0.6269 -0.0930 -0.1690
 3696SOL    HW122550   3.292   2.148  13.078  0.4106  0.2850  0.0172
 3696SOL    HW222551   3.262   2.011  13.109  0.7662  0.3951 -1.0938
 3697SOL     OW22552   4.685   1.765  10.930  0.3322 -0.3815  0.4576
 3697SOL    HW122553   4.610   1.815  10.962  0.8163  0.2734  0.5593
 3697SOL    HW222554   4.681   1.797  10.840 -1.7418  0.2182  0.7617
 3698SOL     OW22555   1.107   0.389   1.166  0.1624 -1.1965  0.4594
 3698SOL    HW122556   1.200   0.397   1.187  0.1897 -1.4974  0.4567
 3698SOL    HW222557   1.088   0.308   1.212  2.5028 -1.6777  0.5658
 3699SOL     OW22558   4.611   1.706   5.267  0.9272  0.2562 -0.0358
 3699SOL    HW122559   4.641   1.792   5.238  1.6645 -0.7212 -2.1847
 3699SOL    HW222560   4.603   1.734   5.358 -1.1992 -0.5249  0.0005
 3700SOL     OW22561   4.187   3.035   9.298 -0.0869 -0.0880 -0.1888
 3700SOL    HW122562   4.254   3.045   9.229  0.7579  0.4215  0.7073
 3700SOL    HW222563   4.248   3.027   9.371  2.2936 -1.1467 -2.2882
 3701SOL     OW22564   3.214   3.477   1.382  0.7454 -0.4530  0.2789
 3701SOL    HW122565   3.195   3.566   1.413 -1.9079 -0.4623 -1.3070
 3701SOL    HW222566   3.303   3.491   1.352  0.7402 -0.4453  0.2670
 3702SOL     OW22567   1.792   1.513   7.668  0.0331 -0.7025  0.5335
 3702SOL    HW122568   1.872   1.549   7.707 -0.4433 -0.6369  1.4606
 3702SOL    HW222569   1.810   1.420   7.682  0.3116 -0.5792  1.0323
 3703SOL     OW22570   4.111   1.720   3.092 -0.0044 -0.5188  0.2691
 3703SOL    HW122571   4.113   1.702   3.186 -4.0564 -2.3975  0.0120
 3703SOL    HW222572   4.080   1.633   3.067  1.6410 -1.0544  0.0912
 3704SOL     OW22573   1.329   4.036   1.884 -0.1470  0.5224  0.3136
 3704SOL    HW122574   1.309   4.129   1.893  0.3881  0.8640 -1.8308
 3704SOL    HW222575   1.247   3.997   1.915  0.9809 -1.9449  0.2407
 3705SOL     OW22576   2.616   2.936  17.024  0.1980  0.5990  0.2159
 3705SOL    HW122577   2.671   3.006  17.059  1.7087 -1.7259  2.4607
 3705SOL    HW222578   2.632   2.964  16.934  0.8842 -0.5458 -0.0282
 3706SOL     OW22579   0.824   4.449   3.690  0.2700 -0.1646 -0.2473
 3706SOL    HW122580   0.863   4.529   3.653 -1.5227  1.1538  0.7479
 3706SOL    HW222581   0.745   4.480   3.734 -1.0259 -0.9463 -2.0180
 3707SOL     OW22582   1.791   4.080   3.265  0.3414 -0.1893 -0.6968
 3707SOL    HW122583   1.852   4.140   3.221  0.6156 -0.1882 -0.3167
 3707SOL    HW222584   1.829   4.081   3.353  1.2605 -0.5776 -1.0838
 3708SOL     OW22585   3.434   0.437   2.645 -0.5360  0.6818  0.5320
 3708SOL    HW122586   3.387   0.504   2.695  0.2292  0.9848  0.8404
 3708SOL    HW222587   3.458   0.383   2.720 -1.7791 -0.3995  0.1500
 3709SOL     OW22588   0.154   0.631  12.176 -0.6949  0.2224 -0.0450
 3709SOL    HW122589   0.068   0.590  12.184  0.3925 -2.2034 -0.6227
 3709SOL    HW222590   0.148   0.705  12.236 -0.5585  1.6397 -1.7965
 3710SOL     OW22591   1.104   3.546   1.453 -0.8710 -0.3233 -0.0806
 3710SOL    HW122592   1.183   3.593   1.429 -0.4678 -1.8470 -1.6887
 3710SOL    HW222593   1.084   3.492   1.376 -0.3943  0.6451 -0.8734
 3711SOL     OW22594   0.598   0.804  16.314  0.3856  0.3458 -0.1438
 3711SOL    HW122595   0.567   0.736  16.374 -0.0442 -0.3361 -1.1270
 3711SOL    HW222596   0.676   0.768  16.272  0.8320  1.5500 -0.3472
 3712SOL     OW22597   4.414   2.700   5.878  0.2246 -0.4107 -0.0885
 3712SOL    HW122598   4.385   2.791   5.874 -0.2064 -0.6960 -2.9519
 3712SOL    HW222599   4.461   2.689   5.795  0.5858 -0.7242  0.1551
 3713SOL     OW22600   1.101   4.521   4.902 -0.4760  0.0271  0.5572
 3713SOL    HW122601   1.161   4.496   4.831 -1.0369 -1.1326  0.5013
 3713SOL    HW222602   1.152   4.487   4.976  0.0468 -0.9704 -0.2613
 3714SOL     OW22603   1.034   1.393   8.277  0.1454 -0.5610 -0.0030
 3714SOL    HW122604   1.033   1.442   8.195 -2.4490 -0.5214  0.0432
 3714SOL    HW222605   0.992   1.309   8.259  0.8925 -0.9283 -0.0129
 3715SOL     OW22606   0.751   4.175  10.937 -0.2739 -0.0308 -0.2306
 3715SOL    HW122607   0.787   4.161  11.024 -0.9541 -0.1471  0.0294
 3715SOL    HW222608   0.783   4.265  10.926 -0.1021  0.0942  1.3350
 3716SOL     OW22609   0.320   1.333   4.792 -0.6356 -0.0075  0.6040
 3716SOL    HW122610   0.365   1.260   4.749  0.5085  0.7079  0.5859
 3716SOL    HW222611   0.238   1.329   4.742  0.6922 -1.0948 -1.5088
 3717SOL     OW22612   4.719   3.185   4.000  0.2640  0.0877  0.1073
 3717SOL    HW122613   0.012   3.278   4.014 -0.8903  0.6307 -1.9762
 3717SOL    HW222614   0.082   3.156   4.026  0.1505  1.3384  1.8656
 3718SOL     OW22615   4.648   3.753   2.502  0.0340 -0.8767  0.3451
 3718SOL    HW122616   4.608   3.827   2.458 -0.4689 -0.5787  1.3103
 3718SOL    HW222617   4.656   3.691   2.429 -1.5029  0.4308 -0.9121
 3719SOL     OW22618   0.857   2.351   6.394  0.5012  0.7220 -0.0162
 3719SOL    HW122619   0.944   2.377   6.424  0.7694 -0.3757  0.1501
 3719SOL    HW222620   0.872   2.257   6.391 -2.3696  0.2892 -0.8058
 3720SOL     OW22621   2.447   1.942   4.326  0.3088 -0.2838 -0.3802
 3720SOL    HW122622   2.461   1.899   4.242  0.8633  1.0179 -0.9496
 3720SOL    HW222623   2.426   2.022   4.279 -0.1304 -0.8311 -1.1148
 3721SOL     OW22624   1.054   0.398   9.005 -0.2234 -0.5229 -0.1905
 3721SOL    HW122625   1.091   0.371   9.089  1.2408  2.5027  0.1152
 3721SOL    HW222626   1.112   0.474   8.995  0.3450 -1.2015 -2.1133
 3722SOL     OW22627   2.787   1.081   7.471 -0.5131  0.1446  0.0096
 3722SOL    HW122628   2.854   1.121   7.527  0.9518 -1.9999 -0.1948
 3722SOL    HW222629   2.847   1.069   7.397  0.1154 -1.2205  0.7392
 3723SOL     OW22630   2.534   4.696   7.836  0.1337 -0.3790 -0.2412
 3723SOL    HW122631   2.562   4.609   7.809 -2.1244 -0.8839 -0.9382
 3723SOL    HW222632   2.604   4.712   7.899  0.6461 -1.1322 -0.6195
 3724SOL     OW22633   0.896   0.491  16.038 -0.2919  0.2029 -0.0597
 3724SOL    HW122634   0.976   0.518  15.993 -0.2605 -0.9512 -0.6926
 3724SOL    HW222635   0.918   0.407  16.077  2.7337  1.1698  0.2660
 3725SOL     OW22636   2.873   1.683   6.221 -0.0580  0.0620  0.1894
 3725SOL    HW122637   2.786   1.666   6.257 -0.6202 -1.4328 -1.9114
 3725SOL    HW222638   2.852   1.750   6.156 -0.1196  0.5050  0.6701
 3726SOL     OW22639   1.583   2.418   5.208 -0.0981 -0.0834  0.2545
 3726SOL    HW122640   1.579   2.513   5.191 -0.8894  0.0266  1.0346
 3726SOL    HW222641   1.677   2.414   5.226 -0.1685 -0.3757  0.5478
 3727SOL     OW22642   3.878   3.743   7.391  0.7171  0.2986  0.2573
 3727SOL    HW122643   3.880   3.653   7.424  2.9493  0.4850  0.6879
 3727SOL    HW222644   3.961   3.737   7.344  0.5013  0.2946 -0.1221
 3728SOL     OW22645   2.444   2.251   0.064  0.4833 -0.0186 -0.3733
 3728SOL    HW122646   2.379   2.254  17.691  0.5993 -1.9227 -0.5665
 3728SOL    HW222647   2.433   2.342   0.088  1.1716  0.0628 -0.3572
 3729SOL     OW22648   0.144   2.076   5.062 -0.0455  0.2969  0.1340
 3729SOL    HW122649   0.119   2.059   4.972 -0.2929 -0.5180  0.3606
 3729SOL    HW222650   0.236   2.053   5.059 -0.2665 -0.7301  1.0235
 3730SOL     OW22651   3.126   1.379   2.353 -0.3205 -0.4287 -0.1035
 3730SOL    HW122652   3.069   1.314   2.395  0.2386  0.2262  1.6592
 3730SOL    HW222653   3.078   1.453   2.315 -0.0034 -0.8639 -1.3734
 3731SOL     OW22654   1.799   1.705   1.433  0.2553 -0.2556  0.0890
 3731SOL    HW122655   1.739   1.741   1.367 -0.4989  1.3117  1.6249
 3731SOL    HW222656   1.859   1.780   1.434 -1.3542  1.0008  1.5829
 3732SOL     OW22657   1.054   3.767   0.325  0.4169 -0.0454 -0.5856
 3732SOL    HW122658   1.067   3.859   0.346 -0.7216  0.3900 -1.7905
 3732SOL    HW222659   1.006   3.728   0.399 -1.2217  1.5646 -0.7821
 3733SOL     OW22660   4.367   3.224   5.795 -0.2142 -0.4592 -0.5338
 3733SOL    HW122661   4.350   3.271   5.713  2.3689  1.5482  0.0878
 3733SOL    HW222662   4.427   3.283   5.840 -2.8982  1.1131  0.9456
 3734SOL     OW22663   3.477   2.882  12.377  0.1322 -0.3655  0.1839
 3734SOL    HW122664   3.463   2.967  12.336  1.0418 -0.2729  0.0636
 3734SOL    HW222665   3.501   2.816  12.311  0.3660  0.9268 -1.0181
 3735SOL     OW22666   2.762   2.367  12.101  0.2297 -0.1937  0.3613
 3735SOL    HW122667   2.820   2.388  12.028 -1.9558  1.5998 -0.8652
 3735SOL    HW222668   2.750   2.274  12.086 -1.0985 -0.0906  0.7870
 3736SOL     OW22669   4.257   0.651   6.763 -0.4633  0.1265 -0.4037
 3736SOL    HW122670   4.214   0.604   6.691  0.6882  0.1777 -1.1211
 3736SOL    HW222671   4.213   0.736   6.756 -0.6299  0.1474  0.8648
 3737SOL     OW22672   0.553   4.630   1.867 -0.1535 -0.7740 -0.1968
 3737SOL    HW122673   0.558   0.001   1.877  0.8667 -0.5749 -2.7289
 3737SOL    HW222674   0.519   4.611   1.780 -0.2429  0.8672 -0.5249
 3738SOL     OW22675   2.600   0.303   1.164  0.3083  0.3828  0.3578
 3738SOL    HW122676   2.641   0.362   1.100  0.7913  0.8317  1.0828
 3738SOL    HW222677   2.676   0.260   1.202 -0.0157 -0.6346 -0.1494
 3739SOL     OW22678   2.617   1.658   6.343  0.1112  0.2918 -0.3308
 3739SOL    HW122679   2.614   1.579   6.288  2.2372  1.5027 -2.1683
 3739SOL    HW222680   2.588   1.619   6.426  0.3398  1.2048  0.1690
 3740SOL     OW22681   2.357   4.044   1.982 -0.6717  0.8002  0.0493
 3740SOL    HW122682   2.443   4.083   1.970  0.9944 -2.6265  0.8704
 3740SOL    HW222683   2.344   3.992   1.902  1.3673  0.4946 -0.0687
 3741SOL     OW22684   2.092   1.214   4.647 -0.6460 -0.0337 -0.2363
 3741SOL    HW122685   2.013   1.203   4.700  0.3266  0.7831  1.3565
 3741SOL    HW222686   2.118   1.123   4.632 -1.8689 -0.4173 -0.0290
 3742SOL     OW22687   3.765   2.524   4.879  0.3562 -0.4031  0.0780
 3742SOL    HW122688   3.670   2.536   4.880  0.4901  0.7449 -0.7915
 3742SOL    HW222689   3.798   2.614   4.876  1.5262 -0.8383  0.0187
 3743SOL     OW22690   3.060   1.221  15.612  0.2922 -0.4861 -0.2269
 3743SOL    HW122691   3.064   1.295  15.673  0.5609 -0.7593  0.0883
 3743SOL    HW222692   3.076   1.154  15.679  1.1585 -1.4837 -1.4449
 3744SOL     OW22693   3.506   0.053   3.455 -0.4011 -0.1570  0.4977
 3744SOL    HW122694   3.512   0.119   3.524  0.2187 -0.1346  0.4226
 3744SOL    HW222695   3.479   4.706   3.514  0.3240 -1.3278 -0.5816
 3745SOL     OW22696   0.912   1.831  15.077 -0.1406 -0.2007  0.0053
 3745SOL    HW122697   0.905   1.813  15.171 -2.2554 -1.2639 -0.3373
 3745SOL    HW222698   0.972   1.905  15.084 -0.6416  0.3189 -1.1258
 3746SOL     OW22699   0.153   1.109   3.172  0.0455 -0.4509 -0.4148
 3746SOL    HW122700   0.220   1.041   3.161  0.6468 -0.1212  1.1766
 3746SOL    HW222701   0.160   1.140   3.262 -4.7637  0.2570 -0.2745
 3747SOL     OW22702   4.346   4.334   5.792  0.2082 -0.2118  0.4151
 3747SOL    HW122703   4.427   4.328   5.843 -1.0029 -1.8966  2.1501
 3747SOL    HW222704   4.380   4.296   5.711  0.9345 -1.5564  1.3406
 3748SOL     OW22705   0.944   0.597   5.773 -0.0657  0.4979  0.1275
 3748SOL    HW122706   0.895   0.649   5.710 -1.3711  0.8927  1.4684
 3748SOL    HW222707   0.950   0.647   5.854 -1.2214 -1.0625  1.1628
 3749SOL     OW22708   3.332   3.780   9.172  0.0135  0.2706 -0.0494
 3749SOL    HW122709   3.410   3.725   9.176  0.2015  0.7450  2.7227
 3749SOL    HW222710   3.363   3.867   9.196  0.5996  0.2367 -0.6948
 3750SOL     OW22711   2.769   4.311  13.581 -0.3615 -0.0183  0.4322
 3750SOL    HW122712   2.758   4.320  13.675 -2.1799  1.3855  0.0833
 3750SOL    HW222713   2.683   4.274  13.558 -0.4644  0.4579  0.0392
 3751SOL     OW22714   3.235   2.379   8.721 -0.6092 -0.3446 -0.2746
 3751SOL    HW122715   3.142   2.400   8.707 -0.0141  0.9141 -2.4020
 3751SOL    HW222716   3.251   2.361   8.628 -0.3486 -0.4205 -0.2130
 3752SOL     OW22717   4.642   3.941   8.832 -0.7467 -0.3678 -0.6762
 3752SOL    HW122718   4.713   3.892   8.791 -1.6876  0.0058 -2.7349
 3752SOL    HW222719   4.582   3.872   8.859 -0.5218 -0.8097 -1.3239
 3753SOL     OW22720   0.315   2.791   6.666 -0.1305 -0.7444  0.2179
 3753SOL    HW122721   0.404   2.782   6.702  1.7343  2.1536 -3.5946
 3753SOL    HW222722   0.321   2.865   6.606 -0.4521  0.1544  1.3160
 3754SOL     OW22723   3.551   4.516   7.693  0.4728 -0.0514  0.0402
 3754SOL    HW122724   3.551   4.476   7.779  2.4668  2.9888  1.4667
 3754SOL    HW222725   3.549   4.443   7.631  0.0899 -0.9314  1.1132
 3755SOL     OW22726   2.036   3.580  17.652 -0.1554 -0.0007 -0.4486
 3755SOL    HW122727   1.998   3.668  17.642 -0.3445  0.0770  0.9350
 3755SOL    HW222728   2.117   3.596   0.003 -1.7440 -0.3307  2.3221
 3756SOL     OW22729   1.154   4.633  12.504 -0.7648 -0.0740  0.3624
 3756SOL    HW122730   1.169   4.632  12.409 -0.1784  1.1536  0.4463
 3756SOL    HW222731   1.212   4.565  12.537  1.4348  1.0874 -1.1021
 3757SOL     OW22732   1.825   3.842  16.194  0.8832  0.4237 -0.2646
 3757SOL    HW122733   1.759   3.882  16.251  1.1343  0.8534 -0.2737
 3757SOL    HW222734   1.768   3.788  16.140 -2.2845  1.3563  2.1394
 3758SOL     OW22735   1.157   3.060   7.170 -0.4569 -0.4336  0.8954
 3758SOL    HW122736   1.163   3.010   7.088 -0.2303  0.2202  0.5075
 3758SOL    HW222737   1.080   3.113   7.149  1.2932  1.8375  0.1826
 3759SOL     OW22738   1.423   2.070   2.644  0.3669  0.1053  0.6546
 3759SOL    HW122739   1.371   2.058   2.724 -1.3507 -0.5007 -0.5321
 3759SOL    HW222740   1.355   2.081   2.577  1.8661  1.0916 -0.6852
 3760SOL     OW22741   3.714   2.594   3.004 -0.4544  0.0186 -0.0856
 3760SOL    HW122742   3.651   2.541   3.053 -1.4572  3.4096  2.2656
 3760SOL    HW222743   3.681   2.683   3.011  1.2443  0.7551 -1.4693
 3761SOL     OW22744   2.381   0.119   6.623 -0.3425  0.4099  0.3081
 3761SOL    HW122745   2.305   0.090   6.572  0.0024 -0.9437  0.5555
 3761SOL    HW222746   2.347   0.136   6.711  0.1700 -1.3177  0.8557
 3762SOL     OW22747   3.996   0.876  15.432 -0.4833  0.2434  0.4163
 3762SOL    HW122748   3.919   0.930  15.413 -0.6033 -0.5480 -1.3116
 3762SOL    HW222749   3.950   0.794  15.416  1.7269 -0.8315 -0.5007
 3763SOL     OW22750   0.414   1.918  11.888 -0.2293  0.0521  0.2655
 3763SOL    HW122751   0.484   1.983  11.883 -0.6231  0.3786 -0.9575
 3763SOL    HW222752   0.460   1.849  11.841 -1.6401 -0.2071 -0.7250
 3764SOL     OW22753   2.416   4.548   3.401  0.9965 -0.2293 -0.3980
 3764SOL    HW122754   2.395   4.455   3.403  1.0795 -0.2160  1.2368
 3764SOL    HW222755   2.376   4.576   3.483  1.5363 -0.6811  0.0207
 3765SOL     OW22756   1.363   2.170   7.826  0.0713  0.6091  0.5687
 3765SOL    HW122757   1.336   2.174   7.735  1.2200  1.1885  0.2630
 3765SOL    HW222758   1.456   2.190   7.824  0.2045  0.2425  2.6591
 3766SOL     OW22759   0.628   0.021   3.965  0.1394  0.2059 -0.1339
 3766SOL    HW122760   0.704   4.693   3.939 -0.7672 -1.2556  0.1835
 3766SOL    HW222761   0.553   4.688   3.947 -0.4243  1.1308 -0.7482
 3767SOL     OW22762   1.779   1.340  16.292 -0.1739 -0.1209 -0.1041
 3767SOL    HW122763   1.762   1.391  16.372  0.7222  0.1262 -0.0658
 3767SOL    HW222764   1.823   1.267  16.335 -1.3276  0.8399  2.7582
 3768SOL     OW22765   1.107   1.339  13.800 -0.3687  0.0587 -0.2818
 3768SOL    HW122766   1.152   1.326  13.884 -0.9955 -0.2371  0.0112
 3768SOL    HW222767   1.156   1.273  13.751 -0.6154 -0.9729  0.8483
 3769SOL     OW22768   3.952   4.435  15.138 -0.2192  0.3424  0.1492
 3769SOL    HW122769   3.995   4.520  15.143 -1.7290  1.1788 -1.0519
 3769SOL    HW222770   3.957   4.424  15.043 -0.4707 -2.5506  0.4691
 3770SOL     OW22771   4.333   1.633   5.360  0.1800 -0.2561  0.3711
 3770SOL    HW122772   4.375   1.549   5.345 -0.6047 -0.7505  0.9684
 3770SOL    HW222773   4.386   1.676   5.427  2.0584 -2.5864  0.3862
 3771SOL     OW22774   2.879   0.681  16.544  0.5428  0.6662  0.1220
 3771SOL    HW122775   2.884   0.765  16.497 -4.0529  1.6278  1.3475
 3771SOL    HW222776   2.973   0.664  16.551  0.2972 -0.1988  1.2060
 3772SOL     OW22777   0.598   2.695   9.197 -0.0356 -0.6163  0.2008
 3772SOL    HW122778   0.553   2.769   9.157 -0.9816 -0.7719  0.9886
 3772SOL    HW222779   0.602   2.624   9.133 -1.4542 -2.8795  2.6505
 3773SOL     OW22780   1.174   0.096   6.379 -0.5351  0.3871  1.0887
 3773SOL    HW122781   1.158   0.004   6.402  3.3241 -0.6075 -0.0867
 3773SOL    HW222782   1.123   0.105   6.299  2.8125 -0.3525 -1.1211
 3774SOL     OW22783   0.451   2.064   5.450  0.1862  0.7049 -0.0300
 3774SOL    HW122784   0.398   1.992   5.486 -0.3013 -0.5949 -3.3337
 3774SOL    HW222785   0.385   2.111   5.399 -1.1053 -1.7285 -0.6496
 3775SOL     OW22786   4.284   0.993   8.105  0.5055  0.2859  0.1471
 3775SOL    HW122787   4.343   1.069   8.107 -0.4684  1.0415  0.3526
 3775SOL    HW222788   4.218   1.021   8.042 -0.0172 -2.4741 -0.5128
 3776SOL     OW22789   4.487   0.498  13.934 -0.3740 -0.3120 -0.2600
 3776SOL    HW122790   4.516   0.569  13.878 -2.2301 -1.4065 -2.5931
 3776SOL    HW222791   4.403   0.472  13.895 -0.1376 -3.0312  1.0251
 3777SOL     OW22792   1.000   2.076   8.568 -0.2289 -0.2450  0.5376
 3777SOL    HW122793   1.074   2.130   8.540 -0.0430 -0.7528  0.0466
 3777SOL    HW222794   0.957   2.131   8.634 -0.5883  0.2886 -0.1536
 3778SOL     OW22795   1.809   2.329   5.787 -0.3147  0.1812 -0.1235
 3778SOL    HW122796   1.879   2.394   5.796 -1.2710  1.2881 -0.6644
 3778SOL    HW222797   1.823   2.289   5.873  3.0824 -0.3700 -0.9306
 3779SOL     OW22798   0.700   4.035   4.309 -0.2579  0.2465  0.7483
 3779SOL    HW122799   0.661   3.948   4.321 -2.5524  1.1116 -0.5238
 3779SOL    HW222800   0.679   4.078   4.392  0.5542  1.3301  0.3869
 3780SOL     OW22801   2.876   1.023  15.499  0.2858  0.1857 -0.0918
 3780SOL    HW122802   2.945   1.089  15.489 -0.3366  0.6336 -1.3627
 3780SOL    HW222803   2.941   0.959  15.528  1.1898  0.6960 -0.9767
 3781SOL     OW22804   2.976   2.748   7.769  0.6063  0.5359 -0.1094
 3781SOL    HW122805   2.931   2.752   7.685 -0.0044  2.6157  0.3311
 3781SOL    HW222806   3.019   2.662   7.775  1.1379  0.9767  2.3448
 3782SOL     OW22807   3.694   2.328   4.173  0.4732 -0.6823  0.1965
 3782SOL    HW122808   3.697   2.385   4.096  0.7344 -0.0224  0.7003
 3782SOL    HW222809   3.693   2.240   4.134  1.3779 -0.4248 -0.4157
 3783SOL     OW22810   0.225   0.574  15.053 -0.5392 -0.1245 -0.3345
 3783SOL    HW122811   0.251   0.544  15.140 -0.0216 -1.8155 -1.0646
 3783SOL    HW222812   0.286   0.517  15.006 -0.1113 -0.5871  0.7959
 3784SOL     OW22813   2.905   3.928   5.143  0.2830 -0.6136  0.4098
 3784SOL    HW122814   2.971   3.861   5.157 -0.9474 -2.2493 -1.6184
 3784SOL    HW222815   2.845   3.918   5.217  0.3299  1.5251  0.7382
 3785SOL     OW22816   1.795   2.761   4.571 -0.2753  0.0785  0.0996
 3785SOL    HW122817   1.715   2.730   4.529 -1.0566  1.3012  0.6940
 3785SOL    HW222818   1.846   2.685   4.543 -0.1223 -0.9460  3.1662
 3786SOL     OW22819   0.877   3.641  16.185  0.2811  0.6721 -0.6208
 3786SOL    HW122820   0.919   3.673  16.264  2.1984 -0.7621 -1.0524
 3786SOL    HW222821   0.957   3.633  16.133  1.3691 -1.0100  1.3263
 3787SOL     OW22822   0.628   4.017   2.262  0.3834  0.3970 -0.0658
 3787SOL    HW122823   0.633   3.943   2.322  0.3660  0.3517 -0.1209
 3787SOL    HW222824   0.681   4.075   2.318  2.1624 -0.2373 -1.1097
 3788SOL     OW22825   4.476   2.282   9.174  0.2537  0.0762  0.3759
 3788SOL    HW122826   4.447   2.310   9.088  1.5352 -3.2741 -1.1408
 3788SOL    HW222827   4.569   2.272   9.154  0.5076  2.6384  0.2666
 3789SOL     OW22828   1.295   1.722  13.993  0.7203 -0.7545  0.0979
 3789SOL    HW122829   1.261   1.803  14.032 -1.4334 -1.7285  0.2418
 3789SOL    HW222830   1.242   1.659  14.041  0.6783 -1.3685 -0.7612
 3790SOL     OW22831   1.203   3.728   8.940 -0.0360 -0.4531  0.7607
 3790SOL    HW122832   1.295   3.750   8.956 -0.3331  0.6677  0.9124
 3790SOL    HW222833   1.149   3.791   8.987  0.3820 -0.6724  1.5367
 3791SOL     OW22834   0.035   0.149  15.365 -0.1748  0.4800  0.5823
 3791SOL    HW122835   0.115   0.188  15.398 -0.7606  0.8570  1.5556
 3791SOL    HW222836   0.055   0.056  15.378  1.2736  0.7138 -0.0892
 3792SOL     OW22837   2.274   1.840   4.571  0.2045  0.0927  0.0245
 3792SOL    HW122838   2.249   1.919   4.620 -0.7547 -0.4413  0.3882
 3792SOL    HW222839   2.311   1.882   4.493 -0.2199  1.6421  0.6535
 3793SOL     OW22840   1.078   4.533  11.089 -0.1660  0.1997  0.2043
 3793SOL    HW122841   1.168   4.526  11.122  0.1030  2.2124 -0.1672
 3793SOL    HW222842   1.078   4.623  11.058  1.0167  1.1273  2.8694
 3794SOL     OW22843   3.058   1.488   6.179 -0.4001 -0.0541 -0.3560
 3794SOL    HW122844   3.121   1.516   6.113 -0.4369  1.6268  0.3057
 3794SOL    HW222845   2.995   1.561   6.181  0.4254  0.6275  1.1197
 3795SOL     OW22846   1.175   3.747   8.149 -0.0612  0.8157  0.3850
 3795SOL    HW122847   1.204   3.828   8.107  0.7309 -0.0233 -0.6808
 3795SOL    HW222848   1.215   3.769   8.234  0.1479 -2.3799  1.1147
 3796SOL     OW22849   1.389   0.154   8.687 -0.2330 -0.9385 -0.2582
 3796SOL    HW122850   1.335   0.079   8.663 -0.6093 -0.5764 -0.5430
 3796SOL    HW222851   1.335   0.225   8.652 -0.1285 -1.6524 -1.8936
 3797SOL     OW22852   4.334   2.926   8.698  0.0466 -0.1918 -0.4536
 3797SOL    HW122853   4.352   2.833   8.685 -0.2853  0.0003 -2.2745
 3797SOL    HW222854   4.422   2.959   8.682 -0.1564  0.6149  0.0938
 3798SOL     OW22855   0.993   4.687  12.865 -0.6108 -0.0724 -0.0966
 3798SOL    HW122856   0.934   4.615  12.888 -0.1184 -0.0697  1.1855
 3798SOL    HW222857   1.012   4.708  12.957 -1.3035  1.9891 -0.4397
 3799SOL     OW22858   4.083   4.554   4.057 -0.0004  0.3252 -0.1673
 3799SOL    HW122859   3.993   4.539   4.027  0.4313 -0.4446 -1.0846
 3799SOL    HW222860   4.071   4.568   4.151  0.1288 -0.5190 -0.0246
 3800SOL     OW22861   2.504   2.737   5.266 -0.7018 -0.7708 -0.3257
 3800SOL    HW122862   2.485   2.739   5.173  0.1840  0.8023 -0.4692
 3800SOL    HW222863   2.469   2.825   5.278  2.2841  0.7344 -2.8175
 3801SOL     OW22864   1.928   1.136  17.225 -0.1332  0.0386 -0.3850
 3801SOL    HW122865   1.880   1.202  17.275 -0.6841 -1.5894  1.2342
 3801SOL    HW222866   1.986   1.192  17.172  0.7860 -1.1546 -0.6298
 3802SOL     OW22867   4.408   1.848  11.568 -0.1978  0.2954  0.1718
 3802SOL    HW122868   4.341   1.781  11.557 -0.8686  0.7212  1.5591
 3802SOL    HW222869   4.374   1.884  11.650  2.0002  2.0494  0.3121
 3803SOL     OW22870   2.991   2.518  10.882  0.5719 -0.6877  0.3882
 3803SOL    HW122871   3.074   2.545  10.922  1.2270 -0.6618 -0.9885
 3803SOL    HW222872   3.022   2.473  10.804  0.0305 -2.3531  1.1418
 3804SOL     OW22873   2.579   0.576   9.381 -0.4085 -0.4728 -0.1419
 3804SOL    HW122874   2.602   0.640   9.449 -1.8546  0.3842 -0.4798
 3804SOL    HW222875   2.647   0.512   9.404  0.5373  0.7317  0.4423
 3805SOL     OW22876   2.856   0.717   4.286  0.2722  0.6317  0.0740
 3805SOL    HW122877   2.929   0.690   4.342  0.7257  3.6460  0.9082
 3805SOL    HW222878   2.893   0.740   4.201 -1.1055 -0.1666 -0.7554
 3806SOL     OW22879   2.368   0.186   0.226  0.9288 -0.0526 -0.1652
 3806SOL    HW122880   2.355   0.095   0.198  0.9386  0.5054 -1.9766
 3806SOL    HW222881   2.456   0.184   0.265  0.7571 -1.0742  0.1595
 3807SOL     OW22882   3.231   2.925  15.950  0.0988 -0.0454 -0.5204
 3807SOL    HW122883   3.174   2.853  15.923 -1.0009 -0.6209  3.2269
 3807SOL    HW222884   3.256   2.954  15.862  0.6990  0.7808 -0.0810
 3808SOL     OW22885   3.257   2.981   3.942 -1.2327  0.2002  0.2791
 3808SOL    HW122886   3.256   2.939   3.856 -0.4337 -0.1494  0.4384
 3808SOL    HW222887   3.211   3.063   3.924 -0.2633  0.6434 -0.1722
 3809SOL     OW22888   4.330   4.148   4.563 -0.2709  0.4506 -0.4357
 3809SOL    HW122889   4.289   4.214   4.619 -1.1810  0.5963 -1.2753
 3809SOL    HW222890   4.386   4.214   4.521 -1.4031  2.3561  1.0706
 3810SOL     OW22891   1.533   0.776   6.638  0.0876  0.0439 -0.6451
 3810SOL    HW122892   1.484   0.852   6.669  0.5690 -0.6538  1.8859
 3810SOL    HW222893   1.621   0.814   6.629  0.4296 -0.6770 -0.2945
 3811SOL     OW22894   1.336   0.583   4.623  1.2938 -0.3460 -0.0937
 3811SOL    HW122895   1.408   0.637   4.590 -0.1613  1.4131 -0.4015
 3811SOL    HW222896   1.276   0.649   4.658 -0.0975 -0.7845 -1.6476
 3812SOL     OW22897   1.469   2.401   6.246 -0.1646 -0.5435 -0.2814
 3812SOL    HW122898   1.499   2.316   6.214 -0.6903 -1.2053  1.0028
 3812SOL    HW222899   1.445   2.443   6.163 -1.7299 -0.2955  0.2978
 3813SOL     OW22900   1.090   3.382   7.784  0.1760  0.2220  0.3189
 3813SOL    HW122901   1.058   3.320   7.850  0.8091 -0.6295 -0.1624
 3813SOL    HW222902   1.149   3.437   7.835  1.7411  0.8851 -2.1849
 3814SOL     OW22903   2.338   4.492  10.936 -0.2414 -0.6105 -1.0486
 3814SOL    HW122904   2.388   4.573  10.947 -2.7822  0.7180  0.6870
 3814SOL    HW222905   2.335   4.495  10.840 -0.6301 -0.6362 -1.0360
 3815SOL     OW22906   2.987   3.299  14.766  0.2337 -0.2090 -0.5552
 3815SOL    HW122907   3.079   3.274  14.778  0.3158 -0.7191 -2.2147
 3815SOL    HW222908   2.990   3.388  14.801 -1.1029  0.4885 -2.2246
 3816SOL     OW22909   3.408   0.234  11.299 -0.4647 -0.1501  0.1194
 3816SOL    HW122910   3.364   0.164  11.348  1.5092 -1.2300  0.3532
 3816SOL    HW222911   3.473   0.267  11.360 -1.6602  0.0210  1.3067
 3817SOL     OW22912   1.184   0.123   1.370  0.2482 -0.6481  0.4566
 3817SOL    HW122913   1.188   0.198   1.430  2.1792 -1.2793  1.1250
 3817SOL    HW222914   1.276   0.117   1.344  0.8110  1.7243  1.8625
 3818SOL     OW22915   1.319   0.968   3.203  0.2799 -0.2879  0.5932
 3818SOL    HW122916   1.271   0.953   3.122 -1.2552  0.0185  1.4532
 3818SOL    HW222917   1.374   1.036   3.164  1.6435 -1.2694  0.7960
 3819SOL     OW22918   0.090   3.518   4.939  0.1631  0.6432  0.0566
 3819SOL    HW122919   0.092   3.613   4.954  1.8177  0.4666  0.9866
 3819SOL    HW222920   0.079   3.509   4.844  0.5968 -0.1692  0.0807
 3820SOL     OW22921   1.679   2.697   6.560 -0.2736  0.0410  0.1736
 3820SOL    HW122922   1.654   2.662   6.475 -0.8586  0.8639  0.0152
 3820SOL    HW222923   1.600   2.693   6.614 -0.2244  1.1249  0.3274
 3821SOL     OW22924   4.518   0.642   9.355 -0.2095 -0.0070  0.0687
 3821SOL    HW122925   4.571   0.567   9.382 -1.4061 -0.6617  0.5640
 3821SOL    HW222926   4.571   0.672   9.281  1.2732 -2.6937  0.0552
 3822SOL     OW22927   0.007   2.612   3.820 -0.1844 -0.3127  0.5014
 3822SOL    HW122928   0.075   2.634   3.756 -0.5243  0.9859  0.5762
 3822SOL    HW222929   4.654   2.614   3.764 -0.7946  0.8890  1.3868
 3823SOL     OW22930   4.083   1.040  17.466 -0.5178 -0.2748 -0.4466
 3823SOL    HW122931   4.039   1.111  17.419 -1.2454 -1.2989 -1.3167
 3823SOL    HW222932   4.110   1.078  17.549 -1.0845 -1.0951  0.1190
 3824SOL     OW22933   2.026   3.781  14.903  0.3600  0.1574  0.5021
 3824SOL    HW122934   2.065   3.756  14.819  0.3044 -0.8029  0.7596
 3824SOL    HW222935   1.933   3.786  14.884 -0.0799 -0.3644  2.4877
 3825SOL     OW22936   0.414   4.210  13.858  0.6004  0.2615  0.0205
 3825SOL    HW122937   0.411   4.298  13.823 -1.9074  0.5449  0.9755
 3825SOL    HW222938   0.404   4.154  13.781  0.3378  0.2960  0.0310
 3826SOL     OW22939   4.537   3.709  10.050  0.3948  0.0965  0.1874
 3826SOL    HW122940   4.453   3.755  10.048  1.8655  2.6973 -0.6992
 3826SOL    HW222941   4.529   3.667  10.136  1.6475 -1.7135 -0.5726
 3827SOL     OW22942   1.841   2.644   1.461  0.1061  0.4152 -0.0679
 3827SOL    HW122943   1.746   2.639   1.475  0.3889  2.6941  2.6391
 3827SOL    HW222944   1.874   2.695   1.535 -2.0527 -0.8016  1.7269
 3828SOL     OW22945   2.734   3.821   6.252  0.0311 -0.2844  0.3197
 3828SOL    HW122946   2.782   3.864   6.323 -1.7527 -0.1943  1.4843
 3828SOL    HW222947   2.811   3.806   6.197 -0.1068 -0.0283  0.0588
 3829SOL     OW22948   2.636   4.713  15.180  0.2593  0.8336 -0.3148
 3829SOL    HW122949   2.694   4.684  15.251 -0.2173 -0.7835 -0.5986
 3829SOL    HW222950   2.692   0.029  15.113  0.1816  2.4558  0.5857
 3830SOL     OW22951   3.437   0.035   7.363  0.3034  0.1340 -0.5477
 3830SOL    HW122952   3.429   0.104   7.296  0.2986  1.6531  1.0288
 3830SOL    HW222953   3.384   4.698   7.311  0.7412 -1.2111  0.5812
 3831SOL     OW22954   3.940   0.240   4.405  0.0305  0.1566 -0.3396
 3831SOL    HW122955   3.955   0.317   4.351 -0.1686 -0.1861 -0.8792
 3831SOL    HW222956   3.866   0.270   4.458 -1.1535 -0.4804 -1.6297
 3832SOL     OW22957   0.849   3.942   5.315  0.1636  0.1681 -0.3666
 3832SOL    HW122958   0.908   3.868   5.302 -0.2217 -0.8350  3.7332
 3832SOL    HW222959   0.829   3.972   5.226 -3.3272  0.7698  0.6190
 3833SOL     OW22960   1.037   2.677   6.921  0.0541 -0.3968  0.3276
 3833SOL    HW122961   0.984   2.689   7.000 -0.8187  0.0473 -0.3104
 3833SOL    HW222962   1.067   2.587   6.930  0.1061 -0.6155 -2.0472
 3834SOL     OW22963   4.612   1.522   9.484 -0.3754 -0.4248 -0.1264
 3834SOL    HW122964   4.545   1.457   9.507  0.8548 -1.5272  0.3740
 3834SOL    HW222965   4.690   1.468   9.477  0.2552  0.4024  0.6187
 3835SOL     OW22966   2.961   1.036  17.584 -0.4251  0.4297  0.2484
 3835SOL    HW122967   2.918   1.031  17.670  1.5519 -2.5266  1.0658
 3835SOL    HW222968   2.908   1.097  17.534 -2.4724 -0.9810  0.6931
 3836SOL     OW22969   1.112   1.968  11.070  0.6845 -0.7120  0.2906
 3836SOL    HW122970   1.052   1.903  11.034  0.6951  0.2717 -1.5369
 3836SOL    HW222971   1.182   1.951  11.006  1.4068 -0.8140  1.1022
 3837SOL     OW22972   3.314   0.999  15.361 -0.2105 -0.1186 -0.4639
 3837SOL    HW122973   3.259   1.068  15.323 -1.7804 -1.0377  0.1315
 3837SOL    HW222974   3.317   1.033  15.451 -0.3188 -1.6511  0.1100
 3838SOL     OW22975   2.454   1.645   3.173  0.2173 -0.1581  0.0983
 3838SOL    HW122976   2.385   1.579   3.178 -1.0674  1.1205 -1.2243
 3838SOL    HW222977   2.428   1.691   3.253 -1.2010  0.2164 -0.5923
 3839SOL     OW22978   2.146   2.584   6.225 -0.0921 -0.1175  0.5080
 3839SOL    HW122979   2.143   2.676   6.249 -0.3185 -0.2233  0.8950
 3839SOL    HW222980   2.171   2.587   6.133 -2.3776  0.5224 -0.1018
 3840SOL     OW22981   2.388   4.708  15.149  0.3771  0.2569 -0.1420
 3840SOL    HW122982   2.376   4.710  15.054 -0.1882 -0.8381 -0.1025
 3840SOL    HW222983   2.480   0.008  15.146  0.2343  0.9779  1.1927
 3841SOL     OW22984   3.516   0.647   4.684  0.4698  0.1879  0.3882
 3841SOL    HW122985   3.577   0.606   4.745  1.4993  0.3544 -0.5324
 3841SOL    HW222986   3.442   0.589   4.666  0.1596  1.1757 -1.5198
 3842SOL     OW22987   1.621   0.680   8.410 -0.3369  0.3510 -0.0105
 3842SOL    HW122988   1.559   0.745   8.443 -1.3099  0.3094 -1.7423
 3842SOL    HW222989   1.623   0.687   8.315  1.3767 -0.9942 -0.0682
 3843SOL     OW22990   3.672   0.530   1.214 -0.3597  0.3600  0.0101
 3843SOL    HW122991   3.656   0.573   1.298  3.0397  0.4521  0.6399
 3843SOL    HW222992   3.745   0.585   1.184  0.1506 -0.1157  0.3678
 3844SOL     OW22993   3.670   0.598   6.790 -0.2550  0.3601  0.3402
 3844SOL    HW122994   3.658   0.656   6.866  3.1561  2.3325 -0.6444
 3844SOL    HW222995   3.761   0.571   6.799 -0.5146 -0.8461 -0.6491
 3845SOL     OW22996   2.147   2.587   7.983 -0.0297  0.3531 -0.7527
 3845SOL    HW122997   2.057   2.610   8.006  0.2685  0.8028 -0.0705
 3845SOL    HW222998   2.190   2.590   8.068  0.6769  0.0654 -1.1068
 3846SOL     OW22999   3.800   1.428  13.390 -0.4072 -0.1418 -0.4129
 3846SOL    HW123000   3.867   1.414  13.457 -1.4328  0.7067  0.7781
 3846SOL    HW223001   3.791   1.523  13.383 -1.8696 -0.0836  2.1932
 3847SOL     OW23002   3.269   2.196   9.317  0.0795  0.3063  0.5791
 3847SOL    HW123003   3.302   2.256   9.250 -1.3352 -0.4267 -0.7817
 3847SOL    HW223004   3.180   2.189   9.283  1.0189  0.2814 -1.9128
 3848SOL     OW23005   3.049   3.787   5.508  0.4300  0.1170 -0.1568
 3848SOL    HW123006   3.108   3.769   5.435 -1.0945 -0.6878 -1.1953
 3848SOL    HW223007   3.001   3.704   5.504  0.5854  0.0231 -0.0983
 3849SOL     OW23008   0.589   4.562  14.148  0.1497  0.1063  0.7971
 3849SOL    HW123009   0.595   4.582  14.241 -1.0215 -0.8733  1.0868
 3849SOL    HW223010   0.513   4.503  14.151  0.2651 -0.0334  0.9823
 3850SOL     OW23011   0.023   0.116   7.852 -0.0456  0.0886  0.1541
 3850SOL    HW123012   0.115   0.107   7.876  0.2519  0.5086 -0.8138
 3850SOL    HW223013   0.025   0.209   7.829  0.6396  0.1208  0.3680
 3851SOL     OW23014   0.614   2.662  13.674  0.2577 -0.0785  0.1997
 3851SOL    HW123015   0.652   2.591  13.623  0.8931  1.5261 -1.5580
 3851SOL    HW223016   0.588   2.619  13.755 -2.0013  0.8118 -0.0372
 3852SOL     OW23017   0.230   2.343   1.014 -0.3668 -0.2080  0.6833
 3852SOL    HW123018   0.285   2.265   1.025 -0.2399 -0.2923 -0.6438
 3852SOL    HW223019   0.221   2.356   0.920  0.1380 -0.8609  0.5461
 3853SOL     OW23020   3.381   1.881  12.244  0.4699 -0.3615  0.5255
 3853SOL    HW123021   3.422   1.913  12.164  1.5680  1.2124  1.7345
 3853SOL    HW223022   3.411   1.949  12.305  0.4767 -1.2090  1.4665
 3854SOL     OW23023   1.371   3.168  12.296 -0.3336 -0.0002  0.5542
 3854SOL    HW123024   1.378   3.184  12.390 -3.0937 -1.5902  1.0019
 3854SOL    HW223025   1.443   3.105  12.294 -1.0383 -0.7471 -1.2589
 3855SOL     OW23026   0.980   0.730   4.985  0.0951 -0.7349 -0.0132
 3855SOL    HW123027   1.033   0.764   4.913  0.1433 -0.2419  0.2530
 3855SOL    HW223028   1.030   0.758   5.062  1.3305 -2.5003 -0.1770
 3856SOL     OW23029   1.207   0.908   5.509  0.1944 -0.1810  0.4151
 3856SOL    HW123030   1.285   0.953   5.476  1.1604 -0.8367  1.8139
 3856SOL    HW223031   1.239   0.913   5.598  0.5082 -2.6426  0.4368
 3857SOL     OW23032   3.510   2.518   7.137  0.2719 -0.4280  0.0062
 3857SOL    HW123033   3.423   2.481   7.124  0.1271  0.0557 -0.4320
 3857SOL    HW223034   3.517   2.538   7.230  1.5040 -1.5620  0.1593
 3858SOL     OW23035   0.952   3.694   7.846 -0.7908  0.0280  0.6710
 3858SOL    HW123036   0.955   3.775   7.896 -1.4185  0.5950 -0.2118
 3858SOL    HW223037   1.005   3.641   7.906 -0.0538 -0.7457 -0.6422
 3859SOL     OW23038   4.365   1.671  16.463  0.6225  0.1411  0.2280
 3859SOL    HW123039   4.357   1.576  16.450 -1.2261  0.3586 -0.1720
 3859SOL    HW223040   4.414   1.673  16.545 -1.1577  2.0883  1.2436
 3860SOL     OW23041   2.475   3.386  13.325  0.6658  0.2574 -0.3108
 3860SOL    HW123042   2.501   3.456  13.386  0.0492  0.1185  0.1089
 3860SOL    HW223043   2.561   3.360  13.292 -0.3391 -2.5397 -0.6392
 3861SOL     OW23044   3.623   2.201  11.132 -0.0803 -0.7909  0.4244
 3861SOL    HW123045   3.662   2.126  11.176  3.8420 -0.1711 -1.9593
 3861SOL    HW223046   3.625   2.269  11.198 -0.5703 -0.7055  0.3517
 3862SOL     OW23047   0.719   1.843  10.707  0.9683 -0.6645  0.0121
 3862SOL    HW123048   0.704   1.753  10.678 -3.2270 -0.0204  0.2330
 3862SOL    HW223049   0.687   1.899  10.636  1.3372 -2.1252 -1.3124
 3863SOL     OW23050   3.383   1.676  15.881 -0.1539 -0.2277  0.1126
 3863SOL    HW123051   3.453   1.738  15.900  0.0272 -0.2292 -0.5728
 3863SOL    HW223052   3.334   1.714  15.809 -0.8871  2.2598  1.9113
 3864SOL     OW23053   3.852   3.914   1.151  0.1470 -0.4895  0.3618
 3864SOL    HW123054   3.886   3.975   1.085 -0.0397  0.9529  1.6077
 3864SOL    HW223055   3.859   3.837   1.093  1.6646  0.5364 -0.8258
 3865SOL     OW23056   3.177   3.862   3.433  0.0870 -0.4772  0.2799
 3865SOL    HW123057   3.251   3.821   3.479  0.5208 -0.3670 -0.3284
 3865SOL    HW223058   3.233   3.913   3.376 -2.3658  2.3237  0.4182
 3866SOL     OW23059   2.596   4.215   2.503 -0.0197 -0.4780 -0.1159
 3866SOL    HW123060   2.538   4.279   2.544  0.3934  0.7212 -1.4103
 3866SOL    HW223061   2.537   4.169   2.444 -0.7968  1.2299 -0.6710
 3867SOL     OW23062   1.563   0.636   7.506 -0.0974  0.1606 -0.5063
 3867SOL    HW123063   1.637   0.619   7.564 -1.3579 -1.5378  0.6270
 3867SOL    HW223064   1.553   0.731   7.516 -0.2648  0.1094 -0.1943
 3868SOL     OW23065   3.063   1.875   6.281 -0.3216 -0.7494  0.1932
 3868SOL    HW123066   3.010   1.797   6.264 -0.5663 -0.2669 -1.2721
 3868SOL    HW223067   2.996   1.916   6.336 -0.0641  1.1267 -0.8970
 3869SOL     OW23068   0.369   1.196   1.913  0.0894 -0.1843 -0.3192
 3869SOL    HW123069   0.311   1.133   1.955 -1.2434  0.9256 -0.5104
 3869SOL    HW223070   0.424   1.136   1.862  0.8324 -0.5697  0.9090
 3870SOL     OW23071   3.198   3.793   3.001 -0.3932 -0.0220 -0.1562
 3870SOL    HW123072   3.130   3.729   2.981  1.0363 -1.5845 -0.0415
 3870SOL    HW223073   3.248   3.776   2.921  2.1180 -0.9651  1.6296
 3871SOL     OW23074   2.063   1.389   5.410  1.0519 -0.0002  0.4098
 3871SOL    HW123075   1.989   1.449   5.398  3.0743  2.9716  2.8355
 3871SOL    HW223076   2.110   1.421   5.487  1.1554  0.3757  0.1895
 3872SOL     OW23077   0.585   0.947   1.866  0.3033  0.0130 -0.0581
 3872SOL    HW123078   0.642   0.878   1.899 -0.1723 -1.5124 -2.4425
 3872SOL    HW223079   0.628   0.978   1.786  0.9517  1.0806  0.7046
 3873SOL     OW23080   1.988   3.087   2.920 -0.5485 -0.4587  0.2462
 3873SOL    HW123081   1.902   3.116   2.891  0.4920  1.8727 -0.4609
 3873SOL    HW223082   1.995   3.009   2.865  3.3222 -1.5350  2.2510
 3874SOL     OW23083   3.716   3.581   2.998 -0.1085  0.1783 -0.6495
 3874SOL    HW123084   3.678   3.662   3.033  1.1072 -0.0585  1.1719
 3874SOL    HW223085   3.758   3.550   3.078  0.2523  2.0570 -0.1131
 3875SOL     OW23086   4.555   3.153   2.096  0.1342 -0.2480 -0.0577
 3875SOL    HW123087   4.491   3.165   2.026  1.5497 -0.6059 -1.4309
 3875SOL    HW223088   4.630   3.175   2.040 -0.5142  1.5980 -0.1888
 3876SOL     OW23089   4.563   4.056  14.178 -0.5475  0.2826 -0.1561
 3876SOL    HW123090   4.612   4.075  14.098 -1.8778  3.5075 -0.2104
 3876SOL    HW223091   4.618   3.979  14.191 -0.1502  0.8261  1.3382
 3877SOL     OW23092   2.717   1.093   4.124 -0.1539  0.1630  0.5235
 3877SOL    HW123093   2.655   1.081   4.196 -3.2460  1.3278 -1.9925
 3877SOL    HW223094   2.674   1.162   4.074 -0.1376  0.9979  1.6651
 3878SOL     OW23095   2.817   4.137   7.593 -0.0337 -0.5981  0.0907
 3878SOL    HW123096   2.905   4.111   7.620  0.5569  0.8135 -0.4563
 3878SOL    HW223097   2.817   4.223   7.636 -0.8204  0.1360 -1.3662
 3879SOL     OW23098   0.600   3.611   5.434 -0.0877 -0.1099  0.4176
 3879SOL    HW123099   0.693   3.589   5.445  0.0500  0.8816  1.1950
 3879SOL    HW223100   0.572   3.575   5.518 -1.8089  1.1597  0.3623
 3880SOL     OW23101   0.225   0.045   8.245 -0.5836  0.2165  0.2957
 3880SOL    HW123102   0.230   4.705   8.174  2.7078  2.9035 -1.8816
 3880SOL    HW223103   0.143   0.086   8.218  0.7500  0.9014 -2.7461
 3881SOL     OW23104   0.966   3.427   7.345 -0.5493  0.5436 -0.6455
 3881SOL    HW123105   0.903   3.417   7.417 -1.5720  0.7770 -1.5074
 3881SOL    HW223106   0.972   3.340   7.306 -1.2246 -0.4882  1.5463
 3882SOL     OW23107   2.134   3.950   4.548 -0.0274 -0.2960 -0.6621
 3882SOL    HW123108   2.087   4.006   4.610  1.0608  2.8157 -2.6527
 3882SOL    HW223109   2.072   3.949   4.476 -0.5833 -2.8377 -0.1397
 3883SOL     OW23110   4.130   3.538   2.763 -0.2272  0.0853 -0.2343
 3883SOL    HW123111   4.189   3.476   2.720  1.9137  0.6100  1.9485
 3883SOL    HW223112   4.189   3.599   2.807  1.0971 -1.1182 -0.3312
 3884SOL     OW23113   0.191   1.123  11.382 -0.0262 -0.2479 -0.1838
 3884SOL    HW123114   0.228   1.123  11.470  2.5896 -1.2474 -1.2966
 3884SOL    HW223115   0.097   1.128  11.401  0.1245  0.4929  0.3578
 3885SOL     OW23116   4.305   2.922  12.385  0.0529 -0.0857 -0.1956
 3885SOL    HW123117   4.379   2.888  12.434  0.6779 -0.7800 -1.6284
 3885SOL    HW223118   4.298   3.007  12.430  1.1887  0.2379 -0.6189
 3886SOL     OW23119   4.466   2.087   0.157  0.0568 -0.4927 -0.6143
 3886SOL    HW123120   4.382   2.123   0.186  0.9477  1.5597 -0.5951
 3886SOL    HW223121   4.511   2.168   0.132  1.8983 -1.4065 -0.2453
 3887SOL     OW23122   1.403   0.790   7.106 -0.9250 -0.0951 -0.0539
 3887SOL    HW123123   1.447   0.724   7.158 -1.3172  1.5369  2.3392
 3887SOL    HW223124   1.483   0.838   7.083 -1.3544  0.4094 -0.4968
 3888SOL     OW23125   2.220   4.618   7.784 -0.0954 -0.1925  0.3952
 3888SOL    HW123126   2.313   4.641   7.779  0.4446 -2.5668 -0.7547
 3888SOL    HW223127   2.187   4.700   7.750 -0.0269  0.4701  1.9295
 3889SOL     OW23128   4.654   0.288  16.779 -0.7240 -0.4776 -0.0248
 3889SOL    HW123129   4.565   0.314  16.804 -0.5002 -0.4461  0.7335
 3889SOL    HW223130   4.641   0.237  16.699 -0.6593 -0.9802  0.2798
 3890SOL     OW23131   2.586   3.716   6.492 -0.3345 -0.5134  0.3465
 3890SOL    HW123132   2.574   3.624   6.468 -0.4246 -0.2628 -0.5807
 3890SOL    HW223133   2.620   3.736   6.405 -3.6829  0.2042 -0.7838
 3891SOL     OW23134   0.163   4.409   0.670  0.1457  0.2828  0.1589
 3891SOL    HW123135   0.186   4.502   0.677 -0.9221  0.5489  0.1365
 3891SOL    HW223136   0.191   4.368   0.752 -0.0003 -1.4101 -0.6340
 3892SOL     OW23137   4.724   4.039  10.051 -0.2898 -0.1911  0.6954
 3892SOL    HW123138   4.697   3.978  10.120 -0.0174 -1.4447 -0.3151
 3892SOL    HW223139   0.091   4.010  10.043  0.8523  2.5627  3.7322
 3893SOL     OW23140   1.964   3.213   4.050  0.1599  0.5917 -0.6047
 3893SOL    HW123141   1.966   3.201   3.955  1.9907 -2.4029 -0.1997
 3893SOL    HW223142   2.003   3.133   4.086  0.1907  0.9615  0.1837
 3894SOL     OW23143   4.268   4.263   8.312 -0.2075  0.3145 -0.2049
 3894SOL    HW123144   4.272   4.266   8.216 -0.4257  0.3694 -0.2106
 3894SOL    HW223145   4.202   4.326   8.338  1.3201  2.8512 -2.4833
 3895SOL     OW23146   0.190   2.134   1.412  0.1365  0.3010 -0.2188
 3895SOL    HW123147   0.276   2.143   1.453 -1.0428  0.7410  2.1205
 3895SOL    HW223148   0.175   2.226   1.389 -0.1074  0.5275  0.8694
 3896SOL     OW23149   3.088   2.507   3.247 -0.4366  0.1739  0.0697
 3896SOL    HW123150   3.054   2.578   3.192 -1.3444 -1.3128 -1.2904
 3896SOL    HW223151   3.102   2.442   3.178 -0.6678 -0.8140  0.9537
 3897SOL     OW23152   2.453   4.022  14.188 -0.2120  0.2809 -0.5438
 3897SOL    HW123153   2.367   3.997  14.154 -0.5780 -2.1105  2.1228
 3897SOL    HW223154   2.489   3.937  14.213  0.4643  0.6685 -0.2101
 3898SOL     OW23155   1.081   0.747  15.032 -0.3555 -0.7110  0.2333
 3898SOL    HW123156   1.056   0.669  14.982 -1.7922  1.4082 -2.4118
 3898SOL    HW223157   1.022   0.814  14.994 -1.2531 -0.3880  2.2138
 3899SOL     OW23158   4.360   1.085   1.256  0.4757  0.1826 -0.6426
 3899SOL    HW123159   4.310   1.114   1.332 -1.4185 -0.0446 -1.8174
 3899SOL    HW223160   4.292   1.049   1.199  1.1982 -2.0488 -0.1235
 3900SOL     OW23161   2.064   3.690   4.392  0.1931 -0.0069  0.1553
 3900SOL    HW123162   2.064   3.738   4.476 -0.8532 -0.3844  0.3772
 3900SOL    HW223163   2.063   3.597   4.412  2.2472 -0.1336 -0.3716
 3901SOL     OW23164   2.574   2.095  17.553  0.0793  0.3238 -0.4059
 3901SOL    HW123165   2.481   2.093  17.529  0.2852  2.0867 -1.3800
 3901SOL    HW223166   2.564   2.089  17.648 -2.0479 -0.3728 -0.6722
 3902SOL     OW23167   2.771   1.234  11.024 -0.3187 -0.4632 -0.3440
 3902SOL    HW123168   2.752   1.157  10.971 -2.9357  0.4410 -0.6989
 3902SOL    HW223169   2.786   1.201  11.113 -0.2298  0.8906  0.1371
 3903SOL     OW23170   0.553   0.615   6.994  0.2619  0.1120  0.4905
 3903SOL    HW123171   0.535   0.653   6.908 -0.5731  0.0288  0.6263
 3903SOL    HW223172   0.534   0.522   6.985 -2.9737  0.6359  1.7029
 3904SOL     OW23173   1.950   0.650   6.204 -0.2764  0.3890 -0.5705
 3904SOL    HW123174   1.922   0.588   6.137  2.9677 -0.4470 -1.1544
 3904SOL    HW223175   2.039   0.665   6.173 -0.0741  1.7966  0.6635
 3905SOL     OW23176   0.519   2.332   6.468  0.3419  0.5460  0.2919
 3905SOL    HW123177   0.438   2.373   6.437 -0.0039 -0.6317 -0.3788
 3905SOL    HW223178   0.582   2.391   6.426 -2.0729  1.9094 -1.4524
 3906SOL     OW23179   3.424   3.414   8.888 -0.6228  0.0391 -0.6193
 3906SOL    HW123180   3.500   3.469   8.867 -2.0777  2.4045  0.2618
 3906SOL    HW223181   3.466   3.328   8.885 -1.0900 -0.1962 -0.3703
 3907SOL     OW23182   0.345   2.683  16.125  0.9820  0.4667  0.4491
 3907SOL    HW123183   0.333   2.621  16.053  0.5597  0.9624  0.0887
 3907SOL    HW223184   0.389   2.756  16.081 -0.6194  1.4934  0.5402
 3908SOL     OW23185   0.695   1.853   7.937 -0.0311 -0.5022 -0.0148
 3908SOL    HW123186   0.687   1.800   8.016  0.0700 -1.5564 -0.6989
 3908SOL    HW223187   0.660   1.938   7.962 -0.2610 -0.4113 -0.6492
 3909SOL     OW23188   3.184   0.440   6.219 -0.4886  0.6089  0.6824
 3909SOL    HW123189   3.262   0.496   6.221  1.0509 -1.6552  3.4593
 3909SOL    HW223190   3.111   0.502   6.223 -2.6662 -1.9811  0.8906
 3910SOL     OW23191   4.239   3.654   8.260  0.1972  0.6358 -0.0100
 3910SOL    HW123192   4.308   3.604   8.305  0.4527  1.7149  0.7983
 3910SOL    HW223193   4.174   3.657   8.330  0.5864 -0.9044  0.4297
 3911SOL     OW23194   1.430   1.344   6.147 -0.1895 -0.2386  0.2300
 3911SOL    HW123195   1.385   1.260   6.150 -3.1478  1.3705  1.2854
 3911SOL    HW223196   1.411   1.391   6.229 -0.0076 -0.6579  0.5100
 3912SOL     OW23197   1.525   0.683   3.659 -0.1238 -0.2557 -0.1473
 3912SOL    HW123198   1.604   0.736   3.669 -0.0961 -0.4965  0.9823
 3912SOL    HW223199   1.486   0.731   3.586 -1.3469 -3.2745 -1.4654
 3913SOL     OW23200   4.515   0.753  14.615 -0.0246  0.1977 -0.1899
 3913SOL    HW123201   4.587   0.756  14.678  0.3129  1.2520 -0.6237
 3913SOL    HW223202   4.555   0.714  14.538  0.5772  1.1422 -0.3584
 3914SOL     OW23203   3.774   0.267  10.001  0.1868 -0.2327  0.1960
 3914SOL    HW123204   3.727   0.184  10.012 -2.9083  1.5628  0.5092
 3914SOL    HW223205   3.746   0.306  10.084  1.3164 -1.3879  1.1177
 3915SOL     OW23206   0.558   0.949   4.471  0.2703  0.1530 -0.4553
 3915SOL    HW123207   0.501   0.936   4.395 -0.0114 -1.3806  0.0172
 3915SOL    HW223208   0.487   0.959   4.533  0.4728 -0.3146 -0.1448
 3916SOL     OW23209   1.406   4.124   8.503  0.0282 -0.1933  0.0821
 3916SOL    HW123210   1.350   4.162   8.570  0.3650  1.3820 -0.5317
 3916SOL    HW223211   1.393   4.190   8.434 -1.6873 -1.6692 -1.0460
 3917SOL     OW23212   0.116   4.280   5.562  0.2841 -0.0202 -0.6832
 3917SOL    HW123213   0.117   4.336   5.640  0.2208 -3.8365  2.0666
 3917SOL    HW223214   0.210   4.284   5.543  0.2672  0.1068 -0.7390
 3918SOL     OW23215   0.062   3.662  16.774  0.1721 -0.1226 -0.5269
 3918SOL    HW123216   0.055   3.758  16.780 -1.1892 -0.2869  0.5206
 3918SOL    HW223217   4.697   3.632  16.792  0.4242 -1.0421 -0.7903
 3919SOL     OW23218   2.306   2.375  17.564  0.3143  0.1967 -0.1256
 3919SOL    HW123219   2.270   2.447  17.616 -1.8217 -1.3376  0.5467
 3919SOL    HW223220   2.383   2.415  17.525 -0.2015  0.0416 -1.3020
 3920SOL     OW23221   0.649   4.245  17.170  0.2504 -0.2265 -0.0018
 3920SOL    HW123222   0.565   4.214  17.136 -0.1053 -2.4570  2.8741
 3920SOL    HW223223   0.625   4.336  17.183 -1.6687 -0.7019 -0.1508
 3921SOL     OW23224   3.913   2.384   8.736  0.6460  0.1464 -0.1134
 3921SOL    HW123225   3.932   2.350   8.648  2.0444  1.8926 -0.4872
 3921SOL    HW223226   3.823   2.354   8.751  0.2404  1.2988 -0.2735
 3922SOL     OW23227   4.309   2.382   5.556  0.1231 -0.0189 -0.3479
 3922SOL    HW123228   4.395   2.340   5.560  1.0708  2.0051  0.5789
 3922SOL    HW223229   4.299   2.433   5.637  0.2617 -1.4289  0.5672
 3923SOL     OW23230   1.984   3.080   6.776 -0.1188  0.0016  0.0358
 3923SOL    HW123231   1.904   3.131   6.788 -0.2220 -1.0165  3.5062
 3923SOL    HW223232   2.055   3.140   6.798  1.3983 -1.1687 -1.6456
 3924SOL     OW23233   4.134   1.680   0.598 -0.1688 -0.7097 -0.2592
 3924SOL    HW123234   4.166   1.605   0.549 -1.4498 -2.8571  2.1767
 3924SOL    HW223235   4.056   1.696   0.545 -0.8135 -2.1313  0.2799
 3925SOL     OW23236   3.002   3.485   2.706  0.1016 -0.2322 -0.2750
 3925SOL    HW123237   3.073   3.529   2.660 -1.4139  0.9260 -1.5014
 3925SOL    HW223238   2.987   3.412   2.645  0.1565 -0.5855  0.1303
 3926SOL     OW23239   0.564   3.380   8.857 -0.2682 -0.3922  0.5332
 3926SOL    HW123240   0.657   3.357   8.856  0.0745  0.9007  1.5252
 3926SOL    HW223241   0.572   3.455   8.917 -0.3107 -0.2721  0.3901
 3927SOL     OW23242   0.620   4.159   6.902  0.4510  0.1502  0.4086
 3927SOL    HW123243   0.703   4.168   6.949  0.1118  0.0984  1.0127
 3927SOL    HW223244   0.561   4.218   6.950  2.0965  1.1093  1.2632
 3928SOL     OW23245   3.018   3.024  13.982  0.0469 -0.0790  0.1228
 3928SOL    HW123246   2.926   3.028  14.006 -0.1649 -1.0801 -0.5217
 3928SOL    HW223247   3.010   2.938  13.939  2.1951 -0.4994  0.5453
 3929SOL     OW23248   3.815   1.950   3.889 -0.3859 -0.1748 -0.0206
 3929SOL    HW123249   3.746   2.004   3.930  1.4733 -0.4793  3.5307
 3929SOL    HW223250   3.896   1.987   3.925  0.4387 -3.5747  1.5903
 3930SOL     OW23251   2.598   3.691   9.313 -0.6004 -0.1896  0.4857
 3930SOL    HW123252   2.535   3.636   9.267 -0.1943  0.0555 -0.3609
 3930SOL    HW223253   2.539   3.744   9.365 -1.5277 -0.7849  0.0288
 3931SOL     OW23254   4.682   0.654   7.613 -0.1326 -0.0122  0.2651
 3931SOL    HW123255   4.592   0.687   7.622  0.3707  0.8795  2.1245
 3931SOL    HW223256   0.012   0.723   7.653 -0.0135 -0.0997  0.2542
 3932SOL     OW23257   1.994   2.308   4.718  0.2753  0.4674  0.5935
 3932SOL    HW123258   2.036   2.377   4.770  1.0381 -0.4745  1.2484
 3932SOL    HW223259   1.902   2.327   4.732 -0.1501 -1.2180  0.0285
 3933SOL     OW23260   2.360   4.551   6.557 -0.1075 -0.5392 -0.3401
 3933SOL    HW123261   2.321   4.536   6.644  0.1004  1.1614  0.0394
 3933SOL    HW223262   2.404   4.635   6.571 -0.0946 -0.7618  0.9845
 3934SOL     OW23263   3.637   0.363   2.841  0.0625 -0.2236  0.2552
 3934SOL    HW123264   3.701   0.434   2.841 -0.4260  0.2142  0.3981
 3934SOL    HW223265   3.648   0.326   2.929  3.2516 -0.4470 -0.2375
 3935SOL     OW23266   0.824   3.558   3.586  0.5178  0.1233 -0.3674
 3935SOL    HW123267   0.750   3.510   3.550  0.8920 -0.7031 -0.0425
 3935SOL    HW223268   0.900   3.518   3.542 -0.0819 -0.5089 -0.8328
 3936SOL     OW23269   2.384   4.653  16.953 -0.1420 -0.4265  0.3122
 3936SOL    HW123270   2.422   0.015  16.936 -1.2565  0.1291  0.6036
 3936SOL    HW223271   2.460   4.602  16.925 -1.3646 -1.7671 -0.5687
 3937SOL     OW23272   0.312   0.335   5.355 -0.1436  0.2076 -0.1454
 3937SOL    HW123273   0.240   0.288   5.312  0.1085  1.8297 -2.3490
 3937SOL    HW223274   0.339   0.404   5.294 -1.0447  1.3211  0.7155
 3938SOL     OW23275   4.023   3.276   3.571 -0.2415  0.0466 -0.2299
 3938SOL    HW123276   4.044   3.228   3.651 -1.8406 -3.1984 -1.7387
 3938SOL    HW223277   3.955   3.225   3.527 -0.5776  1.4508 -1.3448
 3939SOL     OW23278   2.149   1.181   2.343  0.4369 -0.1165  0.2212
 3939SOL    HW123279   2.203   1.211   2.270 -1.0322 -0.6895 -1.0905
 3939SOL    HW223280   2.169   1.088   2.358  0.4010  0.0143  1.0977
 3940SOL     OW23281   4.724   0.186  10.366  0.1786 -0.2319  0.0584
 3940SOL    HW123282   4.669   0.112  10.339 -1.2749  0.9054 -0.0907
 3940SOL    HW223283   4.709   0.234  10.285 -0.3008  0.2829  0.4529
 3941SOL     OW23284   2.115   2.228   3.546 -0.0816  0.0707 -0.0495
 3941SOL    HW123285   2.072   2.273   3.618 -0.9707  1.6999 -1.5926
 3941SOL    HW223286   2.205   2.261   3.551 -0.2024  0.3284  0.4654
 3942SOL     OW23287   2.895   0.672   7.086 -0.0170 -0.4842 -0.3248
 3942SOL    HW123288   2.837   0.735   7.129  2.5721  0.4778  1.8173
 3942SOL    HW223289   2.860   0.681   6.998 -0.3852  0.0734 -0.1215
 3943SOL     OW23290   3.893   2.101  13.279 -0.0665  0.0065  0.2377
 3943SOL    HW123291   3.808   2.127  13.314  0.4364 -0.6241  1.9229
 3943SOL    HW223292   3.915   2.040  13.349  1.0682  1.1877  0.9076
 3944SOL     OW23293   1.769   0.040  12.851 -0.0213  0.1715  0.2706
 3944SOL    HW123294   1.804   0.015  12.765 -2.7843 -1.0218 -0.4892
 3944SOL    HW223295   1.747   0.133  12.839  0.6840  0.2359 -0.5635
 3945SOL     OW23296   0.565   3.511   1.964 -1.0875 -0.1767  0.5055
 3945SOL    HW123297   0.475   3.525   1.992 -1.1580  1.0763 -0.3514
 3945SOL    HW223298   0.595   3.444   2.026 -0.1378 -1.1321 -0.9897
 3946SOL     OW23299   2.837   3.707   4.347 -0.2341 -0.5427  0.2915
 3946SOL    HW123300   2.766   3.759   4.309  0.2890  0.8355  1.2066
 3946SOL    HW223301   2.911   3.764   4.370 -1.0070  0.0102  1.4236
 3947SOL     OW23302   0.679   4.127   9.687  0.3448 -0.0257  0.3832
 3947SOL    HW123303   0.688   4.144   9.593  1.7822  2.4212  0.9431
 3947SOL    HW223304   0.712   4.208   9.725 -0.1999  0.9313 -1.1578
 3948SOL     OW23305   2.852   4.678  10.249 -0.4916 -0.1295 -0.1055
 3948SOL    HW123306   2.902   4.618  10.304  1.7922  1.0864 -0.8681
 3948SOL    HW223307   2.763   4.653  10.274 -0.5554 -0.1122 -0.3150
 3949SOL     OW23308   3.214   4.298   7.728 -0.3067 -0.0104  0.0783
 3949SOL    HW123309   3.153   4.225   7.714 -0.5351  0.1966 -0.0064
 3949SOL    HW223310   3.292   4.255   7.763  1.0663  1.2605 -1.4677
 3950SOL     OW23311   0.864   1.226  10.839  0.4410  0.1024 -0.1263
 3950SOL    HW123312   0.780   1.203  10.799  0.0320  0.6124  0.4337
 3950SOL    HW223313   0.923   1.212  10.765  0.7149  1.2826 -0.1354
 3951SOL     OW23314   2.243   2.129  17.470 -0.0342 -0.1826 -0.0120
 3951SOL    HW123315   2.225   2.139  17.377  1.7527 -1.5477 -0.5117
 3951SOL    HW223316   2.254   2.220  17.498  0.9213 -0.7780  1.5618
 3952SOL     OW23317   3.158   4.582   3.810  0.5027  0.5098  0.4930
 3952SOL    HW123318   3.118   4.544   3.888 -0.5917 -1.6554 -1.1276
 3952SOL    HW223319   3.240   4.533   3.806  0.8224  0.9145  2.2815
 3953SOL     OW23320   4.386   2.124   4.206  0.0300 -0.7420  0.2487
 3953SOL    HW123321   4.356   2.142   4.117  0.8443  0.9270  0.3110
 3953SOL    HW223322   4.423   2.210   4.227 -0.5058 -1.2752  3.4822
 3954SOL     OW23323   1.608   3.042  15.902 -0.1881 -0.3115  0.6193
 3954SOL    HW123324   1.650   3.110  15.849 -0.2754  0.1093  1.0856
 3954SOL    HW223325   1.623   3.076  15.990  0.2687 -0.7871  0.7236
 3955SOL     OW23326   2.052   3.793   6.016 -0.4130  0.3078 -0.1383
 3955SOL    HW123327   2.066   3.791   6.111  0.3515  1.7765 -0.2277
 3955SOL    HW223328   1.987   3.722   6.013 -1.0258  0.8972 -0.8040
 3956SOL     OW23329   0.840   3.615   2.820 -0.7111 -0.1551  0.5408
 3956SOL    HW123330   0.845   3.521   2.802 -1.2433 -0.3713  1.5114
 3956SOL    HW223331   0.935   3.629   2.822 -0.7227  0.0181 -0.2952
 3957SOL     OW23332   4.018   3.083  14.587 -0.0007  0.1763 -0.4932
 3957SOL    HW123333   4.008   3.178  14.587 -1.1529  0.0610 -0.6024
 3957SOL    HW223334   4.103   3.070  14.546  0.4813  1.9555 -0.0302
 3958SOL     OW23335   2.634   3.604  13.054 -0.0666  0.6821 -0.1577
 3958SOL    HW123336   2.728   3.604  13.075  0.1198  0.3399 -0.9847
 3958SOL    HW223337   2.630   3.626  12.961  1.2810  0.3171 -0.3098
 3959SOL     OW23338   1.816   1.795   5.733 -0.3781 -0.6318 -0.3663
 3959SOL    HW123339   1.850   1.732   5.797  0.9321 -1.2513 -1.6777
 3959SOL    HW223340   1.776   1.863   5.787  1.1776  0.0444 -0.0587
 3960SOL     OW23341   3.271   1.953  14.243  0.3064 -0.1168 -0.0200
 3960SOL    HW123342   3.361   1.926  14.264  0.0353 -2.4622 -1.8385
 3960SOL    HW223343   3.223   1.951  14.326  0.2071 -0.0423 -0.0762
 3961SOL     OW23344   2.423   1.422   8.669  0.2028  0.1502 -0.1432
 3961SOL    HW123345   2.343   1.474   8.670 -0.0226 -0.2025  0.2996
 3961SOL    HW223346   2.436   1.385   8.756  0.1810  0.1948 -0.1212
 3962SOL     OW23347   0.559   2.337   3.274  0.0497  0.4894  0.1712
 3962SOL    HW123348   0.507   2.277   3.221  0.4194 -0.6103  1.0593
 3962SOL    HW223349   0.640   2.288   3.278 -0.8118 -0.7819  1.8254
 3963SOL     OW23350   0.783   3.177   0.524 -0.4725 -0.5873  0.5909
 3963SOL    HW123351   0.733   3.115   0.471  0.9279 -1.3284  0.1077
 3963SOL    HW223352   0.793   3.112   0.593  0.5429 -1.7113 -0.6088
 3964SOL     OW23353   2.503   0.750  15.147  0.0732 -0.0206 -0.1221
 3964SOL    HW123354   2.477   0.722  15.059 -1.9654  1.5020 -0.0182
 3964SOL    HW223355   2.521   0.844  15.138 -0.3726  0.1837  1.1571
 3965SOL     OW23356   2.856   2.491  10.515  0.3225 -0.6647  0.9042
 3965SOL    HW123357   2.869   2.576  10.473  1.4340 -1.1939  0.1666
 3965SOL    HW223358   2.820   2.440  10.442  0.1876 -0.7256  1.0142
 3966SOL     OW23359   2.780   0.657   8.272 -0.1355  0.1253 -0.9142
 3966SOL    HW123360   2.733   0.699   8.200  0.0343  0.4618 -0.8278
 3966SOL    HW223361   2.709   0.608   8.312  0.3220  0.4999  0.3735
 3967SOL     OW23362   4.127   0.574   4.553  0.9263 -0.2222  0.7412
 3967SOL    HW123363   4.194   0.642   4.563  1.5646 -0.7452 -0.0030
 3967SOL    HW223364   4.183   0.497   4.548  0.3169 -0.6861  1.1423
 3968SOL     OW23365   3.304   4.301   0.882  0.3714 -0.1842 -0.3134
 3968SOL    HW123366   3.386   4.350   0.891 -0.6632  1.5450 -0.3960
 3968SOL    HW223367   3.316   4.243   0.957 -1.9941 -0.4604 -0.1384
 3969SOL     OW23368   3.395   1.581  14.815 -0.9813  0.3310 -0.0591
 3969SOL    HW123369   3.304   1.554  14.829  0.0883 -2.8052  0.7589
 3969SOL    HW223370   3.382   1.674  14.795  0.3353  0.6236  0.4813
 3970SOL     OW23371   2.388   4.279   0.625  0.3817  0.1348  0.2208
 3970SOL    HW123372   2.352   4.225   0.555  0.0452 -1.0943  1.3379
 3970SOL    HW223373   2.480   4.293   0.601  0.9910 -0.8521  1.9333
 3971SOL     OW23374   1.550   2.943   7.920  0.3683  0.4382 -0.2765
 3971SOL    HW123375   1.578   2.928   8.011  1.4413  0.6751 -0.5666
 3971SOL    HW223376   1.479   3.003   7.943  0.2883  0.1864  0.1307
 3972SOL     OW23377   1.558   2.517  14.861  0.0485  0.7786  0.1594
 3972SOL    HW123378   1.518   2.431  14.852 -0.7903  1.2678 -0.8436
 3972SOL    HW223379   1.619   2.516  14.787 -0.4456  2.5513 -0.2856
 3973SOL     OW23380   4.483   0.206   5.222 -0.5115  0.1214 -0.0580
 3973SOL    HW123381   4.396   0.224   5.187 -0.7106 -0.8708 -0.0924
 3973SOL    HW223382   4.474   0.111   5.209  0.0276  0.1410 -0.6146
 3974SOL     OW23383   4.518   4.077  14.485  0.3326 -0.1033 -0.1620
 3974SOL    HW123384   4.544   4.042  14.400 -1.3504 -0.1701 -0.6424
 3974SOL    HW223385   4.427   4.049  14.494 -0.2218  1.4294 -1.0724
 3975SOL     OW23386   2.862   0.305  12.966 -0.0621 -0.2437 -0.0970
 3975SOL    HW123387   2.854   0.307  13.061 -2.5025  2.2069 -0.3534
 3975SOL    HW223388   2.823   0.221  12.943  3.4083 -2.1337  0.9918
 3976SOL     OW23389   4.289   1.905   2.965 -0.0125  0.2727 -0.5608
 3976SOL    HW123390   4.217   1.861   3.011 -1.0460  3.0449  0.4520
 3976SOL    HW223391   4.355   1.843   2.996 -0.3914 -0.0410 -0.3655
 3977SOL     OW23392   3.907   3.144   7.827 -0.0539  0.1925 -0.5133
 3977SOL    HW123393   3.977   3.098   7.780 -0.4561 -0.3037 -0.6219
 3977SOL    HW223394   3.950   3.153   7.912 -0.4092 -0.4776 -0.2595
 3978SOL     OW23395   2.206   2.056  11.552 -0.2399 -0.0560 -0.0746
 3978SOL    HW123396   2.141   2.125  11.565  0.0817  0.1965  0.1939
 3978SOL    HW223397   2.180   2.020  11.467  0.0747  0.9255 -0.5825
 3979SOL     OW23398   0.649   3.259  15.200 -0.0581 -0.6368 -0.1554
 3979SOL    HW123399   0.633   3.178  15.152  1.2820 -0.2077 -1.3039
 3979SOL    HW223400   0.568   3.265  15.251 -1.0024 -1.2749 -1.5883
 3980SOL     OW23401   4.504   4.712   9.094 -0.2382 -0.4447 -0.1314
 3980SOL    HW123402   4.545   0.020   9.174  0.0335 -0.3717 -0.3000
 3980SOL    HW223403   4.451   0.063   9.067 -0.5377 -0.6987 -0.2538
 3981SOL     OW23404   0.695   2.280   1.069 -0.8821  0.6709  0.0351
 3981SOL    HW123405   0.605   2.265   1.096 -0.1318 -0.6444  1.7639
 3981SOL    HW223406   0.752   2.261   1.144 -2.2430  0.4903  1.0176
 3982SOL     OW23407   0.466   1.894   8.213  0.5633 -0.0462  0.3915
 3982SOL    HW123408   0.371   1.903   8.217  0.5590 -0.2999  0.8974
 3982SOL    HW223409   0.500   1.983   8.217 -2.7087  1.2001  0.2400
 3983SOL     OW23410   4.318   1.608   6.477  0.2394 -0.1193  0.4787
 3983SOL    HW123411   4.260   1.578   6.407  1.0327 -1.1058  0.2410
 3983SOL    HW223412   4.399   1.634   6.433  0.2031 -1.0604 -0.1376
 3984SOL     OW23413   2.254   3.785  17.203  0.2459 -0.3744 -0.3176
 3984SOL    HW123414   2.230   3.843  17.275  0.0880 -1.5117  0.5572
 3984SOL    HW223415   2.203   3.708  17.227 -1.0445  0.3664 -0.6966
 3985SOL     OW23416   3.444   1.412  13.419 -0.7610 -0.3651  0.1249
 3985SOL    HW123417   3.472   1.380  13.334 -1.7381  0.9849 -0.7136
 3985SOL    HW223418   3.437   1.507  13.410 -1.0030 -0.3098  0.8614
 3986SOL     OW23419   4.431   3.547   4.878 -0.2011 -0.0379  0.1625
 3986SOL    HW123420   4.459   3.581   4.963  0.3007 -0.9159  0.3450
 3986SOL    HW223421   4.449   3.453   4.881 -1.1272 -0.1851  1.0361
 3987SOL     OW23422   1.678   0.121   7.957  0.0100  0.4420  0.0806
 3987SOL    HW123423   1.663   0.060   8.029 -1.3318  0.4668 -0.1942
 3987SOL    HW223424   1.596   0.169   7.951 -0.8392 -1.0115  0.0533
 3988SOL     OW23425   2.473   3.884   7.042 -0.3504  0.4475  0.1134
 3988SOL    HW123426   2.534   3.912   7.111  0.2308 -2.6470  0.8640
 3988SOL    HW223427   2.431   3.961   7.006 -0.8995  0.1153  0.0504
 3989SOL     OW23428   4.620   3.992  13.549 -0.6251 -0.0688 -0.6537
 3989SOL    HW123429   4.600   3.906  13.586 -1.9380  0.8712  0.8102
 3989SOL    HW223430   4.662   4.039  13.622  2.5629  1.0999 -3.2188
 3990SOL     OW23431   1.172   0.983  12.855  0.0827 -0.3442  0.0090
 3990SOL    HW123432   1.171   1.067  12.901 -1.1783  0.6430 -1.8476
 3990SOL    HW223433   1.087   0.945  12.878 -0.3041 -0.2669 -1.3310
 3991SOL     OW23434   0.784   0.106   3.424 -0.0275  0.3087  0.4549
 3991SOL    HW123435   0.765   0.138   3.336 -1.8184  1.5108  1.2692
 3991SOL    HW223436   0.700   0.064   3.443 -0.6109  1.3715  0.2358
 3992SOL     OW23437   4.428   1.950   6.831  0.4190 -0.2354  0.2355
 3992SOL    HW123438   4.346   1.945   6.881  1.1787  0.7761  1.5797
 3992SOL    HW223439   4.404   1.905   6.749 -0.8281 -1.0222  1.0235
 3993SOL     OW23440   1.208   4.127  13.434 -0.1628 -0.0060  0.0938
 3993SOL    HW123441   1.160   4.060  13.385 -0.5869  0.3729 -0.0130
 3993SOL    HW223442   1.134   4.178  13.467 -2.5647 -2.8932 -0.8185
 3994SOL     OW23443   2.936   1.741   3.549 -0.0832  0.6466  0.3622
 3994SOL    HW123444   2.866   1.738   3.484 -1.5845  0.8987  1.9968
 3994SOL    HW223445   3.001   1.715   3.484 -0.5827  2.0253 -0.6844
 3995SOL     OW23446   3.446   3.278   1.672  0.1545 -0.0352 -0.2014
 3995SOL    HW123447   3.484   3.336   1.607 -0.7615  0.2094 -0.5226
 3995SOL    HW223448   3.443   3.335   1.749 -3.0408  0.2046 -0.4978
 3996SOL     OW23449   0.473   1.374   8.911 -0.5013  0.1472 -0.0503
 3996SOL    HW123450   0.530   1.402   8.983  0.6986 -0.0828 -0.9264
 3996SOL    HW223451   0.388   1.411   8.936 -0.8492  0.6712 -1.9884
 3997SOL     OW23452   3.455   4.013   9.233 -0.0638  0.1353 -0.4653
 3997SOL    HW123453   3.538   4.037   9.191  0.0620  0.9174  0.2270
 3997SOL    HW223454   3.451   4.074   9.308  1.2774 -0.0250 -0.2616
 3998SOL     OW23455   4.682   2.123   5.519  0.8526 -0.0121 -0.7646
 3998SOL    HW123456   4.634   2.080   5.448  2.1300 -1.2476 -0.8707
 3998SOL    HW223457   4.642   2.209   5.507 -0.3676 -0.5630 -0.6595
 3999SOL     OW23458   4.152   1.186   5.133  0.2758  0.6669  0.4343
 3999SOL    HW123459   4.122   1.268   5.094 -0.0897  0.7054  0.8000
 3999SOL    HW223460   4.246   1.200   5.147  0.1839  0.9741  0.7380
 4000SOL     OW23461   1.645   3.108   5.525 -0.0930  0.5136 -0.5030
 4000SOL    HW123462   1.688   3.162   5.591  2.7939  0.5362 -2.4020
 4000SOL    HW223463   1.688   3.135   5.443 -0.0745 -1.7224 -1.2409
 4001SOL     OW23464   2.403   3.829   8.911  0.3225  0.0613  0.4967
 4001SOL    HW123465   2.377   3.805   8.822  2.3903 -1.4036  0.3001
 4001SOL    HW223466   2.330   3.792   8.961  0.0406  1.7816  1.3562
 4002SOL     OW23467   0.920   4.630   2.260  0.1157  0.0100  0.3687
 4002SOL    HW123468   0.875   4.673   2.187  2.0361  1.4434  0.0080
 4002SOL    HW223469   0.980   4.577   2.206  0.6607 -1.1660  2.1192
 4003SOL     OW23470   2.592   3.667  15.698  0.4118  0.4155  0.5936
 4003SOL    HW123471   2.648   3.635  15.628  0.9506 -1.3858  1.8396
 4003SOL    HW223472   2.568   3.585  15.740  0.9225 -0.8123 -1.5429
 4004SOL     OW23473   4.695   3.959  10.336 -0.4148  0.2228 -0.3588
 4004SOL    HW123474   4.620   4.011  10.363 -0.3437  0.5405 -0.7792
 4004SOL    HW223475   4.665   3.869  10.349  2.1777 -0.5081  0.5566
 4005SOL     OW23476   0.412   0.362  12.678 -0.2867 -0.3242 -0.3435
 4005SOL    HW123477   0.370   0.280  12.654  1.2566 -0.4067 -2.6580
 4005SOL    HW223478   0.421   0.351  12.773  1.3878 -1.2732 -0.6173
 4006SOL     OW23479   0.854   4.019   9.278  0.7032 -0.0716  0.2711
 4006SOL    HW123480   0.799   4.077   9.330  0.6890  1.0633 -1.0268
 4006SOL    HW223481   0.807   4.021   9.195 -0.4284 -0.1939  0.9071
 4007SOL     OW23482   1.124   3.594  16.050  0.2378  0.1833 -0.0125
 4007SOL    HW123483   1.214   3.600  16.020  0.0619  0.2478 -0.5394
 4007SOL    HW223484   1.141   3.576  16.142 -0.9570  2.6952  0.7137
 4008SOL     OW23485   2.340   4.547  10.345  0.2470  0.1603 -0.0504
 4008SOL    HW123486   2.279   4.473  10.349  2.0107 -1.1831  2.2540
 4008SOL    HW223487   2.296   4.605  10.284  0.3611  0.5602  0.2462
 4009SOL     OW23488   4.550   3.718   8.960 -0.2625 -0.2006  0.3642
 4009SOL    HW123489   4.528   3.753   9.046 -1.3032  0.6879 -0.2603
 4009SOL    HW223490   4.611   3.646   8.974  0.9280  0.9766  1.2555
 4010SOL     OW23491   1.321   1.905  10.900  0.2402  0.4499 -0.3207
 4010SOL    HW123492   1.405   1.911  10.855 -0.0284 -0.1230 -0.9013
 4010SOL    HW223493   1.339   1.813  10.918  2.2270  1.1527  1.1716
 4011SOL     OW23494   0.330   0.761   4.150  0.1985 -0.1060 -0.0252
 4011SOL    HW123495   0.373   0.813   4.082  0.1162 -0.1954 -0.1458
 4011SOL    HW223496   0.336   0.826   4.221  2.0250 -0.0291 -0.2559
 4012SOL     OW23497   1.236   3.588   6.583  0.2807  0.3732 -0.2173
 4012SOL    HW123498   1.320   3.629   6.607 -0.4270  1.4564  0.4365
 4012SOL    HW223499   1.175   3.660   6.599  2.0415  1.5390  1.3242
 4013SOL     OW23500   0.260   0.438   8.158 -0.4263  0.0040  0.0934
 4013SOL    HW123501   0.227   0.498   8.092  1.2432 -0.7041 -1.3745
 4013SOL    HW223502   0.320   0.384   8.107 -2.7745 -0.0196 -2.6385
 4014SOL     OW23503   3.635   0.467   2.469 -0.3229 -0.8548  0.0998
 4014SOL    HW123504   3.655   0.559   2.487 -2.7275 -0.4636  0.6671
 4014SOL    HW223505   3.554   0.461   2.519  0.4601 -1.7912  1.2480
 4015SOL     OW23506   2.012   2.818   5.540 -0.4688  0.3356  0.5370
 4015SOL    HW123507   2.006   2.908   5.508  0.1609  0.0610 -0.3404
 4015SOL    HW223508   1.966   2.762   5.477  0.7994  0.7133 -0.7163
 4016SOL     OW23509   4.069   2.930   3.954 -0.2265  0.1650 -0.0945
 4016SOL    HW123510   4.052   2.881   3.873  0.1169  0.8256 -0.5578
 4016SOL    HW223511   4.163   2.940   3.940 -0.1838  0.0549  0.1169
 4017SOL     OW23512   1.943   4.265   3.134  0.0628  0.0474 -0.0427
 4017SOL    HW123513   2.004   4.231   3.069  3.0103  2.7000  1.3034
 4017SOL    HW223514   2.000   4.314   3.193 -0.0605 -1.1734  1.1085
 4018SOL     OW23515   2.613   0.288  16.529  0.0947  0.2765 -0.1916
 4018SOL    HW123516   2.624   0.373  16.571 -1.2685 -0.7941  2.3372
 4018SOL    HW223517   2.621   0.214  16.589 -1.5441  2.2058  2.4034
 4019SOL     OW23518   4.382   3.120   9.087 -0.1123  0.1249  0.1645
 4019SOL    HW123519   4.417   3.040   9.047 -1.8090  0.2131 -1.4853
 4019SOL    HW223520   4.383   3.188   9.020  0.8875  1.7335  1.8225
 4020SOL     OW23521   0.094   0.607   0.992 -0.8049  0.3282  0.0720
 4020SOL    HW123522   0.100   0.527   1.045  2.1349  0.5737  0.0917
 4020SOL    HW223523   0.028   0.660   1.037 -1.7356 -0.6017 -0.2186
 4021SOL     OW23524   1.298   3.493   5.258 -0.5857 -0.2517 -0.2500
 4021SOL    HW123525   1.302   3.460   5.168 -3.3445  0.3309 -0.5836
 4021SOL    HW223526   1.371   3.554   5.251 -0.6372 -0.4219 -2.4795
 4022SOL     OW23527   1.490   1.854   8.952 -0.4577  0.4740 -0.4126
 4022SOL    HW123528   1.481   1.811   8.867 -0.1033  0.5605 -0.4930
 4022SOL    HW223529   1.536   1.789   9.005 -2.2254  0.0307  0.5789
 4023SOL     OW23530   0.658   1.249  10.255 -0.7217 -0.0720  0.1418
 4023SOL    HW123531   0.694   1.335  10.236 -1.5297 -0.6239 -3.6988
 4023SOL    HW223532   0.619   1.273  10.339  0.6523 -0.6081  0.9456
 4024SOL     OW23533   0.332   4.448   4.226  0.5819 -0.1169  0.0976
 4024SOL    HW123534   0.412   4.402   4.251  2.7469  1.9371 -3.0152
 4024SOL    HW223535   0.266   4.433   4.294  1.6545  0.9412  1.3596
 4025SOL     OW23536   0.186   0.744  10.239  0.0758 -0.2064 -0.2067
 4025SOL    HW123537   0.196   0.739  10.334 -0.3817  2.6246 -0.0087
 4025SOL    HW223538   0.096   0.776  10.230  0.2915  0.2709 -0.6259
 4026SOL     OW23539   3.103   2.195  10.382  0.0589 -0.2877  0.1271
 4026SOL    HW123540   3.182   2.160  10.340 -0.8778 -1.0492 -0.9984
 4026SOL    HW223541   3.117   2.287  10.361  0.1681 -1.1555 -3.5399
 4027SOL     OW23542   0.719   3.003   5.580 -0.2797 -0.0521 -0.4858
 4027SOL    HW123543   0.712   2.998   5.675 -3.0826  0.6262 -0.6665
 4027SOL    HW223544   0.668   2.926   5.555  0.0465 -0.2433 -0.5577
 4028SOL     OW23545   2.569   1.613   6.611 -0.4917  0.3519 -0.5369
 4028SOL    HW123546   2.663   1.630   6.614 -0.3969  0.1546 -2.4644
 4028SOL    HW223547   2.522   1.663   6.678 -1.6494 -2.7066  0.9456
 4029SOL     OW23548   3.692   3.089   3.112 -0.0449  0.6199  0.3866
 4029SOL    HW123549   3.787   3.080   3.121 -0.3195 -0.2837  2.3959
 4029SOL    HW223550   3.682   3.173   3.159 -0.1126  1.7687 -1.6954
 4030SOL     OW23551   2.103   0.374   3.945 -0.3562  0.2416  0.1240
 4030SOL    HW123552   2.024   0.407   3.988 -0.1258  0.8369  0.0973
 4030SOL    HW223553   2.136   0.318   4.015  0.2235  0.4888  0.0534
 4031SOL     OW23554   2.801   0.382   9.643  0.0491  0.3071  0.3556
 4031SOL    HW123555   2.884   0.338   9.661  0.4733  0.3704 -1.4221
 4031SOL    HW223556   2.815   0.416   9.555  0.0153 -0.9817 -0.1495
 4032SOL     OW23557   2.171   0.781   8.503  0.4680  0.4012  0.2403
 4032SOL    HW123558   2.110   0.855   8.499 -0.5262 -0.4296  0.0923
 4032SOL    HW223559   2.111   0.707   8.503  1.5483 -0.4774 -1.1955
 4033SOL     OW23560   4.618   2.888   8.705 -0.3179  0.2644 -0.2716
 4033SOL    HW123561   4.648   2.845   8.625  2.4000  1.7992 -0.0645
 4033SOL    HW223562   4.702   2.885   8.751  0.3243  0.8030 -1.4427
 4034SOL     OW23563   0.146   3.072   8.511 -0.5729 -0.0822  0.0290
 4034SOL    HW123564   0.134   2.978   8.503 -0.5218 -0.1992  1.4549
 4034SOL    HW223565   0.180   3.087   8.599 -0.4981 -0.3679  0.0490
 4035SOL     OW23566   2.937   1.907   8.027 -0.0399  0.1521  0.7671
 4035SOL    HW123567   2.888   1.832   7.992 -1.9217  1.0765  1.4106
 4035SOL    HW223568   2.907   1.978   7.970 -0.7108 -1.0728 -0.4205
 4036SOL     OW23569   0.747   0.864   5.119  0.0252  0.4140  0.4619
 4036SOL    HW123570   0.696   0.916   5.181 -1.0251 -1.0006  0.7908
 4036SOL    HW223571   0.834   0.868   5.158  1.1457  0.7328 -2.0896
 4037SOL     OW23572   3.824   4.057   8.727 -0.3073 -0.4298 -0.1467
 4037SOL    HW123573   3.888   3.992   8.700  0.0077 -0.2654  0.2068
 4037SOL    HW223574   3.882   4.132   8.745 -3.3815  2.0435 -0.5148
 4038SOL     OW23575   2.383   3.467   4.055 -0.6260  0.2503 -0.2411
 4038SOL    HW123576   2.382   3.373   4.037 -1.0435  0.2730 -0.3476
 4038SOL    HW223577   2.433   3.469   4.136 -0.8247  1.3103 -0.1475
 4039SOL     OW23578   1.126   0.051   4.256  0.4280 -0.2430  0.2188
 4039SOL    HW123579   1.073   4.718   4.200 -1.5209 -2.2360  4.1029
 4039SOL    HW223580   1.059   0.086   4.315  0.1335 -1.0560  0.3765
 4040SOL     OW23581   2.694   4.022  13.081 -0.1668 -0.3797  0.3368
 4040SOL    HW123582   2.770   4.044  13.027  1.3090 -2.9519  1.4029
 4040SOL    HW223583   2.630   4.088  13.053 -1.6091 -0.8654  2.4737
 4041SOL     OW23584   0.905   3.028   5.208 -0.2366  0.5168 -0.4274
 4041SOL    HW123585   0.842   2.989   5.147  0.7669  0.1511 -1.2261
 4041SOL    HW223586   0.924   2.957   5.268 -2.8093 -1.7335 -2.2727
 4042SOL     OW23587   0.387   2.286  13.186 -0.9057 -0.5500  0.1203
 4042SOL    HW123588   0.374   2.288  13.281 -0.2054  1.5974  0.1633
 4042SOL    HW223589   0.375   2.379  13.165 -1.2424 -0.4119  0.8923
 4043SOL     OW23590   2.962   2.048   9.495  0.5695 -0.0810  0.1096
 4043SOL    HW123591   2.893   2.052   9.560 -0.9279 -0.0303 -1.4716
 4043SOL    HW223592   2.957   2.128   9.442 -2.2952 -1.1252 -1.1656
 4044SOL     OW23593   1.442   2.917   9.393 -0.0784 -0.6945 -0.5446
 4044SOL    HW123594   1.403   3.000   9.421 -0.2870 -1.1208  0.4392
 4044SOL    HW223595   1.533   2.948   9.385  0.3712 -0.9172  3.4969
 4045SOL     OW23596   2.983   0.260   2.486 -0.9658 -0.1955  0.7964
 4045SOL    HW123597   3.069   0.292   2.458 -0.3612  0.1447  3.0337
 4045SOL    HW223598   3.000   0.167   2.504 -0.4613 -0.5372 -1.5124
 4046SOL     OW23599   0.188   3.023   7.240  0.2060 -0.9163  1.3845
 4046SOL    HW123600   0.096   3.046   7.252  0.0589 -1.1208  0.6111
 4046SOL    HW223601   0.199   2.966   7.317 -2.3413 -2.2783  0.7380
 4047SOL     OW23602   1.886   4.544   6.797  0.5340  0.5520 -0.4958
 4047SOL    HW123603   1.917   4.460   6.830 -0.8805 -0.4500 -1.7007
 4047SOL    HW223604   1.875   4.523   6.704  1.0619  1.2211 -0.7022
 4048SOL     OW23605   3.666   3.822  15.525  0.5188 -0.1920  0.1121
 4048SOL    HW123606   3.694   3.747  15.578  0.6662 -0.5236 -0.4264
 4048SOL    HW223607   3.709   3.891  15.576  1.4203 -1.1275  0.6120
 4049SOL     OW23608   3.051   3.776   4.577  0.5630  0.2343  0.1605
 4049SOL    HW123609   2.966   3.798   4.616 -0.0768  2.2920 -2.3637
 4049SOL    HW223610   3.084   3.726   4.651  1.3818  1.3657  0.5495
 4050SOL     OW23611   2.739   2.776   2.145  0.6424  0.1646  0.1396
 4050SOL    HW123612   2.799   2.712   2.183 -3.6142 -1.0997  4.7471
 4050SOL    HW223613   2.758   2.752   2.055 -2.6653 -2.4800  0.1431
 4051SOL     OW23614   3.145   1.911   1.514 -0.1582 -0.0338 -0.1875
 4051SOL    HW123615   3.155   1.863   1.596 -1.0297  0.4877  0.2212
 4051SOL    HW223616   3.182   1.997   1.537  0.0497  0.7538 -3.4696
 4052SOL     OW23617   3.012   4.379   3.673  0.3033  0.0618  0.2675
 4052SOL    HW123618   2.979   4.348   3.758 -0.6192 -1.6285 -0.7096
 4052SOL    HW223619   3.074   4.310   3.648  0.2698 -0.5052  1.7639
 4053SOL     OW23620   1.676   0.513  10.578 -0.0586  0.4856 -0.0993
 4053SOL    HW123621   1.690   0.443  10.641  1.9710 -1.1476 -2.3768
 4053SOL    HW223622   1.765   0.511  10.543  0.1878  0.0669  0.5540
 4054SOL     OW23623   2.601   0.089   8.479  0.3783 -0.3087 -0.1538
 4054SOL    HW123624   2.643   0.174   8.474 -0.4192  0.1448  0.6978
 4054SOL    HW223625   2.657   0.032   8.427  0.2713  0.1171 -0.7308
 4055SOL     OW23626   3.314   0.251   7.821 -0.3735 -0.3357  0.1329
 4055SOL    HW123627   3.365   0.170   7.826  0.9026  0.3042 -2.2629
 4055SOL    HW223628   3.341   0.303   7.897  0.3668 -0.2101 -0.2165
 4056SOL     OW23629   1.269   2.332   3.207  0.4309 -0.3433  0.6776
 4056SOL    HW123630   1.253   2.419   3.243  0.0696  0.1341 -0.6240
 4056SOL    HW223631   1.246   2.346   3.115 -0.7568 -3.3798  0.5299
 4057SOL     OW23632   2.895   2.136   4.677 -0.1683  0.4709  0.0055
 4057SOL    HW123633   2.819   2.140   4.618  0.5472  2.6045 -0.7566
 4057SOL    HW223634   2.962   2.116   4.612  2.1497  0.4727  2.3765
 4058SOL     OW23635   3.013   4.421  15.576  0.6540 -0.7151  0.6041
 4058SOL    HW123636   2.947   4.391  15.514  0.8231 -2.2537  1.1825
 4058SOL    HW223637   3.081   4.416  15.509 -1.6128  2.4260 -1.9316
 4059SOL     OW23638   0.192   4.702  15.676  0.0094  0.0043 -0.4083
 4059SOL    HW123639   0.247   0.001  15.751  1.0708  0.0033 -1.1811
 4059SOL    HW223640   0.123   0.044  15.688  2.0965  2.4558 -1.8682
 4060SOL     OW23641   2.064   1.599  17.009 -0.3010 -0.7931  0.1544
 4060SOL    HW123642   2.067   1.669  16.943 -1.4601  0.5862  1.5703
 4060SOL    HW223643   2.010   1.639  17.076  0.0113  1.7240 -1.0689
 4061SOL     OW23644   0.593   0.988   4.937 -0.3196 -0.3148  0.0482
 4061SOL    HW123645   0.537   0.912   4.954  1.2413 -1.3775  0.3603
 4061SOL    HW223646   0.667   0.975   4.996 -1.8161 -0.4942  1.9234
 4062SOL     OW23647   1.512   2.293   2.470  0.4019  0.1151 -0.2220
 4062SOL    HW123648   1.485   2.217   2.521  0.4010 -0.1037 -0.5504
 4062SOL    HW223649   1.478   2.368   2.520 -1.2393 -1.8725  1.6333
 4063SOL     OW23650   3.778   3.573   8.304  0.0197  0.0354  0.1437
 4063SOL    HW123651   3.807   3.520   8.379  0.1219 -0.5702 -0.3306
 4063SOL    HW223652   3.825   3.655   8.321 -1.2051  1.4821 -3.5073
 4064SOL     OW23653   3.120   3.718   8.373  0.2026  0.6214  0.7704
 4064SOL    HW123654   3.157   3.640   8.415  0.1595  0.3482  0.3030
 4064SOL    HW223655   3.049   3.737   8.434  0.1586  1.7893  0.3577
 4065SOL     OW23656   3.718   1.145   1.714 -0.0679 -0.3967 -0.2164
 4065SOL    HW123657   3.793   1.194   1.748 -0.9631  1.5569 -1.0106
 4065SOL    HW223658   3.718   1.068   1.770 -0.0718  1.1299  1.8700
 4066SOL     OW23659   2.360   3.574   6.713  0.8805  0.4894 -0.0234
 4066SOL    HW123660   2.413   3.585   6.792  1.0079  0.6612 -0.1326
 4066SOL    HW223661   2.431   3.535   6.661 -0.9136 -0.0744 -2.0431
 4067SOL     OW23662   1.556   1.922  10.758  0.1494 -0.3063 -0.2412
 4067SOL    HW123663   1.572   1.948  10.668  2.9997  0.6401  0.5394
 4067SOL    HW223664   1.639   1.948  10.800  1.2111 -1.6039 -1.5489
 4068SOL     OW23665   1.799   1.581   8.346 -0.2734  0.1456  0.5354
 4068SOL    HW123666   1.839   1.657   8.389 -1.6233  1.0998  0.1060
 4068SOL    HW223667   1.708   1.609   8.338  0.1533  0.9288 -1.6740
 4069SOL     OW23668   1.440   2.894   6.878 -0.4097  0.2951 -0.3917
 4069SOL    HW123669   1.532   2.918   6.882 -1.0065  2.5728 -0.3544
 4069SOL    HW223670   1.427   2.845   6.796 -1.1585 -0.5803  0.2576
 4070SOL     OW23671   1.683   3.848   3.477 -0.2924 -0.0181 -0.2245
 4070SOL    HW123672   1.631   3.927   3.457  0.7046  0.8305  0.5204
 4070SOL    HW223673   1.623   3.775   3.464  0.2137 -0.6169  0.8341
 4071SOL     OW23674   1.349   3.952   4.685  0.1061 -0.1960 -0.3131
 4071SOL    HW123675   1.256   3.928   4.679  0.2204 -0.0692 -2.5861
 4071SOL    HW223676   1.372   3.969   4.594  3.1710 -0.8125  0.3531
 4072SOL     OW23677   4.239   1.235   3.008 -0.1887 -0.4854 -0.3442
 4072SOL    HW123678   4.280   1.149   3.000 -2.6240 -1.5565 -1.5497
 4072SOL    HW223679   4.155   1.220   3.052 -0.1538  1.6755  0.4685
 4073SOL     OW23680   3.982   1.161   6.443 -0.0403 -0.2634  0.2049
 4073SOL    HW123681   4.045   1.189   6.377  0.4100  0.2793  0.8600
 4073SOL    HW223682   3.990   1.238   6.500  2.6164  0.0071 -0.5703
 4074SOL     OW23683   3.992   0.134  10.149 -0.7072  0.3906  0.0663
 4074SOL    HW123684   3.938   0.056  10.135  0.4085 -0.2518 -0.6992
 4074SOL    HW223685   3.993   0.168  10.060  3.6063  1.4741  0.5509
 4075SOL     OW23686   2.832   2.269   6.561 -0.0197 -0.1885  1.0122
 4075SOL    HW123687   2.849   2.348   6.613  2.5993 -0.3428  0.3908
 4075SOL    HW223688   2.920   2.232   6.564 -0.4577 -1.2481  0.6282
 4076SOL     OW23689   0.585   2.400   4.746  0.3514  0.1504  0.2866
 4076SOL    HW123690   0.518   2.412   4.813 -1.1701  3.9451 -1.9578
 4076SOL    HW223691   0.570   2.480   4.697  1.3275  0.2406  0.1244
 4077SOL     OW23692   2.006   3.184   7.100  0.0348  0.0639 -0.4727
 4077SOL    HW123693   1.949   3.144   7.167  0.3515 -0.0486 -0.2693
 4077SOL    HW223694   1.947   3.231   7.041 -1.4308  0.0638  0.9983
 4078SOL     OW23695   3.826   4.279   4.994 -0.0945 -0.5897  0.0769
 4078SOL    HW123696   3.817   4.371   5.020  1.9667 -0.7122  1.1421
 4078SOL    HW223697   3.862   4.249   5.077  0.5934 -2.8047 -1.0129
 4079SOL     OW23698   0.364   4.559  10.210 -0.4936 -0.2945 -0.2066
 4079SOL    HW123699   0.385   4.470  10.180  1.5227  0.1132  0.0067
 4079SOL    HW223700   0.269   4.552  10.199 -0.1695 -0.4322 -2.9453
 4080SOL     OW23701   3.430   4.313   8.711  0.3447  0.5614  0.0624
 4080SOL    HW123702   3.475   4.322   8.795  2.4521  0.3167 -1.0499
 4080SOL    HW223703   3.476   4.236   8.680  0.9516  1.1329 -0.4531
 4081SOL     OW23704   4.137   0.060   7.115  0.0599  0.7480 -0.1784
 4081SOL    HW123705   4.204   0.101   7.170  0.0059 -1.5888  1.6293
 4081SOL    HW223706   4.182   0.037   7.034 -1.2384  0.4204 -0.8004
 4082SOL     OW23707   3.684   1.011   8.375  0.4881 -0.0941  0.1590
 4082SOL    HW123708   3.763   0.988   8.423 -0.8019  0.0068  2.3635
 4082SOL    HW223709   3.719   1.073   8.311  1.6814 -1.9713 -1.0068
 4083SOL     OW23710   3.724   1.800   4.989  0.5232 -0.3499  0.2678
 4083SOL    HW123711   3.775   1.827   4.912  1.2163  0.8186  1.1322
 4083SOL    HW223712   3.731   1.705   4.984 -0.8138 -0.4029 -0.4716
 4084SOL     OW23713   1.374   0.151  17.243 -0.6641 -0.6793 -0.4562
 4084SOL    HW123714   1.373   0.172  17.149  0.6701 -2.2654 -0.8297
 4084SOL    HW223715   1.465   0.136  17.269 -1.3596 -0.1658  2.2355
 4085SOL     OW23716   2.250   0.480   2.633 -0.0413  0.6446  0.1236
 4085SOL    HW123717   2.334   0.447   2.667 -0.0113 -0.8009 -1.3229
 4085SOL    HW223718   2.206   0.501   2.715 -1.0182  0.2067 -0.2935
 4086SOL     OW23719   2.491   4.235   4.105  0.3462 -0.3645 -0.3056
 4086SOL    HW123720   2.474   4.149   4.068  3.2972  0.3887 -3.4327
 4086SOL    HW223721   2.562   4.223   4.168 -0.3598  2.8657  1.1013
 4087SOL     OW23722   1.972   3.243   6.211  0.1609  0.4377  0.5919
 4087SOL    HW123723   1.906   3.175   6.206 -0.5133  1.1473 -0.2014
 4087SOL    HW223724   1.958   3.273   6.301 -0.3051 -0.0277  0.6711
 4088SOL     OW23725   4.398   3.725  15.773  0.1753 -0.5422  0.0844
 4088SOL    HW123726   4.338   3.655  15.799 -1.3899  0.6824 -0.2540
 4088SOL    HW223727   4.394   3.787  15.846  0.5628  1.1021 -1.2779
 4089SOL     OW23728   2.545   0.670   6.963 -0.3329  0.6824  0.1026
 4089SOL    HW123729   2.533   0.656   7.057 -1.8345 -0.9507 -0.3264
 4089SOL    HW223730   2.519   0.585   6.926 -0.7610  0.7509  0.2459
 4090SOL     OW23731   0.962   0.343  12.660  0.3486  0.4205  0.2659
 4090SOL    HW123732   1.014   0.263  12.665  0.8637  0.7128 -0.3864
 4090SOL    HW223733   0.936   0.336  12.752 -1.5185 -2.3788 -0.4711
 4091SOL     OW23734   2.010   3.499   2.274 -0.4180 -0.0257 -0.1427
 4091SOL    HW123735   2.031   3.406   2.274 -0.3455 -0.0098 -0.1537
 4091SOL    HW223736   1.915   3.496   2.268 -0.3775  1.0549 -1.1835
 4092SOL     OW23737   4.018   1.550  17.221 -0.5828 -0.2900  0.3777
 4092SOL    HW123738   3.955   1.503  17.276 -2.0473  1.0522 -0.1892
 4092SOL    HW223739   4.087   1.559  17.287  0.0949 -0.3161 -0.3256
 4093SOL     OW23740   1.313   3.661   5.521  0.1868  0.1474  0.4025
 4093SOL    HW123741   1.245   3.682   5.457  0.9547  0.8702 -0.1708
 4093SOL    HW223742   1.396   3.640   5.480  0.1852  1.7968 -0.4357
 4094SOL     OW23743   4.336   2.775   2.744  0.8693  0.4962  0.3171
 4094SOL    HW123744   4.354   2.715   2.672  0.4359  0.3464  0.3356
 4094SOL    HW223745   4.399   2.842   2.718  0.6359  1.1728  1.4919
 4095SOL     OW23746   3.082   2.161   3.014 -0.3374  0.3157 -0.7426
 4095SOL    HW123747   3.120   2.114   2.940 -2.1934 -2.5378  0.0685
 4095SOL    HW223748   2.992   2.139   2.990 -0.2688  0.6244 -1.2692
 4096SOL     OW23749   0.486   0.455   3.725 -0.2221 -0.1204  0.0143
 4096SOL    HW123750   0.408   0.436   3.777 -0.0067 -1.1934 -0.0397
 4096SOL    HW223751   0.465   0.396   3.652 -0.6240 -0.4831  0.4255
 4097SOL     OW23752   2.636   3.641  14.411  0.1568 -0.0278 -0.0983
 4097SOL    HW123753   2.549   3.604  14.398 -0.4514  1.3478  0.0685
 4097SOL    HW223754   2.668   3.625  14.322 -1.8244 -1.2529 -0.5706
 4098SOL     OW23755   1.378   0.173   7.395  0.9038  0.1640  0.3990
 4098SOL    HW123756   1.413   0.222   7.321 -1.9083  0.9101 -0.4373
 4098SOL    HW223757   1.381   0.083   7.362  0.7717  0.1509  0.4247
 4099SOL     OW23758   3.901   0.558   9.116 -0.6512  0.4658 -0.2353
 4099SOL    HW123759   3.852   0.528   9.193 -1.0497 -0.4298 -0.8408
 4099SOL    HW223760   3.841   0.605   9.059 -0.4514 -0.7253 -1.4324
 4100SOL     OW23761   1.362   3.148   3.538  0.0461  0.5988  0.2246
 4100SOL    HW123762   1.281   3.180   3.499 -0.6357  0.2558  1.3626
 4100SOL    HW223763   1.419   3.222   3.517  0.9879 -0.3222 -0.4562
 4101SOL     OW23764   1.803   3.673   7.507  0.0007 -0.0736 -0.5233
 4101SOL    HW123765   1.868   3.720   7.455 -1.8128  0.2862 -2.4779
 4101SOL    HW223766   1.826   3.689   7.599 -2.7160 -0.1274  0.1591
 4102SOL     OW23767   1.227   0.800  17.571 -0.0231 -0.0228  0.3494
 4102SOL    HW123768   1.194   0.730  17.628  0.6639 -0.3979  0.2772
 4102SOL    HW223769   1.155   0.838  17.521  0.9866  0.6110 -0.6300
 4103SOL     OW23770   2.977   3.205   1.408 -0.4670 -0.2082 -0.9064
 4103SOL    HW123771   3.033   3.134   1.440 -0.5127 -0.7237 -1.9739
 4103SOL    HW223772   2.976   3.194   1.313  0.9842 -1.7101 -0.7496
 4104SOL     OW23773   2.886   1.472  11.363  0.0574  0.1741  0.1964
 4104SOL    HW123774   2.917   1.515  11.283 -1.5270  1.0489  0.0549
 4104SOL    HW223775   2.876   1.385  11.326 -0.9764 -0.0954  1.1359
 4105SOL     OW23776   0.827   4.547   3.999  0.0754  0.3178  0.2867
 4105SOL    HW123777   0.875   4.625   4.028 -0.2400 -0.4483  2.8151
 4105SOL    HW223778   0.898   4.487   3.973 -0.6146 -0.3474 -0.0470
 4106SOL     OW23779   2.811   1.214  17.424 -0.1994  0.5420  0.1664
 4106SOL    HW123780   2.813   1.156  17.348  0.4211 -1.2189  1.5211
 4106SOL    HW223781   2.718   1.236  17.419 -0.1701  1.2882  2.8664
 4107SOL     OW23782   0.367   4.581  12.552 -0.4930  0.0504 -0.0949
 4107SOL    HW123783   0.291   4.598  12.496 -0.4999 -0.1592 -0.1510
 4107SOL    HW223784   0.432   4.547  12.490 -1.6854  2.1367 -2.4695
 4108SOL     OW23785   1.477   4.131   8.020 -0.1712  0.3843 -0.0691
 4108SOL    HW123786   1.556   4.155   8.068  1.5754 -2.0120 -1.7048
 4108SOL    HW223787   1.488   4.172   7.935 -1.4463 -1.3559 -1.0677
 4109SOL     OW23788   3.100   1.384   3.117  0.2311  0.1958 -0.2367
 4109SOL    HW123789   3.080   1.477   3.115 -0.7339 -0.0108 -0.0683
 4109SOL    HW223790   3.195   1.393   3.132 -0.0247 -2.5309  3.1209
 4110SOL     OW23791   0.267   2.025  13.797  0.1347  0.0528 -0.4450
 4110SOL    HW123792   0.329   1.965  13.754 -1.6315 -1.8098 -0.4124
 4110SOL    HW223793   0.188   1.993  13.755  0.1154 -0.1662 -0.2479
 4111SOL     OW23794   0.863   1.790  13.922 -0.0179 -0.5693  0.7132
 4111SOL    HW123795   0.810   1.756  13.850 -0.7586 -2.7478  2.2842
 4111SOL    HW223796   0.810   1.766  13.998  1.6977 -0.9519  1.8025
 4112SOL     OW23797   1.850   0.853   6.893 -0.3978  0.4347 -0.3882
 4112SOL    HW123798   1.846   0.789   6.822 -1.9772 -1.7123  1.6367
 4112SOL    HW223799   1.925   0.907   6.869 -0.3451 -0.4932 -2.2989
 4113SOL     OW23800   2.640   1.083   6.579  0.4936  0.6960 -0.4476
 4113SOL    HW123801   2.622   0.997   6.617  0.0626  0.1470 -1.9271
 4113SOL    HW223802   2.572   1.094   6.513  0.6994 -0.9457 -0.9329
 4114SOL     OW23803   4.509   2.058   1.316 -0.3452  0.3229 -0.1825
 4114SOL    HW123804   4.590   2.030   1.360 -0.0637  0.8096 -0.3840
 4114SOL    HW223805   4.450   2.000   1.364  0.8490  0.3417  1.3105
 4115SOL     OW23806   2.738   2.859   4.949 -0.0382  0.4456 -0.1176
 4115SOL    HW123807   2.781   2.876   5.032  0.9664  1.2438 -0.8064
 4115SOL    HW223808   2.677   2.788   4.968  2.1355 -1.3248  0.1630
 4116SOL     OW23809   2.248   3.190   9.059 -0.6686 -0.3062 -0.1224
 4116SOL    HW123810   2.343   3.191   9.049 -0.9312  2.0047 -2.5125
 4116SOL    HW223811   2.231   3.256   9.126  2.9731  1.1964 -0.7134
 4117SOL     OW23812   0.382   2.430   4.909 -0.0355 -0.3565 -0.3311
 4117SOL    HW123813   0.440   2.462   4.979  0.2010  0.0688 -0.7250
 4117SOL    HW223814   0.309   2.487   4.931 -0.4639 -0.5965 -1.1554
 4118SOL     OW23815   0.206   1.915   8.220  0.1821 -0.0135 -0.6501
 4118SOL    HW123816   0.159   1.943   8.142  1.3698  2.1773 -0.5855
 4118SOL    HW223817   0.148   1.960   8.282  1.1609 -0.8967  0.9160
 4119SOL     OW23818   3.999   4.416   9.418 -0.3301 -0.5997 -0.3290
 4119SOL    HW123819   3.950   4.341   9.383 -3.7008  0.2114  2.6476
 4119SOL    HW223820   4.085   4.386   9.388  0.0171  0.3997 -0.3456
 4120SOL     OW23821   0.697   3.407   5.089  0.4717 -0.1225 -0.2145
 4120SOL    HW123822   0.792   3.408   5.087  0.4449  3.1614  0.4467
 4120SOL    HW223823   0.687   3.430   4.997 -1.7052 -0.2329 -0.0123
 4121SOL     OW23824   1.073   2.795   1.572 -0.3249 -0.2778  0.0027
 4121SOL    HW123825   1.091   2.856   1.644 -0.8218 -0.8960  0.6513
 4121SOL    HW223826   1.011   2.846   1.520  0.7711  0.1408 -0.8831
 4122SOL     OW23827   3.090   1.584   2.575  0.3776  0.0815 -0.8416
 4122SOL    HW123828   3.086   1.497   2.537  1.1703 -0.6223  0.6863
 4122SOL    HW223829   3.150   1.625   2.513  1.9043 -0.7911  0.0444
 4123SOL     OW23830   1.824   2.745   7.791 -0.2388  0.2923  0.0652
 4123SOL    HW123831   1.848   2.698   7.712 -2.6840 -1.7713  0.5417
 4123SOL    HW223832   1.824   2.836   7.761  1.1887  0.3933  0.3863
 4124SOL     OW23833   1.441   2.294  10.607 -0.5416  0.0960 -0.1477
 4124SOL    HW123834   1.446   2.281  10.513 -0.1075  1.1731 -0.2780
 4124SOL    HW223835   1.385   2.221  10.631 -2.3788  1.5476  0.0354
 4125SOL     OW23836   3.383   0.107  14.608 -0.2806  0.0935 -0.1794
 4125SOL    HW123837   3.357   0.134  14.696 -1.4262  0.8776 -0.7597
 4125SOL    HW223838   3.392   0.194  14.569  3.5545 -0.1016  0.2566
 4126SOL     OW23839   1.331   1.029   5.098 -0.0798  0.2415 -0.6788
 4126SOL    HW123840   1.383   1.104   5.129 -0.4448  0.7581 -1.3125
 4126SOL    HW223841   1.277   1.084   5.041 -1.4415  0.0910  0.4746
 4127SOL     OW23842   3.539   1.232  14.408 -0.2053 -0.0447 -0.0062
 4127SOL    HW123843   3.566   1.164  14.347  0.7703  0.4360 -0.1038
 4127SOL    HW223844   3.444   1.215  14.409 -0.2722  0.3705  0.8909
 4128SOL     OW23845   0.495   1.021   4.220 -0.3494  0.3017 -0.3519
 4128SOL    HW123846   0.442   1.094   4.190 -0.1382  0.2453 -0.8585
 4128SOL    HW223847   0.564   1.066   4.269 -1.9961  0.6325  1.6781
 4129SOL     OW23848   0.239   3.639   2.371 -0.2651 -0.4184 -0.9194
 4129SOL    HW123849   0.176   3.667   2.438 -0.3035  0.9140 -1.5326
 4129SOL    HW223850   0.291   3.576   2.422  2.1587  0.6695 -2.0532
 4130SOL     OW23851   1.260   2.123   6.160  0.3371 -0.6792  0.2671
 4130SOL    HW123852   1.348   2.158   6.176  0.3244  0.2254 -1.7626
 4130SOL    HW223853   1.257   2.141   6.067 -1.6834  0.1869  0.4932
 4131SOL     OW23854   3.800   2.798   3.310 -0.3905  0.0311  0.1044
 4131SOL    HW123855   3.783   2.887   3.341  0.4598 -0.5283  2.2179
 4131SOL    HW223856   3.732   2.784   3.245  0.5654 -0.5661 -0.7714
 4132SOL     OW23857   3.903   0.404  17.193  0.3974  0.8213 -0.1072
 4132SOL    HW123858   3.978   0.381  17.137  1.0522  0.8574  0.7604
 4132SOL    HW223859   3.836   0.428  17.128  0.5091  0.2486 -0.4350
 4133SOL     OW23860   3.389   1.453   5.839  0.3703  0.0598  0.4369
 4133SOL    HW123861   3.476   1.426   5.870 -0.0905 -0.0860  1.6033
 4133SOL    HW223862   3.413   1.521   5.776 -0.3713 -1.0977 -1.1118
 4134SOL     OW23863   4.712   0.922   1.075  0.0883 -0.0902 -0.2245
 4134SOL    HW123864   4.652   0.856   1.109 -1.4032  1.2856 -0.1945
 4134SOL    HW223865   4.716   0.891   0.984  3.2660 -0.6060  0.0950
 4135SOL     OW23866   3.139   1.012   4.644 -0.4555 -0.3042  0.3165
 4135SOL    HW123867   3.199   1.083   4.622  0.1711 -0.6538  0.9099
 4135SOL    HW223868   3.193   0.941   4.609  0.7154  1.2959 -1.1685
 4136SOL     OW23869   0.704   2.127   8.565 -0.3615  0.1576 -0.4047
 4136SOL    HW123870   0.731   2.036   8.576  0.2161  0.4977  1.0319
 4136SOL    HW223871   0.763   2.178   8.620  0.8331 -0.6399 -0.9392
 4137SOL     OW23872   0.185   0.059  14.158  0.1639  0.0202 -0.4421
 4137SOL    HW123873   0.156   0.151  14.153  0.5855  0.1636 -0.2500
 4137SOL    HW223874   0.108   0.021  14.115  1.3582 -1.8361 -0.8948
 4138SOL     OW23875   2.070   1.124  10.441  0.4636 -0.0165  0.3408
 4138SOL    HW123876   2.107   1.093  10.358 -1.3589  1.9992 -1.2271
 4138SOL    HW223877   2.030   1.205  10.410  0.2168 -0.0116  0.6780
 4139SOL     OW23878   1.542   0.390   6.298 -0.1526  0.0008 -0.2112
 4139SOL    HW123879   1.595   0.376   6.376  1.2840 -1.7702 -1.4982
 4139SOL    HW223880   1.459   0.421   6.333 -0.6924 -3.1253  1.2347
 4140SOL     OW23881   2.267   4.102  13.534 -0.2170 -0.3051 -0.2763
 4140SOL    HW123882   2.177   4.093  13.565 -0.5993  0.1155 -1.2799
 4140SOL    HW223883   2.269   4.046  13.457  0.6645 -1.3311  0.4929
 4141SOL     OW23884   1.124   3.566   3.739 -0.3525  0.5240  0.2336
 4141SOL    HW123885   1.107   3.474   3.762 -2.0658  0.5002 -1.1788
 4141SOL    HW223886   1.204   3.587   3.788 -0.3485  0.5493  0.2158
 4142SOL     OW23887   4.375   1.229   8.471 -0.1113  0.4192 -0.2489
 4142SOL    HW123888   4.369   1.134   8.481  0.7827  0.4682  0.8511
 4142SOL    HW223889   4.288   1.252   8.505 -1.3092 -0.5448 -2.7204
 4143SOL     OW23890   3.512   0.163  12.432 -0.3156  0.1782  0.4169
 4143SOL    HW123891   3.450   0.125  12.494  1.6141 -1.7130  1.1841
 4143SOL    HW223892   3.462   0.151  12.351  2.0027 -2.6126 -0.5887
 4144SOL     OW23893   1.189   2.144   2.509 -0.3089  0.0787  0.3074
 4144SOL    HW123894   1.163   2.236   2.513 -1.0408 -0.0875 -0.6558
 4144SOL    HW223895   1.138   2.112   2.583 -0.3290 -0.0604  0.2327
 4145SOL     OW23896   2.098   0.674   8.935  0.0080  0.5052  0.1911
 4145SOL    HW123897   2.026   0.712   8.986 -0.2787  2.0533 -1.3434
 4145SOL    HW223898   2.107   0.593   8.984  0.6446  1.8624  2.3416
 4146SOL     OW23899   2.568   2.594   2.001  0.3290  0.2777  0.1598
 4146SOL    HW123900   2.578   2.605   2.096 -0.6108  0.7316  0.2091
 4146SOL    HW223901   2.527   2.507   2.001 -1.4816  1.1159  2.1428
 4147SOL     OW23902   2.673   1.387  15.377 -0.3010 -0.6682  0.5311
 4147SOL    HW123903   2.610   1.433  15.432  1.0669  1.8471 -0.0338
 4147SOL    HW223904   2.635   1.300  15.360 -0.4952 -0.3936 -0.4173
 4148SOL     OW23905   3.936   1.785  13.681  0.0063  0.0802  0.3790
 4148SOL    HW123906   4.007   1.848  13.680 -0.6954  0.8240 -1.8422
 4148SOL    HW223907   3.969   1.707  13.636 -1.3060 -0.2301 -0.0525
 4149SOL     OW23908   3.301   0.442   4.672 -0.7316  0.3768 -0.2323
 4149SOL    HW123909   3.277   0.356   4.707  0.3718 -0.0519 -0.5085
 4149SOL    HW223910   3.271   0.496   4.745 -0.5266  0.0395  0.1048
 4150SOL     OW23911   4.722   3.502   9.089 -0.0587  0.5530  0.0116
 4150SOL    HW123912   0.050   3.438   9.138  0.4876  0.1792 -1.0547
 4150SOL    HW223913   0.060   3.531   9.023 -0.6441 -2.0330 -1.6673
 4151SOL     OW23914   3.452   0.333  10.996 -0.1326 -0.6949  0.0142
 4151SOL    HW123915   3.415   0.324  11.084  1.2812 -1.1543  0.5606
 4151SOL    HW223916   3.511   0.258  11.002  1.0704  0.3121  0.8411
 4152SOL     OW23917   1.790   4.403   6.325 -0.0516 -0.0550  0.0204
 4152SOL    HW123918   1.873   4.356   6.334  0.5425  1.3750  1.9793
 4152SOL    HW223919   1.737   4.336   6.368 -0.2448  0.5694  0.7619
 4153SOL     OW23920   2.098   1.592   6.620  0.0946 -0.0965 -0.2302
 4153SOL    HW123921   2.111   1.526   6.688  0.3026 -1.0135 -1.1506
 4153SOL    HW223922   2.173   1.578   6.562  0.8728  0.7116  0.5826
 4154SOL     OW23923   4.288   2.370  10.326  0.3358 -0.3381 -0.1488
 4154SOL    HW123924   4.203   2.373  10.282 -0.8028  0.8800  2.0832
 4154SOL    HW223925   4.264   2.404  10.413  1.0894  1.5658 -0.6713
 4155SOL     OW23926   4.516   0.833   3.619  0.5852  0.4575  0.7050
 4155SOL    HW123927   4.508   0.760   3.558  0.3616 -1.0006  2.4754
 4155SOL    HW223928   4.611   0.833   3.633  0.4954  0.2759  1.3216
 4156SOL     OW23929   1.799   3.039   6.306 -0.0219  0.5443 -0.4927
 4156SOL    HW123930   1.880   3.006   6.343  0.6586  1.5116 -1.1101
 4156SOL    HW223931   1.748   3.040   6.387 -0.3833  0.7329 -0.7199
 4157SOL     OW23932   1.294   2.800  11.353  0.1073 -0.5609  0.0531
 4157SOL    HW123933   1.355   2.810  11.426 -1.3663 -1.4496  1.3871
 4157SOL    HW223934   1.236   2.876  11.356  0.4034 -0.4231  2.0522
 4158SOL     OW23935   0.377   2.210  11.333 -0.8417 -0.2411  0.1612
 4158SOL    HW123936   0.396   2.200  11.426  0.9026  1.3720 -0.0317
 4158SOL    HW223937   0.441   2.162  11.281 -1.4244 -0.1872 -0.6142
 4159SOL     OW23938   0.199   3.251   6.379 -0.5986 -0.2427  0.0155
 4159SOL    HW123939   0.144   3.175   6.363 -0.4437 -0.3746  0.1038
 4159SOL    HW223940   0.265   3.241   6.310  0.5502 -0.3316  1.1062
 4160SOL     OW23941   3.299   1.654   5.056  0.2230  0.0964 -0.7334
 4160SOL    HW123942   3.378   1.699   5.085  0.7330 -1.4951  0.3292
 4160SOL    HW223943   3.318   1.561   5.059  4.5676  1.0489  0.7160
 4161SOL     OW23944   2.747   1.764   7.830 -0.3962 -0.0900 -0.6603
 4161SOL    HW123945   2.692   1.840   7.847 -1.7101 -1.0790 -0.5459
 4161SOL    HW223946   2.696   1.726   7.758  0.3499 -1.8924 -0.2314
 4162SOL     OW23947   4.281   3.453   6.896  0.4976  0.1254 -0.2570
 4162SOL    HW123948   4.275   3.492   6.983 -2.7671 -0.1296 -0.3727
 4162SOL    HW223949   4.270   3.540   6.857  0.1387  0.7045  1.1350
 4163SOL     OW23950   2.906   2.882   6.421  0.2715  0.4766 -0.4093
 4163SOL    HW123951   2.866   2.918   6.342  1.6199  1.3212 -0.6919
 4163SOL    HW223952   2.951   2.959   6.455  1.7733  0.1796 -1.7667
 4164SOL     OW23953   3.696   1.552   6.181 -0.7450  0.0321 -0.2941
 4164SOL    HW123954   3.724   1.609   6.253 -0.3143  1.0463 -1.2627
 4164SOL    HW223955   3.728   1.468   6.214 -2.4907 -0.5334 -0.0470
 4165SOL     OW23956   1.129   4.523   8.636  0.2183 -0.2973 -0.1823
 4165SOL    HW123957   1.117   4.605   8.684  0.0085 -1.8365  2.3968
 4165SOL    HW223958   1.052   4.528   8.579  0.0918 -0.6078 -0.0399
 4166SOL     OW23959   3.876   0.803   0.867  0.2236 -0.0345  0.4349
 4166SOL    HW123960   3.910   0.798   0.956 -0.2522  0.2484  0.6324
 4166SOL    HW223961   3.782   0.803   0.880  0.2275  3.1742  0.5532
 4167SOL     OW23962   3.785   4.314  15.999  0.4532  0.0668 -0.6216
 4167SOL    HW123963   3.826   4.246  15.945  0.2459 -0.1037 -0.5646
 4167SOL    HW223964   3.866   4.344  16.039 -0.9904  3.9384 -0.6246
 4168SOL     OW23965   1.462   3.892   5.595 -0.0558  0.1177  0.0947
 4168SOL    HW123966   1.409   3.871   5.672 -1.8377  1.5539 -0.7527
 4168SOL    HW223967   1.470   3.807   5.552 -1.3298 -0.3949  0.8546
 4169SOL     OW23968   4.242   0.052   8.223  0.0895  0.0268  0.5039
 4169SOL    HW123969   4.266   0.065   8.131 -0.8583  0.5910  0.3402
 4169SOL    HW223970   4.324   0.010   8.251  0.2300  0.6318  1.0182
 4170SOL     OW23971   2.412   2.449   9.819 -0.1410 -0.4395  0.3990
 4170SOL    HW123972   2.348   2.463   9.889 -0.8499  0.7989 -0.4995
 4170SOL    HW223973   2.444   2.360   9.836  0.6060 -0.5043 -1.3310
 4171SOL     OW23974   2.523   1.201   4.341 -0.4124 -0.3366 -0.4215
 4171SOL    HW123975   2.505   1.241   4.255 -0.2191 -0.9742 -0.7627
 4171SOL    HW223976   2.584   1.266   4.374 -0.2705 -0.3444 -0.6663
 4172SOL     OW23977   0.086   0.937   6.378 -0.0391 -0.5130 -0.6409
 4172SOL    HW123978   0.079   1.017   6.429  2.0608 -0.3573 -0.6085
 4172SOL    HW223979   0.131   0.879   6.439  2.1490  1.6430 -0.1944
 4173SOL     OW23980   1.424   0.107   3.876 -0.4362  0.2158 -0.7734
 4173SOL    HW123981   1.505   0.115   3.827  1.4117 -2.4779  1.8084
 4173SOL    HW223982   1.439   0.019   3.911  0.6815  0.6892 -0.0735
 4174SOL     OW23983   2.646   3.611   8.339 -0.1643  0.5113  0.9009
 4174SOL    HW123984   2.563   3.628   8.384 -1.1464 -0.4005 -0.5501
 4174SOL    HW223985   2.631   3.640   8.249  0.9286  3.3891  1.6510
 4175SOL     OW23986   1.877   3.305  11.961  0.5000  0.3296 -0.0244
 4175SOL    HW123987   1.883   3.372  11.893  1.5045 -0.5029 -0.7612
 4175SOL    HW223988   1.816   3.341  12.025  0.8532 -0.3837  0.7141
 4176SOL     OW23989   3.814   1.579   1.674 -0.1450  0.4181 -0.1975
 4176SOL    HW123990   3.719   1.582   1.663 -0.2707  0.8124  1.0188
 4176SOL    HW223991   3.820   1.564   1.768 -3.8260 -0.3706 -0.1045
 4177SOL     OW23992   4.128   0.035  10.588 -0.3796 -0.5983  0.2557
 4177SOL    HW123993   4.068   0.075  10.525 -1.2957 -1.3686  0.6349
 4177SOL    HW223994   4.200   0.012  10.529  0.0145  1.1905  0.0460
 4178SOL     OW23995   2.687   0.825   5.908 -0.5297 -0.3231 -0.3270
 4178SOL    HW123996   2.736   0.907   5.912 -0.3181 -0.5015  0.9649
 4178SOL    HW223997   2.606   0.859   5.871 -0.4610  1.1303  0.8226
 4179SOL     OW23998   0.143   3.163   5.315 -0.1004  0.4326 -0.6707
 4179SOL    HW123999   0.209   3.112   5.268  0.2862  0.0863  0.2544
 4179SOL    HW224000   0.190   3.235   5.357 -0.2857  0.7171 -0.9506
 4180SOL     OW24001   0.256   0.875   4.392  0.6287  0.4645 -0.1739
 4180SOL    HW124002   0.217   0.955   4.357  1.2048  0.4043 -0.9602
 4180SOL    HW224003   0.253   0.895   4.485 -0.4438 -1.1951  0.1429
 4181SOL     OW24004   3.346   4.471   3.438 -0.1837  0.3304 -0.0867
 4181SOL    HW124005   3.253   4.476   3.416 -0.1333 -0.6387 -0.5202
 4181SOL    HW224006   3.364   4.484   3.345  0.6838  1.5594  0.2515
 4182SOL     OW24007   0.185   3.508  16.968 -0.2158 -0.5746 -0.3608
 4182SOL    HW124008   0.231   3.584  17.003 -1.0203 -1.0550  1.7382
 4182SOL    HW224009   0.140   3.534  16.887  0.1161 -0.9806 -0.6779
 4183SOL     OW24010   0.097   3.484  14.369 -0.1192  0.2983  0.5828
 4183SOL    HW124011   0.075   3.413  14.309  0.1790  1.8049 -1.3092
 4183SOL    HW224012   0.008   3.511  14.395 -0.7050 -1.0026 -0.0607
 4184SOL     OW24013   1.919   3.056  12.057 -0.5822 -0.1632 -0.2389
 4184SOL    HW124014   1.917   3.133  12.001  1.1721  0.4763  0.5765
 4184SOL    HW224015   1.843   3.009  12.022  0.7702 -2.1594 -0.4879
 4185SOL     OW24016   2.075   0.907   2.792 -0.3921  0.3759  0.4124
 4185SOL    HW124017   2.160   0.924   2.832 -0.4353 -1.1459  1.1851
 4185SOL    HW224018   2.058   0.997   2.765  1.0689  0.8198  0.9482
 4186SOL     OW24019   0.984   0.694   8.317 -0.0511 -0.6067 -0.7885
 4186SOL    HW124020   0.888   0.697   8.324 -0.0638  2.6824 -2.2481
 4186SOL    HW224021   0.989   0.641   8.238  1.1852  0.6580 -1.5517
 4187SOL     OW24022   4.648   2.561   0.123  0.6249  0.3987  0.2574
 4187SOL    HW124023   4.579   2.568   0.057  2.6606  0.6265 -1.8532
 4187SOL    HW224024   4.714   2.609   0.072  1.9405  0.3167  1.8739
 4188SOL     OW24025   3.345   3.491   8.020  0.4470  0.1382  0.4562
 4188SOL    HW124026   3.274   3.554   8.006 -0.7654 -1.4361 -0.6188
 4188SOL    HW224027   3.411   3.536   8.072  0.7315  0.5098 -0.2256
 4189SOL     OW24028   0.939   0.495   4.678  0.3180 -0.0016  0.3206
 4189SOL    HW124029   0.933   0.473   4.771  1.6081 -0.9165  0.1977
 4189SOL    HW224030   0.947   0.591   4.679  1.4721 -0.0891  0.0861
 4190SOL     OW24031   3.450   4.354   1.662  0.3590  0.0575 -0.4130
 4190SOL    HW124032   3.485   4.439   1.687  2.6656 -1.0123 -0.0181
 4190SOL    HW224033   3.358   4.358   1.689 -0.2861  0.3484 -2.6432
 4191SOL     OW24034   1.792   1.110  10.954  0.1576 -0.4499 -0.3802
 4191SOL    HW124035   1.824   1.194  10.988 -1.1490 -0.6377  1.3215
 4191SOL    HW224036   1.748   1.069  11.029 -0.5352 -0.9245 -1.0454
 4192SOL     OW24037   0.506   4.432   1.103  0.8305  0.0184 -0.4204
 4192SOL    HW124038   0.442   4.365   1.126  0.4780  0.4287 -0.2150
 4192SOL    HW224039   0.578   4.418   1.165  0.8339  3.6009  0.4102
 4193SOL     OW24040   0.089   2.085   8.405  0.0318  0.2424  0.4425
 4193SOL    HW124041   0.013   2.130   8.440 -0.5866 -0.7341  0.3615
 4193SOL    HW224042   0.123   2.066   8.493  0.0251 -1.1482  0.1589
 4194SOL     OW24043   0.873   4.182   9.971  0.6552  0.4883 -0.0989
 4194SOL    HW124044   0.809   4.129   9.923  1.1600  1.0943 -1.4441
 4194SOL    HW224045   0.823   4.203  10.050 -0.5802  0.8811 -0.9872
 4195SOL     OW24046   0.774   1.429  15.484  0.0609  0.1255 -0.1390
 4195SOL    HW124047   0.776   1.338  15.454  0.6086 -0.3129  1.2425
 4195SOL    HW224048   0.865   1.455  15.471 -0.2449  0.1685 -2.1204
 4196SOL     OW24049   4.004   0.239   9.015  0.3152  0.2855  0.4218
 4196SOL    HW124050   4.012   0.317   8.960  1.6680  1.0881  1.7416
 4196SOL    HW224051   4.022   0.280   9.100  0.2449 -0.7001  0.9007
 4197SOL     OW24052   3.138   1.940  15.749 -0.2918 -0.2170 -0.2860
 4197SOL    HW124053   3.133   1.984  15.664 -0.1778  0.7654  0.2262
 4197SOL    HW224054   3.099   1.860  15.713  1.0123 -0.6604 -0.7293
 4198SOL     OW24055   4.283   1.683   1.102 -0.2760  1.1184  0.5529
 4198SOL    HW124056   4.232   1.744   1.155  0.4570  1.5039  0.8126
 4198SOL    HW224057   4.370   1.721   1.099  0.3751 -0.4381 -0.2861
 4199SOL     OW24058   1.985   4.225  16.328 -0.0800  0.0004  0.1085
 4199SOL    HW124059   1.897   4.223  16.367 -0.7563  1.5695 -1.3281
 4199SOL    HW224060   2.001   4.149  16.272 -0.0251 -0.3232  0.5678
 4200SOL     OW24061   0.584   1.280   2.059  0.7386  0.0687 -0.5213
 4200SOL    HW124062   0.642   1.317   1.993 -0.6241 -1.4779 -2.5599
 4200SOL    HW224063   0.504   1.258   2.012  1.0890 -1.0661 -0.5703
 4201SOL     OW24064   3.282   1.579   2.882  0.4521  0.1648 -0.1987
 4201SOL    HW124065   3.292   1.671   2.908 -0.6654  0.2066  0.0971
 4201SOL    HW224066   3.327   1.570   2.798 -0.1593 -0.5946 -0.4513
 4202SOL     OW24067   0.840   3.360   8.890  0.1663 -0.7791 -0.1870
 4202SOL    HW124068   0.904   3.385   8.822  2.8860 -0.5522  2.4296
 4202SOL    HW224069   0.864   3.428   8.953  0.3392  0.2221 -1.3258
 4203SOL     OW24070   1.798   4.513  16.392  0.1656 -0.3056  0.5633
 4203SOL    HW124071   1.800   4.512  16.297  0.9899 -1.7032  0.5934
 4203SOL    HW224072   1.841   4.597  16.406  1.5828 -1.1496  1.3251
 4204SOL     OW24073   2.605   0.242   6.382 -0.4781 -0.0869  0.2135
 4204SOL    HW124074   2.553   0.197   6.316  0.7532 -0.9716 -0.1508
 4204SOL    HW224075   2.672   0.283   6.329  0.1814 -0.2681  0.9074
 4205SOL     OW24076   3.132   2.383   4.738  0.3863  0.2076  0.5355
 4205SOL    HW124077   3.164   2.473   4.737  2.1281 -0.4363 -1.0830
 4205SOL    HW224078   3.041   2.398   4.713 -0.6091  0.4679  4.4205
 4206SOL     OW24079   2.837   0.801   5.282  0.2639  0.0250  0.2233
 4206SOL    HW124080   2.742   0.810   5.288  0.1769  0.8406 -2.6460
 4206SOL    HW224081   2.863   0.892   5.297 -1.8718  0.4145  1.4831
 4207SOL     OW24082   1.767   0.576  13.615  0.6172 -0.3657  0.2733
 4207SOL    HW124083   1.691   0.539  13.570  1.1621  0.1797 -1.0897
 4207SOL    HW224084   1.768   0.536  13.702  0.8241 -0.7917  0.0768
 4208SOL     OW24085   4.611   3.695   8.500 -0.3231  0.2833 -0.7142
 4208SOL    HW124086   4.608   3.620   8.441  2.0625 -0.0091 -0.4853
 4208SOL    HW224087   4.523   3.714   8.533  0.2692  0.1158  0.9771
 4209SOL     OW24088   3.154   0.558   3.420  0.5816  0.5772  0.2655
 4209SOL    HW124089   3.112   0.581   3.503  0.2807 -0.7895  0.4866
 4209SOL    HW224090   3.193   0.474   3.444 -0.7287  0.0268  0.4838
 4210SOL     OW24091   1.701   0.968  15.571 -0.1596  0.4421  0.1505
 4210SOL    HW124092   1.667   1.056  15.587  2.0407  0.9993  1.6826
 4210SOL    HW224093   1.644   0.937  15.500 -0.5856  1.5386  0.0106
 4211SOL     OW24094   0.887   2.874   0.420 -0.2939  0.4680 -0.3445
 4211SOL    HW124095   0.820   2.918   0.367 -1.6636 -1.5240 -0.2695
 4211SOL    HW224096   0.856   2.784   0.415 -0.5382  0.4885  1.0445
 4212SOL     OW24097   0.364   3.480  15.923  0.1908  0.1362  0.7941
 4212SOL    HW124098   0.280   3.480  15.877  0.9118 -2.8131 -0.5058
 4212SOL    HW224099   0.407   3.550  15.874  0.0780 -0.7019 -0.4915
 4213SOL     OW24100   1.467   4.709   3.306  0.2332  0.2100  0.3986
 4213SOL    HW124101   1.435   4.655   3.233  0.4872 -0.4074  0.7480
 4213SOL    HW224102   1.404   4.678   3.371  0.8816 -0.3742  0.7479
 4214SOL     OW24103   2.891   2.701   3.065 -0.0916  0.1098 -0.4021
 4214SOL    HW124104   2.835   2.632   3.101 -1.6646  0.7740 -1.5871
 4214SOL    HW224105   2.901   2.752   3.146  3.0854 -0.6659 -0.2864
 4215SOL     OW24106   3.282   0.522   6.887  0.5369  0.3115 -0.4394
 4215SOL    HW124107   3.232   0.494   6.810 -2.2596  1.2464  1.0118
 4215SOL    HW224108   3.368   0.487   6.864  1.2665  2.0043 -0.2570
 4216SOL     OW24109   3.660   4.372  16.230  0.0376 -0.2065  0.9233
 4216SOL    HW124110   3.625   4.460  16.245  0.3550  0.5717 -2.7360
 4216SOL    HW224111   3.702   4.368  16.144  0.5180  0.2550  1.1367
 4217SOL     OW24112   0.046   2.591   9.940 -0.0828 -0.0463  0.1060
 4217SOL    HW124113   0.011   2.512   9.981  2.7709 -0.3853  1.8619
 4217SOL    HW224114   4.687   2.626   9.907  0.5369  0.4364 -0.9623
 4218SOL     OW24115   0.229   0.073   6.998 -0.2995  0.2352  1.0642
 4218SOL    HW124116   0.265   0.020   7.069  1.7373 -0.0709 -0.2189
 4218SOL    HW224117   0.177   0.135   7.049 -0.4813  2.0473 -1.3295
 4219SOL     OW24118   1.384   1.372   4.589 -0.0753  0.0503 -0.6622
 4219SOL    HW124119   1.296   1.381   4.626  0.7662  2.1217  0.8314
 4219SOL    HW224120   1.393   1.453   4.539 -1.9758 -0.2237 -1.4274
 4220SOL     OW24121   1.495   3.736  16.156  0.1615  0.0940 -0.0351
 4220SOL    HW124122   1.509   3.732  16.251 -1.3046 -2.3213  0.0808
 4220SOL    HW224123   1.478   3.830  16.146 -1.1525 -0.0438  0.9033
 4221SOL     OW24124   4.309   1.383   1.176  0.5907 -0.2211 -0.8953
 4221SOL    HW124125   4.303   1.302   1.226 -1.7061  1.8625  2.2240
 4221SOL    HW224126   4.311   1.448   1.247 -1.9145 -0.1453 -0.8906
 4222SOL     OW24127   0.825   4.478  13.781  0.2463  0.3216  0.3596
 4222SOL    HW124128   0.912   4.443  13.802  0.4321  0.8722  0.5097
 4222SOL    HW224129   0.798   4.420  13.711  1.4071  1.5739 -1.1423
 4223SOL     OW24130   2.275   3.494   8.126  0.7740 -0.1668  0.2142
 4223SOL    HW124131   2.224   3.463   8.052 -0.4542  0.2313  0.8802
 4223SOL    HW224132   2.362   3.473   8.093  1.0602  1.4035 -0.0311
 4224SOL     OW24133   4.262   3.122   2.346  0.0069 -0.3678  0.1371
 4224SOL    HW124134   4.227   3.034   2.355  0.6612 -0.5653  0.7787
 4224SOL    HW224135   4.352   3.092   2.337 -0.1357 -1.9255  3.7786
 4225SOL     OW24136   2.392   0.676   3.747 -0.4531 -0.2835 -0.4458
 4225SOL    HW124137   2.446   0.724   3.811  0.8064 -2.8968  0.4578
 4225SOL    HW224138   2.335   0.627   3.806 -1.3706  0.2551 -0.8920
 4226SOL     OW24139   3.337   2.184   3.128 -0.0995  0.5225 -0.0638
 4226SOL    HW124140   3.395   2.186   3.052 -0.3227  1.6225 -0.2167
 4226SOL    HW224141   3.250   2.166   3.091 -0.2912 -0.6384  0.9355
 4227SOL     OW24142   1.680   1.968   6.864 -0.3239 -0.8449  0.1210
 4227SOL    HW124143   1.640   1.992   6.948 -0.0191  2.3262 -0.6357
 4227SOL    HW224144   1.713   1.882   6.889  3.3408  1.3605  2.7730
 4228SOL     OW24145   2.340   4.217  16.569  0.6452  0.3778 -0.3889
 4228SOL    HW124146   2.331   4.168  16.650 -0.3129 -0.7171 -1.1626
 4228SOL    HW224147   2.411   4.168  16.527 -0.4529 -1.5804  0.0333
 4229SOL     OW24148   0.011   4.495   3.154  0.0043 -0.0873  0.5365
 4229SOL    HW124149   4.685   4.514   3.075 -0.0039 -0.1111  0.5359
 4229SOL    HW224150   4.687   4.414   3.171 -1.2594  0.0899 -2.2079
 4230SOL     OW24151   3.372   0.726   6.016 -0.5652  0.3139 -0.3661
 4230SOL    HW124152   3.377   0.634   5.989 -0.1094 -0.4799  2.4136
 4230SOL    HW224153   3.332   0.760   5.937 -0.7077  0.2912 -0.3036
 4231SOL     OW24154   1.795   3.211   5.327 -0.1906  0.4731  0.1723
 4231SOL    HW124155   1.768   3.151   5.258 -0.6958  0.8581  0.0407
 4231SOL    HW224156   1.852   3.274   5.283  0.5880  0.6780  1.4594
 4232SOL     OW24157   3.683   1.478   3.375 -0.3773  0.2228 -0.4220
 4232SOL    HW124158   3.612   1.527   3.417 -1.2090 -0.2201 -1.3050
 4232SOL    HW224159   3.720   1.542   3.314  0.7377  2.1981  2.3289
 4233SOL     OW24160   4.496   3.313  10.292 -0.7199  0.3755 -0.0068
 4233SOL    HW124161   4.516   3.234  10.342 -0.6312  0.5307  0.2070
 4233SOL    HW224162   4.402   3.299  10.284 -0.9905  1.7061  0.7938
 4234SOL     OW24163   0.777   3.107  11.098  0.4368 -0.5721 -0.2749
 4234SOL    HW124164   0.721   3.035  11.069 -2.8296  1.2350  1.4283
 4234SOL    HW224165   0.722   3.178  11.063 -0.3970 -0.9336  0.2874
 4235SOL     OW24166   2.469   1.402   8.394  0.3650 -0.0567 -0.4694
 4235SOL    HW124167   2.560   1.430   8.399 -0.2360  1.7688  0.4028
 4235SOL    HW224168   2.454   1.396   8.488 -2.1766 -0.7135 -0.9086
 4236SOL     OW24169   1.242   1.570  17.316 -0.1836  0.0781  0.4414
 4236SOL    HW124170   1.205   1.640  17.369 -0.7489  0.6674 -0.7466
 4236SOL    HW224171   1.186   1.581  17.239 -0.9311  0.2218  1.0043
 4237SOL     OW24172   3.528   1.025  15.203 -0.4736 -0.4756  0.7932
 4237SOL    HW124173   3.491   0.974  15.131 -2.6965  1.9948  0.2085
 4237SOL    HW224174   3.470   1.002  15.276 -0.9953 -1.9272 -0.0910
 4238SOL     OW24175   4.258   1.805  15.395  0.4960  0.1307  0.7097
 4238SOL    HW124176   4.238   1.713  15.413 -0.4892  0.2535  0.2288
 4238SOL    HW224177   4.351   1.801  15.418  0.2635  0.0376  1.6221
 4239SOL     OW24178   0.018   1.538  16.971  0.7032 -0.0654 -0.6014
 4239SOL    HW124179   0.105   1.520  17.007  0.6383  0.2748 -0.2836
 4239SOL    HW224180   4.709   1.613  17.019 -1.2049 -2.1220  1.2878
 4240SOL     OW24181   2.836   0.829  17.302 -0.0540  0.5336 -0.3370
 4240SOL    HW124182   2.787   0.758  17.261  2.3894 -1.1963 -0.2575
 4240SOL    HW224183   2.769   0.852  17.367 -2.2855  0.3842 -2.5945
 4241SOL     OW24184   2.930   2.664  10.314 -0.0559 -0.0664 -0.4583
 4241SOL    HW124185   2.867   2.617  10.260 -0.0474 -2.1488  1.3328
 4241SOL    HW224186   2.934   2.739  10.255 -0.0139 -0.3712 -0.8402
 4242SOL     OW24187   0.027   0.843   3.946  0.5965 -0.0883 -0.5339
 4242SOL    HW124188   0.079   0.852   4.026  0.9654 -0.7256 -0.7019
 4242SOL    HW224189   4.704   0.927   3.940 -1.9156 -1.6267 -2.4638
 4243SOL     OW24190   1.808   1.724   0.906  0.5349  0.0345  0.5663
 4243SOL    HW124191   1.867   1.749   0.977  0.1406  1.1904  0.4845
 4243SOL    HW224192   1.860   1.732   0.826 -0.1292 -0.2391  0.1110
 4244SOL     OW24193   3.317   1.439  15.167 -0.1968 -0.0662  0.3734
 4244SOL    HW124194   3.271   1.382  15.105 -1.4989  2.4784 -0.9848
 4244SOL    HW224195   3.241   1.494  15.187 -0.0987  0.2198 -0.0391
 4245SOL     OW24196   0.053   2.008   3.175 -0.0787 -0.1269 -0.0224
 4245SOL    HW124197   0.023   2.092   3.140 -0.2161 -1.1066 -2.2541
 4245SOL    HW224198   0.129   1.990   3.120 -1.2520 -0.9008 -1.3639
 4246SOL     OW24199   3.302   0.541   0.629  0.2562 -0.3585 -0.1640
 4246SOL    HW124200   3.360   0.562   0.555 -0.8865 -2.1220 -1.5663
 4246SOL    HW224201   3.228   0.602   0.618  0.1635 -0.4948 -0.3087
 4247SOL     OW24202   0.071   1.536   6.087 -0.5072 -0.3363  0.5664
 4247SOL    HW124203   0.146   1.513   6.031 -1.0900  0.9135 -0.7414
 4247SOL    HW224204   0.049   1.615   6.038  0.9382 -0.8662 -0.9522
 4248SOL     OW24205   4.463   1.370   0.919  0.0363 -0.5889  0.5121
 4248SOL    HW124206   4.548   1.397   0.953 -0.6094  0.7089  1.1254
 4248SOL    HW224207   4.472   1.275   0.909 -0.4935 -0.4959 -0.8481
 4249SOL     OW24208   2.407   2.649  17.307  0.2604 -0.1466  0.0040
 4249SOL    HW124209   2.368   2.711  17.369 -0.5046 -0.8303  0.2007
 4249SOL    HW224210   2.469   2.609  17.368 -2.8284  0.8919  3.8451
 4250SOL     OW24211   0.613   0.777   5.612 -0.4480  0.1420 -0.4274
 4250SOL    HW124212   0.660   0.790   5.529  0.1819  1.9889  0.2160
 4250SOL    HW224213   0.601   0.869   5.633 -0.5215 -0.3030  1.4963
 4251SOL     OW24214   1.133   3.672   5.733 -0.1584  0.5568 -0.3027
 4251SOL    HW124215   1.181   3.663   5.651  1.2718  2.8158  0.2501
 4251SOL    HW224216   1.078   3.747   5.710  0.4964  0.6797 -1.4586
 4252SOL     OW24217   2.637   3.221   2.792  0.2409  0.3356 -0.4511
 4252SOL    HW124218   2.718   3.196   2.748  0.8477 -0.5033  1.1472
 4252SOL    HW224219   2.582   3.158   2.745  0.2092 -0.2455  0.3544
 4253SOL     OW24220   1.563   1.719  14.128  0.1513  0.0568 -0.1429
 4253SOL    HW124221   1.581   1.632  14.092  0.0926 -1.0235  2.4684
 4253SOL    HW224222   1.483   1.740  14.080 -0.4964 -0.3286  0.7746
 4254SOL     OW24223   0.417   1.374  14.838 -0.4141  0.0576 -0.5484
 4254SOL    HW124224   0.357   1.327  14.780 -1.4906  1.1089 -0.2799
 4254SOL    HW224225   0.480   1.408  14.774  0.4557  1.6477  1.1633
 4255SOL     OW24226   3.967   4.279   2.297 -0.2430 -0.0090 -0.2545
 4255SOL    HW124227   3.928   4.366   2.304 -1.9907 -0.8430  0.2764
 4255SOL    HW224228   3.916   4.239   2.227 -0.3504 -1.1649  0.4807
 4256SOL     OW24229   3.134   4.483  12.283  0.3003  0.4095  0.0471
 4256SOL    HW124230   3.190   4.516  12.354  2.0899  0.3875 -1.3589
 4256SOL    HW224231   3.052   4.513  12.322  1.5614  1.9367  1.5778
 4257SOL     OW24232   2.202   4.278  12.898  0.5598  0.1329 -0.4878
 4257SOL    HW124233   2.201   4.266  12.993  2.7032 -0.0230 -0.4781
 4257SOL    HW224234   2.232   4.193  12.868  0.2733 -0.3736  0.6399
 4258SOL     OW24235   2.736   2.650  17.213  0.1219  0.1843 -0.2262
 4258SOL    HW124236   2.770   2.621  17.128 -1.2845 -2.9664  0.2760
 4258SOL    HW224237   2.773   2.577  17.264 -0.0424 -0.1543 -0.5878
 4259SOL     OW24238   0.363   4.644  17.626  0.4152  0.3645 -0.3654
 4259SOL    HW124239   0.346   0.007  17.664 -3.3721  0.3354 -2.0308
 4259SOL    HW224240   0.289   4.592  17.656  1.8229  0.2035  2.7612
 4260SOL     OW24241   0.795   0.615   7.136 -0.0683  0.2164  0.2907
 4260SOL    HW124242   0.847   0.568   7.072 -2.9522 -2.5561 -0.0245
 4260SOL    HW224243   0.716   0.618   7.082 -0.8927  4.0444  1.7042
 4261SOL     OW24244   0.274   4.407   0.430 -0.0097  0.1268  0.4416
 4261SOL    HW124245   0.246   4.385   0.518  1.2755 -1.5180  0.4529
 4261SOL    HW224246   0.198   4.375   0.382  1.4011 -0.1140 -1.6648
 4262SOL     OW24247   1.424   1.051   4.035  0.0903 -0.2923  0.4373
 4262SOL    HW124248   1.366   1.056   4.112 -0.4030 -3.7341  0.3141
 4262SOL    HW224249   1.461   0.965   4.053  1.4391  0.6231  2.0124
 4263SOL     OW24250   4.582   3.045   0.162 -0.1176  0.2684 -0.0888
 4263SOL    HW124251   4.526   3.077   0.232  0.0279  0.3544 -0.0131
 4263SOL    HW224252   4.627   2.974   0.208 -1.1292 -0.5272 -0.3171
 4264SOL     OW24253   4.627   3.740   0.600  0.0832 -0.3469  0.6130
 4264SOL    HW124254   4.661   3.827   0.623  2.3777 -0.4434 -2.3478
 4264SOL    HW224255   4.607   3.744   0.507 -1.4588 -1.4037  0.9080
 4265SOL     OW24256   2.744   4.466   4.027  0.1102 -0.3507  0.1522
 4265SOL    HW124257   2.729   4.464   4.122  0.3946  1.8616  0.2566
 4265SOL    HW224258   2.707   4.554   4.022  0.8671 -0.2545 -3.1873
 4266SOL     OW24259   3.261   4.662   4.927 -0.0068  0.3265  0.0219
 4266SOL    HW124260   3.167   4.678   4.918  0.1877  1.3275 -0.2770
 4266SOL    HW224261   3.290   0.023   4.960  2.2764 -0.4080 -0.0684
 4267SOL     OW24262   1.267   2.554   1.595 -0.2984 -0.0685  0.3379
 4267SOL    HW124263   1.275   2.525   1.504 -1.3994 -2.6298  1.0560
 4267SOL    HW224264   1.188   2.608   1.589  0.6649  1.4959  1.9145
 4268SOL     OW24265   1.019   3.923   2.913  0.2311  0.7627  0.2469
 4268SOL    HW124266   1.062   4.008   2.904 -2.6548  1.9389 -2.3475
 4268SOL    HW224267   0.930   3.958   2.908  0.2077  0.3808 -1.8896
 4269SOL     OW24268   2.385   2.786  10.674 -0.3743 -0.5409  0.6113
 4269SOL    HW124269   2.365   2.764  10.765  1.5911 -0.8792  0.9577
 4269SOL    HW224270   2.478   2.763  10.669 -0.6524 -1.6091  0.2096
 4270SOL     OW24271   3.117   3.752   5.235  0.2327 -0.4628  0.4546
 4270SOL    HW124272   3.133   3.664   5.201  0.2329 -0.2166 -0.1881
 4270SOL    HW224273   3.171   3.815   5.186 -0.4022 -0.3782 -0.1316
 4271SOL     OW24274   1.579   3.468   8.654  0.1436 -0.1660  0.4901
 4271SOL    HW124275   1.583   3.525   8.577  0.6721  0.1234  0.7260
 4271SOL    HW224276   1.556   3.533   8.722  1.6800  2.0393 -1.0888
 4272SOL     OW24277   1.295   4.151   4.853 -0.4963  0.0361  0.5005
 4272SOL    HW124278   1.374   4.205   4.843 -0.3401  0.0343  1.7294
 4272SOL    HW224279   1.302   4.085   4.784  0.0445  0.7542 -0.1375
 4273SOL     OW24280   4.032   3.584   3.065 -0.0121 -0.5249  0.5463
 4273SOL    HW124281   4.076   3.504   3.094  1.2274 -0.6514 -1.7468
 4273SOL    HW224282   4.072   3.594   2.979  0.0908  1.8218  0.8667
 4274SOL     OW24283   4.491   3.677  13.141 -0.2947  0.2830  0.2793
 4274SOL    HW124284   4.558   3.612  13.160 -0.3985 -1.2207 -4.4080
 4274SOL    HW224285   4.500   3.732  13.219  0.5720  0.1543  0.2696
 4275SOL     OW24286   2.460   4.584  12.902 -0.3988 -0.7405  0.0195
 4275SOL    HW124287   2.402   4.562  12.975 -0.4895 -1.1206 -0.1653
 4275SOL    HW224288   2.542   4.609  12.946  0.7218 -1.6266 -1.5465
 4276SOL     OW24289   1.027   1.550   5.227  0.0906  0.4933  0.3979
 4276SOL    HW124290   0.945   1.547   5.177 -0.4964 -1.4506  1.4363
 4276SOL    HW224291   1.008   1.620   5.289 -1.1836  1.4817 -1.0914
 4277SOL     OW24292   4.141   3.710   6.955 -0.5958 -0.0829 -0.2616
 4277SOL    HW124293   4.051   3.734   6.973 -0.4683  0.2125 -0.0350
 4277SOL    HW224294   4.160   3.795   6.916  2.0497  0.1120  1.4130
 4278SOL     OW24295   1.230   0.728   5.798  0.4792 -0.1453 -0.0381
 4278SOL    HW124296   1.225   0.699   5.889  0.3704  0.6691  0.2154
 4278SOL    HW224297   1.141   0.702   5.773  0.0099  1.7311 -0.3240
 4279SOL     OW24298   3.197   1.735   8.236 -0.1174 -0.2712  0.3174
 4279SOL    HW124299   3.213   1.656   8.184 -1.2745 -0.9590  1.0123
 4279SOL    HW224300   3.260   1.726   8.307  1.8326 -0.8967 -1.5019
 4280SOL     OW24301   2.032   4.177   8.529  0.3525  0.7370  0.3606
 4280SOL    HW124302   2.096   4.122   8.574  0.4030  0.1495 -0.4158
 4280SOL    HW224303   1.964   4.153   8.592  0.4253  0.0421  0.1759
 4281SOL     OW24304   3.528   3.014   7.928 -0.1171 -0.1854 -0.1007
 4281SOL    HW124305   3.568   2.955   7.991  1.3896  2.9260  1.8346
 4281SOL    HW224306   3.526   3.098   7.974 -0.2795 -1.5806  2.4235
 4282SOL     OW24307   4.387   0.552   3.035  0.4355 -0.4850 -0.2585
 4282SOL    HW124308   4.311   0.494   3.050 -0.6689  0.5813 -1.7570
 4282SOL    HW224309   4.360   0.607   2.962 -1.0268 -0.2485  0.4577
 4283SOL     OW24310   0.548   1.581  12.065 -0.2128 -0.3683 -0.2637
 4283SOL    HW124311   0.516   1.563  11.977 -1.7565  0.7446  0.0512
 4283SOL    HW224312   0.631   1.535  12.063 -0.2356 -0.4855  1.3879
 4284SOL     OW24313   3.225   1.875   8.011  0.0669  0.2651 -0.2502
 4284SOL    HW124314   3.133   1.902   8.003  0.5827  1.6493 -1.4008
 4284SOL    HW224315   3.221   1.840   8.100 -2.1020 -1.7965 -1.1182
 4285SOL     OW24316   0.551   1.132  15.620  0.7344  0.3181 -0.1638
 4285SOL    HW124317   0.530   1.191  15.548 -0.7352 -0.2633 -0.2096
 4285SOL    HW224318   0.522   1.173  15.701 -0.7061  0.4998 -0.7696
 4286SOL     OW24319   3.488   2.711   0.613 -0.7477 -0.0127 -0.3179
 4286SOL    HW124320   3.470   2.731   0.705 -0.9202 -2.1661  0.1231
 4286SOL    HW224321   3.406   2.676   0.576 -0.9781  1.4441 -1.1922
 4287SOL     OW24322   2.536   0.041   2.968 -0.3120 -0.0531  0.6606
 4287SOL    HW124323   2.576   0.109   3.022  0.4657 -1.3927  1.7613
 4287SOL    HW224324   2.484   4.722   3.036 -1.7205 -0.2868 -0.5596
 4288SOL     OW24325   0.862   4.145   5.076  0.4461  0.0056  0.1888
 4288SOL    HW124326   0.776   4.106   5.093 -0.4391  1.6154 -0.5715
 4288SOL    HW224327   0.859   4.231   5.118 -1.6891  0.5080 -1.0065
 4289SOL     OW24328   3.144   0.827   0.565 -0.8001  0.1327  0.3714
 4289SOL    HW124329   3.230   0.868   0.574 -0.4806 -0.7812  1.3544
 4289SOL    HW224330   3.082   0.900   0.560 -1.5756 -0.5673 -0.4756
 4290SOL     OW24331   3.082   1.225   9.103  0.1264 -0.3309  0.0659
 4290SOL    HW124332   3.050   1.143   9.066  3.1108 -0.3664 -2.4619
 4290SOL    HW224333   3.001   1.264   9.136  0.9360  0.5485  1.0102
 4291SOL     OW24334   2.440   4.523   0.731 -0.5678  0.0845  0.2219
 4291SOL    HW124335   2.466   4.551   0.644 -2.6790 -1.7914 -1.0097
 4291SOL    HW224336   2.415   4.433   0.714 -0.1045  0.3236 -1.6828
 4292SOL     OW24337   3.054   4.035   2.637 -0.4705 -0.2317  0.1542
 4292SOL    HW124338   3.040   4.027   2.731 -0.6555 -1.3747  0.0304
 4292SOL    HW224339   3.002   4.113   2.617  1.2955  0.5662 -1.3373
 4293SOL     OW24340   3.215   1.382  11.238  0.4114 -0.0149  0.0998
 4293SOL    HW124341   3.167   1.398  11.319  0.4153 -0.7578  0.2429
 4293SOL    HW224342   3.157   1.333  11.180  2.4514  0.9214 -2.7794
 4294SOL     OW24343   4.096   1.624   4.716 -0.6102  0.5375 -0.9342
 4294SOL    HW124344   4.128   1.650   4.629  1.7847 -0.3498 -0.3205
 4294SOL    HW224345   4.049   1.544   4.694 -0.4586  0.0583  0.4975
 4295SOL     OW24346   1.492   1.634   8.362 -0.2101 -0.1090  0.4852
 4295SOL    HW124347   1.432   1.559   8.370  3.6357 -3.0506  2.0279
 4295SOL    HW224348   1.468   1.673   8.446 -1.1611 -2.0006  1.1128
 4296SOL     OW24349   1.498   2.532   7.299  0.1964  0.0340 -0.1870
 4296SOL    HW124350   1.424   2.529   7.239  1.4365  1.8241 -1.7892
 4296SOL    HW224351   1.484   2.621   7.331  1.0158  0.7653 -1.8405
 4297SOL     OW24352   1.052   4.474   6.688 -0.0787 -0.9629 -0.0842
 4297SOL    HW124353   1.133   4.505   6.727 -0.8049  4.3620 -2.8652
 4297SOL    HW224354   1.025   4.407   6.751  0.2199 -0.8749  0.1334
 4298SOL     OW24355   2.359   1.646   8.982  0.5774 -0.0853 -0.5772
 4298SOL    HW124356   2.289   1.613   8.926 -0.5696 -0.3768  1.0279
 4298SOL    HW224357   2.405   1.698   8.916 -0.4059  2.6379  0.8709
 4299SOL     OW24358   1.089   3.631  12.913 -0.3199 -0.2514 -0.1181
 4299SOL    HW124359   1.127   3.555  12.958 -3.2884 -0.5108  2.0015
 4299SOL    HW224360   1.149   3.705  12.926 -0.3347 -0.2833  0.1477
 4300SOL     OW24361   2.621   4.264  10.876  0.1906  0.7947 -0.0884
 4300SOL    HW124362   2.575   4.265  10.960 -1.0791  2.4080 -0.8251
 4300SOL    HW224363   2.631   4.168  10.872  2.1649  1.0143 -0.2749
 4301SOL     OW24364   3.776   1.902   8.886  0.0338 -0.0233  0.5290
 4301SOL    HW124365   3.707   1.878   8.824 -0.9114  1.4025  1.0471
 4301SOL    HW224366   3.752   1.840   8.955 -2.3134 -0.6610 -0.8245
 4302SOL     OW24367   4.659   2.434   6.327  0.2032 -0.1781 -0.4213
 4302SOL    HW124368   4.612   2.466   6.403  2.6590 -1.3145  1.6040
 4302SOL    HW224369   4.706   2.360   6.366 -0.4902  0.3039  1.3299
 4303SOL     OW24370   1.371   1.168  11.173 -0.2181 -0.2300 -0.0727
 4303SOL    HW124371   1.372   1.084  11.221 -0.0986 -1.1205 -1.6406
 4303SOL    HW224372   1.342   1.233  11.237  2.2521  1.9631 -1.1944
 4304SOL     OW24373   3.027   4.065  11.094 -0.0178  0.6379  0.3145
 4304SOL    HW124374   3.031   4.134  11.160 -0.7324  1.5838 -0.6405
 4304SOL    HW224375   3.028   4.123  11.018 -4.0348 -0.6197 -0.6972
 4305SOL     OW24376   0.183   3.145   6.730 -0.3136  0.4061  0.6271
 4305SOL    HW124377   0.184   3.233   6.766 -1.7555  2.0116 -3.2471
 4305SOL    HW224378   0.089   3.124   6.730 -0.8421  2.8108  1.5640
 4306SOL     OW24379   0.160   4.238  15.137 -0.2627  0.5679 -0.6351
 4306SOL    HW124380   0.144   4.193  15.220  0.7125  1.4749  0.0463
 4306SOL    HW224381   0.172   4.325  15.176  0.9054 -1.1064  2.7868
 4307SOL     OW24382   1.625   4.346   5.572  0.0925 -0.0025 -0.5755
 4307SOL    HW124383   1.666   4.263   5.597  2.4299  1.3650  0.0228
 4307SOL    HW224384   1.652   4.404   5.643  0.9494 -1.7195  0.5128
 4308SOL     OW24385   3.305   2.299   5.923  0.0381  0.0877  0.4100
 4308SOL    HW124386   3.262   2.274   6.005 -1.5234  1.9225  0.1680
 4308SOL    HW224387   3.362   2.367   5.960 -0.7203  0.0905  1.5631
 4309SOL     OW24388   0.446   1.656   2.474 -0.0638  0.4858  0.0914
 4309SOL    HW124389   0.469   1.564   2.459 -1.4364  0.5397 -2.4393
 4309SOL    HW224390   0.376   1.644   2.539 -2.2186 -1.0304 -2.5110
 4310SOL     OW24391   3.497   4.167   5.171  0.4427 -0.2357 -0.1792
 4310SOL    HW124392   3.500   4.156   5.076  0.9548  1.4238 -0.3590
 4310SOL    HW224393   3.588   4.172   5.200  0.2440  3.1057 -0.1882
 4311SOL     OW24394   4.634   3.927   6.606  0.3804 -0.1284  0.4141
 4311SOL    HW124395   4.633   3.838   6.572  0.6353  0.1556 -0.3452
 4311SOL    HW224396   4.718   3.959   6.575 -0.1166  1.9019  1.1530
 4312SOL     OW24397   2.640   2.677  10.652  0.1183 -0.0420  0.6950
 4312SOL    HW124398   2.733   2.655  10.641 -0.1951  0.6895 -3.6220
 4312SOL    HW224399   2.610   2.587  10.645 -0.4721  0.4835 -3.7484
 4313SOL     OW24400   0.667   1.681  14.714 -0.6813  0.2449  0.6944
 4313SOL    HW124401   0.622   1.600  14.694 -0.0348  0.0197  0.1352
 4313SOL    HW224402   0.747   1.655  14.668 -1.8870 -0.7944 -0.7722
 4314SOL     OW24403   0.211   1.594   8.596  0.1323  0.2396  0.0488
 4314SOL    HW124404   0.141   1.657   8.582 -0.7098 -0.9734 -1.3065
 4314SOL    HW224405   0.162   1.517   8.626  1.7078 -0.6513  0.3328
 4315SOL     OW24406   1.880   1.365  11.021 -0.0196  0.0834  0.0156
 4315SOL    HW124407   1.843   1.408  10.944  2.0173  1.4845 -0.1862
 4315SOL    HW224408   1.943   1.434  11.041  0.9311 -0.1190 -2.2672
 4316SOL     OW24409   1.435   2.673   6.687 -0.1370 -0.1392  0.0842
 4316SOL    HW124410   1.447   2.629   6.771  1.3453 -0.6725 -0.3912
 4316SOL    HW224411   1.366   2.617   6.652 -0.3992 -0.2343  0.7742
 4317SOL     OW24412   0.892   0.261   8.173 -0.8694  0.3361 -0.4944
 4317SOL    HW124413   0.940   0.271   8.091 -1.2827 -2.0323 -1.0194
 4317SOL    HW224414   0.922   0.330   8.233 -0.7688 -2.3423  2.5506
 4318SOL     OW24415   1.054   0.575  17.282  0.1194  0.5535 -0.0175
 4318SOL    HW124416   1.122   0.525  17.327  1.5709  0.9825 -1.7597
 4318SOL    HW224417   1.110   0.648  17.257  2.3005 -0.3499  2.1839
 4319SOL     OW24418   2.675   3.604   7.109  0.3623 -0.3508  0.6305
 4319SOL    HW124419   2.676   3.549   7.187  1.3520 -2.6108 -0.9666
 4319SOL    HW224420   2.767   3.631   7.103  0.2128 -0.3153 -1.4288
 4320SOL     OW24421   1.094   1.401   9.735 -0.6764 -0.3506  0.4546
 4320SOL    HW124422   1.005   1.372   9.714 -0.5856  1.2926 -2.1938
 4320SOL    HW224423   1.084   1.466   9.804  1.8676 -0.3998  0.8674
 4321SOL     OW24424   4.132   2.123   2.548 -0.1304 -0.1333  0.6235
 4321SOL    HW124425   4.165   2.041   2.584 -1.2290 -0.2492  1.3780
 4321SOL    HW224426   4.152   2.099   2.458 -1.4489 -3.1091  1.1324
 4322SOL     OW24427   1.681   0.923   3.650 -0.7730 -0.3549 -0.2432
 4322SOL    HW124428   1.653   0.947   3.738  1.7096  2.0714 -0.0761
 4322SOL    HW224429   1.600   0.948   3.607 -0.4122  0.5856 -0.3805
 4323SOL     OW24430   2.121   0.280   2.472  0.0208 -0.6197 -0.0880
 4323SOL    HW124431   2.066   0.333   2.413 -1.6474 -0.6608  1.4434
 4323SOL    HW224432   2.167   0.343   2.529 -0.0138 -0.4920 -0.2013
 4324SOL     OW24433   2.485   1.341  16.838  0.0402  0.1397 -0.1131
 4324SOL    HW124434   2.493   1.360  16.932 -2.2366 -0.1962  0.1582
 4324SOL    HW224435   2.576   1.346  16.811  0.2066  0.0133  0.4115
 4325SOL     OW24436   4.515   1.500   6.071  0.1418 -0.0906  0.3995
 4325SOL    HW124437   4.492   1.518   5.980  0.4511  1.5996  0.6660
 4325SOL    HW224438   4.608   1.518   6.058 -0.2442 -0.5680 -2.9802
 4326SOL     OW24439   3.671   0.868   5.662  0.2762  0.0181  0.2911
 4326SOL    HW124440   3.643   0.958   5.677 -0.1644  0.1703 -1.4437
 4326SOL    HW224441   3.695   0.830   5.746  0.8288  1.3297  0.7172
 4327SOL     OW24442   4.607   0.524  13.305  0.2701  0.1068  0.5882
 4327SOL    HW124443   4.653   0.441  13.295  0.2457  0.1529  0.1131
 4327SOL    HW224444   4.603   0.530  13.401 -1.5112 -0.4745  0.5427
 4328SOL     OW24445   2.064   4.298  14.006  0.3052 -0.4434  0.3974
 4328SOL    HW124446   2.030   4.386  14.017  0.4363 -0.1080 -1.8802
 4328SOL    HW224447   2.132   4.313  13.940  0.5408 -0.7032  0.5776
 4329SOL     OW24448   0.155   1.636  16.724  0.2687  0.5011  0.6012
 4329SOL    HW124449   0.117   1.571  16.783  0.7968  0.4322  0.8702
 4329SOL    HW224450   0.244   1.600  16.726 -0.6439 -1.7101  1.0007
 4330SOL     OW24451   0.439   3.697   7.100  0.7437  0.3497  0.1869
 4330SOL    HW124452   0.526   3.687   7.139  1.4378 -1.5596 -1.9219
 4330SOL    HW224453   0.394   3.734   7.177  0.4157 -0.4299  0.3654
 4331SOL     OW24454   2.998   4.189  16.287  0.2101 -0.0341 -0.3690
 4331SOL    HW124455   2.914   4.167  16.247  0.0076  0.5084 -0.2365
 4331SOL    HW224456   3.047   4.204  16.206  1.6337 -0.9004  0.3374
 4332SOL     OW24457   2.881   1.087  17.183 -0.8242  0.0184  0.4025
 4332SOL    HW124458   2.817   1.054  17.119  0.6017 -0.7408 -0.6365
 4332SOL    HW224459   2.886   1.015  17.245  1.2676 -0.7657 -0.6735
 4333SOL     OW24460   4.078   4.268   1.384  0.3612  0.4321  0.0000
 4333SOL    HW124461   4.114   4.309   1.305  0.3927  1.2776  0.4506
 4333SOL    HW224462   3.985   4.249   1.367  0.2453  0.7441  0.2890
 4334SOL     OW24463   3.596   3.909   3.584  0.4284  0.7088 -1.0878
 4334SOL    HW124464   3.690   3.912   3.564  0.3033  1.3043 -1.6099
 4334SOL    HW224465   3.601   3.922   3.678  0.5715  1.4125 -1.1905
 4335SOL     OW24466   1.310   2.861   3.495 -0.5586  0.3019 -0.1032
 4335SOL    HW124467   1.238   2.916   3.527 -0.1150  0.9445 -0.2177
 4335SOL    HW224468   1.336   2.917   3.421  0.4940 -1.9921 -1.4676
 4336SOL     OW24469   1.894   4.096  14.069  0.4422 -0.4948  0.9190
 4336SOL    HW124470   1.814   4.147  14.059  0.3324 -1.0010 -0.8273
 4336SOL    HW224471   1.958   4.160  14.037 -1.2879  0.8465  0.1291
 4337SOL     OW24472   4.120   3.608   0.068 -0.1282  0.0727 -0.4186
 4337SOL    HW124473   4.081   3.587  17.680 -0.8034  0.9170 -0.3224
 4337SOL    HW224474   4.119   3.703   0.054  0.7783  0.2434  0.7210
 4338SOL     OW24475   3.607   1.224   3.639  0.1743  0.8119 -0.2857
 4338SOL    HW124476   3.613   1.271   3.555  0.6894  1.5010  0.1377
 4338SOL    HW224477   3.568   1.289   3.698  0.3403  3.7178 -3.3329
 4339SOL     OW24478   2.789   1.359   3.515 -0.2048  0.1275  0.5610
 4339SOL    HW124479   2.712   1.310   3.486 -0.0331  1.9513 -2.9308
 4339SOL    HW224480   2.854   1.328   3.452 -2.5110  1.6782 -2.5920
 4340SOL     OW24481   4.098   3.780   9.452  0.0119  0.0300  0.4069
 4340SOL    HW124482   4.154   3.724   9.399  1.7395  0.1114  2.1556
 4340SOL    HW224483   4.156   3.822   9.515 -0.8958  2.1057 -0.1490
 4341SOL     OW24484   3.207   4.594  15.719  0.5168 -0.4017 -0.4529
 4341SOL    HW124485   3.163   4.667  15.676 -2.2229 -1.4644  0.5339
 4341SOL    HW224486   3.168   4.616  15.804  1.1794  1.9952 -0.7553
 4342SOL     OW24487   3.501   1.803   5.153 -0.3339 -0.0907 -0.0444
 4342SOL    HW124488   3.582   1.827   5.108  0.1937 -3.5256 -0.9213
 4342SOL    HW224489   3.448   1.882   5.144  0.8770  0.4997 -2.0886
 4343SOL     OW24490   2.999   2.406   8.027 -0.2008  0.7404  0.4007
 4343SOL    HW124491   2.976   2.399   7.935  0.9281 -0.6530  0.2214
 4343SOL    HW224492   2.920   2.423   8.078  0.5975  0.3057  1.7908
 4344SOL     OW24493   0.875   0.700  15.498 -0.0526 -0.4810  0.1200
 4344SOL    HW124494   0.830   0.751  15.566  3.3083  1.5921  0.8202
 4344SOL    HW224495   0.864   0.760  15.424 -2.0110  0.8030  1.4547
 4345SOL     OW24496   3.479   4.615   5.732 -0.2682 -0.0889 -0.0408
 4345SOL    HW124497   3.393   4.575   5.749 -0.1088 -1.1927 -1.8212
 4345SOL    HW224498   3.510   4.653   5.814 -0.5446 -2.4102  1.1304
 4346SOL     OW24499   4.482   1.474   7.299  0.4910  0.0715  0.3394
 4346SOL    HW124500   4.441   1.426   7.371 -3.0227  1.6708 -0.5632
 4346SOL    HW224501   4.504   1.411   7.231  0.5357  1.5399 -0.9964
 4347SOL     OW24502   1.801   2.608   3.411 -0.4880  0.0862  0.4668
 4347SOL    HW124503   1.826   2.685   3.360 -0.3186  0.5959  1.3047
 4347SOL    HW224504   1.707   2.623   3.428 -0.3827  1.0701  0.1841
 4348SOL     OW24505   3.741   4.262  15.598  0.4147  0.4514  0.3847
 4348SOL    HW124506   3.783   4.307  15.525 -0.7653  0.0796 -0.5286
 4348SOL    HW224507   3.731   4.339  15.655 -0.9850  0.0769  0.6489
 4349SOL     OW24508   1.280   1.740   6.734  0.0206  0.0130 -0.4391
 4349SOL    HW124509   1.212   1.770   6.794 -0.4497 -0.6201 -0.6557
 4349SOL    HW224510   1.304   1.821   6.688  1.0108  0.4364  0.8218
 4350SOL     OW24511   4.523   1.507  10.521  0.0122  0.3072 -0.5585
 4350SOL    HW124512   4.474   1.559  10.585 -1.0716 -0.8747 -0.4238
 4350SOL    HW224513   4.589   1.572  10.497  0.7760 -0.6418 -1.0266
 4351SOL     OW24514   4.135   1.532   8.020  0.1501  0.4518  0.3027
 4351SOL    HW124515   4.123   1.480   7.940  3.3114  0.5651 -0.2501
 4351SOL    HW224516   4.059   1.588   8.007  0.7594  0.6705 -2.4428
 4352SOL     OW24517   3.782   0.949   1.364  0.1640 -0.1299 -0.0248
 4352SOL    HW124518   3.688   0.933   1.360  0.3836 -1.8370  1.5760
 4352SOL    HW224519   3.794   0.894   1.442  0.6380 -0.7480 -0.5316
 4353SOL     OW24520   4.034   0.863   6.929 -0.8807  0.2306  0.1630
 4353SOL    HW124521   4.063   0.879   7.018 -1.5217  2.2323  0.0182
 4353SOL    HW224522   4.067   0.937   6.878 -1.0463  1.1469  1.4022
 4354SOL     OW24523   1.776   1.511  15.379 -0.1342 -0.0919  0.7501
 4354SOL    HW124524   1.861   1.520  15.335 -1.2963  2.2395 -1.0049
 4354SOL    HW224525   1.736   1.589  15.341 -1.5134 -0.3692  1.6482
 4355SOL     OW24526   3.495   3.134   8.935 -0.2312 -0.2929  0.4924
 4355SOL    HW124527   3.461   3.133   8.846  1.9826 -0.7041 -0.3387
 4355SOL    HW224528   3.471   3.044   8.959  2.5631 -0.8354  1.2375
 4356SOL     OW24529   1.111   4.149   6.515  0.4778  0.3582 -0.0343
 4356SOL    HW124530   1.052   4.195   6.455  1.3599  0.1030 -1.0965
 4356SOL    HW224531   1.048   4.092   6.560 -0.9136  1.7371 -0.2380
 4357SOL     OW24532   0.790   0.508  17.190 -0.0341  0.0912  0.7641
 4357SOL    HW124533   0.807   0.546  17.104 -0.5787 -1.6450 -0.1145
 4357SOL    HW224534   0.878   0.500  17.228  0.6863 -2.9647 -1.5484
 4358SOL     OW24535   4.303   1.008   9.957  0.1660  0.6162  0.5303
 4358SOL    HW124536   4.215   1.024   9.923  0.1779  2.1446  1.2249
 4358SOL    HW224537   4.353   1.081   9.920 -0.2630 -0.5348 -2.2990
 4359SOL     OW24538   3.585   3.246  15.260 -0.3046  0.3953  0.1433
 4359SOL    HW124539   3.593   3.174  15.198 -2.9507 -0.6439  1.0252
 4359SOL    HW224540   3.562   3.312  15.195  3.1106  0.7944 -0.6914
 4360SOL     OW24541   4.286   3.758  10.090  0.2806 -0.1044 -0.2664
 4360SOL    HW124542   4.288   3.846  10.050 -0.5599  0.2856  0.5454
 4360SOL    HW224543   4.221   3.772  10.159 -0.5708 -0.8010 -0.9307
 4361SOL     OW24544   3.670   0.448   4.344 -0.2371 -0.4097 -0.3376
 4361SOL    HW124545   3.679   0.543   4.344 -1.9024 -0.2377  0.0224
 4361SOL    HW224546   3.599   0.450   4.278 -0.1620 -0.4163 -0.4183
 4362SOL     OW24547   3.220   1.843   6.079  0.4729  0.3104 -0.1733
 4362SOL    HW124548   3.168   1.878   6.151 -0.4707 -0.2079 -0.5981
 4362SOL    HW224549   3.190   1.897   6.005 -0.3324  1.9368  1.3496
 4363SOL     OW24550   1.654   2.129   7.784 -0.0078 -0.2309 -0.2358
 4363SOL    HW124551   1.653   2.108   7.691  1.4022 -0.6162 -0.1627
 4363SOL    HW224552   1.670   2.223   7.786 -0.9793 -0.0349 -2.3154
 4364SOL     OW24553   2.823   0.595  16.018  0.1662 -0.2933 -0.2283
 4364SOL    HW124554   2.767   0.670  16.038 -0.5994 -0.0096 -3.3859
 4364SOL    HW224555   2.900   0.622  16.069 -0.2363  0.6555 -0.1139
 4365SOL     OW24556   1.663   2.289   8.477 -0.2647 -0.3195 -0.9077
 4365SOL    HW124557   1.654   2.204   8.434  0.2017 -0.6683 -0.3025
 4365SOL    HW224558   1.648   2.356   8.410  2.3094 -0.3452 -1.5163
 4366SOL     OW24559   4.016   1.177  13.395  0.1602  0.0536 -0.0915
 4366SOL    HW124560   4.015   1.251  13.335 -0.0869  1.1523  1.2778
 4366SOL    HW224561   3.923   1.158  13.386  0.4316 -1.8150  0.8820
 4367SOL     OW24562   0.535   3.030   2.459 -0.7614  0.0127 -0.0772
 4367SOL    HW124563   0.571   2.979   2.531 -1.0823 -1.4604 -0.9693
 4367SOL    HW224564   0.461   2.981   2.423 -0.8424  2.6602 -3.4797
 4368SOL     OW24565   2.555   1.293   3.348  0.0758  0.0632 -0.0080
 4368SOL    HW124566   2.592   1.314   3.263  0.3447  0.3001  0.1685
 4368SOL    HW224567   2.465   1.323   3.334  0.3200  1.3990  1.3373
 4369SOL     OW24568   2.194   2.845   5.240  0.1583  0.1007  0.0986
 4369SOL    HW124569   2.164   2.894   5.164 -0.1043 -1.5565 -0.8674
 4369SOL    HW224570   2.171   2.902   5.313  2.2383  0.5543  0.3815
 4370SOL     OW24571   2.843   4.386   7.683 -0.4509  0.1965 -0.3449
 4370SOL    HW124572   2.934   4.416   7.691 -0.8946  1.6531 -0.9159
 4370SOL    HW224573   2.796   4.412   7.763 -2.1466  2.0584 -1.9536
 4371SOL     OW24574   4.720   0.787  14.792 -0.2401 -0.2711 -0.2702
 4371SOL    HW124575   4.719   0.882  14.807  0.9457 -0.4165  0.6271
 4371SOL    HW224576   4.720   0.749  14.879 -1.9056  1.0820  0.3255
 4372SOL     OW24577   1.668   4.241  13.107  0.2267  0.3935  0.3017
 4372SOL    HW124578   1.713   4.301  13.166  1.7441 -0.7308  0.2837
 4372SOL    HW224579   1.712   4.247  13.022 -3.9266 -2.2349 -2.0868
 4373SOL     OW24580   3.686   2.942   9.805  0.0458  0.2161 -0.2973
 4373SOL    HW124581   3.616   2.969   9.864 -1.3774 -1.2526 -1.3170
 4373SOL    HW224582   3.678   2.846   9.809 -1.7995  0.4005  0.2756
 4374SOL     OW24583   1.005   3.332  16.126  0.0161 -0.3474  0.3110
 4374SOL    HW124584   1.034   3.401  16.067 -1.1364 -0.6863 -0.6473
 4374SOL    HW224585   1.020   3.368  16.214  1.3740 -1.0331  0.3626
 4375SOL     OW24586   3.331   2.566   6.807 -0.3048 -0.6036 -0.3390
 4375SOL    HW124587   3.423   2.539   6.802 -0.8046 -2.5654  1.1979
 4375SOL    HW224588   3.334   2.614   6.724  1.2077  0.0842  0.1193
 4376SOL     OW24589   1.414   2.217   7.057 -0.7879 -0.3274  0.2862
 4376SOL    HW124590   1.365   2.150   7.106  2.8525 -2.5869  0.8103
 4376SOL    HW224591   1.500   2.185   7.084 -1.1637 -0.2502  1.5942
 4377SOL     OW24592   2.947   1.615   3.073  0.3025 -0.3070 -0.0655
 4377SOL    HW124593   2.909   1.602   2.986 -1.3957 -3.3980  1.1537
 4377SOL    HW224594   2.866   1.579   3.109 -1.2586  1.1624 -2.0774
 4378SOL     OW24595   3.035   2.389   4.365  0.0285  0.4969 -0.5695
 4378SOL    HW124596   3.085   2.307   4.362  2.5943  2.0889 -0.9861
 4378SOL    HW224597   2.962   2.359   4.310 -1.5989  3.0122  0.2484
 4379SOL     OW24598   3.777   1.516  17.385 -0.5031 -0.0459 -0.3097
 4379SOL    HW124599   3.694   1.468  17.385 -1.6901  2.0181 -0.5689
 4379SOL    HW224600   3.749   1.566  17.309  0.2229  0.2569 -0.3792
 4380SOL     OW24601   1.123   4.194   2.933 -0.7613  0.0343  0.3312
 4380SOL    HW124602   1.191   4.218   2.996  0.5688  0.0811 -1.0977
 4380SOL    HW224603   1.046   4.201   2.989 -0.7747 -0.2099  0.3435
 4381SOL     OW24604   1.793   3.021   3.801 -0.2143 -0.3615  0.0244
 4381SOL    HW124605   1.728   2.984   3.740  0.4618  0.1232 -0.9844
 4381SOL    HW224606   1.743   3.007   3.882 -1.3382 -0.6508 -0.7107
 4382SOL     OW24607   1.667   1.711   2.244  0.2340  0.0864  0.1900
 4382SOL    HW124608   1.649   1.620   2.268 -2.1805  0.6625  0.6325
 4382SOL    HW224609   1.606   1.736   2.175  3.2652 -2.0214 -3.2304
 4383SOL     OW24610   3.795   1.156  17.590 -0.6582  0.0140 -0.3566
 4383SOL    HW124611   3.795   1.061  17.586 -1.1510 -0.0303  0.5255
 4383SOL    HW224612   3.790   1.178  17.497  1.9703  0.2067 -0.4524
 4384SOL     OW24613   1.633   2.499  12.390  0.7460  0.2007 -0.3409
 4384SOL    HW124614   1.698   2.457  12.447  2.9530  1.1394 -2.1892
 4384SOL    HW224615   1.558   2.519  12.447 -0.4192 -0.0819 -1.7862
 4385SOL     OW24616   4.681   1.502  14.899  0.3177 -0.6712  0.3240
 4385SOL    HW124617   0.050   1.514  14.918  0.5466 -0.1858 -1.0912
 4385SOL    HW224618   4.661   1.594  14.917  0.6818 -0.7620  1.1688
 4386SOL     OW24619   1.871   0.041   6.927  1.0539  0.2253  0.1212
 4386SOL    HW124620   1.883   4.684   6.877  0.1199 -0.0898  0.4044
 4386SOL    HW224621   1.915   0.104   6.871 -0.6285  2.8664  1.7968
 4387SOL     OW24622   1.528   0.677   6.312  0.2561 -0.3732 -0.1286
 4387SOL    HW124623   1.576   0.595   6.318 -2.6844 -2.0213  0.6883
 4387SOL    HW224624   1.463   0.661   6.380  0.7632  2.3320  0.9829
 4388SOL     OW24625   0.841   4.656   6.696 -0.3635 -0.2581  0.0508
 4388SOL    HW124626   0.917   4.599   6.681  1.5453  2.0415  0.9310
 4388SOL    HW224627   0.810   4.615   6.776  0.9823  0.7999  1.1036
 4389SOL     OW24628   3.455   1.002  14.633  0.0100  0.5583  0.4220
 4389SOL    HW124629   3.413   0.956  14.706  2.2929  0.2266  1.5291
 4389SOL    HW224630   3.531   1.038  14.679 -0.3312  2.2890 -0.3655
 4390SOL     OW24631   3.169   3.213  10.722  0.0296 -0.5587 -0.2328
 4390SOL    HW124632   3.154   3.119  10.712  1.7611 -0.9873  1.2087
 4390SOL    HW224633   3.146   3.233  10.813  2.3437  2.8745 -0.4258
 4391SOL     OW24634   1.746   2.190   6.687  0.7036 -0.3465  0.0571
 4391SOL    HW124635   1.654   2.199   6.661  0.7442  1.0442  0.3836
 4391SOL    HW224636   1.729   2.136   6.765  0.5963  1.1386  1.0661
 4392SOL     OW24637   1.516   1.789  16.526 -0.0466  0.0068  0.2292
 4392SOL    HW124638   1.493   1.718  16.587 -1.7413  1.2151  0.9665
 4392SOL    HW224639   1.611   1.794  16.541  0.0063  1.4703 -0.6659
 4393SOL     OW24640   3.801   3.150  10.118  0.5779  0.3455 -0.1095
 4393SOL    HW124641   3.872   3.119  10.174  2.0397  2.5756 -0.7350
 4393SOL    HW224642   3.788   3.077  10.057 -0.3107  1.4813 -1.2800
 4394SOL     OW24643   4.157   0.773   1.103  0.3979  0.6429  0.1567
 4394SOL    HW124644   4.172   0.768   1.197  0.4234 -1.2511  0.0522
 4394SOL    HW224645   4.231   0.722   1.069 -0.5292  0.4547 -1.5961
 4395SOL     OW24646   3.622   2.229  11.675 -0.2335 -0.6193 -0.2872
 4395SOL    HW124647   3.604   2.148  11.723  0.5381 -0.7436 -0.2110
 4395SOL    HW224648   3.582   2.211  11.590  1.1721  0.4583 -1.1771
 4396SOL     OW24649   2.300   2.318   7.945 -0.2550  0.4288 -0.7458
 4396SOL    HW124650   2.236   2.389   7.944  0.0951  0.7663  0.7284
 4396SOL    HW224651   2.265   2.265   7.873 -0.6217 -2.3495  1.4554
 4397SOL     OW24652   4.031   1.399   7.788  0.2047  0.5225 -0.4838
 4397SOL    HW124653   3.998   1.443   7.710  0.4996 -0.2262 -1.0353
 4397SOL    HW224654   4.093   1.341   7.744  0.3172 -0.1505  0.5521
 4398SOL     OW24655   1.548   2.582   3.856 -0.2345 -0.1053 -0.7674
 4398SOL    HW124656   1.622   2.621   3.811 -0.9646  1.0772 -0.9425
 4398SOL    HW224657   1.525   2.657   3.911  0.5200  0.9332 -1.8723
 4399SOL     OW24658   1.678   0.292   5.804  0.0704  0.2347  0.4796
 4399SOL    HW124659   1.690   0.380   5.767 -1.7836 -0.5875 -2.0789
 4399SOL    HW224660   1.650   0.308   5.894  3.1234  1.1142  1.2521
 4400SOL     OW24661   2.054   1.762   3.329 -0.2595  0.1193  0.2156
 4400SOL    HW124662   1.963   1.785   3.349 -0.0604  0.4631  0.7380
 4400SOL    HW224663   2.060   1.766   3.234 -2.4210 -1.6269  0.0045
 4401SOL     OW24664   3.415   4.371  10.126 -0.0811 -0.0551 -1.0312
 4401SOL    HW124665   3.449   4.325  10.203 -0.7849 -0.5124 -1.0060
 4401SOL    HW224666   3.469   4.450  10.136 -1.2771  0.7978 -1.3862
 4402SOL     OW24667   0.510   3.497   2.259 -0.4735  0.1059 -0.3366
 4402SOL    HW124668   0.430   3.452   2.286 -0.7438  0.5907 -0.3216
 4402SOL    HW224669   0.573   3.431   2.231 -1.1099  0.2273 -2.0323
 4403SOL     OW24670   2.096   1.839  14.706  0.6996  0.2734 -0.4152
 4403SOL    HW124671   2.044   1.918  14.723  1.4118  1.3797 -3.2877
 4403SOL    HW224672   2.080   1.790  14.787 -1.4184  1.1767 -0.2866
 4404SOL     OW24673   4.460   4.223   7.544 -0.5595 -0.1154  0.2027
 4404SOL    HW124674   4.385   4.277   7.572 -0.8299 -0.5275  0.2716
 4404SOL    HW224675   4.533   4.284   7.554  2.0069 -2.9429 -1.3146
 4405SOL     OW24676   0.997   4.246   4.621 -0.2800  0.2212  0.5670
 4405SOL    HW124677   0.955   4.193   4.689  0.5667 -0.6137  0.4325
 4405SOL    HW224678   0.925   4.302   4.591  0.4177  0.7236 -0.1776
 4406SOL     OW24679   1.794   0.965   4.582  0.4186 -0.5747 -0.2853
 4406SOL    HW124680   1.745   1.045   4.604  1.1552  0.0766 -1.0126
 4406SOL    HW224681   1.836   0.940   4.664  0.7988  1.2798  0.0862
 4407SOL     OW24682   1.415   1.873  11.279 -0.0625 -0.4697  0.1987
 4407SOL    HW124683   1.325   1.840  11.273  0.1863 -1.2183  0.6326
 4407SOL    HW224684   1.462   1.795  11.309  2.3065 -0.1337 -2.5920
 4408SOL     OW24685   3.876   2.946   5.530  0.3765  0.2294  0.6084
 4408SOL    HW124686   3.878   3.003   5.607  0.6808  1.4201 -0.2815
 4408SOL    HW224687   3.957   2.975   5.488 -0.9096  0.2589 -1.8354
 4409SOL     OW24688   4.103   3.060   7.270  0.0744  0.0533  0.4244
 4409SOL    HW124689   4.061   3.103   7.345  0.3133  2.7346 -0.9638
 4409SOL    HW224690   4.028   3.032   7.217  0.9064 -0.7486 -0.3109
 4410SOL     OW24691   1.933   0.185   4.247  0.1576  0.5224 -0.1103
 4410SOL    HW124692   1.906   0.095   4.264 -2.1114  1.2318  0.1704
 4410SOL    HW224693   1.884   0.215   4.170 -1.8023  0.4295  1.0833
 4411SOL     OW24694   3.929   2.863  10.166 -0.8161 -0.0067 -0.7237
 4411SOL    HW124695   3.944   2.894  10.077 -1.9625  0.7991 -0.6335
 4411SOL    HW224696   4.014   2.818  10.170  0.0119  1.7021  0.4531
 4412SOL     OW24697   3.772   3.126   3.762 -0.7722  0.3352  0.1018
 4412SOL    HW124698   3.837   3.158   3.698 -0.3365  0.6557  0.7013
 4412SOL    HW224699   3.694   3.140   3.708 -1.4272  1.0328  1.2251
 4413SOL     OW24700   0.708   2.968  14.540 -0.6178  0.0782  0.2172
 4413SOL    HW124701   0.733   2.914  14.614  2.2398 -1.6809 -2.0382
 4413SOL    HW224702   0.726   2.905  14.470  0.1583 -0.6292  1.0691
 4414SOL     OW24703   3.145   3.961  15.492 -0.0417 -0.1626 -0.3151
 4414SOL    HW124704   3.195   4.040  15.472 -0.6013  0.4768  0.8002
 4414SOL    HW224705   3.164   3.901  15.421  0.6854  0.6228 -0.7833
 4415SOL     OW24706   1.749   4.428   7.324 -0.4116  0.3584 -0.4026
 4415SOL    HW124707   1.716   4.495   7.264 -3.0452 -1.2989 -0.8039
 4415SOL    HW224708   1.719   4.465   7.407  0.6658  0.6807 -0.1565
 4416SOL     OW24709   2.640   4.154   0.389  0.0376  0.4115  0.5303
 4416SOL    HW124710   2.622   4.200   0.471 -1.3435  0.4993  0.1773
 4416SOL    HW224711   2.735   4.145   0.393  0.1408  1.0890 -0.3926
 4417SOL     OW24712   4.064   1.926   7.739 -0.1969  0.9422  0.3091
 4417SOL    HW124713   3.970   1.915   7.721  0.2811  0.8481 -2.1861
 4417SOL    HW224714   4.090   1.846   7.694  0.3222  1.1248  0.2936
 4418SOL     OW24715   1.650   0.648   5.424 -0.3338  0.2263 -0.5849
 4418SOL    HW124716   1.578   0.667   5.485 -0.6267 -2.2686 -0.1570
 4418SOL    HW224717   1.716   0.688   5.481 -1.3982 -0.9946  1.5270
 4419SOL     OW24718   1.228   2.038  10.623 -0.1088 -0.4938  0.2078
 4419SOL    HW124719   1.133   2.026  10.620 -0.2253 -0.3546  2.7154
 4419SOL    HW224720   1.244   2.010  10.714 -0.3670 -3.1982 -0.5907
 4420SOL     OW24721   3.024   3.517  13.515  0.7259  0.4184  0.2717
 4420SOL    HW124722   2.973   3.592  13.544 -0.8204 -0.3851 -0.3574
 4420SOL    HW224723   3.010   3.451  13.583  0.8992 -0.6044 -0.6842
 4421SOL     OW24724   0.852   0.849   1.926  0.1433  0.4494  0.1313
 4421SOL    HW124725   0.858   0.862   2.020  0.4264  0.7416  0.0718
 4421SOL    HW224726   0.858   0.753   1.921 -0.2940  0.4329 -0.0614
 4422SOL     OW24727   3.677   2.792   5.093  0.2350 -0.0082 -0.2716
 4422SOL    HW124728   3.603   2.751   5.138  0.6009 -0.0400  0.3043
 4422SOL    HW224729   3.638   2.819   5.010 -1.5361  0.4154  0.6876
 4423SOL     OW24730   0.575   2.141  11.872 -0.0726  0.4545 -0.5929
 4423SOL    HW124731   0.567   2.122  11.778  0.0713 -0.7771 -0.3526
 4423SOL    HW224732   0.563   2.236  11.869 -0.7399  0.4043  0.5233
 4424SOL     OW24733   2.348   3.051  16.120 -0.4764  0.1924 -0.5170
 4424SOL    HW124734   2.337   3.072  16.212  1.5503  1.5264 -0.5776
 4424SOL    HW224735   2.385   3.136  16.095  2.1936 -0.8611 -0.1569
 4425SOL     OW24736   2.540   1.323  15.688 -0.3033  0.0517  0.2778
 4425SOL    HW124737   2.580   1.255  15.635 -1.6503 -0.8746  0.4538
 4425SOL    HW224738   2.477   1.368  15.631 -0.5852  0.1264  0.6488
 4426SOL     OW24739   4.619   1.231  13.461 -0.1681 -0.2666  0.2320
 4426SOL    HW124740   4.651   1.198  13.545  2.4088 -0.1276 -0.7142
 4426SOL    HW224741   4.528   1.200  13.468  0.3430 -2.0152 -0.9122
 4427SOL     OW24742   2.514   1.376   7.446 -0.3274  0.5051  0.4937
 4427SOL    HW124743   2.593   1.408   7.488 -0.9503 -1.4501  3.1318
 4427SOL    HW224744   2.454   1.450   7.453 -1.8465 -0.5756 -0.8040
 4428SOL     OW24745   1.400   4.575   1.207 -0.1995 -0.0026  0.6691
 4428SOL    HW124746   1.417   4.653   1.260 -1.0806  1.5117 -1.2504
 4428SOL    HW224747   1.400   4.614   1.119 -1.9696 -0.3466  0.5174
 4429SOL     OW24748   4.591   3.998   7.439  0.1568  0.0767 -0.8541
 4429SOL    HW124749   4.517   3.945   7.408  0.4018 -1.2671  0.8169
 4429SOL    HW224750   4.542   4.080   7.441 -1.4344 -0.8773 -0.3286
 4430SOL     OW24751   2.170   1.692   7.138 -0.1078 -0.2819  0.5891
 4430SOL    HW124752   2.100   1.724   7.082 -1.5959  1.7839  3.5762
 4430SOL    HW224753   2.247   1.674   7.084 -1.7622 -1.2321 -1.4572
 4431SOL     OW24754   3.982   0.427   8.019 -0.1207 -0.1818 -0.2941
 4431SOL    HW124755   3.991   0.483   7.942 -0.7913 -0.8206 -0.8407
 4431SOL    HW224756   4.075   0.420   8.041  0.0667 -1.1932 -1.4144
 4432SOL     OW24757   1.476   0.579   0.585 -0.4244  0.2330 -0.7363
 4432SOL    HW124758   1.430   0.652   0.628 -2.3364 -2.6852  2.1688
 4432SOL    HW224759   1.423   0.503   0.610 -1.5497  1.4203  0.5657
 4433SOL     OW24760   3.300   4.219   8.036 -0.6952  0.6843 -0.2747
 4433SOL    HW124761   3.212   4.201   8.068 -0.4180 -0.0223  0.0846
 4433SOL    HW224762   3.310   4.142   7.979 -1.0267  0.4044  0.0479
 4434SOL     OW24763   4.254   4.391   4.667 -0.3354  0.0860 -0.8768
 4434SOL    HW124764   4.277   4.475   4.706  0.4576 -0.1943 -0.7416
 4434SOL    HW224765   4.190   4.359   4.731 -0.9005  1.9466 -0.4925
 4435SOL     OW24766   3.826   0.590   5.084  0.2021 -0.0828  0.1854
 4435SOL    HW124767   3.768   0.568   5.158  1.2038  1.9510  1.5714
 4435SOL    HW224768   3.888   0.517   5.075 -0.0346 -0.3005  0.2976
 4436SOL     OW24769   2.880   3.571  12.810  0.1501  0.0696 -0.1799
 4436SOL    HW124770   2.800   3.518  12.803 -0.4543  0.8754  0.6036
 4436SOL    HW224771   2.848   3.659  12.827 -3.0407 -1.3237  1.2710
 4437SOL     OW24772   1.996   0.391   2.273  0.1671 -0.0553 -0.2818
 4437SOL    HW124773   1.983   0.477   2.231 -0.1922 -0.0015 -0.0602
 4437SOL    HW224774   2.005   0.347   2.189 -0.3084 -1.0932  0.2149
 4438SOL     OW24775   2.179   0.554  11.208  0.2122  0.0611 -0.1688
 4438SOL    HW124776   2.157   0.517  11.123  1.0972  0.6740 -0.6675
 4438SOL    HW224777   2.195   0.644  11.180  1.3907  0.3407  1.3549
 4439SOL     OW24778   3.143   2.758   0.781 -0.3595 -0.2468 -0.2107
 4439SOL    HW124779   3.060   2.729   0.820 -0.9247 -1.5124 -2.3601
 4439SOL    HW224780   3.161   2.675   0.738  0.6379  0.2029 -0.6641
 4440SOL     OW24781   1.728   0.548   5.775  0.9031 -0.1716 -0.6565
 4440SOL    HW124782   1.735   0.643   5.765 -0.5847 -0.0940 -1.0483
 4440SOL    HW224783   1.708   0.543   5.868  0.0996  2.3979 -0.6893
 4441SOL     OW24784   0.065   1.255   0.643 -0.4939  0.6806  0.5142
 4441SOL    HW124785   0.128   1.266   0.572  1.9389 -0.7713  2.4575
 4441SOL    HW224786   0.010   1.183   0.615 -0.0057  1.0850 -1.4773
 4442SOL     OW24787   2.815   2.787   4.642  0.1773  0.1834  0.1626
 4442SOL    HW124788   2.750   2.721   4.667 -0.2851  0.0999 -1.2540
 4442SOL    HW224789   2.795   2.851   4.710 -0.1965  0.8457 -0.5784
 4443SOL     OW24790   1.252   3.969   5.303 -0.7329  0.0557 -0.3843
 4443SOL    HW124791   1.219   3.969   5.213  1.9224 -0.3264 -1.3773
 4443SOL    HW224792   1.324   3.906   5.295 -1.1516 -0.4622 -0.0547
 4444SOL     OW24793   3.152   0.440   6.649 -0.1600 -0.2489  0.0662
 4444SOL    HW124794   3.076   0.415   6.700  1.0495  2.1151  3.0181
 4444SOL    HW224795   3.183   0.360   6.606 -1.2485 -1.1634  1.0000
 4445SOL     OW24796   3.926   1.527   3.579 -0.9108 -0.6466 -0.3435
 4445SOL    HW124797   3.892   1.609   3.616  0.9799  0.8519 -1.8862
 4445SOL    HW224798   3.840   1.494   3.552 -1.3251  0.6687 -0.6694
 4446SOL     OW24799   0.795   2.400   4.239  0.1582  0.3112  0.2885
 4446SOL    HW124800   0.793   2.378   4.145  0.1830  2.8704 -0.3141
 4446SOL    HW224801   0.777   2.312   4.272 -0.5766  0.4132  0.1700
 4447SOL     OW24802   4.260   1.379  13.493 -0.0206 -0.5564 -0.3183
 4447SOL    HW124803   4.295   1.292  13.474  2.5158  0.5463 -0.7247
 4447SOL    HW224804   4.343   1.423  13.472 -0.3100 -1.2803 -2.9554
 4448SOL     OW24805   2.871   0.729  13.697 -0.7398  0.8164  0.1019
 4448SOL    HW124806   2.925   0.717  13.774  0.3805  0.2349 -0.7778
 4448SOL    HW224807   2.822   0.807  13.725 -1.7315 -0.0129  0.6978
 4449SOL     OW24808   1.964   1.201   0.754  0.0048 -0.1062  0.1873
 4449SOL    HW124809   1.906   1.150   0.697  3.3529 -2.2702 -1.2533
 4449SOL    HW224810   1.937   1.292   0.749 -1.5959 -0.4912  1.5334
 4450SOL     OW24811   0.278   2.511   0.339  0.2641 -0.4630  0.0897
 4450SOL    HW124812   0.223   2.440   0.373 -0.6544  0.0019 -0.4196
 4450SOL    HW224813   0.228   2.588   0.365  2.0544  0.3918  0.9442
 4451SOL     OW24814   1.778   1.037   8.635  0.4116  0.2696  0.2447
 4451SOL    HW124815   1.816   1.097   8.700  0.2867  0.1183  0.4595
 4451SOL    HW224816   1.763   0.962   8.693  0.8637 -0.0172 -0.0027
 4452SOL     OW24817   3.887   2.681  11.417 -0.7373 -0.1514  0.4248
 4452SOL    HW124818   3.962   2.626  11.438 -0.2130  1.1519  1.9522
 4452SOL    HW224819   3.837   2.619  11.363  0.3508 -1.2282  0.6550
 4453SOL     OW24820   1.728   2.740  10.285  0.3471  0.0112 -0.2982
 4453SOL    HW124821   1.797   2.678  10.308 -0.6074 -1.2533 -0.9127
 4453SOL    HW224822   1.780   2.821  10.284 -0.1210  0.3123  0.1615
 4454SOL     OW24823   1.316   1.820   4.293 -0.1906 -0.3938  0.6943
 4454SOL    HW124824   1.321   1.826   4.197 -3.4196 -1.4598  0.4609
 4454SOL    HW224825   1.406   1.843   4.316  0.3329  1.1521 -2.8989
 4455SOL     OW24826   0.248   4.529  14.008  0.7049 -0.1020  0.3316
 4455SOL    HW124827   0.286   4.451  14.049  1.5591  0.7374  1.1440
 4455SOL    HW224828   0.245   4.588  14.084  5.6007 -0.6038  0.9197
 4456SOL     OW24829   1.178   0.753  10.602  0.3192 -0.3093 -0.0518
 4456SOL    HW124830   1.223   0.837  10.612 -0.1279 -0.0712 -0.0732
 4456SOL    HW224831   1.102   0.792  10.559  0.3881  2.2815  2.1753
 4457SOL     OW24832   1.437   0.176   5.677  0.0025  0.2770 -0.4251
 4457SOL    HW124833   1.427   0.267   5.652 -2.6587  1.1286  3.6828
 4457SOL    HW224834   1.527   0.181   5.709 -0.8042 -1.5208  2.2159
 4458SOL     OW24835   0.557   2.084  11.176  0.4234  0.6532 -0.0945
 4458SOL    HW124836   0.588   2.034  11.101  0.7528  1.2449 -0.3534
 4458SOL    HW224837   0.633   2.112  11.227 -0.8928  0.7546  1.8365
 4459SOL     OW24838   3.443   3.357   4.701 -0.1916  0.2250  0.3798
 4459SOL    HW124839   3.473   3.397   4.619 -3.9287 -1.1883 -1.7212
 4459SOL    HW224840   3.510   3.290   4.711  0.3767  0.2211 -3.2148
 4460SOL     OW24841   0.481   4.513   9.835  0.3838  0.6904 -0.4276
 4460SOL    HW124842   0.407   4.456   9.855  0.1922  1.7049  1.7422
 4460SOL    HW224843   0.452   4.585   9.891 -0.0035  2.9715 -3.5375
 4461SOL     OW24844   0.347   1.781   8.877 -0.2193 -0.0406 -0.8611
 4461SOL    HW124845   0.402   1.723   8.931 -0.5591  0.3805 -0.0580
 4461SOL    HW224846   0.420   1.805   8.821  0.4991  0.6864  0.3888
 4462SOL     OW24847   2.938   3.011   7.435  0.2613  0.7753 -0.2749
 4462SOL    HW124848   2.871   3.072   7.465 -0.7518  0.1263 -1.1873
 4462SOL    HW224849   2.960   3.044   7.348  0.7339  0.2715 -0.3511
 4463SOL     OW24850   2.233   0.902  15.835  0.3335 -0.5038  0.6119
 4463SOL    HW124851   2.315   0.913  15.786  0.6805 -2.5762  0.6989
 4463SOL    HW224852   2.224   0.971  15.901  0.3338  0.3453 -0.2759
 4464SOL     OW24853   2.063   2.975  16.103  0.1015 -0.1343 -0.0049
 4464SOL    HW124854   2.148   3.018  16.118  0.3327 -0.7020  0.2960
 4464SOL    HW224855   2.087   2.883  16.090  1.3166  0.0012  1.2791
 4465SOL     OW24856   0.638   1.342   6.711  0.0216 -0.3697 -0.1429
 4465SOL    HW124857   0.672   1.333   6.800  0.1670  0.7807 -0.0872
 4465SOL    HW224858   0.664   1.433   6.699  0.5884 -0.1640  2.7017
 4466SOL     OW24859   3.998   2.118   8.132  0.1302 -0.2144  1.1485
 4466SOL    HW124860   4.030   2.206   8.152  0.8609 -1.2218  4.3023
 4466SOL    HW224861   3.941   2.090   8.203 -0.7679 -0.6580  0.2584
 4467SOL     OW24862   3.920   2.936   7.038 -0.2340  0.6889  0.6485
 4467SOL    HW124863   4.003   2.925   6.990 -2.4189 -1.5881 -2.5769
 4467SOL    HW224864   3.913   3.031   7.035 -1.5634  0.5697  0.2128
 4468SOL     OW24865   3.473   2.468   8.855  0.2883  0.3557  0.0998
 4468SOL    HW124866   3.398   2.459   8.797  0.0582  0.4043  0.3940
 4468SOL    HW224867   3.543   2.498   8.796 -0.1235 -0.1269 -0.6409
 4469SOL     OW24868   3.305   3.581   8.594  0.1074 -0.4918  0.5564
 4469SOL    HW124869   3.269   3.606   8.679  0.3891 -2.0185  1.1123
 4469SOL    HW224870   3.397   3.583   8.618  0.1116 -2.2880  0.6504
 4470SOL     OW24871   1.433   2.097   3.230 -0.5106 -0.1740  0.0674
 4470SOL    HW124872   1.385   2.176   3.205 -1.0006 -0.3139  0.5655
 4470SOL    HW224873   1.522   2.096   3.194 -1.0888  0.3181 -1.3644
 4471SOL     OW24874   3.061   1.560   1.891  0.5967 -0.0049  0.0368
 4471SOL    HW124875   3.044   1.495   1.959  2.2568  1.2149  1.6319
 4471SOL    HW224876   2.977   1.603   1.876  0.4060 -0.2286  0.4563
 4472SOL     OW24877   1.589   1.480   8.143  0.3993 -0.0364  0.0780
 4472SOL    HW124878   1.623   1.550   8.087  2.3972 -0.4766  0.7295
 4472SOL    HW224879   1.537   1.535   8.202  1.2507  0.6803  0.1625
 4473SOL     OW24880   3.895   0.570   7.540 -0.1789 -0.2387 -0.1453
 4473SOL    HW124881   3.820   0.629   7.552  1.0652  1.1099  1.1058
 4473SOL    HW224882   3.849   0.486   7.538  0.7668 -0.7928  1.7356
 4474SOL     OW24883   4.170   1.808   1.318 -0.0966 -0.0108 -0.3422
 4474SOL    HW124884   4.249   1.816   1.370 -1.4976  0.1349  1.7817
 4474SOL    HW224885   4.108   1.752   1.365  1.0832 -0.9902  0.0095
 4475SOL     OW24886   0.246   4.194  11.289 -0.1059 -0.2157  0.2304
 4475SOL    HW124887   0.337   4.208  11.264 -0.3100  1.0839  0.2336
 4475SOL    HW224888   0.268   4.161  11.376 -3.9637  0.2747  1.4142
 4476SOL     OW24889   4.662   1.283  10.804 -0.1151  0.5384 -0.6708
 4476SOL    HW124890   4.636   1.208  10.858 -0.9936  1.1566 -0.2429
 4476SOL    HW224891   0.023   1.257  10.770 -0.5012 -1.2132 -0.2977
 4477SOL     OW24892   0.765   3.283   7.645 -0.1210 -0.9320  0.3456
 4477SOL    HW124893   0.757   3.350   7.576  0.7686 -0.6348  0.5321
 4477SOL    HW224894   0.780   3.341   7.720 -1.6413 -0.6585  0.4536
 4478SOL     OW24895   4.057   1.414   0.901 -0.6063 -0.5876  0.1686
 4478SOL    HW124896   4.048   1.359   0.979  2.5616  1.7089  2.1217
 4478SOL    HW224897   3.968   1.410   0.866 -0.4970 -2.1002  0.0762
 4479SOL     OW24898   3.281   0.673   3.824 -0.0597 -0.1726 -0.4452
 4479SOL    HW124899   3.202   0.624   3.802 -2.4610  3.2090  0.7504
 4479SOL    HW224900   3.310   0.690   3.735  1.5883 -0.2985  0.0701
 4480SOL     OW24901   1.121   4.041  17.155  0.4750  0.7287 -0.2323
 4480SOL    HW124902   1.152   3.954  17.181 -1.1054  0.1789 -0.1520
 4480SOL    HW224903   1.027   4.029  17.170  0.2456  1.5084 -1.0283
 4481SOL     OW24904   0.663   4.356   7.866  0.1834  0.2168  0.5430
 4481SOL    HW124905   0.604   4.341   7.792 -0.0664 -0.1125  0.8101
 4481SOL    HW224906   0.678   4.265   7.892  0.6789  0.5794  1.5013
 4482SOL     OW24907   4.139   3.179   0.303  0.7708 -0.1467 -0.1498
 4482SOL    HW124908   4.088   3.212   0.376 -2.3240 -0.7999 -2.0005
 4482SOL    HW224909   4.086   3.231   0.242 -0.5334 -0.8572  0.3676
 4483SOL     OW24910   1.090   2.518   3.808 -0.0605 -0.8246 -0.3792
 4483SOL    HW124911   1.067   2.456   3.738  1.2830 -0.0632 -1.4805
 4483SOL    HW224912   1.153   2.579   3.770 -0.0493 -2.4818 -3.0179
 4484SOL     OW24913   0.679   3.267   4.480 -0.1571 -0.5600 -0.2956
 4484SOL    HW124914   0.723   3.291   4.399  0.1706  2.3054  0.7591
 4484SOL    HW224915   0.631   3.185   4.465 -0.4748 -0.6574  1.1908
 4485SOL     OW24916   1.796   1.558   1.686  0.1616 -0.2640  0.4739
 4485SOL    HW124917   1.723   1.603   1.730 -0.4196  0.2084 -0.9640
 4485SOL    HW224918   1.815   1.625   1.620 -2.7781 -2.6143 -2.7574
 4486SOL     OW24919   2.168   4.357  10.408  0.2471 -0.4231  0.5349
 4486SOL    HW124920   2.135   4.267  10.400  1.9540 -0.9649 -0.5282
 4486SOL    HW224921   2.110   4.399  10.471 -2.5751 -0.0794 -2.3017
 4487SOL     OW24922   2.645   1.686  17.222 -0.2256  0.3139 -0.4683
 4487SOL    HW124923   2.656   1.781  17.228 -0.7429  0.3972 -0.8295
 4487SOL    HW224924   2.736   1.660  17.208  0.5378  1.7956  1.7469
 4488SOL     OW24925   3.773   0.425   3.486  0.8935  0.3038  0.4861
 4488SOL    HW124926   3.746   0.465   3.568 -0.8234  2.3308 -1.0766
 4488SOL    HW224927   3.746   0.494   3.426  0.9284  1.9820  2.4148
 4489SOL     OW24928   3.176   1.593   5.657 -0.3171 -0.2336 -0.4938
 4489SOL    HW124929   3.156   1.685   5.641  0.5619  0.2136  0.9058
 4489SOL    HW224930   3.272   1.597   5.656 -0.3055  0.4364  2.4970
 4490SOL     OW24931   1.274   4.697   7.044 -0.2836 -0.3485  0.3063
 4490SOL    HW124932   1.291   0.050   7.097 -1.7415 -1.5761  2.5391
 4490SOL    HW224933   1.244   0.014   6.962  1.4802 -0.5937 -0.4635
 4491SOL     OW24934   1.743   0.816   5.823 -0.4437  0.0447 -0.4434
 4491SOL    HW124935   1.832   0.840   5.850 -0.9976  0.3136  1.1433
 4491SOL    HW224936   1.686   0.886   5.855 -0.6429 -0.0609 -0.5670
 4492SOL     OW24937   2.584   0.112   4.883  0.2571  0.0798  0.0384
 4492SOL    HW124938   2.671   0.135   4.850  2.0011 -1.8929  3.1893
 4492SOL    HW224939   2.539   0.196   4.881 -0.1377 -0.1846 -2.2021
 4493SOL     OW24940   4.151   3.041   1.197  0.3444  0.1139 -0.1815
 4493SOL    HW124941   4.223   3.017   1.138 -0.6412  0.8918 -1.6897
 4493SOL    HW224942   4.100   3.097   1.140  0.4824  1.5661  1.1364
 4494SOL     OW24943   2.962   2.384   3.662 -0.3428  0.0491  0.4113
 4494SOL    HW124944   3.026   2.421   3.601  1.3709 -1.3901  1.3354
 4494SOL    HW224945   3.007   2.305   3.691  0.0373 -0.3664 -1.2966
 4495SOL     OW24946   3.083   4.305  13.233 -0.2028  0.2093  0.0600
 4495SOL    HW124947   3.070   4.311  13.139  0.7693  1.8215  0.0364
 4495SOL    HW224948   3.111   4.214  13.243  0.3629  0.0212 -3.2484
 4496SOL     OW24949   0.772   2.343   4.947  0.3461  0.2959  0.1313
 4496SOL    HW124950   0.719   2.376   4.875  1.1361 -0.0623 -0.6138
 4496SOL    HW224951   0.840   2.409   4.955 -0.3565  0.9626  0.6284
 4497SOL     OW24952   1.080   2.350  17.318  0.2412 -0.2173 -0.2130
 4497SOL    HW124953   1.053   2.371  17.408 -0.5441  0.9419 -0.7137
 4497SOL    HW224954   1.093   2.437  17.281 -0.7549 -1.6965 -3.9655
 4498SOL     OW24955   3.297   2.803  14.844 -0.1385 -0.2849  0.2005
 4498SOL    HW124956   3.252   2.885  14.820  0.9776  0.4326  0.5381
 4498SOL    HW224957   3.242   2.743  14.794 -0.5800  0.7286 -0.5388
 4499SOL     OW24958   1.383   4.434   1.564 -0.1473  0.3601 -0.3901
 4499SOL    HW124959   1.426   4.517   1.586  0.5702 -0.0213 -0.3568
 4499SOL    HW224960   1.447   4.377   1.605 -0.3634 -0.1722 -0.7978
 4500SOL     OW24961   1.308   4.303   3.112 -0.3367  0.1982  0.5601
 4500SOL    HW124962   1.305   4.393   3.082 -2.2647  0.0639  0.3684
 4500SOL    HW224963   1.372   4.318   3.182 -0.0998 -0.2042  0.4323
 4501SOL     OW24964   0.430   4.657  10.462  0.0839  0.3497  0.1550
 4501SOL    HW124965   0.438   4.632  10.369  3.6428  2.1339 -0.0443
 4501SOL    HW224966   0.424   4.573  10.506 -0.5258  0.7086  0.7406
 4502SOL     OW24967   0.895   4.433   7.700  0.0066  0.2680  0.5085
 4502SOL    HW124968   0.814   4.389   7.673  0.2555  1.5899 -2.3686
 4502SOL    HW224969   0.860   4.515   7.735 -1.0518  0.3199 -0.7041
 4503SOL     OW24970   3.148   4.458  10.012  0.1835  0.2108 -0.2735
 4503SOL    HW124971   3.067   4.410  10.028  0.1090  1.7616  4.0642
 4503SOL    HW224972   3.214   4.397  10.046 -0.0638  0.7353  1.1586
 4504SOL     OW24973   0.325   3.822   4.790  0.2224 -0.8020 -0.6571
 4504SOL    HW124974   0.239   3.834   4.830  1.7041  3.5697  1.3067
 4504SOL    HW224975   0.320   3.897   4.731  1.7913 -0.7562 -0.7425
 4505SOL     OW24976   3.205   3.606   9.656  0.1185 -0.4968 -0.3525
 4505SOL    HW124977   3.123   3.655   9.657  0.5701  0.2956 -2.9379
 4505SOL    HW224978   3.215   3.583   9.564  0.5643 -1.9774  0.0558
 4506SOL     OW24979   0.340   1.265   9.844  0.3369  0.3029  0.1989
 4506SOL    HW124980   0.414   1.236   9.898  0.1126 -0.2859  0.1881
 4506SOL    HW224981   0.354   1.360   9.851 -0.0661  0.5178 -1.9925
 4507SOL     OW24982   3.947   3.024   6.340 -0.0210  0.2635 -0.1247
 4507SOL    HW124983   3.885   3.058   6.276  0.8125  3.0445  0.5191
 4507SOL    HW224984   3.946   2.931   6.317 -0.6114  0.1316  0.4427
 4508SOL     OW24985   3.094   2.770   5.711  0.2311  0.5066 -0.1473
 4508SOL    HW124986   3.112   2.730   5.796  1.7854 -1.7377 -1.5622
 4508SOL    HW224987   3.180   2.784   5.672  0.0521  1.0275 -0.3569
 4509SOL     OW24988   2.972   2.900  16.471  0.0869  0.2900 -0.0505
 4509SOL    HW124989   3.012   2.985  16.490  1.3034 -0.9232  2.8207
 4509SOL    HW224990   2.905   2.894  16.540  0.7718  0.7175  0.6451
 4510SOL     OW24991   0.615   2.030   4.050  0.2514 -0.5672 -0.2382
 4510SOL    HW124992   0.623   1.948   4.099  0.2973 -0.8584 -0.7285
 4510SOL    HW224993   0.639   2.000   3.962 -0.4732 -0.2897 -0.5250
 4511SOL     OW24994   1.762   4.031  11.066 -0.1932  0.2798 -0.9276
 4511SOL    HW124995   1.836   4.038  11.127 -0.8263  3.1579 -0.5051
 4511SOL    HW224996   1.807   4.069  10.991 -1.0252  0.7581 -1.1727
 4512SOL     OW24997   4.607   4.463   5.541  0.7471 -0.1264  0.0894
 4512SOL    HW124998   4.692   4.430   5.510  1.1091  0.1106  0.8330
 4512SOL    HW224999   4.574   4.375   5.560 -0.1771 -0.4646 -3.0164
 4513SOL     OW25000   3.143   2.024   2.034  0.2185  0.0602  0.1970
 4513SOL    HW125001   3.106   2.110   2.018  0.5628  0.5281  1.9004
 4513SOL    HW225002   3.084   1.976   1.975 -0.4897  0.7947  0.3137
 4514SOL     OW25003   2.343   4.515  10.666 -0.3561 -0.3362 -0.4549
 4514SOL    HW125004   2.271   4.496  10.605  1.3888 -1.6971 -2.0743
 4514SOL    HW225005   2.410   4.460  10.625  0.1228 -0.4170  0.4449
 4515SOL     OW25006   3.695   4.304   3.142 -0.0528 -0.0109  0.2708
 4515SOL    HW125007   3.752   4.257   3.081  1.0254  1.3826  0.2196
 4515SOL    HW225008   3.669   4.226   3.192 -0.0271  0.7111  1.4219
 4516SOL     OW25009   3.657   1.725   0.072  0.6040 -0.0178 -0.2102
 4516SOL    HW125010   3.567   1.719   0.104  0.8525 -1.2257  0.2691
 4516SOL    HW225011   3.630   1.756  17.683  0.6626  1.3078  0.2378
 4517SOL     OW25012   2.789   2.317   4.208 -0.0561 -0.2152 -0.1522
 4517SOL    HW125013   2.723   2.386   4.213 -0.7079 -0.7718 -1.0390
 4517SOL    HW225014   2.795   2.308   4.113 -0.2336  1.4462 -0.3156
 4518SOL     OW25015   3.581   1.343  17.367 -0.3534  0.4039 -0.4634
 4518SOL    HW125016   3.641   1.268  17.364 -0.9628 -0.1386  0.6804
 4518SOL    HW225017   3.502   1.319  17.318  0.6035 -0.8300 -1.4083
 4519SOL     OW25018   2.182   3.705  15.097 -0.0381  0.3593  0.5304
 4519SOL    HW125019   2.150   3.747  15.017 -1.8239 -0.7514  0.6622
 4519SOL    HW225020   2.251   3.770  15.105  0.4746  0.1320 -2.1412
 4520SOL     OW25021   0.711   4.615   7.431 -0.4791  0.3232 -0.2225
 4520SOL    HW125022   0.675   4.531   7.459  2.5974 -1.0272 -0.3155
 4520SOL    HW225023   0.799   4.582   7.413 -1.0816 -1.2769 -0.2982
 4521SOL     OW25024   2.475   4.291  14.311  0.1238 -0.1971 -0.0943
 4521SOL    HW125025   2.479   4.269  14.404  1.0981  1.3663  0.2257
 4521SOL    HW225026   2.474   4.204  14.271  2.0004 -0.1845 -0.1829
 4522SOL     OW25027   1.955   0.272   6.370  0.2750  0.2782  0.1579
 4522SOL    HW125028   2.037   0.305   6.333 -0.1591  0.6315 -0.5029
 4522SOL    HW225029   1.904   0.270   6.289 -0.4222 -1.4300  0.6465
 4523SOL     OW25030   4.039   4.351  13.452  0.4269  0.2386 -0.2296
 4523SOL    HW125031   4.026   4.322  13.543  1.9848  0.0097 -0.0867
 4523SOL    HW225032   4.062   4.443  13.464 -1.3731  0.6719 -0.0721
 4524SOL     OW25033   1.988   1.105   6.233  0.0428 -0.2382 -0.3317
 4524SOL    HW125034   2.017   1.167   6.300 -1.9752  0.9932 -0.6156
 4524SOL    HW225035   1.957   1.172   6.172  1.1810 -1.3702 -2.1593
 4525SOL     OW25036   0.913   3.245   5.446  0.2597  0.3606  0.5066
 4525SOL    HW125037   1.002   3.213   5.463 -0.4324 -0.7177  2.0143
 4525SOL    HW225038   0.885   3.184   5.377 -0.6724  1.1944  0.1546
 4526SOL     OW25039   3.817   3.192   8.286 -0.2753 -0.1005 -1.2066
 4526SOL    HW125040   3.775   3.260   8.233 -0.3160 -0.1100 -1.1867
 4526SOL    HW225041   3.886   3.247   8.323 -1.8984  2.4526 -1.9491
 4527SOL     OW25042   3.703   0.605   3.296  0.4889  0.0368  0.1134
 4527SOL    HW125043   3.671   0.595   3.207 -0.6835  1.3887  0.3830
 4527SOL    HW225044   3.644   0.676   3.321 -1.6430 -1.8838  0.5308
 4528SOL     OW25045   2.409   0.149   4.323 -0.1707 -0.7558  0.3200
 4528SOL    HW125046   2.492   0.194   4.340  0.0898 -0.6065 -1.2872
 4528SOL    HW225047   2.372   0.160   4.410 -0.3178 -0.1498  0.1798
 4529SOL     OW25048   2.162   1.546   8.806  0.3104  0.1847  0.5649
 4529SOL    HW125049   2.157   1.482   8.878  1.0567 -1.8493 -1.1765
 4529SOL    HW225050   2.073   1.529   8.775  0.3881 -1.0711  1.0005
 4530SOL     OW25051   3.730   0.625  15.548  0.7166  0.7199  0.5298
 4530SOL    HW125052   3.657   0.616  15.609 -1.7155  0.7986 -2.4037
 4530SOL    HW225053   3.688   0.686  15.488  1.6771  0.3857 -0.4747
 4531SOL     OW25054   1.956   1.708   6.916 -0.7078  0.0569  0.2094
 4531SOL    HW125055   1.970   1.623   6.875 -2.9615 -0.8967  1.4454
 4531SOL    HW225056   1.868   1.711   6.954  0.1390 -1.3461  2.2192
 4532SOL     OW25057   4.278   0.025   0.613  0.3740  0.2938  0.3988
 4532SOL    HW125058   4.314   4.683   0.553 -1.7411  1.9346 -2.7108
 4532SOL    HW225059   4.341   0.030   0.684 -1.2883  0.1173  1.8717
 4533SOL     OW25060   4.649   3.635   6.830 -0.1603  0.1618 -0.2424
 4533SOL    HW125061   0.002   3.684   6.801 -1.2753  1.6056 -0.7746
 4533SOL    HW225062   4.673   3.618   6.921  2.6729  0.1857 -0.9880
 4534SOL     OW25063   3.394   3.874   9.835  0.7033 -0.2831  0.3102
 4534SOL    HW125064   3.436   3.882   9.921  1.5814 -0.9409 -0.0538
 4534SOL    HW225065   3.464   3.890   9.771 -0.4093 -0.9833 -1.0915
 4535SOL     OW25066   2.169   4.693  13.744  0.1056  0.7232  0.0332
 4535SOL    HW125067   2.254   4.681  13.786 -0.9674  0.1856  2.0815
 4535SOL    HW225068   2.181   0.019  13.663  2.8855 -0.4452 -0.2667
 4536SOL     OW25069   1.256   1.460  12.864 -0.0098  0.0548  0.1265
 4536SOL    HW125070   1.323   1.521  12.833  0.4512  1.3943  3.7616
 4536SOL    HW225071   1.177   1.507  12.838 -0.0677 -0.6421 -0.9628
 4537SOL     OW25072   3.313   0.982   5.438 -0.3089 -0.5042 -0.6075
 4537SOL    HW125073   3.347   1.003   5.525 -1.4701 -0.8064 -0.0712
 4537SOL    HW225074   3.389   0.946   5.393 -0.6408 -2.6095  0.4879
 4538SOL     OW25075   0.233   4.596   9.551 -0.7697 -0.1127  0.1451
 4538SOL    HW125076   0.200   4.598   9.462  1.4403 -2.7232 -0.7406
 4538SOL    HW225077   0.281   4.514   9.559  1.1379  1.0939  1.1196
 4539SOL     OW25078   2.709   0.567  15.773 -1.1162  0.1186 -0.0208
 4539SOL    HW125079   2.754   0.559  15.858 -1.5721 -1.0670  0.1080
 4539SOL    HW225080   2.781   0.529  15.723  0.1906  0.2051  1.8034
 4540SOL     OW25081   4.577   0.689   8.298  0.2350  0.2275  0.0226
 4540SOL    HW125082   4.500   0.633   8.290 -0.2241  0.6473  1.4303
 4540SOL    HW225083   4.639   0.624   8.334  1.1216  1.0128 -0.0909
 4541SOL     OW25084   2.884   1.918   8.296  0.3547 -0.1700  0.1317
 4541SOL    HW125085   2.899   1.887   8.207 -1.8773 -2.1256  0.4570
 4541SOL    HW225086   2.809   1.976   8.283  1.2009  0.8714 -0.0885
 4542SOL     OW25087   1.231   0.881   7.907  0.2318  0.2754  0.3233
 4542SOL    HW125088   1.320   0.848   7.918  0.1527  0.4534  1.5080
 4542SOL    HW225089   1.243   0.966   7.864  2.0303 -0.2181 -0.1713
 4543SOL     OW25090   0.457   4.428   9.573  0.1223 -0.5255 -0.5837
 4543SOL    HW125091   0.539   4.467   9.541 -0.3802  1.1974  0.2422
 4543SOL    HW225092   0.453   4.472   9.658 -1.0383 -1.4630 -0.1661
 4544SOL     OW25093   0.699   3.728   3.377  0.0293  0.8373  0.6071
 4544SOL    HW125094   0.716   3.696   3.289 -0.3520 -2.6030  1.7801
 4544SOL    HW225095   0.787   3.717   3.413  1.1559  2.4434 -1.6616
 4545SOL     OW25096   1.750   0.579   7.719  0.0505  0.0458 -0.1303
 4545SOL    HW125097   1.766   0.603   7.811 -0.9403 -0.9400  0.2951
 4545SOL    HW225098   1.704   0.499   7.743  1.7378 -2.0075 -3.7798
 4546SOL     OW25099   4.535   2.978   4.207  0.6113 -0.1883 -0.0398
 4546SOL    HW125100   4.607   3.019   4.157  1.0143 -2.6893 -1.4968
 4546SOL    HW225101   4.571   2.980   4.296  1.4022  1.9426 -0.3998
 4547SOL     OW25102   3.802   3.454   4.800  0.7938  0.0331 -0.6145
 4547SOL    HW125103   3.724   3.408   4.769  2.4172 -2.1245 -1.4902
 4547SOL    HW225104   3.795   3.439   4.894  0.7094  0.8396 -0.4938
 4548SOL     OW25105   0.929   2.058   3.975  0.4447 -0.2517 -0.5276
 4548SOL    HW125106   0.992   2.091   3.911  0.7981 -0.6712 -0.3977
 4548SOL    HW225107   0.912   1.973   3.934 -0.7456  0.1451 -0.8666
 4549SOL     OW25108   3.015   0.048   4.980  0.9665  0.5388 -0.0740
 4549SOL    HW125109   2.939   4.715   4.971  1.3651 -0.2669  1.5417
 4549SOL    HW225110   2.985   0.120   5.035 -1.6530  0.2813 -1.1898
 4550SOL     OW25111   3.126   3.579  11.238  0.2019  0.1109 -0.1166
 4550SOL    HW125112   3.152   3.640  11.169 -2.1616 -0.5024 -1.5355
 4550SOL    HW225113   3.185   3.510  11.207  2.1765  0.2970  3.2142
 4551SOL     OW25114   2.537   3.044   2.624 -0.2946  0.2526  0.1847
 4551SOL    HW125115   2.564   2.955   2.601 -1.4368 -0.1959  0.5739
 4551SOL    HW225116   2.445   3.028   2.647 -0.5121  2.9989  1.2877
 4552SOL     OW25117   1.561   1.822   2.468  0.1130 -0.5996  0.0669
 4552SOL    HW125118   1.619   1.778   2.406  0.5853 -1.9218  1.4352
 4552SOL    HW225119   1.530   1.901   2.425  2.1915 -0.7045 -1.6083
 4553SOL     OW25120   2.852   3.348   5.121  0.0774  0.3990  0.1129
 4553SOL    HW125121   2.817   3.289   5.054 -1.9931  0.6348  0.9948
 4553SOL    HW225122   2.774   3.361   5.175  0.2864 -0.9735  0.7317
 4554SOL     OW25123   1.340   2.836  15.218 -0.6991 -0.1343 -0.2579
 4554SOL    HW125124   1.317   2.921  15.256 -0.7457 -1.0646  1.8380
 4554SOL    HW225125   1.253   2.803  15.197 -0.1505 -1.5304 -0.3650
 4555SOL     OW25126   1.373   1.662   2.976 -0.2868 -0.6605 -0.4195
 4555SOL    HW125127   1.371   1.687   2.884  0.1340 -2.7110 -0.9923
 4555SOL    HW225128   1.426   1.583   2.963  0.5776 -0.3194  1.0472
 4556SOL     OW25129   0.484   2.955   3.079  0.0474  0.0931  0.2596
 4556SOL    HW125130   0.402   3.003   3.077  0.7760  1.3401  0.4786
 4556SOL    HW225131   0.487   2.910   2.994  1.0589  2.3653 -0.9240
 4557SOL     OW25132   1.064   4.407  13.278 -0.0084  0.0658 -0.1320
 4557SOL    HW125133   1.147   4.369  13.251 -0.4617 -1.8714  1.1353
 4557SOL    HW225134   1.105   4.469  13.338  0.8409 -0.6350  0.0139
 4558SOL     OW25135   2.433   4.668   0.056 -0.2174 -0.5264 -0.3679
 4558SOL    HW125136   2.462   4.670  17.662 -1.8235  1.5479 -0.8595
 4558SOL    HW225137   2.513   4.671   0.107  0.2611  2.4727 -1.2697
 4559SOL     OW25138   3.412   4.220   1.382 -0.6985 -0.2769  0.1932
 4559SOL    HW125139   3.375   4.239   1.468 -1.1948  0.4869 -0.1873
 4559SOL    HW225140   3.507   4.227   1.393 -0.3608 -0.4634 -2.5841
 4560SOL     OW25141   1.527   0.763   7.774  0.9033  0.1651  0.4287
 4560SOL    HW125142   1.609   0.715   7.781  0.8570  0.0734  0.3222
 4560SOL    HW225143   1.546   0.855   7.752 -0.7611  0.8435  1.7852
 4561SOL     OW25144   1.243   2.926  15.612  0.1892 -0.0369 -0.2412
 4561SOL    HW125145   1.277   2.934  15.702 -1.8283  1.7989  0.3802
 4561SOL    HW225146   1.241   2.831  15.616  2.4655 -0.1302 -1.2953
 4562SOL     OW25147   0.265   0.310   4.935 -0.1441 -0.0281 -0.2756
 4562SOL    HW125148   0.174   0.312   4.965  0.2181  1.3239  0.7849
 4562SOL    HW225149   0.303   0.335   5.019 -0.1542  0.7202 -0.4909
 4563SOL     OW25150   2.543   0.586   6.659  0.0305  0.1634  0.8647
 4563SOL    HW125151   2.559   0.496   6.686 -1.6867 -0.3230  0.2674
 4563SOL    HW225152   2.622   0.594   6.606 -1.6268 -1.2599 -1.8194
 4564SOL     OW25153   0.584   0.252   4.797 -0.0708  0.6311  0.2453
 4564SOL    HW125154   0.657   0.237   4.856 -0.4093 -1.7605  0.0789
 4564SOL    HW225155   0.607   0.202   4.718  0.6438 -2.3819  2.3803
 4565SOL     OW25156   0.875   0.881   3.988 -0.2512 -0.2298  0.1139
 4565SOL    HW125157   0.784   0.909   3.995  0.0946  0.6581  1.0814
 4565SOL    HW225158   0.855   0.789   4.007 -1.4018 -0.3896 -1.9103
 4566SOL     OW25159   1.543   2.140   1.718  0.1267 -0.3238 -0.1344
 4566SOL    HW125160   1.604   2.177   1.654 -1.9175  1.7755 -0.8802
 4566SOL    HW225161   1.495   2.218   1.745  3.7051  1.9099 -0.1901
 4567SOL     OW25162   0.953   0.334   6.427 -0.5249  0.1209  0.6211
 4567SOL    HW125163   0.906   0.288   6.358  0.5070 -0.5449  0.3701
 4567SOL    HW225164   1.033   0.282   6.420  0.3087  1.8335 -2.4051
 4568SOL     OW25165   2.387   1.319   8.145 -0.7708  0.4715 -0.2018
 4568SOL    HW125166   2.414   1.391   8.089  0.4741 -0.8637 -1.3487
 4568SOL    HW225167   2.430   1.331   8.230 -2.8658  1.4826  0.7109
 4569SOL     OW25168   4.467   4.659   3.659  0.3793 -0.3356 -0.4564
 4569SOL    HW125169   4.517   4.594   3.708  1.0976  0.0486 -0.6779
 4569SOL    HW225170   4.378   4.640   3.690  1.5495  1.3372  3.8805
 4570SOL     OW25171   0.790   4.360   5.225 -0.0041 -0.7077  0.2402
 4570SOL    HW125172   0.753   4.382   5.311  2.9077 -0.9501  1.5427
 4570SOL    HW225173   0.755   4.423   5.163  1.1284 -0.5261 -0.2086
 4571SOL     OW25174   4.199   1.035   1.022  0.0474 -0.2027 -0.1755
 4571SOL    HW125175   4.250   1.004   0.948 -0.9938  0.4307 -1.1556
 4571SOL    HW225176   4.155   0.955   1.050  1.4541 -0.0357  2.5214
 4572SOL     OW25177   1.796   0.674   7.984 -0.5854  0.3603 -0.2913
 4572SOL    HW125178   1.843   0.694   8.065 -0.3812  0.1977 -0.3670
 4572SOL    HW225179   1.713   0.712   8.011 -1.4631 -0.5258 -1.7286
 4573SOL     OW25180   1.847   4.054   5.442  0.2415 -0.0358 -0.0477
 4573SOL    HW125181   1.865   3.972   5.487  0.3986 -0.3271 -0.6369
 4573SOL    HW225182   1.799   4.103   5.509  0.8581  1.5136 -0.7137
 4574SOL     OW25183   0.963   1.781   7.992 -0.1465 -0.3007  0.6305
 4574SOL    HW125184   0.874   1.780   7.957  0.2957  1.3139 -0.5223
 4574SOL    HW225185   0.944   1.808   8.081 -1.2999 -1.6887  0.8035
 4575SOL     OW25186   0.603   4.217   8.230  0.0192  0.3604 -0.1780
 4575SOL    HW125187   0.645   4.300   8.209  0.5444  0.1348 -0.0125
 4575SOL    HW225188   0.630   4.215   8.322  0.2501  2.4239 -0.2118
 4576SOL     OW25189   0.405   1.809   9.514 -0.0516 -0.1193  0.3683
 4576SOL    HW125190   0.328   1.755   9.531 -0.2002 -0.0597 -0.1249
 4576SOL    HW225191   0.363   1.894   9.497 -0.0784 -0.0763  0.6487
 4577SOL     OW25192   2.746   4.163  16.179  0.2856  0.0792  0.2232
 4577SOL    HW125193   2.765   4.069  16.174 -0.3593  0.0030 -0.8898
 4577SOL    HW225194   2.728   4.187  16.088 -0.0235  0.8754  0.4928
 4578SOL     OW25195   4.693   1.276   3.062 -0.2994 -0.1722 -0.5839
 4578SOL    HW125196   0.043   1.218   3.076  1.6865  2.4461 -0.2777
 4578SOL    HW225197   0.002   1.343   3.002  3.7781 -3.2831 -1.7676
 4579SOL     OW25198   4.442   0.197  13.979 -0.0795 -0.0988 -0.0688
 4579SOL    HW125199   4.355   0.223  13.949  0.0890  1.3605  0.6901
 4579SOL    HW225200   4.483   0.152  13.905 -0.1590 -2.0271  1.0512
 4580SOL     OW25201   3.397   1.248   4.891 -0.0294 -0.3424 -0.1849
 4580SOL    HW125202   3.469   1.187   4.909 -1.2834 -1.6930  0.2454
 4580SOL    HW225203   3.448   1.324   4.864 -0.9590  0.4975  0.4742
 4581SOL     OW25204   2.150   2.964   5.009 -0.4633 -0.0528  0.0473
 4581SOL    HW125205   2.092   2.907   4.960 -1.5867  0.3333  0.9120
 4581SOL    HW225206   2.148   3.045   4.958 -0.0760  0.6185  1.0973
 4582SOL     OW25207   1.539   4.325   2.097  0.0227  0.2644 -0.4138
 4582SOL    HW125208   1.623   4.282   2.080 -0.2770 -0.7524  0.6463
 4582SOL    HW225209   1.559   4.412   2.130  1.6179  0.0486 -0.8234
 4583SOL     OW25210   1.157   3.591   8.709  0.6519  0.4760 -0.2687
 4583SOL    HW125211   1.136   3.623   8.796  0.4910 -0.1223 -0.0843
 4583SOL    HW225212   1.221   3.656   8.681  2.2119 -1.7982 -2.0893
 4584SOL     OW25213   1.765   4.073   6.732 -0.1990  0.4382  0.0370
 4584SOL    HW125214   1.861   4.073   6.737 -0.1445  1.0319 -1.0970
 4584SOL    HW225215   1.755   3.991   6.780 -1.8432 -0.2293 -1.4478
 4585SOL     OW25216   3.159   3.337   4.614 -0.0086  0.0582 -0.3254
 4585SOL    HW125217   3.244   3.362   4.650  0.5691 -1.9006 -0.3554
 4585SOL    HW225218   3.189   3.285   4.539  0.5693  0.0867 -0.1115
 4586SOL     OW25219   2.416   4.406  14.691 -0.1045 -0.2122 -0.1799
 4586SOL    HW125220   2.492   4.347  14.697 -1.1384 -1.3686  1.6985
 4586SOL    HW225221   2.424   4.447  14.605  3.2487 -1.0622 -0.2931
 4587SOL     OW25222   4.402   3.065   3.711  0.4900 -0.1791 -0.2326
 4587SOL    HW125223   4.313   3.050   3.681  0.2447 -0.2440  0.5315
 4587SOL    HW225224   4.433   3.119   3.637 -0.9792 -0.4610 -1.0478
 4588SOL     OW25225   0.791   2.454  11.126  0.1686 -0.0715 -0.3968
 4588SOL    HW125226   0.866   2.397  11.112  1.9121  1.3242  3.3445
 4588SOL    HW225227   0.725   2.386  11.111 -0.4799  0.2460  1.0010
 4589SOL     OW25228   4.149   0.150   0.105 -0.1324 -0.8519 -0.5005
 4589SOL    HW125229   4.145   0.208   0.181  0.6990 -2.1936  0.5834
 4589SOL    HW225230   4.062   0.170   0.071 -0.3323 -0.3842  0.3018
 4590SOL     OW25231   4.420   1.987   7.233 -0.0173  0.8741  0.4069
 4590SOL    HW125232   4.347   1.966   7.293  0.2224  0.1460  0.4463
 4590SOL    HW225233   4.482   2.025   7.295  1.6903 -1.1918 -0.0381
 4591SOL     OW25234   0.804   2.213   3.214  0.3735  0.4880  0.1335
 4591SOL    HW125235   0.849   2.194   3.132 -0.8195 -1.9675  0.0442
 4591SOL    HW225236   0.847   2.143   3.263 -1.5975  0.3499  1.6514
 4592SOL     OW25237   1.321   1.934  14.693 -0.5596 -0.3244 -0.9047
 4592SOL    HW125238   1.260   1.953  14.764  1.9777 -2.2989  1.8490
 4592SOL    HW225239   1.351   2.023  14.672  1.3340 -0.5407  0.8238
 4593SOL     OW25240   0.881   3.020   4.310 -0.2847 -0.1381  0.6048
 4593SOL    HW125241   0.838   3.090   4.263 -0.1544 -1.9750 -2.2542
 4593SOL    HW225242   0.924   2.972   4.239 -1.5919 -0.2341 -0.1231
 4594SOL     OW25243   2.073   3.279   3.597  0.2867 -0.5099  0.2463
 4594SOL    HW125244   2.092   3.204   3.654 -0.8180 -0.8229  0.1901
 4594SOL    HW225245   2.119   3.347   3.646  1.6921  0.8020 -2.8786
 4595SOL     OW25246   3.814   0.297  16.494  0.1847  0.0345 -0.3007
 4595SOL    HW125247   3.825   0.376  16.440  0.9022 -0.8924 -1.5122
 4595SOL    HW225248   3.754   0.343  16.552  0.9837  0.0007  0.5513
 4596SOL     OW25249   1.197   2.073   5.743  0.4021 -0.2603 -0.5312
 4596SOL    HW125250   1.187   1.987   5.702  0.9424  0.8745 -3.0709
 4596SOL    HW225251   1.206   2.127   5.664  2.2393  0.9100  0.4890
 4597SOL     OW25252   1.629   0.943   8.958 -0.5045 -0.5360  0.2514
 4597SOL    HW125253   1.722   0.925   8.969 -0.7091 -1.7098  0.1156
 4597SOL    HW225254   1.582   0.864   8.986 -1.2527 -0.2488 -0.1939
 4598SOL     OW25255   4.232   0.925  16.745 -0.2309 -0.2233 -0.5093
 4598SOL    HW125256   4.289   0.938  16.820 -0.9474  0.5542 -0.1001
 4598SOL    HW225257   4.145   0.949  16.777  0.4770 -1.4818  2.3684
 4599SOL     OW25258   1.919   4.629  10.342 -0.5223 -0.1366  0.0969
 4599SOL    HW125259   1.973   4.637  10.263 -1.7616  0.1628 -0.7328
 4599SOL    HW225260   1.945   4.705  10.393 -0.6365  0.2305 -0.3966
 4600SOL     OW25261   4.145   2.052   3.368  0.4180  0.8868  0.1554
 4600SOL    HW125262   4.155   2.059   3.463  1.1401  0.1713  0.1342
 4600SOL    HW225263   4.200   1.976   3.350  1.4630  1.6536  0.1209
 4601SOL     OW25264   0.366   1.795  14.784 -0.6277  0.3698 -0.0797
 4601SOL    HW125265   0.375   1.886  14.759 -0.8067  0.3685 -0.1514
 4601SOL    HW225266   0.458   1.782  14.805 -0.6423  1.3504  0.6013
 4602SOL     OW25267   3.052   1.385   1.582  0.2581 -0.4817  0.3287
 4602SOL    HW125268   2.987   1.345   1.640 -0.0258 -1.9155 -0.9771
 4602SOL    HW225269   3.002   1.454   1.540  2.2067  0.4548 -0.4483
 4603SOL     OW25270   4.003   3.220   4.874  0.5232 -1.0533  0.0697
 4603SOL    HW125271   3.993   3.232   4.969 -1.2647 -2.7463  0.0939
 4603SOL    HW225272   3.940   3.149   4.862 -0.1252 -0.6154  0.8796
 4604SOL     OW25273   0.761   3.478   1.305  0.4521 -0.5459  0.0776
 4604SOL    HW125274   0.705   3.530   1.362  0.3333 -0.6231  0.0316
 4604SOL    HW225275   0.839   3.533   1.302 -1.3682  1.9076 -1.8186
 4605SOL     OW25276   1.594   3.613   8.060 -0.1573 -0.2373  0.2044
 4605SOL    HW125277   1.664   3.662   8.016 -2.0984  2.1632 -0.2066
 4605SOL    HW225278   1.572   3.683   8.122 -3.2964 -0.5220 -0.5989
 4606SOL     OW25279   1.751   0.439  13.000  0.2204 -0.0355 -0.3283
 4606SOL    HW125280   1.819   0.375  12.978  2.1712  0.5634  4.0438
 4606SOL    HW225281   1.689   0.420  12.930  0.7521  0.5306 -0.9550
 4607SOL     OW25282   0.244   2.863   8.293 -0.6032 -0.0422 -0.4186
 4607SOL    HW125283   0.297   2.832   8.219  0.5614  3.2776 -0.9998
 4607SOL    HW225284   0.316   2.853   8.355  0.7147  1.4705 -1.7017
 4608SOL     OW25285   2.981   1.681   9.835 -0.4568  0.1113  0.1081
 4608SOL    HW125286   3.066   1.643   9.857 -0.3110 -0.4671 -1.4345
 4608SOL    HW225287   2.982   1.660   9.741  0.1684 -0.8290  0.3320
 4609SOL     OW25288   1.865   1.291   1.133 -0.0619 -1.1476  0.6747
 4609SOL    HW125289   1.892   1.280   1.042  0.9907 -1.3327  1.0077
 4609SOL    HW225290   1.826   1.207   1.156 -1.5840 -1.0416 -1.5423
 4610SOL     OW25291   2.902   1.878   7.334 -0.2377  0.0082  0.1282
 4610SOL    HW125292   2.927   1.928   7.256 -1.7485 -0.6810 -0.8016
 4610SOL    HW225293   2.886   1.952   7.392 -0.6640 -0.1568  0.2219
 4611SOL     OW25294   1.299   3.169  12.559  0.6567  0.6016 -0.1162
 4611SOL    HW125295   1.299   3.079  12.590  0.1042  0.9376  0.8718
 4611SOL    HW225296   1.291   3.218  12.641 -1.1385  1.4210 -0.7708
 4612SOL     OW25297   2.483   2.366   1.910 -0.0667 -0.6078  0.0221
 4612SOL    HW125298   2.506   2.275   1.891 -1.0320 -0.7746 -0.3225
 4612SOL    HW225299   2.396   2.363   1.870 -0.8749  3.7995  1.4806
 4613SOL     OW25300   3.569   2.155   5.872 -0.3401 -0.4178  0.0061
 4613SOL    HW125301   3.520   2.201   5.940 -1.1268 -3.4776  1.5239
 4613SOL    HW225302   3.508   2.111   5.812 -0.2008 -1.0314  0.3100
 4614SOL     OW25303   2.969   1.274   5.745 -0.1794  0.3135  0.3296
 4614SOL    HW125304   2.924   1.358   5.744  1.0678  0.9937  1.5470
 4614SOL    HW225305   2.938   1.250   5.658 -1.0337  0.4575  0.5981
 4615SOL     OW25306   3.578   0.450  16.657 -0.1812  0.2860 -0.3594
 4615SOL    HW125307   3.640   0.481  16.723 -3.3457  0.9110  2.3450
 4615SOL    HW225308   3.589   0.513  16.586 -2.2443 -1.7450 -2.5104
 4616SOL     OW25309   3.060   1.605  13.958  0.0462  0.4963 -0.2504
 4616SOL    HW125310   3.141   1.654  13.972 -0.3890  0.4213  2.5975
 4616SOL    HW225311   3.079   1.529  14.013  0.2870  0.5599 -0.2429
 4617SOL     OW25312   4.573   0.503   7.072 -0.2289 -0.1695  0.1260
 4617SOL    HW125313   4.478   0.498   7.079 -0.4808  2.0751 -1.7562
 4617SOL    HW225314   4.570   0.535   6.982  0.0445 -1.3485 -0.2974
 4618SOL     OW25315   2.831   2.682   1.920  0.0992  0.2054  0.3008
 4618SOL    HW125316   2.926   2.683   1.931  0.2401 -1.0535 -0.6989
 4618SOL    HW225317   2.805   2.589   1.922  0.0617  0.1889 -0.7971
 4619SOL     OW25318   0.924   0.233   9.245  0.5110  0.1122 -0.3095
 4619SOL    HW125319   0.934   0.328   9.247  1.5479 -0.0247  1.2138
 4619SOL    HW225320   0.962   0.214   9.331 -0.6089  2.2632  0.6568
 4620SOL     OW25321   1.726   0.710   0.518  0.2693 -0.0095  0.2138
 4620SOL    HW125322   1.636   0.684   0.498 -0.2240  2.1111 -0.2902
 4620SOL    HW225323   1.785   0.642   0.486 -0.5571  0.6654 -2.7055
 4621SOL     OW25324   0.202   2.805   0.393 -0.2048 -0.3053 -0.2594
 4621SOL    HW125325   0.115   2.803   0.353  0.8106 -2.3903 -2.3591
 4621SOL    HW225326   0.185   2.828   0.485  1.4086  2.8644 -0.7501
 4622SOL     OW25327   2.528   0.190  12.157 -0.7782  0.6886  0.0042
 4622SOL    HW125328   2.581   0.166  12.233 -0.9646 -2.7811 -0.9887
 4622SOL    HW225329   2.451   0.135  12.170 -0.1024 -0.3907 -0.6347
 4623SOL     OW25330   1.973   0.614  11.984  0.5133 -0.5057  0.0951
 4623SOL    HW125331   1.893   0.642  11.939  0.1599 -0.0753  0.9995
 4623SOL    HW225332   1.999   0.695  12.028 -1.5269  0.2257 -0.0662
 4624SOL     OW25333   1.903   2.677  16.281  0.3963 -0.0271  0.3636
 4624SOL    HW125334   1.845   2.630  16.340  2.1593  1.4980  3.3156
 4624SOL    HW225335   1.971   2.714  16.338  0.9989 -0.3412 -0.1535
 4625SOL     OW25336   3.325   0.933   9.259 -0.1258 -0.2047 -0.1756
 4625SOL    HW125337   3.344   1.014   9.211  0.3224 -1.5616 -2.2906
 4625SOL    HW225338   3.342   0.864   9.195  0.4486 -0.7825  0.6008
 4626SOL     OW25339   3.614   1.618  17.136  0.5115 -0.6707 -0.2164
 4626SOL    HW125340   3.673   1.646  17.066  0.3648  0.2637  0.0279
 4626SOL    HW225341   3.561   1.697  17.147  1.6775  0.6632 -4.3898
 4627SOL     OW25342   4.233   4.378   3.293 -0.2707  0.2416  0.0335
 4627SOL    HW125343   4.245   4.283   3.295 -2.1832  0.0597  2.6126
 4627SOL    HW225344   4.315   4.412   3.327 -0.9083  0.9534  0.8385
 4628SOL     OW25345   4.504   3.290  17.255 -0.1386  0.1236 -0.4288
 4628SOL    HW125346   4.512   3.237  17.176  0.9820 -0.5153  0.1109
 4628SOL    HW225347   4.591   3.293  17.296  0.4227 -1.9268 -1.4554
 4629SOL     OW25348   4.207   0.648  16.666  0.0652  0.9977  0.0459
 4629SOL    HW125349   4.112   0.653  16.657  0.2995  0.9198 -2.5088
 4629SOL    HW225350   4.238   0.738  16.674  2.6111  0.0449  1.0760
 4630SOL     OW25351   0.907   2.635   6.679  0.0213 -0.7501  0.2372
 4630SOL    HW125352   0.947   2.607   6.596  0.4576 -1.4911  0.7038
 4630SOL    HW225353   0.977   2.647   6.743 -0.5203 -2.4077  1.1384
 4631SOL     OW25354   0.312   2.274  10.735  0.2870 -0.0008  0.8688
 4631SOL    HW125355   0.405   2.289  10.723 -0.4927  2.8112 -1.6156
 4631SOL    HW225356   0.296   2.324  10.815 -1.9174 -0.2310  0.5876
 4632SOL     OW25357   3.929   4.065   4.265  0.1174  0.1046  0.0808
 4632SOL    HW125358   3.865   4.047   4.334  1.5891 -0.5331  1.2883
 4632SOL    HW225359   3.924   4.160   4.256  0.0648  0.2374  1.5638
 4633SOL     OW25360   2.602   4.319   5.097  0.5772  0.0537 -0.1758
 4633SOL    HW125361   2.687   4.346   5.131  0.0994  0.3279  0.8299
 4633SOL    HW225362   2.578   4.251   5.161 -1.1504  1.9413  1.1889
 4634SOL     OW25363   2.142   3.465  14.988 -0.6899  0.3172 -0.2296
 4634SOL    HW125364   2.111   3.409  15.059 -0.5187 -0.7293 -0.9952
 4634SOL    HW225365   2.135   3.553  15.026  0.8194 -0.4042  1.7282
 4635SOL     OW25366   0.528   1.008   6.744 -0.2868  0.5035  0.2422
 4635SOL    HW125367   0.561   1.082   6.795  1.5491 -0.7159  0.8446
 4635SOL    HW225368   0.487   0.955   6.812 -2.0387  0.2577 -1.0119
 4636SOL     OW25369   0.637   1.628   0.616  0.1469  0.1261 -0.1184
 4636SOL    HW125370   0.589   1.553   0.580 -1.2390  1.2444 -0.5825
 4636SOL    HW225371   0.706   1.626   0.550 -0.2096  1.5883 -0.5369
 4637SOL     OW25372   1.615   0.142   6.976  0.1271  0.1775  0.0826
 4637SOL    HW125373   1.692   0.099   7.012  0.8953  1.3882 -0.1248
 4637SOL    HW225374   1.648   0.228   6.949  0.3248  0.4924  1.3091
 4638SOL     OW25375   2.532   0.344   6.827  0.3164 -0.1851  0.5243
 4638SOL    HW125376   2.454   0.398   6.814 -0.9328 -2.5577 -1.6159
 4638SOL    HW225377   2.520   0.328   6.921 -2.1523  0.1332  0.2642
 4639SOL     OW25378   4.413   2.765   3.898 -0.3241 -0.4014 -0.0227
 4639SOL    HW125379   4.492   2.815   3.877 -0.4632 -0.2704 -0.2402
 4639SOL    HW225380   4.412   2.694   3.834 -1.5415  0.2493 -0.7461
 4640SOL     OW25381   0.688   2.802   1.447 -0.3131  0.1805  0.2550
 4640SOL    HW125382   0.655   2.729   1.394 -0.2555  0.5049 -0.2192
 4640SOL    HW225383   0.657   2.777   1.534  0.4627  0.3732  0.5839
 4641SOL     OW25384   2.350   0.908   9.446 -0.0350  1.0173 -0.2143
 4641SOL    HW125385   2.259   0.925   9.470  0.1671  1.0507  0.5211
 4641SOL    HW225386   2.340   0.856   9.366  0.7935  0.8129 -0.1864
 4642SOL     OW25387   2.356   3.792   4.556 -0.0252 -0.2947 -0.0216
 4642SOL    HW125388   2.272   3.837   4.546  0.1766 -0.2718 -1.6864
 4642SOL    HW225389   2.388   3.834   4.635 -0.4289 -1.0330  0.5263
 4643SOL     OW25390   4.575   1.331  11.099  0.8454  0.4100  0.3555
 4643SOL    HW125391   4.658   1.379  11.096  0.1668  1.3563 -2.3948
 4643SOL    HW225392   4.599   1.258  11.043  0.0160  0.4973 -0.1075
 4644SOL     OW25393   4.678   1.196   1.753  0.6394  0.4492  0.0923
 4644SOL    HW125394   4.616   1.131   1.788 -0.2761  1.2421 -0.0565
 4644SOL    HW225395   0.023   1.141   1.715  1.8057  0.6546  1.9275
 4645SOL     OW25396   3.293   1.508   8.116 -0.5013 -0.2760 -0.0261
 4645SOL    HW125397   3.295   1.456   8.197 -0.1847 -0.2854 -0.0399
 4645SOL    HW225398   3.373   1.478   8.074 -0.7144 -1.2292  0.2487
 4646SOL     OW25399   0.569   4.300   3.803  0.0416  0.2606 -0.4184
 4646SOL    HW125400   0.638   4.234   3.809 -2.4277 -2.4440 -1.4326
 4646SOL    HW225401   0.524   4.284   3.886  1.0101  0.4897  0.1464
 4647SOL     OW25402   4.415   2.461   3.039  0.1256  0.0888 -0.2151
 4647SOL    HW125403   4.354   2.390   3.059  1.5376 -0.3105  2.5956
 4647SOL    HW225404   4.371   2.545   3.026 -0.0299 -0.1635 -1.3254
 4648SOL     OW25405   4.043   4.599   8.146 -0.3601  0.0167 -0.4409
 4648SOL    HW125406   4.100   4.554   8.084 -0.0609  0.4740 -0.4961
 4648SOL    HW225407   4.094   4.669   8.186  1.0781 -0.1930 -1.9245
 4649SOL     OW25408   3.389   1.547   4.272 -0.0282  0.4782 -0.7086
 4649SOL    HW125409   3.375   1.452   4.267  1.8931  0.1238  0.7113
 4649SOL    HW225410   3.299   1.579   4.268  0.2817  1.0088 -3.1434
 4650SOL     OW25411   3.893   2.913   8.185 -0.5485 -0.0800  0.2235
 4650SOL    HW125412   3.943   2.858   8.246 -0.2706 -0.4878 -0.3813
 4650SOL    HW225413   3.863   2.990   8.234 -1.4159  0.7308 -1.5676
 4651SOL     OW25414   1.063   3.296   3.791  0.4939  0.1495  0.3407
 4651SOL    HW125415   1.127   3.225   3.787  2.3414  1.8033  0.4728
 4651SOL    HW225416   1.004   3.260   3.724 -0.3901  0.5616  0.9040
 4652SOL     OW25417   1.199   2.880   2.971  0.6235 -0.5663  0.7518
 4652SOL    HW125418   1.104   2.896   2.969  0.8583  0.9694  2.0689
 4652SOL    HW225419   1.212   2.828   2.892  1.0519 -2.6991  2.2055
 4653SOL     OW25420   2.177   4.397   3.238 -0.6685  0.7940  0.6066
 4653SOL    HW125421   2.196   4.479   3.283  1.7457  0.4881  0.1620
 4653SOL    HW225422   2.252   4.345   3.267 -0.6742  0.5977  0.2703
 4654SOL     OW25423   2.591   2.614   4.706  0.2836 -0.1322 -0.4175
 4654SOL    HW125424   2.529   2.541   4.705  2.5281 -2.0783  1.3781
 4654SOL    HW225425   2.550   2.682   4.653  0.1790 -1.7819 -2.4660
 4655SOL     OW25426   3.838   2.281   5.211 -0.4543  0.2204  0.2201
 4655SOL    HW125427   3.862   2.220   5.140 -1.5018  0.2755 -0.1739
 4655SOL    HW225428   3.919   2.285   5.262  0.4550 -0.1110 -1.1605
 4656SOL     OW25429   1.859   2.282   5.521  0.4015 -0.3712 -0.2485
 4656SOL    HW125430   1.835   2.310   5.610  0.6005 -0.8855 -0.0339
 4656SOL    HW225431   1.952   2.303   5.523  0.5417 -1.1277  1.0913
 4657SOL     OW25432   3.785   1.670  16.907 -0.7382  0.1236  0.7777
 4657SOL    HW125433   3.848   1.646  16.840  0.3511  0.6913  1.5860
 4657SOL    HW225434   3.709   1.706  16.861 -0.7210  0.1816  0.7938
 4658SOL     OW25435   2.149   1.351   6.773  0.3641  0.1415 -0.4224
 4658SOL    HW125436   2.164   1.271   6.723  1.1362  0.5169 -0.7784
 4658SOL    HW225437   2.215   1.360   6.842 -0.0414 -1.5779  0.1882
 4659SOL     OW25438   0.928   0.817  12.721 -0.3798  0.0959 -0.6663
 4659SOL    HW125439   0.985   0.744  12.746 -1.9003 -0.3844  1.3507
 4659SOL    HW225440   0.858   0.804  12.785  0.5960 -0.4511  0.2843
 4660SOL     OW25441   2.834   2.738  14.988  0.0912 -0.0470 -0.2452
 4660SOL    HW125442   2.876   2.705  14.909 -0.1999 -3.1261  0.9110
 4660SOL    HW225443   2.888   2.699  15.057 -0.0136  1.3330  0.6349
 4661SOL     OW25444   3.246   1.934  13.388  0.1189  0.2762 -0.5478
 4661SOL    HW125445   3.209   2.001  13.331 -1.7205  1.7620  2.4115
 4661SOL    HW225446   3.177   1.927  13.455  0.2645  2.6478 -0.1534
 4662SOL     OW25447   1.884   1.950   8.147 -0.0882 -0.0175 -0.3762
 4662SOL    HW125448   1.842   1.932   8.064  0.3025  2.1134 -1.0579
 4662SOL    HW225449   1.971   1.912   8.135 -0.6355 -1.1786 -0.5728
 4663SOL     OW25450   2.539   2.889  16.367 -0.1309  0.3242  0.1552
 4663SOL    HW125451   2.601   2.891  16.293  1.1746  1.8216  1.3016
 4663SOL    HW225452   2.549   2.801  16.402 -0.6010  0.3790  0.4184
 4664SOL     OW25453   1.886   1.787   5.476  0.4811  0.2611  0.9831
 4664SOL    HW125454   1.859   1.879   5.479 -0.6483  0.0399 -1.7082
 4664SOL    HW225455   1.908   1.773   5.568  0.9696 -0.7258  0.7161
 4665SOL     OW25456   4.317   2.362   1.249  0.0251  0.5064 -0.2665
 4665SOL    HW125457   4.253   2.385   1.182  0.5551  0.7863 -0.6740
 4665SOL    HW225458   4.274   2.297   1.305 -0.2722  0.0781 -0.9936
 4666SOL     OW25459   0.274   4.326   6.277  0.1778 -0.0637 -0.5349
 4666SOL    HW125460   0.221   4.252   6.307  2.9246 -3.1746 -3.3542
 4666SOL    HW225461   0.263   4.394   6.343  0.4322 -0.9164  0.3697
 4667SOL     OW25462   2.125   4.009   2.153  0.0923 -0.2374  0.0478
 4667SOL    HW125463   2.105   4.078   2.217  1.5091 -0.9938  1.3049
 4667SOL    HW225464   2.203   4.043   2.109 -0.7001 -1.2124 -2.0814
 4668SOL     OW25465   2.758   1.131   9.833 -0.0132 -0.1935  0.1658
 4668SOL    HW125466   2.737   1.095   9.919 -0.9612 -3.1412 -1.2772
 4668SOL    HW225467   2.830   1.073   9.808  0.4966  0.5572 -0.1232
 4669SOL     OW25468   1.133   2.156   3.818  0.5974  0.0798  0.1596
 4669SOL    HW125469   1.139   2.073   3.771  0.3656 -0.2888  0.7808
 4669SOL    HW225470   1.093   2.212   3.751  1.8571  1.6328  0.7225
 4670SOL     OW25471   0.534   4.458  12.382  0.4235 -0.3747  1.1226
 4670SOL    HW125472   0.544   4.432  12.291  1.4314  0.2054  1.0665
 4670SOL    HW225473   0.628   4.465  12.399  0.9839  1.1282 -2.7612
 4671SOL     OW25474   2.753   3.154   7.604  0.0882  0.7956 -0.2267
 4671SOL    HW125475   2.818   3.224   7.605  0.4981  0.4261 -1.2596
 4671SOL    HW225476   2.735   3.142   7.697 -0.5803  0.4776 -0.3944
 4672SOL     OW25477   3.305   0.613  11.542 -0.0732 -0.0659 -0.6350
 4672SOL    HW125478   3.398   0.616  11.517  0.0200 -2.2283 -0.5518
 4672SOL    HW225479   3.279   0.642  11.455 -1.2763 -1.2353 -0.6626
 4673SOL     OW25480   0.957   1.888  16.992  0.0075  0.0457  0.0033
 4673SOL    HW125481   0.978   1.800  16.962  0.0508  0.4958 -1.2751
 4673SOL    HW225482   0.936   1.937  16.912  2.7301  0.9132 -0.1830
 4674SOL     OW25483   2.203   1.432   4.523  0.0639  0.3070 -0.0974
 4674SOL    HW125484   2.131   1.496   4.520  1.0966  1.3441 -2.9892
 4674SOL    HW225485   2.168   1.365   4.582 -1.0478  0.9215 -0.0517
 4675SOL     OW25486   0.707   1.728   4.146 -0.3533  0.0760  0.1510
 4675SOL    HW125487   0.782   1.697   4.094 -2.2177  0.0822 -2.5454
 4675SOL    HW225488   0.643   1.659   4.124  0.9142 -0.9930 -0.2075
 4676SOL     OW25489   0.391   0.487   8.379  0.0324  0.5748 -0.1096
 4676SOL    HW125490   0.336   0.489   8.301  0.1453  2.2356 -0.1532
 4676SOL    HW225491   0.455   0.424   8.346 -0.5459  0.9476 -1.9283
 4677SOL     OW25492   0.081   2.849   9.309 -0.7839 -0.2739  0.3862
 4677SOL    HW125493   0.086   2.943   9.326  3.3797 -0.3107 -0.6834
 4677SOL    HW225494   0.135   2.827   9.385  1.9359  2.2548 -0.7953
 4678SOL     OW25495   3.378   2.363   9.131  0.1849 -0.2746  0.9778
 4678SOL    HW125496   3.382   2.458   9.141  0.5829 -0.0485 -1.5164
 4678SOL    HW225497   3.337   2.350   9.046 -2.8689  0.6335  2.3049
 4679SOL     OW25498   0.984   1.383   2.595 -0.1232  0.2820 -0.1286
 4679SOL    HW125499   1.060   1.353   2.544  0.3436 -0.4968  1.0307
 4679SOL    HW225500   1.026   1.465   2.619  3.2100 -0.6714 -2.6843
 4680SOL     OW25501   3.257   2.916   3.683 -0.4528  0.2876  0.1339
 4680SOL    HW125502   3.281   2.824   3.694  0.4563  0.6233  1.0273
 4680SOL    HW225503   3.230   2.920   3.591  0.4999 -1.9944 -0.2388
 4681SOL     OW25504   4.275   2.192   3.961 -0.3245  0.5235 -0.0973
 4681SOL    HW125505   4.319   2.191   3.876 -0.1733 -1.2866  0.0052
 4681SOL    HW225506   4.240   2.281   3.958 -0.9928  0.2595 -0.1269
 4682SOL     OW25507   2.839   1.448  16.781 -0.1119 -0.1688 -0.3463
 4682SOL    HW125508   2.926   1.447  16.742  0.2501  0.6725  0.4302
 4682SOL    HW225509   2.800   1.364  16.757 -0.3286 -0.1320 -0.1288
 4683SOL     OW25510   3.190   1.872   1.039 -0.1494 -0.1326 -0.1297
 4683SOL    HW125511   3.138   1.867   1.120 -1.9397 -2.1475 -1.4033
 4683SOL    HW225512   3.142   1.806   0.988 -2.2152  0.8354  0.5802
 4684SOL     OW25513   2.769   1.573  13.923 -0.2782  0.1285 -0.6231
 4684SOL    HW125514   2.851   1.587  13.970 -0.6597 -0.2030  0.1455
 4684SOL    HW225515   2.794   1.520  13.847 -0.1981  0.0120 -0.5165
 4685SOL     OW25516   4.160   1.227   6.248 -0.0667 -0.2174  0.0772
 4685SOL    HW125517   4.252   1.239   6.272 -0.1440 -0.0537  0.2904
 4685SOL    HW225518   4.158   1.275   6.166 -0.8927  0.1716  0.3342
 4686SOL     OW25519   3.078   2.085   3.671 -0.4652 -0.2460  0.3740
 4686SOL    HW125520   3.073   2.090   3.576 -0.0349  1.4835  0.4350
 4686SOL    HW225521   3.034   2.001   3.685  3.0123 -2.0045  0.8027
 4687SOL     OW25522   2.717   3.319  13.159 -0.2757 -0.3802  0.1826
 4687SOL    HW125523   2.744   3.227  13.156 -1.4362 -0.7688  1.5149
 4687SOL    HW225524   2.806   3.354  13.165  0.5163 -1.9769 -2.1182
 4688SOL     OW25525   0.398   1.068   9.058  0.6234 -0.3660  0.6116
 4688SOL    HW125526   0.490   1.046   9.041  0.1052 -1.5586 -0.6744
 4688SOL    HW225527   0.348   1.061   8.976  0.3644  3.5456  0.4755
 4689SOL     OW25528   2.860   4.088  15.785 -0.1381  0.0897  0.5923
 4689SOL    HW125529   2.944   4.044  15.793 -0.4987 -0.5600  0.8122
 4689SOL    HW225530   2.846   4.098  15.691 -0.2420 -2.5785  0.3165
 4690SOL     OW25531   4.620   3.685   6.214  0.3078 -0.4455 -0.4756
 4690SOL    HW125532   4.686   3.618   6.197  2.2145  1.5446 -0.8785
 4690SOL    HW225533   4.611   3.688   6.310 -1.2714  0.4702 -0.6561
 4691SOL     OW25534   3.002   0.507   8.146 -0.4821 -0.4415  0.0216
 4691SOL    HW125535   2.980   0.553   8.227 -0.1469  0.9800 -0.6838
 4691SOL    HW225536   3.087   0.543   8.120  0.5408 -3.6406 -1.0516
 4692SOL     OW25537   1.687   2.177  16.303  0.4774  0.5412 -0.3965
 4692SOL    HW125538   1.679   2.170  16.208 -2.3946  2.1352 -0.2730
 4692SOL    HW225539   1.617   2.239  16.325 -0.0687 -0.2985  0.2755
 4693SOL     OW25540   0.920   3.724  10.101  0.5793  0.3010  0.2325
 4693SOL    HW125541   0.880   3.641  10.129 -2.1674  1.5728  0.0662
 4693SOL    HW225542   0.879   3.793  10.152  2.0875  0.7537  0.8365
 4694SOL     OW25543   2.744   2.596   5.118 -0.2766 -0.4333 -0.1145
 4694SOL    HW125544   2.685   2.660   5.157  0.3723  0.5302 -0.7081
 4694SOL    HW225545   2.720   2.512   5.156 -1.3371  0.8728  2.0895
 4695SOL     OW25546   0.318   0.182  15.158  0.5895  0.0816  0.1212
 4695SOL    HW125547   0.352   0.146  15.075  3.0197  0.9798  0.7225
 4695SOL    HW225548   0.369   0.127  15.218  1.7358  1.1274  0.1165
 4696SOL     OW25549   0.162   4.358   4.932 -0.2008 -0.3705  0.1553
 4696SOL    HW125550   0.244   4.385   4.973  0.2130  0.1370 -0.9915
 4696SOL    HW225551   0.131   4.305   5.005  0.0750 -0.5499  0.1384
 4697SOL     OW25552   2.934   1.353   6.457  0.1596 -0.5964 -0.2856
 4697SOL    HW125553   2.971   1.411   6.523  0.4163  0.8085 -1.6643
 4697SOL    HW225554   3.003   1.341   6.391  0.8045  0.5270  0.1872
 4698SOL     OW25555   1.344   2.387  17.008  0.3710 -0.3003  0.0592
 4698SOL    HW125556   1.435   2.396  16.978  0.3640 -0.5739 -0.0439
 4698SOL    HW225557   1.317   2.479  17.004 -0.1442 -0.5889 -3.9578
 4699SOL     OW25558   3.033   1.221  13.610 -0.1551 -0.0776  0.3839
 4699SOL    HW125559   3.114   1.172  13.596 -1.0024 -0.6799 -2.4029
 4699SOL    HW225560   2.966   1.163  13.575  0.5218 -0.4352 -0.3071
 4700SOL     OW25561   0.107   2.403   0.765  0.1353 -0.0976 -0.5323
 4700SOL    HW125562   0.058   2.425   0.844  0.1525 -0.7095 -0.3512
 4700SOL    HW225563   0.043   2.436   0.702 -0.2235  0.8535  0.3475
 4701SOL     OW25564   0.616   2.840   4.202  0.6843  0.3117 -0.8284
 4701SOL    HW125565   0.552   2.799   4.144 -0.0118  0.9218 -0.4836
 4701SOL    HW225566   0.639   2.764   4.255 -1.8014 -0.1590 -0.4174
 4702SOL     OW25567   3.968   1.204   0.301 -0.1081  0.3824  0.3424
 4702SOL    HW125568   4.058   1.232   0.286 -0.1422 -0.4386 -1.3579
 4702SOL    HW225569   3.937   1.211   0.211 -0.1504  2.3273  0.4973
 4703SOL     OW25570   3.820   4.271   7.750  0.0835  0.0352  0.5294
 4703SOL    HW125571   3.800   4.325   7.674 -0.9383 -0.5440  0.4007
 4703SOL    HW225572   3.755   4.203   7.737 -0.4992  0.5905  0.5231
 4704SOL     OW25573   1.713   4.467   5.806  0.4168  0.6465 -0.9348
 4704SOL    HW125574   1.694   4.560   5.797 -0.6586  0.6527  1.6309
 4704SOL    HW225575   1.657   4.439   5.878 -1.5665  0.5436 -2.5035
 4705SOL     OW25576   3.529   0.621  15.216  0.6568 -0.0266  0.2988
 4705SOL    HW125577   3.502   0.687  15.152  2.6433  0.4494 -0.0596
 4705SOL    HW225578   3.590   0.676  15.266 -1.0932  2.9057 -0.8184
 4706SOL     OW25579   2.530   0.359   9.637 -0.3776  0.2656 -0.4247
 4706SOL    HW125580   2.618   0.374   9.672 -0.0386  0.4812 -1.3660
 4706SOL    HW225581   2.470   0.406   9.695 -3.2921 -1.8929 -1.7037
 4707SOL     OW25582   4.299   2.875   7.908  0.0896  0.7113 -0.4436
 4707SOL    HW125583   4.376   2.900   7.958  2.1879 -1.4183 -2.6355
 4707SOL    HW225584   4.326   2.797   7.861  0.2595  0.9282 -0.7051
 4708SOL     OW25585   3.628   4.496   5.263  0.0673  0.8082  0.0108
 4708SOL    HW125586   3.707   4.474   5.214 -2.4236 -2.5559 -2.4662
 4708SOL    HW225587   3.557   4.464   5.206 -0.0821 -0.0411  0.6740
 4709SOL     OW25588   2.270   1.817   6.079 -0.0669  0.4522  0.0882
 4709SOL    HW125589   2.278   1.723   6.065 -1.4728  0.8786 -3.5507
 4709SOL    HW225590   2.357   1.851   6.060  1.0815 -1.9623  1.1002
 4710SOL     OW25591   4.254   4.666  16.615 -0.1332  0.2442 -0.0419
 4710SOL    HW125592   4.267   4.577  16.583  2.4798  1.2663 -1.7503
 4710SOL    HW225593   4.315   4.723  16.569  2.4642 -1.2898  1.5231
 4711SOL     OW25594   3.279   3.746   4.371  0.0157  0.3871 -0.0213
 4711SOL    HW125595   3.288   3.839   4.350 -0.1178 -0.1798 -2.5381
 4711SOL    HW225596   3.188   3.732   4.400  0.1040  1.5561  0.7897
 4712SOL     OW25597   1.897   4.303   5.906  0.3173 -0.0799  0.2997
 4712SOL    HW125598   1.832   4.365   5.873  0.0300  0.4782  1.9126
 4712SOL    HW225599   1.907   4.240   5.835  1.8074 -0.3688  0.7502
 4713SOL     OW25600   0.028   1.907  16.474  0.7879  0.3295 -0.2193
 4713SOL    HW125601   0.059   1.905  16.564 -1.7519 -3.2423  0.5601
 4713SOL    HW225602   0.050   1.818  16.449 -1.4426 -0.0658 -0.7707
 4714SOL     OW25603   1.750   0.083   1.036  0.2506 -0.1282 -0.1625
 4714SOL    HW125604   1.745   0.174   1.008  1.3435  0.3077  1.0772
 4714SOL    HW225605   1.845   0.074   1.029  0.2422 -1.5549  1.5871
 4715SOL     OW25606   2.764   2.917   6.177  0.1260  0.0450  0.1964
 4715SOL    HW125607   2.671   2.936   6.188 -0.0764  0.8539 -2.8767
 4715SOL    HW225608   2.757   2.896   6.084  0.1166  1.3718 -0.1097
 4716SOL     OW25609   4.101   1.497   6.336 -0.3457  0.5245 -0.6535
 4716SOL    HW125610   4.089   1.409   6.301 -0.9685 -0.2149  1.4333
 4716SOL    HW225611   4.015   1.528   6.363  0.6463  1.2798  1.6079
 4717SOL     OW25612   2.987   2.450   6.872  0.7064  0.3745 -0.5236
 4717SOL    HW125613   3.031   2.514   6.927 -1.1900 -0.7994  2.3823
 4717SOL    HW225614   2.915   2.417   6.925  0.4524  0.1558 -1.0034
 4718SOL     OW25615   2.577   2.560  16.506  0.3712  0.1582  0.0839
 4718SOL    HW125616   2.585   2.469  16.536  2.6847  1.1897  2.5867
 4718SOL    HW225617   2.483   2.571  16.516  0.7868  3.6772  0.1722
 4719SOL     OW25618   1.935   4.454   2.340 -0.0385 -0.2345  0.1304
 4719SOL    HW125619   1.937   4.456   2.436  0.6340 -0.4895  0.1151
 4719SOL    HW225620   1.930   4.548   2.325 -3.0371 -0.7599 -2.1443
 4720SOL     OW25621   1.296   2.718   2.704 -0.6734 -0.0721 -0.2692
 4720SOL    HW125622   1.272   2.762   2.622  0.3163  3.1007  1.1304
 4720SOL    HW225623   1.370   2.773   2.730 -0.1026 -1.3405  0.8137
 4721SOL     OW25624   4.661   4.646   6.447  0.5367  0.0958 -0.0828
 4721SOL    HW125625   4.581   4.593   6.450 -0.5260  1.8196  2.3270
 4721SOL    HW225626   4.690   4.629   6.358 -0.6871 -0.1599 -0.4340
 4722SOL     OW25627   4.246   1.380  17.291 -0.0038 -0.6408  0.7332
 4722SOL    HW125628   4.262   1.406  17.382  1.4341  1.4521 -0.0989
 4722SOL    HW225629   4.185   1.307  17.300 -0.2823 -0.1691  2.6259
 4723SOL     OW25630   1.889   4.645   4.247 -0.4382  0.1130  0.2044
 4723SOL    HW125631   1.932   4.632   4.332 -2.3966 -0.2023  1.1483
 4723SOL    HW225632   1.877   4.554   4.220 -0.0342  0.7545 -2.1373
 4724SOL     OW25633   4.367   0.027   4.106 -0.0645  0.1286  0.8189
 4724SOL    HW125634   4.420   0.049   4.029  0.2374  0.7711  1.2104
 4724SOL    HW225635   4.290   0.084   4.103  0.6530  1.1200  1.0939
 4725SOL     OW25636   0.239   3.461   7.205  0.0911  0.1470 -0.1998
 4725SOL    HW125637   0.293   3.530   7.244 -0.3990  0.9156 -0.8815
 4725SOL    HW225638   0.231   3.405   7.282  0.0143 -2.6358 -2.2314
 4726SOL     OW25639   0.409   2.435   3.694  0.4007 -0.4262 -0.3476
 4726SOL    HW125640   0.430   2.348   3.728  1.4118  0.6858  1.8728
 4726SOL    HW225641   0.374   2.400   3.611  0.2297 -1.0236 -0.0280
 4727SOL     OW25642   4.528   4.475   1.744 -0.0138 -0.0863 -0.0276
 4727SOL    HW125643   4.441   4.501   1.711  0.3570  1.9109  0.5798
 4727SOL    HW225644   4.503   4.437   1.828  2.1759  3.1393  2.0812
 4728SOL     OW25645   3.193   3.361   6.196 -0.0086 -0.0579  0.0343
 4728SOL    HW125646   3.228   3.450   6.200 -1.3359  0.4056  1.2983
 4728SOL    HW225647   3.147   3.366   6.280  1.8452  3.3936  0.8292
 4729SOL     OW25648   2.127   4.190   2.929 -0.0241 -0.2714 -0.0621
 4729SOL    HW125649   2.217   4.159   2.942  0.0189  1.3425  3.6613
 4729SOL    HW225650   2.134   4.228   2.841  1.1150 -0.6268 -0.1276
 4730SOL     OW25651   3.569   3.465   1.528 -0.4232  0.1190 -0.4265
 4730SOL    HW125652   3.613   3.541   1.565  0.8526 -0.4048 -0.8667
 4730SOL    HW225653   3.538   3.500   1.445 -2.0480 -0.9931 -0.2899
 4731SOL     OW25654   2.793   4.587   4.721 -0.1536  0.1816  0.0610
 4731SOL    HW125655   2.763   4.500   4.748 -0.0987  0.2150  0.2300
 4731SOL    HW225656   2.742   4.643   4.780 -2.2488  0.9945 -2.4963
 4732SOL     OW25657   4.054   2.320  13.226 -0.8182  0.3604 -0.5052
 4732SOL    HW125658   3.996   2.246  13.208  0.7731 -0.5404 -1.8773
 4732SOL    HW225659   4.128   2.271  13.260 -0.3015 -0.1692 -2.4262
 4733SOL     OW25660   3.617   1.364   9.649  0.4315 -0.2038  0.0515
 4733SOL    HW125661   3.570   1.333   9.571 -0.1788 -1.2861  0.8512
 4733SOL    HW225662   3.708   1.356   9.619  0.5706  1.3069  0.0824
 4734SOL     OW25663   4.523   0.112  13.726  0.8188 -0.3816 -0.0365
 4734SOL    HW125664   4.576   0.100  13.647  1.4381 -0.6566  0.4237
 4734SOL    HW225665   4.457   0.174  13.694  2.6542  1.1240 -0.9097
 4735SOL     OW25666   3.258   0.863  14.123  0.3473  0.6458 -0.1133
 4735SOL    HW125667   3.163   0.857  14.137  0.7490  0.4449  2.4532
 4735SOL    HW225668   3.293   0.841  14.209 -0.4349 -0.2447 -0.0246
 4736SOL     OW25669   0.156   1.449   7.901  0.4366  0.2712 -0.0607
 4736SOL    HW125670   0.232   1.508   7.903 -0.0724  0.9402 -0.4708
 4736SOL    HW225671   0.187   1.371   7.855  0.0767  0.2589 -0.2846
 4737SOL     OW25672   1.277   2.290   1.162  0.1122 -0.4416  0.4836
 4737SOL    HW125673   1.210   2.222   1.157 -0.6001  0.5119 -2.8517
 4737SOL    HW225674   1.238   2.348   1.227  0.7419 -0.9732  1.3476
 4738SOL     OW25675   0.339   1.975   7.711  0.3325  0.1446  0.1700
 4738SOL    HW125676   0.352   1.881   7.702  3.3790  0.5514  0.0801
 4738SOL    HW225677   0.413   2.005   7.763  1.0050 -1.4430  0.1327
 4739SOL     OW25678   3.408   0.956  13.899 -0.9723  0.1446 -0.6322
 4739SOL    HW125679   3.364   0.916  13.974  1.4568 -1.6308 -0.1613
 4739SOL    HW225680   3.439   1.037  13.940 -0.2089 -0.5240  0.1291
 4740SOL     OW25681   2.630   4.702   3.637  0.7634 -0.2742 -0.1007
 4740SOL    HW125682   2.545   0.012   3.610  0.2898 -0.3266  1.3176
 4740SOL    HW225683   2.619   4.609   3.618  1.9035 -0.7512  1.6073
 4741SOL     OW25684   1.181   0.165  17.004  0.1109  0.1411  0.2593
 4741SOL    HW125685   1.173   0.127  17.091 -2.2974  0.7413  0.3227
 4741SOL    HW225686   1.099   0.216  17.006  0.0610 -0.0122  1.7498
 4742SOL     OW25687   2.974   3.644   2.920 -0.4862 -0.0788 -0.4029
 4742SOL    HW125688   2.973   3.586   2.844  1.1833 -2.0167  1.0556
 4742SOL    HW225689   2.906   3.607   2.976 -0.8823 -0.9089 -1.4377
 4743SOL     OW25690   1.561   1.667   3.202 -0.2979  0.0053  0.3925
 4743SOL    HW125691   1.519   1.703   3.125  0.3917 -1.7094 -0.7902
 4743SOL    HW225692   1.492   1.602   3.216 -0.1253 -0.0179  1.1663
 4744SOL     OW25693   2.350   3.886  15.195 -0.0551  0.0815  0.1044
 4744SOL    HW125694   2.381   3.864  15.283  1.1309 -1.1797 -0.6340
 4744SOL    HW225695   2.352   3.981  15.209 -1.9372  0.3522 -1.5020
 4745SOL     OW25696   4.336   4.188  14.200  0.2169 -0.1756  0.3868
 4745SOL    HW125697   4.304   4.190  14.290 -1.2608  3.4214 -0.1996
 4745SOL    HW225698   4.406   4.125  14.216  1.3493  0.9934  0.0803
 4746SOL     OW25699   1.575   2.800  14.916  0.0367 -0.1451 -0.2208
 4746SOL    HW125700   1.575   2.705  14.909  3.3752 -0.0909 -1.0192
 4746SOL    HW225701   1.486   2.823  14.890 -0.2139 -0.8323  0.0217
 4747SOL     OW25702   3.241   2.963   4.374  0.2885  0.5571 -0.2468
 4747SOL    HW125703   3.330   2.968   4.339  0.1496  0.0659 -0.6641
 4747SOL    HW225704   3.211   2.914   4.298  2.8726 -2.8831  0.9358
 4748SOL     OW25705   0.108   1.872   9.220  0.3873 -0.5795  0.4827
 4748SOL    HW125706   0.111   1.936   9.292  0.5996  0.0957 -0.1242
 4748SOL    HW225707   0.086   1.788   9.260 -0.4567 -0.1038  1.0203
 4749SOL     OW25708   3.213   0.766  15.862 -0.0081 -0.1382 -0.0448
 4749SOL    HW125709   3.251   0.836  15.914 -0.0881 -0.3115  0.2465
 4749SOL    HW225710   3.269   0.770  15.785 -1.5248 -0.0672 -1.1502
 4750SOL     OW25711   2.354   0.640  17.211 -0.2492 -0.5229  0.5646
 4750SOL    HW125712   2.290   0.596  17.267  0.0040 -0.3397  0.9922
 4750SOL    HW225713   2.342   0.730  17.240 -1.3256  0.0954 -1.7598
 4751SOL     OW25714   2.850   0.000   6.634  0.7046  0.6277 -0.2666
 4751SOL    HW125715   2.784   4.697   6.697  1.0101  0.9643  0.1919
 4751SOL    HW225716   2.818   0.090   6.624  0.6421  0.6765  0.3765
 4752SOL     OW25717   4.132   1.245   0.669  0.3950 -0.2431  0.1861
 4752SOL    HW125718   4.051   1.211   0.631  0.0668  0.5950  0.1517
 4752SOL    HW225719   4.109   1.307   0.738 -0.8573 -2.2776  1.6035
 4753SOL     OW25720   2.043   2.975   3.168 -0.0624 -0.3398  0.1519
 4753SOL    HW125721   2.014   3.028   3.243  0.6544 -1.6948  1.4011
 4753SOL    HW225722   2.031   3.030   3.091 -1.8161 -1.7051 -0.5426
 4754SOL     OW25723   1.552   3.361   3.408 -0.0591  0.4596  0.2747
 4754SOL    HW125724   1.620   3.348   3.473  0.7549  0.9636 -0.4849
 4754SOL    HW225725   1.590   3.428   3.351  1.4644 -0.6530  0.0043
 4755SOL     OW25726   3.276   0.329   4.400  0.0384  0.3992 -0.1708
 4755SOL    HW125727   3.310   0.241   4.417 -0.7556 -0.0860 -1.0913
 4755SOL    HW225728   3.300   0.372   4.482 -1.3449 -3.1437  2.0967
 4756SOL     OW25729   1.046   3.432   1.218  0.5532  0.0232 -0.2870
 4756SOL    HW125730   1.037   3.345   1.178  2.1871 -0.2209 -0.1316
 4756SOL    HW225731   1.069   3.489   1.144  0.6429 -0.4458 -0.6210
 4757SOL     OW25732   0.487   0.923   6.502  0.1337 -0.0171 -0.3360
 4757SOL    HW125733   0.408   0.870   6.509  0.7102 -0.5898  1.5661
 4757SOL    HW225734   0.498   0.950   6.593  0.4565 -2.4925  0.3469
 4758SOL     OW25735   3.938   2.682   8.978 -0.5132 -0.0819  0.3156
 4758SOL    HW125736   3.856   2.716   8.941  1.0154 -0.7001 -3.6018
 4758SOL    HW225737   3.966   2.756   9.032 -0.0863  0.2181 -0.3130
 4759SOL     OW25738   2.435   2.384   4.753  0.4680 -1.0074 -0.5699
 4759SOL    HW125739   2.473   2.342   4.677  3.5167 -1.0925  1.0125
 4759SOL    HW225740   2.358   2.407   4.701 -0.1682 -1.9500 -0.0434
 4760SOL     OW25741   1.517   2.159  17.271  0.0598 -0.2882  0.2506
 4760SOL    HW125742   1.449   2.124  17.213 -1.0242  1.8222  0.2659
 4760SOL    HW225743   1.484   2.248  17.284  1.7913  0.8596 -3.1541
 4761SOL     OW25744   3.295   0.342  12.097  0.5108  0.0556  0.4347
 4761SOL    HW125745   3.220   0.392  12.129  0.2230 -0.5256  0.6820
 4761SOL    HW225746   3.298   0.370  12.006 -1.7644 -1.5634 -0.1514
 4762SOL     OW25747   3.593   4.454   7.956 -0.7590 -0.0084 -0.2598
 4762SOL    HW125748   3.598   4.374   8.008 -0.7362  0.3798  0.3325
 4762SOL    HW225749   3.526   4.502   8.005 -1.1524 -1.8115  1.0084
 4763SOL     OW25750   3.996   4.695   9.339 -0.0682  0.5244 -0.3559
 4763SOL    HW125751   3.985   4.615   9.390 -0.1596  1.8282  1.7200
 4763SOL    HW225752   4.089   4.706   9.357  0.5891 -1.0965 -2.8624
 4764SOL     OW25753   3.237   0.563   4.915  0.7072 -0.3660 -0.4618
 4764SOL    HW125754   3.300   0.559   4.987  0.1820  0.7387  0.0569
 4764SOL    HW225755   3.204   0.652   4.929 -1.1957 -1.0126 -0.8359
 4765SOL     OW25756   0.814   4.611   6.342 -0.1137  0.1052  0.0399
 4765SOL    HW125757   0.833   4.602   6.249 -1.6165  3.2137 -0.5641
 4765SOL    HW225758   0.902   4.591   6.375 -0.1659 -0.8612 -0.4008
 4766SOL     OW25759   1.183   1.559   0.430  0.2289  0.1291  0.4743
 4766SOL    HW125760   1.171   1.644   0.387  0.7705  0.6087  1.2884
 4766SOL    HW225761   1.250   1.514   0.379  1.0547 -0.9172  2.5229
 4767SOL     OW25762   0.627   2.643   8.835  0.0363 -0.0678  0.2448
 4767SOL    HW125763   0.574   2.572   8.872 -0.1425  0.8002  1.6574
 4767SOL    HW225764   0.633   2.587   8.758 -2.3174  0.9487 -0.6799
 4768SOL     OW25765   0.528   0.333   5.542 -0.4060  0.3039  0.5240
 4768SOL    HW125766   0.463   0.338   5.473  0.4942  0.4068 -0.3208
 4768SOL    HW225767   0.471   0.310   5.615  0.1501  0.2520  0.9437
 4769SOL     OW25768   0.932   0.522   3.277 -0.4628  0.2291 -0.2581
 4769SOL    HW125769   0.946   0.536   3.371 -3.9658  0.1111  0.2639
 4769SOL    HW225770   1.007   0.463   3.266 -1.1570 -0.4005 -1.5862
 4770SOL     OW25771   2.358   3.160   3.146 -0.2221  0.3614 -0.5715
 4770SOL    HW125772   2.352   3.129   3.237  1.8161  2.5349  0.2827
 4770SOL    HW225773   2.271   3.200   3.137 -0.1381  0.8369  0.7322
 4771SOL     OW25774   0.155   4.160  13.548  0.2332 -0.7634 -0.3814
 4771SOL    HW125775   0.108   4.147  13.630  3.1424 -0.4183  1.3020
 4771SOL    HW225776   0.246   4.138  13.568  0.3147  1.4742  1.7144
 4772SOL     OW25777   1.323   3.100   4.693 -0.6177  0.8001 -0.9179
 4772SOL    HW125778   1.352   3.190   4.684 -0.3453  0.8387  0.4077
 4772SOL    HW225779   1.330   3.087   4.787 -1.2749  1.6081 -0.7593
 4773SOL     OW25780   1.790   1.350   8.047 -0.3398 -0.5872  0.5170
 4773SOL    HW125781   1.709   1.385   8.083  0.2042  2.4382 -1.1735
 4773SOL    HW225782   1.827   1.422   7.994 -2.1961  0.5542  0.7529
 4774SOL     OW25783   0.830   3.201   1.359  0.0527 -0.4161 -0.6136
 4774SOL    HW125784   0.764   3.223   1.425  0.9449  3.7026 -1.1054
 4774SOL    HW225785   0.836   3.282   1.309 -0.3183  0.0377  0.0724
 4775SOL     OW25786   1.763   3.887   8.462  0.5376  0.3421 -0.0988
 4775SOL    HW125787   1.769   3.981   8.483  1.3645  0.3919 -0.5486
 4775SOL    HW225788   1.853   3.857   8.470  0.2956 -0.8462 -1.8723
 4776SOL     OW25789   2.086   2.934   0.554 -0.1941  0.1054 -0.4998
 4776SOL    HW125790   2.090   2.884   0.473  1.1216  0.6197 -0.7559
 4776SOL    HW225791   2.034   2.873   0.606 -1.2102  2.9023  1.8034
 4777SOL     OW25792   1.338   2.481   6.005  0.2541  0.0567  0.1927
 4777SOL    HW125793   1.384   2.461   5.923  0.0999  0.5716 -0.0158
 4777SOL    HW225794   1.262   2.429   5.981  0.6361  0.3356 -1.6057
 4778SOL     OW25795   4.479   4.717  13.068 -0.6754 -0.7742 -0.2650
 4778SOL    HW125796   4.394   4.721  13.026  0.1668  0.9976 -1.7974
 4778SOL    HW225797   4.535   4.676  13.002 -1.0803  1.8884 -2.2453
 4779SOL     OW25798   1.175   1.864  13.721 -0.3956  0.0122  0.3847
 4779SOL    HW125799   1.118   1.787  13.726  0.4831 -0.6467  0.1574
 4779SOL    HW225800   1.254   1.810  13.722 -0.6734 -0.3922  1.3802
 4780SOL     OW25801   4.622   2.370   3.492 -0.3769  0.4415  0.4780
 4780SOL    HW125802   4.650   2.395   3.405 -1.9912 -1.4193 -0.5831
 4780SOL    HW225803   4.532   2.341   3.475  0.2901 -1.1524 -0.3321
 4781SOL     OW25804   3.467   3.993  16.330  0.1007 -0.1313  0.2749
 4781SOL    HW125805   3.559   4.021  16.332 -0.2020  0.9381 -1.0204
 4781SOL    HW225806   3.427   4.069  16.289  3.0425  1.2847  0.0391
 4782SOL     OW25807   2.775   2.307  14.969 -0.1491  0.3230 -0.2613
 4782SOL    HW125808   2.818   2.347  14.893 -2.3265  0.4901 -1.3965
 4782SOL    HW225809   2.780   2.215  14.943  3.6313  0.5100 -0.2942
 4783SOL     OW25810   1.299   2.686   3.724 -1.0130 -0.2244  0.4711
 4783SOL    HW125811   1.374   2.660   3.778 -0.7336  1.0648  0.7026
 4783SOL    HW225812   1.329   2.755   3.664 -0.2361 -0.1599  0.9330
 4784SOL     OW25813   4.391   4.465   6.993  0.4013  0.0022 -0.3443
 4784SOL    HW125814   4.365   4.549   6.955  0.2564 -0.1049 -0.4802
 4784SOL    HW225815   4.371   4.406   6.921 -1.1787  0.3126 -0.1533
 4785SOL     OW25816   3.270   4.698   8.730  0.2908 -0.0587 -0.1413
 4785SOL    HW125817   3.263   4.693   8.825  2.7564  2.0467  0.1326
 4785SOL    HW225818   3.359   4.662   8.719  0.1042 -0.5467 -0.0462
 4786SOL     OW25819   2.111   4.277   6.078  0.1315 -0.4393  0.1809
 4786SOL    HW125820   2.033   4.283   6.023  0.0562  1.3770  0.4874
 4786SOL    HW225821   2.071   4.264   6.163  0.2308 -1.1188  0.1211
 4787SOL     OW25822   1.688   1.692   7.001 -0.3397  0.1041  0.2891
 4787SOL    HW125823   1.600   1.703   7.036  0.1653  0.5613  1.4206
 4787SOL    HW225824   1.703   1.598   7.000  0.3773  0.2196  0.6025
 4788SOL     OW25825   3.410   1.689   2.664  0.2378 -0.0755  0.3418
 4788SOL    HW125826   3.466   1.763   2.643 -0.4955  0.4654  0.3090
 4788SOL    HW225827   3.342   1.691   2.597  0.0480 -1.3822  0.4853
 4789SOL     OW25828   0.446   2.709   4.744  0.3248  0.0192 -0.3355
 4789SOL    HW125829   0.354   2.703   4.770  0.2445 -0.5773 -0.7531
 4789SOL    HW225830   0.449   2.650   4.668  0.3972 -1.5438  0.8755
 4790SOL     OW25831   1.956   3.198   2.464  0.0372  0.2729  0.2836
 4790SOL    HW125832   1.953   3.103   2.450 -0.1559  0.5367 -1.4751
 4790SOL    HW225833   2.051   3.203   2.469  0.0768 -1.1814  1.1630
 4791SOL     OW25834   2.649   1.657   4.107 -0.2496 -0.1416 -0.1652
 4791SOL    HW125835   2.558   1.629   4.119 -0.9882  2.7178  0.8422
 4791SOL    HW225836   2.687   1.603   4.176 -1.8536 -0.9545  0.0932
 4792SOL     OW25837   4.083   4.034   8.338  0.0909 -0.0531 -0.5463
 4792SOL    HW125838   4.147   4.097   8.303  1.0433 -2.3460 -2.8821
 4792SOL    HW225839   4.110   4.036   8.430 -1.9480  0.6230  0.0344
 4793SOL     OW25840   2.756   2.277   7.059  0.1349 -0.1980 -0.3313
 4793SOL    HW125841   2.698   2.331   7.005 -0.3570 -0.5460 -0.1443
 4793SOL    HW225842   2.695   2.204   7.068 -1.4794  1.3587  1.4080
 4794SOL     OW25843   3.682   3.890   9.768  0.4521 -0.1373  0.2877
 4794SOL    HW125844   3.724   3.963   9.722 -1.0656  0.5094 -0.0879
 4794SOL    HW225845   3.710   3.903   9.859  2.7778  0.5365 -0.5440
 4795SOL     OW25846   2.809   4.526   6.419 -0.2246 -0.4309 -0.3644
 4795SOL    HW125847   2.783   4.533   6.511  1.5178  1.0971  0.0282
 4795SOL    HW225848   2.892   4.480   6.429 -0.7792 -1.5059 -0.7519
 4796SOL     OW25849   2.839   1.848  14.737 -0.3350 -0.1309  0.2684
 4796SOL    HW125850   2.838   1.904  14.659  0.4966 -0.3968  0.0749
 4796SOL    HW225851   2.824   1.914  14.805 -0.2465  0.2131 -0.0473
 4797SOL     OW25852   1.204   1.742   6.183 -0.7571 -0.3055 -0.7842
 4797SOL    HW125853   1.289   1.755   6.224 -0.8028 -1.6529 -0.2600
 4797SOL    HW225854   1.196   1.650   6.158 -1.8912 -0.0989 -1.1987
 4798SOL     OW25855   4.128   4.035  17.475 -0.2650 -0.0642  0.1240
 4798SOL    HW125856   4.115   3.963  17.414  2.2947 -1.1597  0.8634
 4798SOL    HW225857   4.066   4.010  17.544 -0.6307 -1.3622 -0.6794
 4799SOL     OW25858   4.299   1.673   6.141 -0.0693 -0.2067  0.0304
 4799SOL    HW125859   4.351   1.598   6.170 -1.1489 -0.5286  1.1430
 4799SOL    HW225860   4.361   1.742   6.117  0.1770 -0.5325 -0.2547
 4800SOL     OW25861   4.187   3.373   3.123 -0.8681  0.2684  0.0371
 4800SOL    HW125862   4.190   3.295   3.067  0.3898  1.2497 -1.2296
 4800SOL    HW225863   4.183   3.332   3.210  2.1707  1.2585  0.6564
 4801SOL     OW25864   1.327   4.016   7.406 -0.0394 -0.5754  0.1361
 4801SOL    HW125865   1.312   4.094   7.459  0.6804 -0.7613  0.6083
 4801SOL    HW225866   1.323   3.953   7.478  1.2560 -0.4004  0.3603
 4802SOL     OW25867   2.465   0.278  13.990  0.2157 -0.2074  0.2511
 4802SOL    HW125868   2.427   0.365  14.003  0.1185 -0.1450 -0.4847
 4802SOL    HW225869   2.499   0.291  13.902 -0.7944 -1.7618 -0.3743
 4803SOL     OW25870   4.486   3.016  16.956 -0.6587 -0.2223  0.7310
 4803SOL    HW125871   4.410   3.013  17.014 -0.8985  0.0335  0.4305
 4803SOL    HW225872   4.494   2.924  16.932 -1.1519 -0.2299  0.6089
 4804SOL     OW25873   3.484   1.822  14.356 -0.0464  0.2640 -0.1258
 4804SOL    HW125874   3.523   1.735  14.343  2.4432  1.1328  1.5764
 4804SOL    HW225875   3.558   1.873  14.325 -0.3536  1.0644  0.4744
 4805SOL     OW25876   1.940   2.343  16.180 -0.0610  0.0200 -0.2013
 4805SOL    HW125877   1.873   2.297  16.130 -1.6969  1.4841  0.6430
 4805SOL    HW225878   1.980   2.391  16.108 -1.5792 -0.8303 -1.5984
 4806SOL     OW25879   4.617   4.274   4.493 -0.3261  0.0252 -0.0223
 4806SOL    HW125880   4.658   4.320   4.566  0.3088  1.0061 -0.9810
 4806SOL    HW225881   4.613   4.346   4.430 -1.3467  0.1082  0.1280
 4807SOL     OW25882   1.860   0.894   7.548 -0.4374 -0.5043  0.1986
 4807SOL    HW125883   1.852   0.890   7.643 -0.6128 -1.0359  0.1583
 4807SOL    HW225884   1.956   0.895   7.540 -0.5262  0.8653 -0.6731
 4808SOL     OW25885   2.213   2.094   4.669 -0.1932  0.1536 -0.4224
 4808SOL    HW125886   2.217   2.128   4.580 -0.1252  0.5235 -0.2786
 4808SOL    HW225887   2.150   2.150   4.716  0.5022 -0.8171  1.6764
 4809SOL     OW25888   0.537   0.247   1.755 -0.2653  0.3723 -0.8095
 4809SOL    HW125889   0.572   0.263   1.668  0.9548 -1.7662 -0.7188
 4809SOL    HW225890   0.591   0.303   1.811  0.2796 -0.0249 -0.9380
 4810SOL     OW25891   4.695   1.184   5.147  0.5346  0.4081 -0.2732
 4810SOL    HW125892   4.723   1.095   5.123 -1.2299 -0.0236 -0.6994
 4810SOL    HW225893   0.032   1.236   5.093  3.5028 -0.6964  1.9812
 4811SOL     OW25894   0.965   1.267   3.522 -0.4611 -0.1428  0.4278
 4811SOL    HW125895   0.964   1.181   3.564  3.0527 -0.9461 -1.0739
 4811SOL    HW225896   1.057   1.282   3.500 -0.7539 -1.0846 -1.4385
 4812SOL     OW25897   1.520   2.848   3.160  0.0965  0.1595 -0.3228
 4812SOL    HW125898   1.475   2.919   3.113 -2.0809 -0.3947  0.9439
 4812SOL    HW225899   1.575   2.901   3.218  1.6868 -0.9886 -0.8062
 4813SOL     OW25900   4.017   2.671   7.764  0.1851 -0.0684 -0.3991
 4813SOL    HW125901   3.929   2.637   7.776  0.8100 -1.1994  1.0126
 4813SOL    HW225902   4.038   2.707   7.850  0.3440 -1.0502 -0.0271
 4814SOL     OW25903   1.840   1.433   5.627 -0.3023 -0.1453 -0.2500
 4814SOL    HW125904   1.927   1.399   5.648  0.2301  0.9521 -0.7177
 4814SOL    HW225905   1.821   1.484   5.705  1.7125  1.3144 -0.7185
 4815SOL     OW25906   2.429   0.285  12.667 -0.2993 -0.7276  0.1068
 4815SOL    HW125907   2.361   0.327  12.719 -0.5522 -0.6292 -0.3007
 4815SOL    HW225908   2.439   0.354  12.601 -3.4789 -0.3621  0.0088
 4816SOL     OW25909   1.375   0.189  12.658  0.4773 -0.3065  0.0664
 4816SOL    HW125910   1.290   0.155  12.686 -1.3366  2.1115 -2.4616
 4816SOL    HW225911   1.422   0.106  12.657  0.7017 -0.1568 -1.3266
 4817SOL     OW25912   0.071   1.079  10.198 -0.1413  0.4550 -0.7343
 4817SOL    HW125913   0.109   1.063  10.284  1.7039 -1.6198 -1.9368
 4817SOL    HW225914   0.137   1.056  10.133  1.0247  1.3018  0.1331
 4818SOL     OW25915   0.160   2.750   6.375  0.0060 -0.0858 -0.2190
 4818SOL    HW125916   0.234   2.706   6.333 -0.8175  0.7045 -2.5281
 4818SOL    HW225917   0.166   2.737   6.469 -0.3253  1.0217 -0.0504
 4819SOL     OW25918   0.513   4.717   1.176  0.1361  0.2228  0.3816
 4819SOL    HW125919   0.526   4.623   1.159 -0.1656  0.3161 -0.3421
 4819SOL    HW225920   0.598   0.024   1.145 -0.0514  0.4595  0.1020
 4820SOL     OW25921   1.967   2.818   7.282 -0.0253  0.1140  0.5175
 4820SOL    HW125922   2.034   2.750   7.289  0.0267  0.1737  0.5921
 4820SOL    HW225923   2.000   2.871   7.354  0.8317 -1.7758  1.4926
 4821SOL     OW25924   2.452   2.308  10.184  0.9373 -0.1851 -0.7517
 4821SOL    HW125925   2.458   2.400  10.207  0.5076 -0.4103  0.2761
 4821SOL    HW225926   2.488   2.310  10.096  0.9616 -2.1356 -0.8050
 4822SOL     OW25927   1.864   1.716  11.077  0.8351 -0.3404 -0.2395
 4822SOL    HW125928   1.842   1.742  11.166  1.1780  1.9371 -0.8156
 4822SOL    HW225929   1.873   1.803  11.038 -2.1371  0.7997  1.6167
 4823SOL     OW25930   3.926   2.363   0.285  0.3233  0.4908  0.0845
 4823SOL    HW125931   4.001   2.322   0.242 -1.0672 -0.7460 -1.1690
 4823SOL    HW225932   3.966   2.447   0.305 -1.6319  1.0237  1.7484
 4824SOL     OW25933   4.637   1.730  11.578  0.1390  0.1357 -0.4917
 4824SOL    HW125934   4.650   1.800  11.514  0.8033  0.1749 -0.3199
 4824SOL    HW225935   4.545   1.745  11.597 -0.1190  0.6392 -2.1628
 4825SOL     OW25936   3.205   1.233   8.732  0.2285  0.0697 -0.2047
 4825SOL    HW125937   3.279   1.173   8.744 -0.5595 -0.3910  2.3279
 4825SOL    HW225938   3.245   1.306   8.779 -1.9378  0.3140  1.2106
 4826SOL     OW25939   1.920   2.281   6.882 -0.1520  0.5370  1.0847
 4826SOL    HW125940   2.003   2.242   6.854  0.5648  1.7846  1.4480
 4826SOL    HW225941   1.860   2.254   6.812  1.8120 -1.5719  0.1928
 4827SOL     OW25942   2.213   3.454   5.154  0.2307 -0.0743 -0.0563
 4827SOL    HW125943   2.248   3.385   5.210  1.0139 -0.1449 -0.6408
 4827SOL    HW225944   2.289   3.502   5.119 -0.9572  0.2500 -2.1852
 4828SOL     OW25945   4.179   3.344   5.523 -0.1806 -0.0302  0.1391
 4828SOL    HW125946   4.107   3.404   5.537 -0.9596 -0.8540 -0.3190
 4828SOL    HW225947   4.250   3.402   5.552 -1.5626  0.2536  2.9195
 4829SOL     OW25948   4.555   2.364   5.432 -0.6959  0.2988  0.4680
 4829SOL    HW125949   4.480   2.419   5.409 -1.2970 -0.4451  0.6660
 4829SOL    HW225950   4.613   2.396   5.363 -1.5661 -0.8242 -0.7830
 4830SOL     OW25951   4.440   3.982   6.935 -0.0625 -0.2473  0.4284
 4830SOL    HW125952   4.354   4.020   6.952 -0.1747 -0.2140 -0.1953
 4830SOL    HW225953   4.487   4.053   6.890 -0.6279 -2.0138 -2.9521
 4831SOL     OW25954   2.855   2.009   5.029 -0.7283  0.5101 -0.1343
 4831SOL    HW125955   2.827   2.014   5.120 -1.7798  2.8965 -0.5997
 4831SOL    HW225956   2.873   2.102   5.016 -0.3197  0.4394 -0.0952
 4832SOL     OW25957   3.085   1.758   7.024 -0.1262 -0.3104  0.1999
 4832SOL    HW125958   3.163   1.709   6.999 -0.0040 -0.0387  0.0425
 4832SOL    HW225959   3.048   1.697   7.087 -0.7591 -1.2503 -1.0825
 4833SOL     OW25960   2.260   0.995  16.311  0.4855  0.3220 -0.2292
 4833SOL    HW125961   2.263   0.923  16.374  0.7838  1.0342  0.5707
 4833SOL    HW225962   2.228   1.066  16.367 -1.2175  1.3816 -2.5131
 4834SOL     OW25963   1.766   4.100  15.949 -0.1661  0.1697  0.1491
 4834SOL    HW125964   1.857   4.073  15.933 -0.2368  1.0365 -1.7292
 4834SOL    HW225965   1.786   4.192  15.965  1.2585 -0.5928  2.6438
 4835SOL     OW25966   3.928   0.468   8.532  0.6894  0.0589 -0.7212
 4835SOL    HW125967   3.985   0.468   8.455  2.3701 -1.0528  0.5310
 4835SOL    HW225968   3.843   0.430   8.511  0.5099  0.5668 -0.9299
 4836SOL     OW25969   3.982   1.478   3.027 -0.2586 -0.2070  0.0049
 4836SOL    HW125970   4.004   1.409   3.090 -1.3586 -0.1830  0.4166
 4836SOL    HW225971   3.913   1.430   2.981 -1.3653 -0.5174  1.9858
 4837SOL     OW25972   4.523   1.864   8.614  0.1112 -0.4128 -0.0116
 4837SOL    HW125973   4.564   1.921   8.679 -1.8076  0.0755  0.7838
 4837SOL    HW225974   4.473   1.810   8.676 -0.6661  0.3664  0.0416
 4838SOL     OW25975   2.667   4.049   5.737  0.4836  0.0631 -0.4232
 4838SOL    HW125976   2.619   4.129   5.759  0.0991 -0.2872 -0.0021
 4838SOL    HW225977   2.592   3.996   5.711 -1.5499  2.8211 -0.2735
 4839SOL     OW25978   0.369   1.165   6.395 -0.4767 -0.0312  0.3489
 4839SOL    HW125979   0.300   1.148   6.460 -2.7304  2.5568 -1.3686
 4839SOL    HW225980   0.427   1.093   6.418  1.5160  2.0515  1.7375
 4840SOL     OW25981   4.535   3.504   6.434  0.3844  0.1709  0.0143
 4840SOL    HW125982   4.546   3.445   6.359 -0.9318 -0.4156  0.2686
 4840SOL    HW225983   4.441   3.523   6.432  0.5084  0.6877 -0.8327
 4841SOL     OW25984   1.788   0.349   8.051 -0.0076  0.3374  0.3377
 4841SOL    HW125985   1.762   0.273   8.001  0.6971  0.9630 -0.9723
 4841SOL    HW225986   1.811   0.415   7.986 -0.9638  0.0775 -0.2643
 4842SOL     OW25987   4.537   4.140   6.727 -0.1508 -0.1980 -0.0813
 4842SOL    HW125988   4.562   4.060   6.682 -2.1922  1.3641 -4.0306
 4842SOL    HW225989   4.583   4.207   6.677 -0.2154  0.6801  1.0362
 4843SOL     OW25990   2.939   0.633  15.324 -0.2096 -0.3901 -0.1680
 4843SOL    HW125991   2.945   0.689  15.248 -0.2915  1.9278  1.5345
 4843SOL    HW225992   2.904   0.706  15.375 -0.4665 -0.9608  0.4745
 4844SOL     OW25993   1.216   0.385   4.487  0.2921  0.2677 -0.3908
 4844SOL    HW125994   1.262   0.457   4.532  2.8940 -1.6405  0.0016
 4844SOL    HW225995   1.209   0.408   4.394 -0.1572  0.7741 -0.2330
 4845SOL     OW25996   0.046   2.269   6.512  0.2666  0.0184 -0.0129
 4845SOL    HW125997   0.122   2.320   6.540  1.3795 -1.9975  0.5933
 4845SOL    HW225998   0.016   2.254   6.602 -1.4306  0.4732 -0.4900
 4846SOL     OW25999   2.454   0.950   5.659  0.1326 -0.1690 -0.2694
 4846SOL    HW126000   2.360   0.935   5.652 -0.0825 -0.1748  2.7810
 4846SOL    HW226001   2.477   0.884   5.594 -0.9279 -1.2322  0.4477
 4847SOL     OW26002   2.665   4.277   0.634  0.8134  0.0449 -0.0588
 4847SOL    HW126003   2.697   4.240   0.717 -0.2927 -0.5987  0.0824
 4847SOL    HW226004   2.737   4.338   0.620  0.0907  1.1758  1.1923
 4848SOL     OW26005   4.593   4.694  15.910 -0.3039  0.1229  0.4764
 4848SOL    HW126006   4.607   4.604  15.879 -0.2882  0.5063 -0.6389
 4848SOL    HW226007   4.589   0.014  15.824  0.9984  1.9000  1.3248
 4849SOL     OW26008   0.432   3.727   3.417 -0.2986  0.2626  0.0704
 4849SOL    HW126009   0.523   3.743   3.393  0.0080  1.2943  1.8592
 4849SOL    HW226010   0.404   3.659   3.356 -1.4049  0.0409  0.8249
 4850SOL     OW26011   0.234   3.282   3.650  0.5524  0.5573  0.1320
 4850SOL    HW126012   0.190   3.198   3.636  0.2590  0.9947 -1.6119
 4850SOL    HW226013   0.188   3.314   3.727 -1.6903  0.3223 -1.1197
 4851SOL     OW26014   1.980   0.031   2.992  0.0314  0.7524 -0.4478
 4851SOL    HW126015   1.917   4.715   2.933 -0.8084  0.7505  0.4642
 4851SOL    HW226016   1.930   0.054   3.070  0.2001  1.4215 -0.5376
 4852SOL     OW26017   2.871   0.776   7.482  0.0458 -0.1848 -0.0323
 4852SOL    HW126018   2.893   0.828   7.559  0.0651  0.7879 -0.6992
 4852SOL    HW226019   2.880   0.686   7.512  0.2000  0.1222  0.8312
 4853SOL     OW26020   1.327   1.393   8.367  0.4663 -0.0488 -0.0357
 4853SOL    HW126021   1.289   1.326   8.424 -0.2985  1.7379  1.5651
 4853SOL    HW226022   1.261   1.405   8.299 -1.0515 -2.2036  1.0617
 4854SOL     OW26023   0.649   0.694   3.689 -0.6056 -0.3340 -0.6068
 4854SOL    HW126024   0.583   0.626   3.674  0.1941 -1.2870  0.1941
 4854SOL    HW226025   0.641   0.752   3.613  1.9494  1.8139  0.7451
 4855SOL     OW26026   1.732   1.233   3.255 -0.4052  0.0936 -0.4456
 4855SOL    HW126027   1.714   1.282   3.175 -0.6308  2.5961  1.1452
 4855SOL    HW226028   1.741   1.143   3.224  2.8829  0.5648 -0.9178
 4856SOL     OW26029   4.164   2.519   7.551  0.0257  0.3838 -0.3646
 4856SOL    HW126030   4.147   2.562   7.467  2.5480  1.4301 -0.3279
 4856SOL    HW226031   4.118   2.572   7.616 -0.1367 -1.2231  0.8090
 4857SOL     OW26032   0.354   0.936  16.357  0.0635  0.0417  0.3073
 4857SOL    HW126033   0.443   0.907  16.337  0.1373  0.0301  0.6599
 4857SOL    HW226034   0.349   1.018  16.307  0.4519  1.4986  2.6552
 4858SOL     OW26035   4.589   4.473   4.274 -0.1745  0.1185 -0.2235
 4858SOL    HW126036   4.531   4.444   4.204 -1.1739  0.8131  0.3090
 4858SOL    HW226037   4.662   4.505   4.221  1.5694  0.4838  2.3837
 4859SOL     OW26038   4.433   2.349   6.790 -0.4836 -0.0958 -0.4254
 4859SOL    HW126039   4.498   2.280   6.795 -1.2689 -0.7542  0.6650
 4859SOL    HW226040   4.346   2.310   6.803  0.2557 -1.7389 -0.4621
 4860SOL     OW26041   0.808   3.216  10.443 -0.3867  0.3420  0.0383
 4860SOL    HW126042   0.816   3.173  10.528 -3.4544 -0.3716 -0.0187
 4860SOL    HW226043   0.850   3.300  10.464 -4.5487  2.4687 -0.1309
 4861SOL     OW26044   3.979   1.830  13.376  0.1191  0.6818 -0.6730
 4861SOL    HW126045   3.900   1.786  13.408 -0.5482  2.4777  0.1423
 4861SOL    HW226046   4.046   1.779  13.422 -0.9108 -1.2137 -1.2697
 4862SOL     OW26047   1.101   4.285   3.460 -0.1656  0.0820  0.5817
 4862SOL    HW126048   1.038   4.288   3.388  0.1016 -0.8942  0.3128
 4862SOL    HW226049   1.151   4.366   3.448  1.4729 -1.0803 -0.3585
 4863SOL     OW26050   2.400   4.380   2.608 -0.2663 -0.2626  0.2662
 4863SOL    HW126051   2.323   4.358   2.660  0.8966 -1.8206  1.3228
 4863SOL    HW226052   2.367   4.459   2.565 -1.6904 -2.2536 -2.3331
 4864SOL     OW26053   4.393   0.192  10.513  0.7298  0.4533  0.2931
 4864SOL    HW126054   4.427   0.227  10.431  0.5199  0.4865  0.2208
 4864SOL    HW226055   4.353   0.111  10.479 -1.1146  0.5345  2.2378
 4865SOL     OW26056   0.049   2.612   5.822  0.1005  0.0014  0.3283
 4865SOL    HW126057   0.029   2.618   5.916 -1.9432  0.0165 -0.1147
 4865SOL    HW226058   0.139   2.644   5.827  0.1548  0.0783 -1.4309
 4866SOL     OW26059   3.527   1.157   5.279  0.5912 -0.1738 -0.3698
 4866SOL    HW126060   3.485   1.106   5.209  1.4655 -1.1426 -0.1831
 4866SOL    HW226061   3.489   1.099   5.345  0.5690  0.3066  0.0352
 4867SOL     OW26062   2.263   2.496  14.682  0.7021 -0.1506  0.5862
 4867SOL    HW126063   2.313   2.576  14.664 -0.8797  0.0248 -3.1914
 4867SOL    HW226064   2.327   2.449  14.735  0.2569 -0.6597  0.6662
 4868SOL     OW26065   0.088   3.756   2.076 -0.4040 -0.2089  0.1500
 4868SOL    HW126066   0.027   3.790   2.011 -0.7785  0.1180  0.6750
 4868SOL    HW226067   0.035   3.719   2.147 -0.7022  2.4542  1.2870
 4869SOL     OW26068   3.597   3.101   2.474  0.1839  0.4616 -0.0049
 4869SOL    HW126069   3.562   3.115   2.386 -1.1521  1.5520  0.6991
 4869SOL    HW226070   3.531   3.145   2.526 -0.2821  0.6397 -0.7443
 4870SOL     OW26071   1.855   1.235  15.366 -0.0270 -0.2703 -0.0029
 4870SOL    HW126072   1.850   1.331  15.366 -1.6208 -0.3738  1.2828
 4870SOL    HW226073   1.912   1.221  15.442  0.4560 -0.4281 -0.3935
 4871SOL     OW26074   2.535   1.108   9.304 -0.0324  0.0016  0.7462
 4871SOL    HW126075   2.621   1.069   9.288  0.2173  0.9407 -0.2091
 4871SOL    HW226076   2.484   1.038   9.344  1.9461 -1.6809  0.3346
 4872SOL     OW26077   2.486   0.244   7.336  0.1657 -0.1130 -0.0023
 4872SOL    HW126078   2.542   0.288   7.400 -0.7364  0.1710  0.5955
 4872SOL    HW226079   2.411   0.219   7.390  0.3553 -1.2475 -0.2484
 4873SOL     OW26080   3.381   3.305   5.705  0.1753  0.2782  0.2136
 4873SOL    HW126081   3.472   3.314   5.678  0.3801 -0.2762  0.7216
 4873SOL    HW226082   3.340   3.360   5.638  1.0575 -1.1916 -1.5467
 4874SOL     OW26083   2.639   4.385   2.826 -0.4426 -0.3035 -0.2041
 4874SOL    HW126084   2.572   4.343   2.772  0.7798 -2.4570 -0.0429
 4874SOL    HW226085   2.587   4.408   2.903 -0.1469  2.4920 -0.8351
 4875SOL     OW26086   4.443   0.420   4.866  0.1035 -0.2643 -0.0921
 4875SOL    HW126087   4.429   0.510   4.894  1.1631 -0.0752 -0.1438
 4875SOL    HW226088   4.526   0.428   4.819 -0.4787 -0.8147 -1.2228
 4876SOL     OW26089   3.644   3.151   6.269 -0.1459 -0.5039  0.0166
 4876SOL    HW126090   3.615   3.060   6.257 -0.4901 -0.2147 -1.3901
 4876SOL    HW226091   3.602   3.173   6.352  1.2388 -1.0019  0.8436
 4877SOL     OW26092   1.503   4.563   4.487  0.2392  0.4352 -0.2677
 4877SOL    HW126093   1.574   4.498   4.492 -2.3729 -2.3198  1.8186
 4877SOL    HW226094   1.530   4.618   4.560 -1.6624 -0.3431  1.0417
 4878SOL     OW26095   1.481   0.955  14.489 -0.6493 -0.0385 -0.2564
 4878SOL    HW126096   1.470   0.983  14.580  0.3537  0.8136 -0.3893
 4878SOL    HW226097   1.411   1.005  14.446 -1.1714 -0.1004  0.5203
 4879SOL     OW26098   0.425   3.818   7.603 -0.1850  0.2652 -0.1788
 4879SOL    HW126099   0.415   3.726   7.624 -0.3417 -0.0255 -1.5537
 4879SOL    HW226100   0.413   3.861   7.688  0.8626  0.2634 -0.0263
 4880SOL     OW26101   4.551   1.768   1.104 -0.2318 -0.2938  0.0595
 4880SOL    HW126102   4.585   1.714   1.176 -0.0074 -0.2943 -0.0461
 4880SOL    HW226103   4.611   1.743   1.033  1.2576  0.6107  1.0141
 4881SOL     OW26104   2.262   4.376   7.635  0.2781  0.5275 -0.1679
 4881SOL    HW126105   2.306   4.415   7.560 -1.7232  0.4627 -1.3513
 4881SOL    HW226106   2.234   4.452   7.686 -0.3156  1.5892 -2.1041
 4882SOL     OW26107   4.407   2.314  13.959  0.2509  0.2297  0.2866
 4882SOL    HW126108   4.326   2.303  13.910  0.8446  2.3595 -1.1917
 4882SOL    HW226109   4.447   2.229  13.973 -0.5829 -0.2531 -0.2763
 4883SOL     OW26110   3.501   3.018   1.780  0.4997 -0.2883 -0.1573
 4883SOL    HW126111   3.497   3.113   1.774  1.6043 -0.2191  0.2602
 4883SOL    HW226112   3.590   3.006   1.814  0.8021  1.8965 -0.1931
 4884SOL     OW26113   4.578   4.087   9.675 -0.2624 -0.0009  0.2607
 4884SOL    HW126114   4.597   4.045   9.591 -0.8613 -2.6578  1.4729
 4884SOL    HW226115   4.583   4.175   9.637 -0.3877 -1.1191 -2.3295
 4885SOL     OW26116   2.681   4.179  12.214 -0.5986  0.3588 -0.0631
 4885SOL    HW126117   2.692   4.109  12.279 -0.5402 -2.1178 -2.7053
 4885SOL    HW226118   2.699   4.258  12.264 -1.3340  1.8076 -2.1076
 4886SOL     OW26119   4.094   2.828   3.697 -0.1302 -0.0484 -0.0530
 4886SOL    HW126120   4.155   2.844   3.625  1.0754 -1.0468  0.7476
 4886SOL    HW226121   4.015   2.805   3.649 -0.5508 -1.3072  1.2284
 4887SOL     OW26122   4.064   4.196   8.852 -0.7055  0.0532  0.2146
 4887SOL    HW126123   4.084   4.280   8.811 -0.4858 -0.1311 -0.0622
 4887SOL    HW226124   4.143   4.171   8.901 -0.8364 -1.0195 -0.1254
 4888SOL     OW26125   3.535   1.971   1.699 -0.4862  0.4425  0.0601
 4888SOL    HW126126   3.512   1.977   1.606 -1.3519 -0.0293  0.2389
 4888SOL    HW226127   3.629   1.968   1.687 -0.6815 -3.6262 -0.3187
 4889SOL     OW26128   3.171   0.127   3.893 -0.2363  0.3675  0.6253
 4889SOL    HW126129   3.144   0.036   3.886 -0.1667  0.4124 -0.2240
 4889SOL    HW226130   3.122   0.154   3.971  0.4411 -0.5139  1.3567
 4890SOL     OW26131   0.279   0.905  10.033  0.3386 -0.5073 -0.5306
 4890SOL    HW126132   0.253   0.848  10.105 -1.0878 -0.3212 -0.9145
 4890SOL    HW226133   0.369   0.927  10.058  0.6969 -1.0831 -1.3379
 4891SOL     OW26134   4.020   2.490  15.818 -0.3251 -0.6312 -0.1753
 4891SOL    HW126135   3.929   2.476  15.793 -0.4129 -0.8554  0.2589
 4891SOL    HW226136   4.015   2.469  15.912  0.8619 -2.2845 -0.4826
 4892SOL     OW26137   1.022   4.269  13.557  0.8777  0.0859  0.2253
 4892SOL    HW126138   0.934   4.294  13.530  1.6261  2.0625 -0.4025
 4892SOL    HW226139   1.058   4.356  13.576  0.4282  0.4771 -0.7018
 4893SOL     OW26140   3.529   3.243   8.579  0.3959  0.2475 -0.3389
 4893SOL    HW126141   3.595   3.178   8.555  1.5393  2.1675 -2.3889
 4893SOL    HW226142   3.466   3.195   8.634  1.8849 -1.2827  0.0391
 4894SOL     OW26143   2.453   3.025   5.142 -0.2613 -0.1452 -0.5155
 4894SOL    HW126144   2.402   3.007   5.063 -1.3875 -0.4466  0.2775
 4894SOL    HW226145   2.532   2.986   5.105  1.1234  0.1404  2.0957
 4895SOL     OW26146   3.325   3.703   4.030 -0.0566  0.1090 -0.2693
 4895SOL    HW126147   3.420   3.686   4.034  0.3247  2.4508  0.4533
 4895SOL    HW226148   3.312   3.705   4.125  0.3304  0.6400 -0.2254
 4896SOL     OW26149   3.787   3.108   2.843 -0.4744 -0.0066  0.0569
 4896SOL    HW126150   3.811   3.199   2.829  1.4451 -0.4536  0.5039
 4896SOL    HW226151   3.764   3.113   2.936  0.6001 -1.0942  0.3751
 4897SOL     OW26152   3.204   2.806   4.161 -0.5458 -0.4896 -0.0286
 4897SOL    HW126153   3.142   2.733   4.153 -0.1687 -0.6117 -1.8052
 4897SOL    HW226154   3.201   2.853   4.078  2.0601 -1.8088 -0.8973
 4898SOL     OW26155   1.582   2.559   8.118  0.3479  0.1934  0.2305
 4898SOL    HW126156   1.501   2.508   8.118  0.5196 -0.0902 -2.6926
 4898SOL    HW226157   1.581   2.589   8.208 -0.7085  0.9917 -0.0433
 4899SOL     OW26158   3.973   3.101   3.134  0.1017  0.0025 -0.4758
 4899SOL    HW126159   4.027   3.142   3.066  0.3870  1.7170  0.8036
 4899SOL    HW226160   3.978   3.007   3.119 -0.6541 -0.4054  1.9592
 4900SOL     OW26161   1.553   2.981  12.224  0.7511 -0.1515  0.0401
 4900SOL    HW126162   1.634   3.031  12.215  2.3533 -2.2526  2.7266
 4900SOL    HW226163   1.585   2.897  12.258 -0.1690 -0.5586 -0.1083
 4901SOL     OW26164   1.906   0.640   8.540  0.6988  0.0826 -0.0416
 4901SOL    HW126165   1.845   0.681   8.479  1.0813 -0.1691 -0.5927
 4901SOL    HW226166   1.899   0.549   8.509 -1.0249 -0.0279  0.6947
 4902SOL     OW26167   0.254   2.870   7.759 -0.3610 -0.7366 -0.0859
 4902SOL    HW126168   0.293   2.797   7.710  1.5169  0.4741 -0.4211
 4902SOL    HW226169   0.325   2.890   7.819 -0.3378 -0.6745 -0.1335
 4903SOL     OW26170   2.922   4.622   9.240  0.3356  0.1929 -0.0072
 4903SOL    HW126171   2.966   4.578   9.314 -0.7077  0.0295  0.5133
 4903SOL    HW226172   2.922   4.550   9.177 -2.0979  0.8039 -0.6887
 4904SOL     OW26173   2.186   4.167   0.814 -0.2585  0.2486 -0.1361
 4904SOL    HW126174   2.232   4.208   0.888 -0.5775 -5.3381  3.1096
 4904SOL    HW226175   2.260   4.160   0.753  0.0715 -2.4232  0.5998
 4905SOL     OW26176   3.062   3.072   7.686 -0.4343 -0.5658 -0.2175
 4905SOL    HW126177   3.137   3.021   7.716 -1.0835 -2.1740 -1.3232
 4905SOL    HW226178   3.040   3.031   7.603  0.1488  0.4348 -0.8696
 4906SOL     OW26179   3.442   2.074   5.110 -0.5438  0.2577  0.1338
 4906SOL    HW126180   3.358   2.115   5.093 -0.9065 -0.5254  0.0302
 4906SOL    HW226181   3.495   2.141   5.067  0.0117 -0.0661  0.3046
 4907SOL     OW26182   0.596   0.325   8.266 -0.1780  0.6892 -0.5088
 4907SOL    HW126183   0.667   0.324   8.202 -2.0761  2.0117 -2.6147
 4907SOL    HW226184   0.572   0.232   8.265 -0.0861  0.6693 -0.7461
 4908SOL     OW26185   3.251   3.994   4.604  0.1604 -0.0803 -0.3892
 4908SOL    HW126186   3.282   4.020   4.517 -0.1079 -2.9207 -1.3284
 4908SOL    HW226187   3.190   3.924   4.583 -1.4268  1.2775 -0.2487
 4909SOL     OW26188   2.548   0.953   6.164  0.9086  0.0026 -0.2559
 4909SOL    HW126189   2.592   1.001   6.094  1.3907  0.9868  0.7160
 4909SOL    HW226190   2.604   0.882   6.196 -0.2003 -1.1254 -0.7985
 4910SOL     OW26191   0.249   1.093   8.111 -0.0354 -0.4223  0.0837
 4910SOL    HW126192   0.172   1.072   8.164  0.0876 -0.3140  0.3055
 4910SOL    HW226193   0.296   1.168   8.146 -1.4709  0.2411  0.5517
 4911SOL     OW26194   3.626   2.401  11.456  0.0986  0.0059  0.2788
 4911SOL    HW126195   3.669   2.453  11.388  0.0353 -1.2110 -0.6775
 4911SOL    HW226196   3.553   2.366  11.405  0.8281 -0.1533 -0.6363
 4912SOL     OW26197   1.109   0.399   5.739  0.0075 -0.0346 -0.3379
 4912SOL    HW126198   1.038   0.463   5.749 -1.4839 -1.4818 -1.6069
 4912SOL    HW226199   1.115   0.368   5.829  1.8529  1.2357 -0.0346
 4913SOL     OW26200   3.211   3.499   9.398  0.0843 -0.3147  0.6587
 4913SOL    HW126201   3.167   3.546   9.327 -1.9328 -4.2543 -0.7473
 4913SOL    HW226202   3.230   3.413   9.360  1.5863  0.4188 -0.2310
 4914SOL     OW26203   1.715   3.742   8.709 -0.5514  0.5172 -0.2001
 4914SOL    HW126204   1.706   3.783   8.623  0.6730 -1.6560 -1.3588
 4914SOL    HW226205   1.641   3.783   8.754  0.0953 -0.7299  1.9723
 4915SOL     OW26206   1.852   1.494   0.124  0.2532  0.0671 -0.0936
 4915SOL    HW126207   1.793   1.429   0.162  1.1452  0.1826  1.4679
 4915SOL    HW226208   1.809   1.513   0.040 -1.5121 -0.3620  0.7020
 4916SOL     OW26209   1.746   0.337  10.796  0.2288 -0.1096  0.0557
 4916SOL    HW126210   1.787   0.250  10.799  0.0754 -0.1775  0.2338
 4916SOL    HW226211   1.654   0.314  10.809  0.3562  0.6113  2.3233
 4917SOL     OW26212   1.692   2.391   7.736  0.0492 -0.0238  0.4912
 4917SOL    HW126213   1.717   2.447   7.662 -0.8934  2.5739  2.1314
 4917SOL    HW226214   1.623   2.448   7.770  1.8511  2.3333  0.2091
 4918SOL     OW26215   1.050   1.389   7.169  0.2011 -0.0458  0.3767
 4918SOL    HW126216   1.138   1.361   7.145  0.5124  0.2108  1.2192
 4918SOL    HW226217   1.007   1.311   7.204 -0.2615 -0.1713 -0.4757
 4919SOL     OW26218   0.270   0.124  14.699  0.0839  0.6411 -0.2332
 4919SOL    HW126219   0.191   0.176  14.684 -1.1514 -0.6882  1.6968
 4919SOL    HW226220   0.294   0.080  14.617  3.1719 -0.6143  1.3514
 4920SOL     OW26221   1.249   0.142  13.338 -0.6697  0.3045 -0.4599
 4920SOL    HW126222   1.283   0.189  13.262 -1.8389 -0.2970 -1.3518
 4920SOL    HW226223   1.266   0.052  13.310  1.5814  0.8180 -0.7879
 4921SOL     OW26224   0.500   2.443  17.696 -0.2414  0.4769 -0.3787
 4921SOL    HW126225   0.431   2.500   0.032 -0.9583 -0.2438 -0.6285
 4921SOL    HW226226   0.452   2.376  17.647  0.5396 -0.7083  0.4947
 4922SOL     OW26227   0.369   4.165   5.818 -0.1631  0.6089 -0.4622
 4922SOL    HW126228   0.367   4.099   5.888  3.0701 -1.9070 -2.7735
 4922SOL    HW226229   0.312   4.229   5.862  1.1283  0.8315  0.8876
 4923SOL     OW26230   2.885   3.398   7.538  0.1461 -0.3857  0.0438
 4923SOL    HW126231   2.959   3.421   7.483  0.5136 -0.2199  0.6165
 4923SOL    HW226232   2.870   3.478   7.588 -0.8005  0.3982 -1.5021
 4924SOL     OW26233   2.733   3.781  12.854  0.0215 -0.2743  0.7188
 4924SOL    HW126234   2.685   3.828  12.923 -0.0582 -0.0147  0.4884
 4924SOL    HW226235   2.701   3.825  12.775  0.0346  1.0803  1.4689
 4925SOL     OW26236   0.392   3.470   8.159  0.0201  0.0418  0.2305
 4925SOL    HW126237   0.342   3.419   8.222 -1.8551  1.6786  0.0809
 4925SOL    HW226238   0.440   3.532   8.214  0.0933  2.0389 -2.0778
 4926SOL     OW26239   2.545   1.725   5.412 -0.5708 -0.6556  0.1335
 4926SOL    HW126240   2.639   1.718   5.393 -0.1697  0.6916  1.5682
 4926SOL    HW226241   2.530   1.641   5.455 -1.5748 -0.4478  0.1929
 4927SOL     OW26242   3.010   1.928   1.269 -0.0886  0.3576 -0.0275
 4927SOL    HW126243   3.031   1.954   1.359  0.6023 -0.5070  0.0643
 4927SOL    HW226244   2.938   1.869   1.291  1.8718 -1.3827  1.8119
 4928SOL     OW26245   2.245   3.732   8.252  0.1079 -0.0367  0.1346
 4928SOL    HW126246   2.169   3.759   8.200  0.9924  0.6189 -0.8106
 4928SOL    HW226247   2.274   3.653   8.208 -1.0163 -1.4736  1.9675
 4929SOL     OW26248   0.370   3.864   6.223  0.5442 -0.0766 -0.5871
 4929SOL    HW126249   0.438   3.798   6.211 -0.4256 -1.1962  0.0276
 4929SOL    HW226250   0.304   3.809   6.266  0.5538  1.1254  0.9535
 4930SOL     OW26251   3.152   3.437   8.815 -0.2855  0.3099  0.1464
 4930SOL    HW126252   3.240   3.401   8.822  0.1136  2.0861  4.0248
 4930SOL    HW226253   3.116   3.372   8.754  0.6836  0.7108 -0.8615
 4931SOL     OW26254   1.545   1.925   7.304  0.3926 -0.5701 -0.2913
 4931SOL    HW126255   1.582   1.920   7.393 -5.0647 -1.0490  1.9214
 4931SOL    HW226256   1.461   1.886   7.330 -0.1184  2.4687  2.6625
 4932SOL     OW26257   1.099   0.284   7.203  0.1773  0.0956  0.2394
 4932SOL    HW126258   1.135   0.294   7.115 -0.7436 -0.1979 -0.1667
 4932SOL    HW226259   1.151   0.342   7.258  0.0458  1.3996 -1.0151
 4933SOL     OW26260   3.400   0.688   8.811 -0.1218  0.2256 -0.3919
 4933SOL    HW126261   3.366   0.746   8.743  0.1650  0.2477 -0.5170
 4933SOL    HW226262   3.350   0.607   8.813  0.6332 -0.2189  0.5186
 4934SOL     OW26263   0.013   0.402  16.520 -0.5047 -0.2047 -0.3122
 4934SOL    HW126264   4.723   0.308  16.523 -1.6014  0.0035  0.9945
 4934SOL    HW226265   0.108   0.413  16.514 -0.5143  0.9445  1.5418
 4935SOL     OW26266   3.190   1.646   9.013  0.5133 -0.3654 -0.1484
 4935SOL    HW126267   3.245   1.682   9.083  1.5231 -1.5740 -0.3348
 4935SOL    HW226268   3.106   1.655   9.057  1.8466  0.9171  2.1188
 4936SOL     OW26269   0.103   4.411  15.658  0.6029  0.4021 -0.1522
 4936SOL    HW126270   0.022   4.454  15.685  0.6435  0.4066 -0.0351
 4936SOL    HW226271   0.070   4.342  15.601 -0.6455 -0.5630  1.7370
 4937SOL     OW26272   3.469   1.568   8.717  0.4952  0.2424 -0.8592
 4937SOL    HW126273   3.401   1.510   8.753 -0.0882  0.3285 -1.8064
 4937SOL    HW226274   3.523   1.499   8.679  0.8603 -0.0367  0.1758
 4938SOL     OW26275   1.343   4.341   8.318 -0.3414  0.2279  0.1778
 4938SOL    HW126276   1.374   4.427   8.346 -0.8357  0.0360  1.2935
 4938SOL    HW226277   1.320   4.352   8.226  1.9426  1.8392 -0.2042
 4939SOL     OW26278   0.847   3.872  15.189 -0.7149  0.0991 -0.1288
 4939SOL    HW126279   0.916   3.809  15.166  0.2998  0.3404  2.3120
 4939SOL    HW226280   0.778   3.825  15.142 -1.4703 -0.5621  1.6257
 4940SOL     OW26281   1.328   1.938   7.980  0.2908  0.1478 -0.2644
 4940SOL    HW126282   1.319   2.024   7.939 -1.4207 -1.1326 -2.5682
 4940SOL    HW226283   1.261   1.928   8.048  1.5341  0.4731  1.0121
 4941SOL     OW26284   0.040   0.818   7.054 -0.6785  0.0738  0.2701
 4941SOL    HW126285   0.079   0.733   7.076 -0.0197  0.6056  1.1556
 4941SOL    HW226286   4.705   0.794   6.983  2.0593 -1.7652 -1.4123
 4942SOL     OW26287   1.963   0.942   8.431  0.5378 -0.0970  0.3673
 4942SOL    HW126288   1.974   1.013   8.368  0.2512  1.1722  1.7597
 4942SOL    HW226289   1.903   0.984   8.491 -0.8143  0.2119 -1.1906
 4943SOL     OW26290   0.348   2.243   8.953  0.1689  0.4469  0.3347
 4943SOL    HW126291   0.356   2.163   9.005  0.3718  0.7605  0.7894
 4943SOL    HW226292   0.379   2.207   8.870  1.1070  1.3543  0.2842
 4944SOL     OW26293   3.334   0.364  17.416  0.2738 -0.2208  0.0724
 4944SOL    HW126294   3.253   0.381  17.368  0.5988 -0.4428 -0.5530
 4944SOL    HW226295   3.332   0.419  17.494  1.6576  1.7834 -1.2992
 4945SOL     OW26296   3.747   4.558   8.505 -0.0012 -0.2488  0.3341
 4945SOL    HW126297   3.720   4.645   8.475  0.4442 -0.2080  0.0557
 4945SOL    HW226298   3.691   4.506   8.447  0.7262 -0.1048 -0.4919
 4946SOL     OW26299   2.340   0.315  11.006  0.1693  0.0410  0.1219
 4946SOL    HW126300   2.305   0.404  11.012 -0.9090 -0.4480  1.1191
 4946SOL    HW226301   2.411   0.332  11.067  0.2187 -0.5782  0.2387
 4947SOL     OW26302   4.329   4.689   7.734  0.0971  0.3682 -0.2366
 4947SOL    HW126303   4.298   0.048   7.769  2.8889  1.4687 -0.3854
 4947SOL    HW226304   4.279   4.633   7.793 -1.1054  1.7597  0.0744
 4948SOL     OW26305   1.802   4.053   1.460  0.0619 -0.3774  0.1226
 4948SOL    HW126306   1.897   4.052   1.448 -0.2222 -3.3598 -2.0397
 4948SOL    HW226307   1.787   3.981   1.399  1.7616 -1.3057  0.7904
 4949SOL     OW26308   4.149   4.028   2.181  0.0000  0.3172 -0.1193
 4949SOL    HW126309   4.061   3.994   2.164  0.5624 -1.5774  0.7888
 4949SOL    HW226310   4.158   3.996   2.271 -0.0006  0.8479  0.0711
 4950SOL     OW26311   3.118   3.241  12.141 -0.2392 -0.4428 -0.7557
 4950SOL    HW126312   3.084   3.275  12.224 -0.4627  0.6509 -1.2995
 4950SOL    HW226313   3.096   3.314  12.084  0.4645  1.4220  1.3764
 4951SOL     OW26314   3.219   1.736   4.787  0.1915 -0.3967  0.3191
 4951SOL    HW126315   3.235   1.729   4.881  0.0693 -1.1395  0.2816
 4951SOL    HW226316   3.141   1.791   4.782 -0.3461 -1.4638 -3.0833
 4952SOL     OW26317   0.749   0.766  15.873 -0.4472  0.3287 -0.1309
 4952SOL    HW126318   0.810   0.838  15.856  1.2489 -0.9478  0.4983
 4952SOL    HW226319   0.749   0.722  15.788  0.5487 -0.5104  0.3063
 4953SOL     OW26320   0.870   2.075   2.221  0.3352  0.3370 -0.1642
 4953SOL    HW126321   0.816   2.019   2.277  1.3259 -1.6044 -1.1531
 4953SOL    HW226322   0.823   2.158   2.223 -2.3697 -1.1653 -1.1829
 4954SOL     OW26323   3.047   0.524   3.720 -0.5317  0.3181 -0.1115
 4954SOL    HW126324   3.026   0.432   3.734  1.9478 -0.6109 -2.7135
 4954SOL    HW226325   2.970   0.563   3.679 -0.0170  1.1874 -0.2596
 4955SOL     OW26326   1.504   1.740   8.701  0.6479  0.8103 -0.0646
 4955SOL    HW126327   1.539   1.806   8.641  0.4999  0.5209 -0.4656
 4955SOL    HW226328   1.412   1.751   8.677  0.5539  2.6405  1.1305
 4956SOL     OW26329   3.417   1.627   9.670 -0.1882 -0.5480 -0.0218
 4956SOL    HW126330   3.460   1.579   9.599  0.5903  1.0245 -0.5972
 4956SOL    HW226331   3.341   1.570   9.682  0.9924 -2.2835 -0.6947
 4957SOL     OW26332   0.444   2.396   6.859 -0.5908  0.0788 -0.2528
 4957SOL    HW126333   0.497   2.473   6.838  1.6938 -1.3229  0.3848
 4957SOL    HW226334   0.495   2.372   6.936 -0.0915  0.5574 -0.4357
 4958SOL     OW26335   1.957   0.273  12.929  0.4845  0.0299  0.0769
 4958SOL    HW126336   1.982   0.230  12.848 -1.5877  0.0787 -0.5897
 4958SOL    HW226337   2.042   0.279  12.973  0.1036 -1.2227  0.9698
 4959SOL     OW26338   4.562   1.385   4.311  0.0341  0.6847  0.3750
 4959SOL    HW126339   4.566   1.481   4.306  1.4684  0.6301  0.5792
 4959SOL    HW226340   4.549   1.382   4.406 -0.2786  0.8322  0.3370
 4960SOL     OW26341   0.645   3.774   6.454 -0.0861 -0.5223 -0.0049
 4960SOL    HW126342   0.704   3.778   6.530  0.1014  0.3014 -0.1967
 4960SOL    HW226343   0.664   3.859   6.415  0.8269 -0.1301  1.2727
 4961SOL     OW26344   0.467   3.655   4.567 -0.5402 -0.0200  0.4890
 4961SOL    HW126345   0.420   3.697   4.639 -0.4701  0.6691  0.1340
 4961SOL    HW226346   0.490   3.569   4.603 -2.3850 -0.6045  0.2578
 4962SOL     OW26347   0.755   4.430   4.678  0.3649  0.1432 -0.0916
 4962SOL    HW126348   0.703   4.353   4.699  1.1435 -0.7142 -1.3009
 4962SOL    HW226349   0.761   4.488   4.754 -1.5695  0.1175  0.0776
 4963SOL     OW26350   2.810   2.145   7.416  0.2097 -0.4278  0.1818
 4963SOL    HW126351   2.727   2.142   7.369  0.2305  0.7530  0.0704
 4963SOL    HW226352   2.807   2.229   7.462  3.2446 -1.2976  1.9917
 4964SOL     OW26353   4.590   1.173   1.178  0.2491 -0.2675  0.5265
 4964SOL    HW126354   4.500   1.160   1.210 -0.1660  0.9924 -0.1617
 4964SOL    HW226355   4.605   1.080   1.159 -2.0483 -0.0679 -2.2704
 4965SOL     OW26356   0.968   0.429   8.387 -0.0434  0.4142 -0.3355
 4965SOL    HW126357   1.003   0.503   8.438 -0.2251 -0.1422  0.5968
 4965SOL    HW226358   1.055   0.396   8.366 -0.4802 -2.4095  2.3168
 4966SOL     OW26359   0.703   0.492   9.233  0.5502 -0.5363  0.1644
 4966SOL    HW126360   0.794   0.503   9.260  0.4858  2.0161 -0.6416
 4966SOL    HW226361   0.718   0.477   9.139  0.1055 -0.5233  0.0913
 4967SOL     OW26362   1.743   0.319   4.075 -0.0698 -0.3622  0.0525
 4967SOL    HW126363   1.763   0.298   3.984  1.8884 -1.8354  0.8257
 4967SOL    HW226364   1.690   0.243   4.097  1.2274 -1.1747  0.3871
 4968SOL     OW26365   4.362   3.255   3.979  0.0159  0.0576 -0.0115
 4968SOL    HW126366   4.349   3.162   3.997  1.0912 -0.3582 -1.3122
 4968SOL    HW226367   4.438   3.251   3.921  0.0761 -1.9575  0.2167
 4969SOL     OW26368   3.568   0.723   0.828  0.0823 -0.1614 -0.1418
 4969SOL    HW126369   3.555   0.634   0.860  0.4808  0.3762  1.5336
 4969SOL    HW226370   3.570   0.776   0.908 -2.1917 -0.0078 -0.1923
 4970SOL     OW26371   2.554   3.137  17.481  0.1960  0.2169 -0.0071
 4970SOL    HW126372   2.522   3.219  17.518  1.3864  0.6862 -0.0173
 4970SOL    HW226373   2.620   3.119  17.548 -0.7901 -1.3821  0.5300
 4971SOL     OW26374   2.314   4.509  16.141  0.1266  0.5449 -0.3733
 4971SOL    HW126375   2.317   4.502  16.236  2.9912  1.6186 -0.3837
 4971SOL    HW226376   2.327   4.603  16.128  0.6925  0.5470  0.2328
 4972SOL     OW26377   2.779   2.439   3.454  0.1046  0.4405 -0.2811
 4972SOL    HW126378   2.767   2.360   3.508 -0.4695  1.3256  0.8783
 4972SOL    HW226379   2.847   2.475   3.511  0.9739 -1.8850  0.1492
 4973SOL     OW26380   1.340   1.733   7.806 -0.6192  0.2668  0.1875
 4973SOL    HW126381   1.250   1.755   7.781  0.0120  1.4399 -1.0467
 4973SOL    HW226382   1.358   1.784   7.885 -0.2965 -0.0774  0.3396
 4974SOL     OW26383   0.053   2.575   5.482  0.0080 -0.1083 -0.4592
 4974SOL    HW126384   0.065   2.533   5.397  0.7888 -1.2289  0.2066
 4974SOL    HW226385   0.079   2.503   5.540 -0.3335  0.7882  0.8274
 4975SOL     OW26386   3.237   4.176   0.485 -0.1932 -0.1979 -0.1771
 4975SOL    HW126387   3.225   4.107   0.421 -0.3613 -2.7027  2.5392
 4975SOL    HW226388   3.242   4.243   0.417 -1.4970  0.5102  0.4240
 4976SOL     OW26389   4.202   4.296   4.249 -0.0398 -1.0100 -0.2134
 4976SOL    HW126390   4.187   4.309   4.343  0.6035 -0.7101 -0.1471
 4976SOL    HW226391   4.112   4.299   4.218  0.6514 -0.5496 -2.1843
 4977SOL     OW26392   0.553   1.116   4.713  0.0051  0.2828  0.1362
 4977SOL    HW126393   0.595   1.199   4.736  0.9390  0.1461 -1.1233
 4977SOL    HW226394   0.583   1.064   4.787  2.6726  1.4804 -0.1264
 4978SOL     OW26395   2.802   0.530   5.463 -0.2103 -0.0887 -0.3941
 4978SOL    HW126396   2.890   0.501   5.485 -0.3443  1.6978  2.5503
 4978SOL    HW226397   2.797   0.613   5.511 -2.8859 -1.7651  2.1897
 4979SOL     OW26398   0.210   1.621   8.287  0.0563 -0.1866 -0.0538
 4979SOL    HW126399   0.192   1.637   8.380 -1.4229  0.7602 -0.4946
 4979SOL    HW226400   0.226   1.709   8.254  2.2841 -0.3294  0.6552
 4980SOL     OW26401   3.780   3.930  10.021  0.5910  0.1174 -0.9517
 4980SOL    HW126402   3.853   3.992  10.017  2.1307 -1.6788 -0.9632
 4980SOL    HW226403   3.772   3.932  10.116  1.4270 -1.2416 -0.8457
 4981SOL     OW26404   1.102   3.189   5.117  0.2052  0.2756 -0.1099
 4981SOL    HW126405   1.029   3.128   5.114 -0.2498  0.7828  0.7236
 4981SOL    HW226406   1.053   3.271   5.116 -2.9874 -1.6565 -1.9290
 4982SOL     OW26407   3.156   0.032  11.741  0.6065 -0.2315  0.4338
 4982SOL    HW126408   3.169   4.667  11.776 -1.4188 -0.4895  0.5253
 4982SOL    HW226409   3.062   0.036  11.724  0.6130  0.6280  0.6066
 4983SOL     OW26410   2.239   0.264  13.323 -0.3200  0.2585 -0.6897
 4983SOL    HW126411   2.268   0.270  13.232 -0.0639 -3.0720 -0.8268
 4983SOL    HW226412   2.329   0.272  13.352 -0.4507 -0.1195 -0.1828
 4984SOL     OW26413   0.141   1.111   4.896  0.4509  0.3759 -0.4585
 4984SOL    HW126414   0.129   1.028   4.849 -0.9291 -0.8505  2.0377
 4984SOL    HW226415   0.124   1.179   4.831 -2.6454 -0.7941 -0.8842
 4985SOL     OW26416   2.177   2.379   8.886  0.0735 -0.0762 -0.1501
 4985SOL    HW126417   2.109   2.349   8.826  0.5274 -0.1890 -0.6050
 4985SOL    HW226418   2.133   2.371   8.971 -1.7053  1.5156 -0.9103
 4986SOL     OW26419   3.900   1.809   3.656  0.4919 -0.3185  0.1330
 4986SOL    HW126420   3.890   1.886   3.601 -0.8071 -1.1309 -0.7836
 4986SOL    HW226421   3.877   1.840   3.743 -1.2627  1.0090 -0.7996
 4987SOL     OW26422   4.021   3.674   1.047  1.0245  0.1859  0.1318
 4987SOL    HW126423   4.081   3.607   1.015 -0.2792 -0.1172 -1.7000
 4987SOL    HW226424   4.030   3.681   1.142  0.6294  0.7446  0.1275
 4988SOL     OW26425   3.685   1.746  11.571  0.7714 -0.2647 -0.7456
 4988SOL    HW126426   3.745   1.821  11.567 -0.2249  0.4970 -1.5464
 4988SOL    HW226427   3.639   1.758  11.488  1.2144  3.4654 -0.4761
 4989SOL     OW26428   0.923   3.988  11.976  0.6003  0.5011  0.1213
 4989SOL    HW126429   0.932   3.940  12.058  0.8860  0.8191  0.2729
 4989SOL    HW226430   0.949   4.075  12.005 -2.5126  1.2195  0.7513
 4990SOL     OW26431   2.487   0.743   0.604 -0.4298 -0.3818 -0.4015
 4990SOL    HW126432   2.466   0.834   0.583 -2.7189 -0.7191  0.4727
 4990SOL    HW226433   2.491   0.701   0.518 -1.2775 -0.9768 -0.1502
 4991SOL     OW26434   0.011   1.975   7.574  0.3278  0.2593 -0.1241
 4991SOL    HW126435   4.687   2.020   7.643 -0.1278  0.1927 -0.4000
 4991SOL    HW226436   4.703   2.011   7.491  1.4178  0.6611 -0.3717
 4992SOL     OW26437   1.677   0.406   6.914  0.3561  0.8499 -0.9854
 4992SOL    HW126438   1.615   0.474   6.887 -1.7431 -0.7509 -0.1520
 4992SOL    HW226439   1.738   0.412   6.841 -0.9970  2.0015 -2.0277
 4993SOL     OW26440   4.617   4.514   9.380 -0.2370 -0.3923 -0.3831
 4993SOL    HW126441   4.549   4.510   9.313  0.6091  2.0683 -1.3674
 4993SOL    HW226442   4.664   4.594   9.361  1.4574 -0.6811  2.6059
 4994SOL     OW26443   3.435   2.671   4.239  0.6601 -0.6161 -0.6546
 4994SOL    HW126444   3.381   2.592   4.233 -0.7455  0.3928 -1.4082
 4994SOL    HW226445   3.379   2.729   4.188  1.4246 -0.0070 -0.8088
 4995SOL     OW26446   3.824   1.503   1.946  0.3409 -0.4864 -0.0228
 4995SOL    HW126447   3.875   1.584   1.953  2.0678 -1.4461 -1.6183
 4995SOL    HW226448   3.771   1.508   2.026  1.1822  1.3095  0.4102
 4996SOL     OW26449   1.768   1.554   6.144 -0.3212  0.0082 -0.3093
 4996SOL    HW126450   1.715   1.487   6.187  2.7475 -2.2737 -0.0487
 4996SOL    HW226451   1.712   1.630   6.157 -0.5660 -0.3524  0.7650
 4997SOL     OW26452   3.303   3.831   8.891  0.0033  0.5458 -0.7010
 4997SOL    HW126453   3.383   3.783   8.870  0.3044  0.4606  0.5994
 4997SOL    HW226454   3.314   3.826   8.986  1.2120  3.5682 -0.7081
 4998SOL     OW26455   1.133   4.475   2.899 -0.7083 -0.4190 -0.2581
 4998SOL    HW126456   1.073   4.491   2.972 -0.0757 -0.1516  0.1995
 4998SOL    HW226457   1.142   4.380   2.894 -2.0879 -0.7566  3.4011
 4999SOL     OW26458   4.416   3.206   4.516  0.0400 -0.2598 -0.0037
 4999SOL    HW126459   4.447   3.235   4.431 -0.5371  1.3601  0.3438
 4999SOL    HW226460   4.361   3.279   4.543 -1.4496 -1.1106 -0.7141
 5000SOL     OW26461   2.104   4.336  16.069  0.2479  0.0615  0.4733
 5000SOL    HW126462   2.065   4.303  16.150 -2.3360  1.3198 -0.2507
 5000SOL    HW226463   2.168   4.396  16.108  0.4413 -0.4155  0.8902
 5001SOL     OW26464   1.843   1.258   7.648 -0.1383 -0.6035  0.1422
 5001SOL    HW126465   1.913   1.251   7.584  0.4238 -1.1437  0.8155
 5001SOL    HW226466   1.861   1.186   7.709  0.1088  0.5761  1.4870
 5002SOL     OW26467   3.089   2.317   4.055 -0.1204  0.2431 -0.1534
 5002SOL    HW126468   3.011   2.296   4.005 -0.3662  2.1462 -0.5863
 5002SOL    HW226469   3.083   2.236   4.105  1.2066  0.5268  0.4672
 5003SOL     OW26470   0.917   0.265   4.536 -0.8214 -0.1692 -0.4697
 5003SOL    HW126471   0.897   0.348   4.579 -3.3938 -0.8973 -0.2096
 5003SOL    HW226472   0.971   0.301   4.466  0.3788  0.1552  0.6330
 5004SOL     OW26473   2.804   1.719   6.680 -0.1566  0.2816 -0.8797
 5004SOL    HW126474   2.758   1.801   6.667  1.6180  1.5446  0.8545
 5004SOL    HW226475   2.891   1.743   6.648  0.0899 -0.8764 -1.0820
 5005SOL     OW26476   1.739   2.274   4.806 -0.4828  0.3123  0.2083
 5005SOL    HW126477   1.702   2.268   4.718  1.5124 -0.9259 -0.5311
 5005SOL    HW226478   1.661   2.304   4.852 -1.1382 -2.8945  1.1995
 5006SOL     OW26479   1.740   4.714   5.057 -0.5249 -0.3075  0.3397
 5006SOL    HW126480   1.645   4.714   5.054 -0.4880  0.1514 -0.5355
 5006SOL    HW226481   1.746   0.035   5.142 -0.1139 -0.1749  0.2403
 5007SOL     OW26482   1.723   3.250   0.982 -0.0518  0.0941  0.2608
 5007SOL    HW126483   1.662   3.321   1.002  1.0644  0.9388  0.6839
 5007SOL    HW226484   1.740   3.267   0.889 -0.3070  0.3598  0.2661
 5008SOL     OW26485   2.600   1.623  17.641 -0.4944 -0.4735 -0.7522
 5008SOL    HW126486   2.564   1.580  17.563  1.1658  1.7834 -2.7815
 5008SOL    HW226487   2.653   1.554  17.681 -0.9228 -1.2034 -1.4366
 5009SOL     OW26488   2.537   1.229   0.266 -0.0144 -0.0795  0.5471
 5009SOL    HW126489   2.508   1.246   0.355 -2.7517 -1.2353 -0.1183
 5009SOL    HW226490   2.567   1.141   0.291 -2.4096 -0.7729  1.0049
 5010SOL     OW26491   3.404   3.460   9.168 -0.1937 -0.0825 -0.5569
 5010SOL    HW126492   3.474   3.395   9.178 -0.3059  0.2468  2.3855
 5010SOL    HW226493   3.370   3.438   9.081  1.0853 -0.0440 -1.0527
 5011SOL     OW26494   4.700   3.629   9.606  0.0485  0.3377 -0.3209
 5011SOL    HW126495   0.061   3.662   9.636 -0.7113  0.6709  1.4421
 5011SOL    HW226496   4.708   3.533   9.605  0.4966  0.3819 -1.2231
 5012SOL     OW26497   4.591   1.985   6.138 -0.0135 -0.2861 -0.3777
 5012SOL    HW126498   4.560   2.074   6.152  0.2168 -0.4318  1.0592
 5012SOL    HW226499   4.675   1.977   6.182  0.4382  0.6753 -1.0662
 5013SOL     OW26500   0.642   1.521  13.957  0.0106 -0.6197 -0.6907
 5013SOL    HW126501   0.703   1.565  14.017 -0.2526  1.5095 -1.9678
 5013SOL    HW226502   0.577   1.590  13.944  2.9253  2.1733 -0.5213
 5014SOL     OW26503   4.041   1.363   6.653 -0.0547  0.3135 -0.2331
 5014SOL    HW126504   3.971   1.379   6.716 -1.0120  0.7832 -1.4316
 5014SOL    HW226505   4.009   1.414   6.579 -0.1419 -0.2784 -0.6016
 5015SOL     OW26506   1.394   3.539  15.977  0.9485  0.3738 -0.0682
 5015SOL    HW126507   1.478   3.532  15.932  2.1091  2.7135  1.7383
 5015SOL    HW226508   1.408   3.592  16.055 -1.0545 -1.5299  1.5786
 5016SOL     OW26509   3.815   0.036   3.748 -0.0316  0.2463 -0.0837
 5016SOL    HW126510   3.876   0.028   3.675 -2.8550 -1.2448 -2.2917
 5016SOL    HW226511   3.758   0.101   3.707 -1.8219  0.3868  2.6094
 5017SOL     OW26512   1.003   0.882  15.286  0.4259 -0.0179 -0.3409
 5017SOL    HW126513   1.056   0.815  15.244  0.1626 -0.2564 -0.2872
 5017SOL    HW226514   1.009   0.949  15.217 -2.7832  1.4756  0.8161
 5018SOL     OW26515   0.961   1.433   4.599 -0.1591 -0.1811  0.1486
 5018SOL    HW126516   1.039   1.489   4.609 -1.4108  1.6266 -0.3530
 5018SOL    HW226517   0.899   1.484   4.652 -0.2500  1.2081 -1.3063
 5019SOL     OW26518   0.629   2.217  17.413 -0.1265 -0.1606 -0.1478
 5019SOL    HW126519   0.707   2.240  17.464 -0.4158 -0.2924  0.3434
 5019SOL    HW226520   0.553   2.234  17.468  1.2888  0.0206  1.7577
 5020SOL     OW26521   0.426   1.711   7.702  0.2181 -0.0790 -0.5979
 5020SOL    HW126522   0.437   1.689   7.795  0.2986  2.3892 -0.0256
 5020SOL    HW226523   0.344   1.669   7.677 -0.0594 -0.1923  0.5177
 5021SOL     OW26524   3.009   1.453   5.484  0.1879 -0.4395 -0.2304
 5021SOL    HW126525   3.066   1.494   5.549 -0.9864  0.3658  0.2814
 5021SOL    HW226526   3.072   1.448   5.413  0.6537 -0.3642  0.1733
 5022SOL     OW26527   0.108   0.869   4.785  0.8139  0.3626  0.1522
 5022SOL    HW126528   0.085   0.821   4.864  0.1550  2.0322  0.9846
 5022SOL    HW226529   0.076   0.812   4.716 -2.2216  0.6784  1.2923
 5023SOL     OW26530   1.176   2.771   6.430  0.3996  0.1861 -0.4116
 5023SOL    HW126531   1.087   2.736   6.429 -1.4773  4.9000  2.6716
 5023SOL    HW226532   1.225   2.690   6.443 -2.9004 -1.4482  1.6705
 5024SOL     OW26533   0.710   0.052   7.643  0.1885  0.4152  0.4343
 5024SOL    HW126534   0.691   0.014   7.557 -2.4462 -0.3013  1.3218
 5024SOL    HW226535   0.792   0.100   7.635 -0.3321  1.0837 -0.7495
 5025SOL     OW26536   1.010   3.623  12.126 -0.3327 -0.0219  0.1482
 5025SOL    HW126537   1.061   3.553  12.166 -0.1231  1.2031  2.0445
 5025SOL    HW226538   1.055   3.623  12.042  0.6748 -0.1071  0.6894
 5026SOL     OW26539   1.043   0.286  16.137 -0.1934  0.0240 -0.3106
 5026SOL    HW126540   1.036   0.193  16.161 -1.9536 -0.0507 -1.1398
 5026SOL    HW226541   1.131   0.288  16.098 -0.1332 -2.4878 -0.3196
 5027SOL     OW26542   3.596   0.691   4.307  0.6378  0.2339 -0.0421
 5027SOL    HW126543   3.620   0.733   4.224  1.4852  0.9106  0.5390
 5027SOL    HW226544   3.657   0.736   4.365 -2.1796  0.4902  2.7059
 5028SOL     OW26545   0.496   3.171   3.999 -0.2383  0.2949 -0.4802
 5028SOL    HW126546   0.436   3.238   3.966 -1.8272 -1.0290 -0.2550
 5028SOL    HW226547   0.563   3.198   3.935  0.7987 -2.3254 -0.4809
 5029SOL     OW26548   0.539   4.505  17.213  0.4340  0.3381 -0.2546
 5029SOL    HW126549   0.604   4.553  17.265  1.0248 -1.7108  0.8868
 5029SOL    HW226550   0.535   4.567  17.140  2.5291 -0.3396 -0.9349
 5030SOL     OW26551   1.309   2.796   4.739  0.1029 -0.0251 -0.2196
 5030SOL    HW126552   1.338   2.885   4.720 -0.5662  0.3052  0.2995
 5030SOL    HW226553   1.219   2.810   4.709 -0.6734 -1.9901  1.1790
 5031SOL     OW26554   1.193   0.246   7.775 -0.1489  0.0410 -0.4151
 5031SOL    HW126555   1.188   0.263   7.681 -1.3346 -0.6845 -0.4837
 5031SOL    HW226556   1.145   0.163   7.778  0.6369 -0.4482 -1.4163
 5032SOL     OW26557   4.243   3.046  17.177  0.2973 -0.3506  0.1300
 5032SOL    HW126558   4.175   2.988  17.142 -1.9772  0.5635  2.9455
 5032SOL    HW226559   4.276   2.988  17.246 -1.8684  0.0350  1.5002
 5033SOL     OW26560   2.273   3.003  15.444  0.0680 -0.0729  0.5012
 5033SOL    HW126561   2.194   3.040  15.483  0.6504  2.6390 -0.9369
 5033SOL    HW226562   2.287   3.054  15.364  0.0241 -1.0595 -0.1339
 5034SOL     OW26563   1.521   3.178   3.215 -0.0027 -0.5733  0.1291
 5034SOL    HW126564   1.428   3.175   3.237  0.3930 -2.3956  1.5871
 5034SOL    HW226565   1.553   3.230   3.289 -1.7321 -0.0489  0.4960
 5035SOL     OW26566   2.939   1.345  12.585  0.2716  0.2346 -0.3777
 5035SOL    HW126567   2.998   1.402  12.635 -0.2843 -0.1681  0.7393
 5035SOL    HW226568   2.898   1.315  12.666  0.7673 -0.0972 -0.2476
 5036SOL     OW26569   4.697   2.337  10.006 -0.4230  0.1490  0.1650
 5036SOL    HW126570   4.689   2.267   9.941  3.0285  2.4987 -2.7798
 5036SOL    HW226571   4.623   2.312  10.062 -0.3368 -3.0147 -1.1700
 5037SOL     OW26572   1.081   1.229  10.194  0.0320 -0.3228 -0.2813
 5037SOL    HW126573   1.067   1.155  10.134 -4.2125 -0.4219  0.8459
 5037SOL    HW226574   1.038   1.300  10.147  1.5917 -0.6387 -2.1919
 5038SOL     OW26575   0.260   2.185   3.812  0.6889 -0.4856  0.2588
 5038SOL    HW126576   0.179   2.181   3.761  0.0338  1.8114  1.1157
 5038SOL    HW226577   0.232   2.125   3.881  0.8242 -0.5499  0.2582
 5039SOL     OW26578   0.611   0.867   2.406  0.2526 -0.1340  0.2400
 5039SOL    HW126579   0.609   0.950   2.358 -1.0447  0.0466  0.6001
 5039SOL    HW226580   0.705   0.854   2.412  0.2126 -1.3512 -1.7997
 5040SOL     OW26581   4.488   0.123  10.775  0.3690 -0.0788  0.0990
 5040SOL    HW126582   4.487   0.142  10.681 -1.8441  2.2214  0.5979
 5040SOL    HW226583   4.538   0.199  10.806 -0.6283  0.9500 -0.7970
 5041SOL     OW26584   3.118   1.532   6.661 -0.2036 -0.0444  0.2125
 5041SOL    HW126585   3.121   1.626   6.678 -0.5288  0.1748 -0.9892
 5041SOL    HW226586   3.146   1.523   6.570  0.1353 -1.7775  0.4787
 5042SOL     OW26587   2.000   2.201   8.468  0.2676 -0.1227 -0.3142
 5042SOL    HW126588   2.016   2.235   8.380  1.5430  0.0215 -0.0168
 5042SOL    HW226589   1.904   2.201   8.475  0.2466 -1.0360 -0.6219
 5043SOL     OW26590   1.037   0.937   3.320 -0.3082 -0.2460  0.2663
 5043SOL    HW126591   1.107   0.888   3.277 -0.3520  1.0176 -1.2730
 5043SOL    HW226592   1.067   0.927   3.410 -1.8542 -0.3456  0.7583
 5044SOL     OW26593   1.783   4.154   9.173  0.3537  0.2775  0.1989
 5044SOL    HW126594   1.823   4.153   9.260 -0.7424  1.2965  0.7359
 5044SOL    HW226595   1.785   4.059   9.161 -0.2098  0.1585  1.0057
 5045SOL     OW26596   4.105   1.693   2.383 -0.6977  0.4900  0.1157
 5045SOL    HW126597   4.027   1.653   2.346 -1.5554 -1.5203  4.1751
 5045SOL    HW226598   4.123   1.650   2.467 -1.4502 -1.4280 -0.7077
 5046SOL     OW26599   0.055   4.474   1.646  0.6329  0.0755  0.5067
 5046SOL    HW126600   0.075   4.562   1.677  1.5702 -0.0196  0.1814
 5046SOL    HW226601   4.694   4.461   1.688  0.6581 -0.7866  0.2929
 5047SOL     OW26602   1.375   0.020  12.978  0.0067 -0.5375 -0.2496
 5047SOL    HW126603   1.402   0.022  12.886 -1.1980 -1.9790 -0.6256
 5047SOL    HW226604   1.428   4.674  13.016  2.1250  0.7752 -0.7397
 5048SOL     OW26605   3.831   0.109   6.765  0.2678 -0.2562 -0.2851
 5048SOL    HW126606   3.835   0.064   6.850  1.9162  3.1566  1.4439
 5048SOL    HW226607   3.886   0.184   6.787  0.2608 -0.7088  1.2824
 5049SOL     OW26608   1.885   3.544   2.578 -0.0464  0.0805  0.0490
 5049SOL    HW126609   1.950   3.544   2.649  2.9132 -0.2890 -2.6781
 5049SOL    HW226610   1.927   3.513   2.498 -1.0458  0.9721 -0.8208
 5050SOL     OW26611   4.199   0.085   4.863 -0.0964  0.1633 -0.2359
 5050SOL    HW126612   4.286   0.079   4.824  0.6290 -1.2225  1.5792
 5050SOL    HW226613   4.145   0.082   4.784  0.6705  1.0669 -0.7943
 5051SOL     OW26614   3.094   1.202  10.410 -0.0187  0.2738  0.0017
 5051SOL    HW126615   3.095   1.285  10.364 -1.1768 -0.3572 -1.1596
 5051SOL    HW226616   3.090   1.229  10.502 -0.2139 -0.4124  0.2021
 5052SOL     OW26617   0.254   2.863   4.250 -0.9834 -0.3273  0.2609
 5052SOL    HW126618   0.187   2.820   4.197 -1.3824  0.3441  0.2282
 5052SOL    HW226619   0.331   2.830   4.202  0.6035 -1.2948  3.4615
 5053SOL     OW26620   1.586   2.581  13.620 -0.0934  0.2213 -0.1046
 5053SOL    HW126621   1.545   2.622  13.543  1.2525  0.9444 -0.4312
 5053SOL    HW226622   1.544   2.624  13.694 -1.1369 -1.9601  0.5942
 5054SOL     OW26623   0.620   2.987   3.558 -0.2118 -0.0985  0.3072
 5054SOL    HW126624   0.578   2.990   3.471 -1.4963 -1.3208  0.8788
 5054SOL    HW226625   0.692   2.924   3.548  0.9244  1.0012  1.6587
 5055SOL     OW26626   2.536   4.350  10.603  0.1130 -0.0673 -0.3253
 5055SOL    HW126627   2.569   4.318  10.687 -0.9795 -1.1589 -0.3125
 5055SOL    HW226628   2.572   4.283  10.545 -1.1141 -0.3531 -0.7543
 5056SOL     OW26629   0.250   4.026   8.298  0.0906 -0.0994  0.2025
 5056SOL    HW126630   0.236   4.004   8.206 -3.1046 -2.7360  1.2909
 5056SOL    HW226631   0.165   4.059   8.328  0.4456  1.4623 -0.5301
 5057SOL     OW26632   0.855   3.315   3.983 -0.1943  0.2633 -0.1551
 5057SOL    HW126633   0.797   3.353   3.917 -1.1915 -1.3264 -0.2014
 5057SOL    HW226634   0.944   3.317   3.947 -0.3179  0.3323 -0.4548
 5058SOL     OW26635   4.348   0.183  12.019  0.3458 -0.5475  0.6627
 5058SOL    HW126636   4.408   0.245  11.978  0.5710 -0.9808  0.3399
 5058SOL    HW226637   4.261   0.217  12.001 -0.1529 -0.6804  2.8361
 5059SOL     OW26638   0.772   4.198   7.509 -0.2294 -0.2050 -0.4134
 5059SOL    HW126639   0.760   4.142   7.433 -3.9914  2.2938 -1.6849
 5059SOL    HW226640   0.776   4.135   7.581  2.6911  0.0751 -0.3268
 5060SOL     OW26641   1.992   2.424   2.630 -0.7231  0.1626 -0.0818
 5060SOL    HW126642   1.991   2.332   2.656  0.3682  0.4296  0.8758
 5060SOL    HW226643   2.085   2.446   2.630 -1.0766  1.6160  1.8449
 5061SOL     OW26644   1.071   1.150   5.217 -0.7767  0.3603  0.3378
 5061SOL    HW126645   1.096   1.157   5.124  0.9163  1.4667  0.8780
 5061SOL    HW226646   1.002   1.217   5.213 -2.2383 -1.2093 -1.0431
 5062SOL     OW26647   0.213   0.970  16.627  0.6766 -0.2929  0.0764
 5062SOL    HW126648   0.211   0.883  16.669 -0.5849  0.7270  2.1412
 5062SOL    HW226649   0.257   0.947  16.545  0.7630  0.7301 -0.1568
 5063SOL     OW26650   2.522   2.106  15.446 -0.6032 -0.9136  0.0321
 5063SOL    HW126651   2.465   2.172  15.406 -1.1325 -1.4567 -0.0982
 5063SOL    HW226652   2.489   2.030  15.398 -3.0275  0.6014 -0.6925
 5064SOL     OW26653   1.370   0.304  16.477 -0.2759  0.3112  0.1078
 5064SOL    HW126654   1.286   0.267  16.502 -0.9361  1.3441 -0.5585
 5064SOL    HW226655   1.427   0.242  16.523 -0.3135 -0.1255 -0.4376
 5065SOL     OW26656   4.421   3.908   4.610 -0.2237 -0.1027 -0.4025
 5065SOL    HW126657   4.387   3.992   4.581 -3.5192 -1.1503  0.4370
 5065SOL    HW226658   4.399   3.851   4.536 -0.3530  1.4632 -1.5539
 5066SOL     OW26659   2.044   0.194   6.758  0.1269  0.4449 -0.1734
 5066SOL    HW126660   2.121   0.217   6.809  0.2291  1.1488 -0.6413
 5066SOL    HW226661   2.077   0.158   6.675 -0.9060 -1.2596  0.1597
 5067SOL     OW26662   4.328   3.851   3.977 -0.3885  0.2888 -0.2341
 5067SOL    HW126663   4.333   3.925   3.917 -0.7934  0.5497  0.0529
 5067SOL    HW226664   4.281   3.886   4.052  0.1486 -1.7379  1.0531
 5068SOL     OW26665   1.035   2.869   3.266  0.0300 -0.0465 -0.0228
 5068SOL    HW126666   1.010   2.790   3.314  0.5866  0.8403  1.7540
 5068SOL    HW226667   1.057   2.833   3.180  0.5327  0.4685 -0.1083
 5069SOL     OW26668   2.858   1.515  17.045  0.0379  0.1906  0.4050
 5069SOL    HW126669   2.815   1.470  16.973  0.4620 -0.7094  0.7101
 5069SOL    HW226670   2.934   1.457  17.048  0.2213  0.3334 -1.7866
 5070SOL     OW26671   1.675   0.785   1.083 -0.3863  0.3276 -0.7598
 5070SOL    HW126672   1.753   0.754   1.036  0.3203 -0.3719  0.8791
 5070SOL    HW226673   1.611   0.754   1.019  1.2986 -0.2192 -2.1891
 5071SOL     OW26674   2.186   3.541   7.667  0.8882  0.2894  0.0436
 5071SOL    HW126675   2.261   3.570   7.718  0.7350  0.9927 -0.1371
 5071SOL    HW226676   2.203   3.591   7.587 -0.0862  2.7644  1.4066
 5072SOL     OW26677   4.060   3.215   8.705 -0.0144  0.1689  0.1130
 5072SOL    HW126678   4.099   3.289   8.752  1.8552  0.2430 -1.5453
 5072SOL    HW226679   4.004   3.186   8.777 -0.4984 -2.2546 -1.2428
 5073SOL     OW26680   2.258   1.115  12.166 -0.5497 -0.2878  0.3706
 5073SOL    HW126681   2.249   1.036  12.219 -0.5548  0.9029  2.1218
 5073SOL    HW226682   2.343   1.096  12.126  0.8336  1.2553  2.5981
 5074SOL     OW26683   3.585   1.231   4.215 -0.0007 -0.4995  0.6533
 5074SOL    HW126684   3.591   1.149   4.166 -1.7809  0.2475 -0.7716
 5074SOL    HW226685   3.498   1.255   4.185  0.5593  0.5716 -0.1087
 5075SOL     OW26686   3.254   3.785   8.129 -0.2051 -0.0972 -0.1024
 5075SOL    HW126687   3.209   3.814   8.208  1.3924  0.1285  0.7364
 5075SOL    HW226688   3.327   3.734   8.163 -0.3431 -0.0825  0.2103
 5076SOL     OW26689   1.316   2.595   4.419 -0.2672  0.4201 -0.3440
 5076SOL    HW126690   1.261   2.658   4.373 -0.3956 -0.5418 -1.4985
 5076SOL    HW226691   1.311   2.521   4.359  0.6528 -0.7774  1.0626
 5077SOL     OW26692   4.567   0.708   1.115 -0.0297 -0.3212  0.1426
 5077SOL    HW126693   4.481   0.678   1.083 -0.3730  2.1261 -1.2323
 5077SOL    HW226694   4.572   0.640   1.181  0.1890 -0.3512  0.0947
 5078SOL     OW26695   0.759   3.673   4.649  0.6102  0.5576  0.7051
 5078SOL    HW126696   0.722   3.592   4.684  1.7994 -1.0124 -1.7394
 5078SOL    HW226697   0.701   3.703   4.579  0.0157 -2.5427 -0.1271
 5079SOL     OW26698   3.082   3.983   6.865  0.4706  0.2861  0.4236
 5079SOL    HW126699   3.097   3.891   6.887 -5.0366  0.1492  3.4565
 5079SOL    HW226700   2.989   3.997   6.882  0.4215 -1.6054  1.8118
 5080SOL     OW26701   4.716   2.594   1.043  0.4509 -0.4800  0.2471
 5080SOL    HW126702   4.620   2.596   1.046  0.4623  0.3910 -0.3073
 5080SOL    HW226703   0.018   2.686   1.046  1.3185 -0.7158  0.1090
 5081SOL     OW26704   3.589   4.407  12.092  0.3319  0.5318  0.0388
 5081SOL    HW126705   3.650   4.345  12.132 -2.1047  0.1956  3.2476
 5081SOL    HW226706   3.644   4.482  12.071  0.2904  0.9271  1.3665
 5082SOL     OW26707   2.720   1.390   4.435 -0.1091 -0.0899 -0.1122
 5082SOL    HW126708   2.742   1.444   4.359 -2.5712 -0.9316 -1.4308
 5082SOL    HW226709   2.629   1.400   4.461 -0.2973  0.1684 -0.8617
 5083SOL     OW26710   2.704   4.448   3.656  0.4233 -0.0632  0.5043
 5083SOL    HW126711   2.658   4.394   3.721 -0.4488  1.1389  0.8659
 5083SOL    HW226712   2.794   4.415   3.658  0.0393 -1.2220 -2.2066
 5084SOL     OW26713   3.121   0.060  15.554 -0.0626  0.2074  0.0103
 5084SOL    HW126714   3.026   0.052  15.545  0.3083 -1.6185 -2.2938
 5084SOL    HW226715   3.136   0.135  15.495  1.5570 -0.5193 -0.5065
 5085SOL     OW26716   0.082   3.922  13.366  0.4732 -0.9093 -0.1668
 5085SOL    HW126717   0.059   3.986  13.433  0.0765 -0.2530 -0.9373
 5085SOL    HW226718   0.066   3.835  13.403  1.3162 -1.1530 -0.3734
 5086SOL     OW26719   0.170   1.192  11.028 -0.4119 -0.2655 -0.7988
 5086SOL    HW126720   0.127   1.265  11.073  2.4720  1.8982 -1.4859
 5086SOL    HW226721   0.089   1.149  11.003  1.3185 -3.1289 -1.5125
 5087SOL     OW26722   2.143   2.109   0.200  0.2380  0.1159  0.5459
 5087SOL    HW126723   2.154   2.069   0.287  2.7063 -1.4492 -0.4890
 5087SOL    HW226724   2.086   2.043   0.161 -0.0348 -0.7200  2.3431
 5088SOL     OW26725   2.973   1.482   8.281  0.7256 -0.0374  0.2657
 5088SOL    HW126726   2.901   1.419   8.294  2.6464 -2.1852  0.5577
 5088SOL    HW226727   3.001   1.461   8.192  0.3158 -1.8402  0.5523
 5089SOL     OW26728   2.599   0.093   8.974  0.0412 -0.7422 -0.1002
 5089SOL    HW126729   2.585   0.072   8.881  1.6277 -0.5187 -0.3889
 5089SOL    HW226730   2.519   0.145   8.982  0.9084  0.5306  0.4300
 5090SOL     OW26731   1.927   1.496   8.667  0.0016 -0.0586  0.0627
 5090SOL    HW126732   1.907   1.432   8.599 -0.1886 -1.6440  1.6182
 5090SOL    HW226733   1.844   1.514   8.711 -0.3702 -1.3211 -0.1243
 5091SOL     OW26734   1.461   1.763   2.050 -0.0843  0.3278 -0.2412
 5091SOL    HW126735   1.426   1.851   2.062  3.1214  1.7283 -1.0860
 5091SOL    HW226736   1.388   1.707   2.075 -1.0574 -0.0688 -4.0470
 5092SOL     OW26737   4.647   2.328   7.931 -0.0469  0.4032 -0.1374
 5092SOL    HW126738   4.639   2.345   7.837  0.3357  0.3768 -0.1719
 5092SOL    HW226739   4.557   2.325   7.965  0.0913 -1.5515  0.0142
 5093SOL     OW26740   4.023   4.557   7.237  0.5006 -0.0955 -0.7323
 5093SOL    HW126741   4.036   4.595   7.324  0.0264  0.2255 -0.8055
 5093SOL    HW226742   4.082   4.617   7.191  0.8145  2.9655  3.6815
 5094SOL     OW26743   3.136   1.181  15.274 -0.2147  0.2156  0.0541
 5094SOL    HW126744   3.062   1.161  15.217  1.1075 -3.3463 -0.3852
 5094SOL    HW226745   3.107   1.265  15.310  0.0459  0.4884 -0.3668
 5095SOL     OW26746   2.132   2.324   5.129  0.2745 -0.0649  0.5707
 5095SOL    HW126747   2.093   2.410   5.142  0.0374 -0.2955  1.3854
 5095SOL    HW226748   2.210   2.351   5.081 -0.2702 -1.4094 -1.0588
 5096SOL     OW26749   3.758   1.692   9.721  0.1974  0.4555  0.0210
 5096SOL    HW126750   3.666   1.667   9.717  0.7498 -1.6408  0.3695
 5096SOL    HW226751   3.772   1.726   9.633 -1.3953  1.3496  0.1178
 5097SOL     OW26752   1.296   3.050   1.449  0.5543 -0.2172 -0.4175
 5097SOL    HW126753   1.216   3.050   1.501  1.0079 -0.5324  0.2845
 5097SOL    HW226754   1.354   3.103   1.505  0.0028  0.0246 -0.0734
 5098SOL     OW26755   0.901   2.440   2.808 -0.3583 -0.2877  0.2427
 5098SOL    HW126756   0.873   2.494   2.734  1.5031 -2.4925 -2.0620
 5098SOL    HW226757   0.979   2.485   2.840  0.7874 -2.4635  0.5642
 5099SOL     OW26758   2.475   0.007  10.920 -0.3907 -0.7442 -0.0768
 5099SOL    HW126759   2.473   0.102  10.932  0.7497 -0.6480 -0.6095
 5099SOL    HW226760   2.554   4.719  10.867 -0.1583 -1.8188  0.5219
 5100SOL     OW26761   1.510   3.544  11.443 -0.3777 -0.3285  0.3263
 5100SOL    HW126762   1.465   3.588  11.371  0.4196 -1.9244 -1.1422
 5100SOL    HW226763   1.544   3.618  11.494 -1.3178  0.7776 -0.6423
 5101SOL     OW26764   1.991   1.703   7.797 -0.0495 -0.6067 -0.0954
 5101SOL    HW126765   1.917   1.750   7.760  0.4084  0.7344  0.6960
 5101SOL    HW226766   1.974   1.691   7.891  2.4200  0.3617  0.4776
 5102SOL     OW26767   4.015   4.175   5.442 -0.2337  0.4684  0.3843
 5102SOL    HW126768   4.081   4.127   5.493  0.4282  0.8592 -0.0993
 5102SOL    HW226769   4.052   4.180   5.354 -0.8729 -0.4234  0.0730
 5103SOL     OW26770   4.127   4.710   3.118 -0.3435 -0.5343  0.1249
 5103SOL    HW126771   4.048   0.038   3.100  0.4482  0.5123 -0.3380
 5103SOL    HW226772   4.090   4.648   3.181  1.0384 -0.6123  0.8455
 5104SOL     OW26773   3.702   3.052  16.706 -0.7545  0.1589 -0.0126
 5104SOL    HW126774   3.634   2.984  16.702 -0.0028 -0.6937  1.3660
 5104SOL    HW226775   3.713   3.073  16.799 -0.1954 -1.5489  0.3175
 5105SOL     OW26776   0.023   3.172   4.507 -0.2783  0.1431  0.0841
 5105SOL    HW126777   4.704   3.092   4.538 -0.0832 -0.2456 -0.6434
 5105SOL    HW226778   4.689   3.237   4.547  0.4144  1.1721 -0.5949
 5106SOL     OW26779   1.353   0.290   5.421  0.0324  0.3614 -1.2459
 5106SOL    HW126780   1.319   0.372   5.456 -0.3879 -0.3907  0.1220
 5106SOL    HW226781   1.441   0.297   5.457 -0.8801 -0.0158  1.0350
 5107SOL     OW26782   2.860   3.847   7.876 -0.2129  0.1126  0.9149
 5107SOL    HW126783   2.849   3.941   7.892  1.9614  0.5228  0.0006
 5107SOL    HW226784   2.826   3.854   7.787  0.7154  0.5111  0.5921
 5108SOL     OW26785   3.104   4.564  15.986  0.2093 -0.2186 -0.4607
 5108SOL    HW126786   3.044   4.596  16.054 -0.3336  1.7239 -1.8397
 5108SOL    HW226787   3.191   4.597  16.010  0.3226 -0.8272 -0.0323
 5109SOL     OW26788   4.314   3.520  10.990  0.1301 -0.4757  0.4902
 5109SOL    HW126789   4.235   3.468  11.006 -0.1907  0.1683  1.0424
 5109SOL    HW226790   4.301   3.519  10.895 -2.6288 -2.0497  0.8804
 5110SOL     OW26791   3.861   2.047   2.485  0.0195  0.0237  0.1727
 5110SOL    HW126792   3.852   2.079   2.396 -1.0210  1.1068  0.6696
 5110SOL    HW226793   3.939   2.099   2.505  0.2435 -1.1976  2.5338
 5111SOL     OW26794   2.437   0.978  15.659 -0.3485  0.4303 -0.1137
 5111SOL    HW126795   2.473   0.890  15.643 -1.2456  0.0872 -0.2571
 5111SOL    HW226796   2.508   1.037  15.633  0.8612  0.0936  2.3616
 5112SOL     OW26797   3.070   0.618  13.057 -0.2873 -0.2936  0.1701
 5112SOL    HW126798   3.003   0.685  13.066 -0.7826 -0.9535  1.4898
 5112SOL    HW226799   3.069   0.597  12.964 -0.7340  2.7403 -0.5134
 5113SOL     OW26800   4.545   0.482   1.719  0.1181  0.1478 -0.4265
 5113SOL    HW126801   4.533   0.566   1.675  1.5411 -0.1835 -1.4740
 5113SOL    HW226802   4.546   0.426   1.641 -1.7836 -0.1733 -0.2260
 5114SOL     OW26803   0.404   1.239  16.812  0.0549 -0.2499  0.0349
 5114SOL    HW126804   0.309   1.240  16.797 -0.1198  1.1419  1.2178
 5114SOL    HW226805   0.437   1.297  16.744 -1.0636  0.4039  0.0354
 5115SOL     OW26806   0.383   2.654   5.359 -0.2670 -0.3387  0.0168
 5115SOL    HW126807   0.335   2.695   5.431 -0.9838  1.5283 -1.5331
 5115SOL    HW226808   0.340   2.693   5.283 -1.6768 -1.2260  0.3627
 5116SOL     OW26809   1.000   2.799   8.508  0.5144 -0.7478  0.8498
 5116SOL    HW126810   1.027   2.714   8.542  1.8191 -0.7673 -0.2295
 5116SOL    HW226811   1.072   2.855   8.537  0.2601  0.3742 -0.6892
 5117SOL     OW26812   3.834   0.219  17.481  0.0783 -0.0077 -0.1966
 5117SOL    HW126813   3.782   0.140  17.495  0.7778 -0.6447 -1.1689
 5117SOL    HW226814   3.847   0.247  17.571 -0.0589 -0.3591 -0.0700
 5118SOL     OW26815   3.368   2.827   7.268  0.7451  0.6191  0.1398
 5118SOL    HW126816   3.420   2.748   7.287 -0.3884  0.2413  1.6444
 5118SOL    HW226817   3.286   2.803   7.309  0.8729 -1.2536 -0.6900
 5119SOL     OW26818   3.534   3.021   5.581 -0.1461 -0.4008 -0.3309
 5119SOL    HW126819   3.547   3.109   5.545 -0.2948 -0.1314  0.2665
 5119SOL    HW226820   3.625   2.992   5.585  0.4533  1.9093  3.4789
 5120SOL     OW26821   1.727   4.317   1.545  0.2667 -0.3995 -0.2080
 5120SOL    HW126822   1.713   4.223   1.532 -2.0927  0.5366 -4.4647
 5120SOL    HW226823   1.808   4.324   1.495 -0.0668  2.8328 -0.2535
 5121SOL     OW26824   3.443   3.880   6.781 -0.3225 -0.4015 -0.4722
 5121SOL    HW126825   3.427   3.909   6.870 -0.4137 -2.2234  0.0993
 5121SOL    HW226826   3.363   3.903   6.734 -0.1660  2.8062  0.8496
 5122SOL     OW26827   2.961   2.308   9.459  0.7847  0.2209 -0.6861
 5122SOL    HW126828   2.892   2.320   9.524 -0.8900 -1.7872 -2.1097
 5122SOL    HW226829   2.966   2.402   9.437  0.9257  1.4323  4.6236
 5123SOL     OW26830   4.382   4.424   4.083  0.5425 -0.3374 -0.4452
 5123SOL    HW126831   4.371   4.513   4.050  2.2808 -0.2092 -0.6733
 5123SOL    HW226832   4.294   4.407   4.118  0.8016 -0.7421  0.0082
 5124SOL     OW26833   1.414   3.053   8.163  0.7981  0.1565  0.0460
 5124SOL    HW126834   1.351   3.034   8.093 -0.3170 -0.0931  1.1378
 5124SOL    HW226835   1.366   3.117   8.216  1.8060  0.9578 -0.0145
 5125SOL     OW26836   1.408   0.662   9.406  0.5224 -0.0649 -0.7768
 5125SOL    HW126837   1.360   0.734   9.365 -1.7776 -1.5214 -0.6486
 5125SOL    HW226838   1.354   0.583   9.393  0.2345  0.1474 -0.8821
 5126SOL     OW26839   4.460   2.689   1.465  0.2908 -0.5449  0.7237
 5126SOL    HW126840   4.395   2.718   1.401  0.8211  0.9265  0.8334
 5126SOL    HW226841   4.409   2.617   1.502  1.0901 -1.6954 -0.4281
 5127SOL     OW26842   2.020   4.156   0.333  0.5919 -0.6268 -0.1631
 5127SOL    HW126843   2.108   4.141   0.297  0.5780  0.4716 -0.6551
 5127SOL    HW226844   1.980   4.071   0.315  2.2755 -0.8955 -2.7572
 5128SOL     OW26845   0.441   3.047   8.152 -0.2659  0.2872  0.7340
 5128SOL    HW126846   0.466   2.957   8.132 -1.5190  0.5883 -2.1954
 5128SOL    HW226847   0.359   3.027   8.197  0.7433  1.9491  3.3114
 5129SOL     OW26848   3.864   1.283   8.495  0.3538  0.5705 -0.1882
 5129SOL    HW126849   3.780   1.292   8.541  0.3955  0.3267 -0.0661
 5129SOL    HW226850   3.897   1.197   8.520  0.0058  0.6832  0.6433
 5130SOL     OW26851   4.266   0.150   5.505  0.0047 -0.1836  0.4569
 5130SOL    HW126852   4.309   0.066   5.524  0.4625  0.1374  0.8387
 5130SOL    HW226853   4.236   0.176   5.592  1.8999  0.6978  0.8609
 5131SOL     OW26854   1.036   4.227   4.126  0.4275  0.5416 -0.2438
 5131SOL    HW126855   1.102   4.272   4.179  1.0938 -0.6566 -0.0540
 5131SOL    HW226856   1.063   4.139   4.152  0.5418  0.1280 -1.7532
 5132SOL     OW26857   1.624   0.295   9.089 -0.0546 -0.6781 -0.6369
 5132SOL    HW126858   1.719   0.298   9.099 -0.1864 -1.5848  0.7986
 5132SOL    HW226859   1.604   0.357   9.159 -0.4689  0.5827 -1.8668
 5133SOL     OW26860   3.330   0.652   3.120 -0.2821  0.3906 -0.5122
 5133SOL    HW126861   3.373   0.736   3.137 -0.1521 -0.2815  2.5463
 5133SOL    HW226862   3.248   0.655   3.169  0.6082  2.0665  0.8899
 5134SOL     OW26863   0.992   4.281   9.102  0.7046  0.3330 -0.0649
 5134SOL    HW126864   1.015   4.252   9.190  1.1560  1.2129  0.1107
 5134SOL    HW226865   0.945   4.363   9.115  0.2911 -0.3826  2.9029
 5135SOL     OW26866   1.068   0.924  15.547  0.0211  0.1214 -0.0560
 5135SOL    HW126867   1.021   0.907  15.466  0.6154 -1.8115  0.0051
 5135SOL    HW226868   1.114   0.842  15.560 -1.1053 -0.5255 -0.1628
 5136SOL     OW26869   0.106   0.802   3.595  0.3741  0.2007  0.3440
 5136SOL    HW126870   0.117   0.731   3.658  1.4117 -2.2348 -2.5863
 5136SOL    HW226871   0.187   0.803   3.545  1.8953  3.6644  2.8241
 5137SOL     OW26872   3.781   2.126   6.953  0.0437 -0.2602  0.4336
 5137SOL    HW126873   3.716   2.197   6.947  0.7432  0.2560 -1.1057
 5137SOL    HW226874   3.806   2.127   7.045 -0.3815  1.5033  0.5424
 5138SOL     OW26875   1.756   3.904   2.880 -0.6760  1.0979  0.2288
 5138SOL    HW126876   1.720   3.842   2.816 -0.5057  2.2299 -0.9657
 5138SOL    HW226877   1.847   3.875   2.870 -0.9263  0.3538  0.0959
 5139SOL     OW26878   2.467   0.294   9.184  0.0299  0.1032 -0.0640
 5139SOL    HW126879   2.537   0.236   9.214  0.7804  0.8031 -0.4581
 5139SOL    HW226880   2.423   0.324   9.263 -1.0160 -1.2083 -0.1546
 5140SOL     OW26881   2.447   2.038   8.364  0.9355  0.3374  0.0953
 5140SOL    HW126882   2.372   2.088   8.332  1.7986  2.3965  1.2720
 5140SOL    HW226883   2.432   2.023   8.458  3.3059 -0.0961  0.4034
 5141SOL     OW26884   1.703   0.797   7.113  0.0214 -0.4671  0.4013
 5141SOL    HW126885   1.780   0.746   7.139 -0.3586 -1.4821 -0.4714
 5141SOL    HW226886   1.737   0.827   7.029  1.8729 -2.0287  0.5922
 5142SOL     OW26887   1.199   0.530   5.506  0.0231  0.2729 -0.1081
 5142SOL    HW126888   1.186   0.491   5.592 -0.6326 -0.2483 -0.4372
 5142SOL    HW226889   1.237   0.615   5.528  0.6262 -0.8287  3.0910
 5143SOL     OW26890   1.465   2.144   5.895  0.4410  0.0207 -0.4077
 5143SOL    HW126891   1.410   2.069   5.872 -3.2047  2.2662  1.0279
 5143SOL    HW226892   1.443   2.211   5.831 -0.1584  0.6298  0.4417
 5144SOL     OW26893   3.353   2.696   6.136  0.0686  0.4241 -0.1679
 5144SOL    HW126894   3.289   2.718   6.203 -0.0945 -2.6095  0.6852
 5144SOL    HW226895   3.415   2.640   6.183 -1.7440 -0.2042  1.4415
 5145SOL     OW26896   2.679   0.104   3.326  0.2944 -0.1252  0.6910
 5145SOL    HW126897   2.679   0.012   3.297  0.3583 -0.1375  0.7312
 5145SOL    HW226898   2.763   0.134   3.290 -1.3811  0.2509 -2.9464
 5146SOL     OW26899   2.873   4.721   5.245 -0.2634 -0.5776 -0.1355
 5146SOL    HW126900   2.803   0.055   5.215 -0.5620 -0.4730  0.7860
 5146SOL    HW226901   2.882   0.048   5.325  0.6725  0.0832 -0.6532
 5147SOL     OW26902   4.034   4.309  16.554  0.0294  0.0882  0.2057
 5147SOL    HW126903   4.123   4.335  16.531 -0.6194  1.3397 -0.8694
 5147SOL    HW226904   3.983   4.390  16.553  0.5059  0.3652 -2.3992
 5148SOL     OW26905   0.740   0.350   7.613 -0.1418 -0.1954 -0.0273
 5148SOL    HW126906   0.825   0.305   7.613  0.3322  0.7152 -0.2343
 5148SOL    HW226907   0.730   0.388   7.526  2.6720 -2.3529 -1.3071
 5149SOL     OW26908   4.478   1.040   5.809  0.5943  0.7873  0.2432
 5149SOL    HW126909   4.570   1.066   5.803  0.7425  0.4422  1.0565
 5149SOL    HW226910   4.461   1.015   5.718 -0.2407  0.4892  0.4812
 5150SOL     OW26911   3.754   0.449   0.193  0.6166  0.2832 -0.0241
 5150SOL    HW126912   3.787   0.529   0.234  1.1745 -0.1492  0.3789
 5150SOL    HW226913   3.675   0.446   0.246  1.9775  0.4810  2.0116
 5151SOL     OW26914   2.718   4.705  13.729  0.4147 -0.0739  0.0833
 5151SOL    HW126915   2.781   0.052  13.740 -0.1233  0.0361  2.4247
 5151SOL    HW226916   2.705   4.719  13.635 -0.5326  0.0703  0.2368
 5152SOL     OW26917   1.867   3.354   9.955  0.0278 -0.4838 -0.1433
 5152SOL    HW126918   1.946   3.302   9.940  0.0266 -0.3796 -0.4974
 5152SOL    HW226919   1.801   3.296   9.918 -0.5307  1.2437 -1.8304
 5153SOL     OW26920   3.512   1.368   7.150  0.6098 -0.9035  0.4994
 5153SOL    HW126921   3.531   1.376   7.243 -2.7997 -0.1731  1.1194
 5153SOL    HW226922   3.583   1.312   7.119  0.1369 -0.1006 -2.0222
 5154SOL     OW26923   1.127   3.048   9.139  0.1087  0.2505 -0.0332
 5154SOL    HW126924   1.183   3.071   9.213  3.8501 -0.8913 -2.5158
 5154SOL    HW226925   1.150   2.955   9.136 -0.0095  0.2392 -0.6466
 5155SOL     OW26926   4.531   3.332   7.069  0.0298  0.1153 -0.0776
 5155SOL    HW126927   4.444   3.317   7.031  0.6758 -2.6405 -0.3934
 5155SOL    HW226928   4.542   3.412   7.018  0.9340 -0.3260 -0.5581
 5156SOL     OW26929   0.366   4.175   8.080 -0.0173  0.3503 -0.5363
 5156SOL    HW126930   0.449   4.204   8.117 -0.1082  1.2884 -1.0667
 5156SOL    HW226931   0.370   4.081   8.064 -0.2787  0.0137  1.4624
 5157SOL     OW26932   3.395   3.594   6.830 -0.2289 -0.1678  0.2212
 5157SOL    HW126933   3.398   3.590   6.926 -1.7521 -0.4740  0.2688
 5157SOL    HW226934   3.428   3.682   6.813 -2.2392 -0.1100 -3.3025
 5158SOL     OW26935   2.049   0.488  16.747 -0.4009 -0.5213 -0.8465
 5158SOL    HW126936   1.975   0.494  16.807 -0.5529  1.5090 -1.2447
 5158SOL    HW226937   2.035   0.399  16.715 -0.7564 -0.0404 -2.0385
 5159SOL     OW26938   4.190   2.526  17.218 -0.4848 -0.8312  0.4459
 5159SOL    HW126939   4.150   2.471  17.286  1.2839 -1.2744  1.1224
 5159SOL    HW226940   4.153   2.475  17.145 -0.5328 -0.4246  0.1833
 5160SOL     OW26941   1.264   2.447   2.154 -0.1455  0.2562  0.3119
 5160SOL    HW126942   1.226   2.488   2.077  3.5162 -0.9124 -2.1217
 5160SOL    HW226943   1.190   2.389   2.172  1.5740 -1.4737  1.8220
 5161SOL     OW26944   0.997   2.443   7.511 -0.1600 -0.1345 -0.3897
 5161SOL    HW126945   1.032   2.520   7.556 -1.9336  0.5202 -0.1265
 5161SOL    HW226946   0.971   2.482   7.427  1.3896  0.8461 -0.4236
 5162SOL     OW26947   3.949   3.507   9.241 -0.7974  0.2048 -0.3275
 5162SOL    HW126948   3.995   3.572   9.294 -1.6274  0.2406  0.3480
 5162SOL    HW226949   3.858   3.527   9.263 -0.6781  0.0492  0.3183
 5163SOL     OW26950   4.637   2.492   7.695 -0.1226  0.2553  0.0924
 5163SOL    HW126951   4.699   2.477   7.623  1.4679 -0.8289  1.7083
 5163SOL    HW226952   4.688   2.522   7.770 -2.8042 -0.8313  2.3471
 5164SOL     OW26953   4.678   1.337   7.084 -0.3475 -0.1003  0.1655
 5164SOL    HW126954   4.665   1.292   7.000  1.3836  0.7585 -0.5575
 5164SOL    HW226955   4.687   1.264   7.146  0.9770 -1.0944 -1.1796
 5165SOL     OW26956   4.567   1.430   5.250  0.0396  0.6206  0.2516
 5165SOL    HW126957   4.589   1.522   5.258 -0.2475  0.7089  0.0331
 5165SOL    HW226958   4.654   1.393   5.263 -1.2812 -1.6848  2.7560
 5166SOL     OW26959   1.825   1.087   7.349  0.2826  0.0641  0.1625
 5166SOL    HW126960   1.850   1.010   7.400  2.7784  0.7878  0.0289
 5166SOL    HW226961   1.731   1.087   7.366  0.1242 -1.2855 -0.6898
 5167SOL     OW26962   2.455   3.388   1.104 -0.0739 -0.1413  0.0836
 5167SOL    HW126963   2.417   3.351   1.184  0.8702 -0.0153  0.6012
 5167SOL    HW226964   2.455   3.306   1.055 -2.8703  0.0500 -0.2350
 5168SOL     OW26965   1.317   0.058   0.695  0.0260  0.0919  0.4944
 5168SOL    HW126966   1.315   4.691   0.663  2.6346  0.3233 -0.3786
 5168SOL    HW226967   1.372   0.043   0.772 -0.5011  3.5146  1.5038
 5169SOL     OW26968   3.872   1.859   0.027  0.1016  0.2538  0.3558
 5169SOL    HW126969   3.798   1.809   0.061 -1.0675  2.1614  0.6482
 5169SOL    HW226970   3.927   1.787  17.695 -0.8479 -0.2722 -0.1363
 5170SOL     OW26971   1.569   3.519  11.743  0.3158 -0.0180 -0.3474
 5170SOL    HW126972   1.554   3.460  11.817 -0.2424  0.6298  0.0650
 5170SOL    HW226973   1.496   3.492  11.687 -0.1267  0.0789  0.1744
 5171SOL     OW26974   0.287   3.459   3.453 -0.5790 -0.1577 -0.0916
 5171SOL    HW126975   0.350   3.403   3.407 -1.1909 -1.0842  0.1873
 5171SOL    HW226976   0.282   3.408   3.534  0.6544  0.0830  0.1353
 5172SOL     OW26977   1.909   4.134   8.283  0.3651  0.3623  0.1471
 5172SOL    HW126978   1.827   4.136   8.333 -0.9088  0.5744 -1.9250
 5172SOL    HW226979   1.976   4.146   8.350  0.7047 -2.0485  0.2306
 5173SOL     OW26980   0.256   4.384   7.930  0.1457  0.5325  0.1830
 5173SOL    HW126981   0.297   4.312   7.976 -1.5813 -0.2778  0.4712
 5173SOL    HW226982   0.185   4.410   7.990  1.1023 -0.0254  1.5552
 5174SOL     OW26983   0.668   3.285   7.140 -0.0505 -0.0179  0.5345
 5174SOL    HW126984   0.705   3.283   7.228  0.6903 -0.1431  0.2150
 5174SOL    HW226985   0.578   3.257   7.159  0.6901 -0.9482  2.6710
 5175SOL     OW26986   3.015   3.358   6.840 -0.0417  0.4388  0.2873
 5175SOL    HW126987   2.988   3.272   6.810  1.1111  1.0912 -2.5702
 5175SOL    HW226988   3.053   3.393   6.759  0.5992  0.6173  0.6636
 5176SOL     OW26989   2.933   4.615   0.361  0.0274  0.1153  0.8477
 5176SOL    HW126990   3.023   4.630   0.391 -0.3202  0.5399  1.6532
 5176SOL    HW226991   2.952   4.556   0.288  0.0540  1.1602  0.0057
 5177SOL     OW26992   0.368   4.651   0.388  0.3542 -0.1907  0.0038
 5177SOL    HW126993   0.364   4.558   0.410 -1.3106 -0.1873 -0.2708
 5177SOL    HW226994   0.348   4.655   0.294  2.4776  1.1168 -0.3951
 5178SOL     OW26995   0.878   2.153   5.646 -0.2466  0.0604 -0.3877
 5178SOL    HW126996   0.906   2.125   5.559  1.1470 -0.4235  0.2082
 5178SOL    HW226997   0.858   2.066   5.681 -1.2453  0.0302 -1.0525
 5179SOL     OW26998   3.649   0.768   3.706  0.4757 -0.2013 -0.4908
 5179SOL    HW126999   3.704   0.807   3.637  0.2824  0.5957 -0.1975
 5179SOL    HW227000   3.597   0.845   3.728 -1.1473 -0.6966 -2.5724
 5180SOL     OW27001   0.615   4.190   4.510  0.5377 -0.7618 -0.0385
 5180SOL    HW127002   0.565   4.262   4.549 -0.0048  0.0023 -2.1817
 5180SOL    HW227003   0.649   4.144   4.587  0.2878 -0.3102  0.3444
 5181SOL     OW27004   2.195   2.014   0.469  0.5380 -0.8213 -0.0954
 5181SOL    HW127005   2.289   2.026   0.479  0.3286  1.3074 -0.6925
 5181SOL    HW227006   2.176   2.051   0.556 -1.0612  0.1562 -0.8535
 5182SOL     OW27007   0.400   4.169   9.697  0.2585 -0.5512  0.2751
 5182SOL    HW127008   0.405   4.261   9.674  0.4312  0.0389  2.6724
 5182SOL    HW227009   0.492   4.149   9.715  0.9290  1.1231 -1.2959
 5183SOL     OW27010   0.724   4.436   8.213 -0.5755  0.0738 -0.1977
 5183SOL    HW127011   0.726   4.523   8.172  0.2869 -1.5636 -3.6026
 5183SOL    HW227012   0.812   4.405   8.192  0.6359  2.9027  0.5794
 5184SOL     OW27013   0.548   0.563   7.844 -0.3373 -0.2301 -0.0950
 5184SOL    HW127014   0.554   0.615   7.925 -0.1150 -0.9898  0.3842
 5184SOL    HW227015   0.642   0.553   7.829 -0.2567  3.1244 -1.8512
 5185SOL     OW27016   3.284   1.164  17.058  0.2414  0.9724  0.0970
 5185SOL    HW127017   3.363   1.201  17.018  2.8411 -0.9050  3.4196
 5185SOL    HW227018   3.311   1.124  17.141  1.6995  0.8240 -0.4540
 5186SOL     OW27019   2.251   4.316  11.127  0.1054 -0.0361 -0.7094
 5186SOL    HW127020   2.288   4.389  11.078  2.1649 -0.4029  0.2829
 5186SOL    HW227021   2.302   4.323  11.208 -0.1738 -0.3803 -0.5039
 5187SOL     OW27022   4.453   4.300   8.932 -0.2503  0.8297 -0.0559
 5187SOL    HW127023   4.523   4.361   8.956  0.0013  1.2228 -1.8499
 5187SOL    HW227024   4.372   4.346   8.955 -0.1342  0.3331  1.3288
 5188SOL     OW27025   4.285   0.576   4.135 -0.7476  0.4036 -0.5231
 5188SOL    HW127026   4.296   0.532   4.051 -2.2678  0.2885 -0.6595
 5188SOL    HW227027   4.366   0.548   4.177 -1.3548 -0.7076 -0.1013
 5189SOL     OW27028   1.720   3.834   1.285  0.0909  0.5745  0.7035
 5189SOL    HW127029   1.629   3.863   1.280  0.2485  1.0556  0.6177
 5189SOL    HW227030   1.733   3.784   1.204 -1.4488  0.2172  0.6819
 5190SOL     OW27031   1.748   3.212   6.665  0.1924 -0.6713  0.2349
 5190SOL    HW127032   1.680   3.259   6.712  0.0517 -1.0640  0.4201
 5190SOL    HW227033   1.691   3.157   6.612  0.8583 -1.6421  0.5287
 5191SOL     OW27034   4.156   3.069   5.489  0.1856  0.0716  0.4567
 5191SOL    HW127035   4.172   3.163   5.483  0.6123 -0.0189  0.1723
 5191SOL    HW227036   4.239   3.043   5.529  0.2532 -1.6340 -0.7697
 5192SOL     OW27037   0.569   3.138  16.920 -0.1422  0.8532 -0.1978
 5192SOL    HW127038   0.509   3.064  16.909  1.0977 -0.2141  0.2337
 5192SOL    HW227039   0.530   3.190  16.991  2.4174  0.2091  1.6632
 5193SOL     OW27040   0.137   0.627   4.369  0.2692 -0.4032 -0.6357
 5193SOL    HW127041   0.196   0.681   4.316  0.5244 -0.7114 -0.6623
 5193SOL    HW227042   0.070   0.690   4.395 -1.0654 -2.4564  0.8990
 5194SOL     OW27043   1.496   2.575   3.174  0.1349 -0.1829  0.1377
 5194SOL    HW127044   1.584   2.538   3.182  0.1545 -0.2617 -0.4478
 5194SOL    HW227045   1.493   2.669   3.162 -2.1196 -0.3782 -0.6827
 5195SOL     OW27046   0.975   1.211  13.134 -0.1615  0.4310  0.0817
 5195SOL    HW127047   0.988   1.283  13.195 -1.2692  0.1966  0.5958
 5195SOL    HW227048   1.052   1.224  13.079 -0.8890 -1.8250 -1.4925
 5196SOL     OW27049   3.920   0.701   9.613  0.4861 -0.7705  0.0106
 5196SOL    HW127050   3.825   0.701   9.604  0.5722  1.3540 -0.9481
 5196SOL    HW227051   3.925   0.639   9.686 -2.9881 -2.0551 -0.8866
 5197SOL     OW27052   0.132   0.341   6.118 -0.2345 -0.2746 -0.1609
 5197SOL    HW127053   0.102   0.251   6.127 -1.1179 -0.0690 -1.0403
 5197SOL    HW227054   0.049   0.388   6.129  0.2894  0.6830 -0.2452
 5198SOL     OW27055   0.280   2.209   6.160 -0.6209 -0.2122  0.4262
 5198SOL    HW127056   0.341   2.137   6.173 -0.3053 -0.5414 -2.7386
 5198SOL    HW227057   0.289   2.277   6.226  0.9780  0.2918 -0.3308
 5199SOL     OW27058   4.261   2.299   5.150  0.1842  0.6952 -0.6988
 5199SOL    HW127059   4.294   2.343   5.072  1.9778  0.6843  0.0526
 5199SOL    HW227060   4.180   2.267   5.111 -1.1410  2.2623  0.7482
 5200SOL     OW27061   2.374   0.699   4.788 -0.3680 -0.4002  0.7616
 5200SOL    HW127062   2.409   0.658   4.867 -1.6948 -2.8052  0.0870
 5200SOL    HW227063   2.391   0.631   4.723 -0.8614 -0.2081  0.4258
 5201SOL     OW27064   0.139   1.535   7.152 -0.1557 -0.4659 -0.1444
 5201SOL    HW127065   0.088   1.578   7.082  0.1037 -0.7249 -0.4927
 5201SOL    HW227066   0.067   1.499   7.204 -0.5104 -1.9813 -1.6805
 5202SOL     OW27067   1.690   1.187   6.208 -0.0993 -0.5798 -0.5804
 5202SOL    HW127068   1.734   1.208   6.290 -0.6764  1.2060 -0.7221
 5202SOL    HW227069   1.611   1.241   6.213  1.6145  1.7369  1.2744
 5203SOL     OW27070   3.178   2.298  13.374  0.4131 -0.2538 -0.5295
 5203SOL    HW127071   3.119   2.272  13.304  0.7774  0.3629 -1.0695
 5203SOL    HW227072   3.263   2.281  13.332  0.1261  0.8123 -1.5546
 5204SOL     OW27073   0.315   0.341   2.200  0.5681 -0.2113  0.0918
 5204SOL    HW127074   0.348   0.307   2.116 -1.9474  1.6876 -1.6488
 5204SOL    HW227075   0.304   0.263   2.254 -1.3039  0.0551  0.0877
 5205SOL     OW27076   1.064   0.159   0.866  0.0983 -0.2352 -0.2491
 5205SOL    HW127077   0.983   0.209   0.861  0.6039  0.8262  2.3335
 5205SOL    HW227078   1.045   0.068   0.844 -0.1232 -0.1062 -0.6001
 5206SOL     OW27079   1.871   4.501   2.871  0.3345 -0.4475  0.3479
 5206SOL    HW127080   1.817   4.513   2.949 -2.4143 -0.4220 -1.5781
 5206SOL    HW227081   1.881   4.406   2.875 -0.7149 -0.5339  0.9314
 5207SOL     OW27082   1.571   4.570   6.776 -0.8985  0.8184  0.0825
 5207SOL    HW127083   1.586   4.640   6.712  0.8007 -0.3674 -0.8200
 5207SOL    HW227084   1.662   4.545   6.791 -1.3744 -0.8012  0.2030
 5208SOL     OW27085   0.769   0.422  10.083 -0.0557  0.1878  0.3322
 5208SOL    HW127086   0.704   0.352  10.094  0.3549 -0.0050  1.4677
 5208SOL    HW227087   0.807   0.378  10.006  0.5052  0.6705  0.3349
 5209SOL     OW27088   1.283   3.377   8.870  0.0807  0.8702  0.1750
 5209SOL    HW127089   1.375   3.387   8.895 -0.7286  1.7028  2.7786
 5209SOL    HW227090   1.267   3.453   8.815 -0.3175 -0.0299 -0.9737
 5210SOL     OW27091   0.964   1.100  15.097  0.1929 -0.3419 -0.5015
 5210SOL    HW127092   0.890   1.050  15.062 -1.1773  2.5414 -1.7179
 5210SOL    HW227093   0.952   1.173  15.037  1.5717 -0.5279 -0.9951
 5211SOL     OW27094   2.913   4.356  10.112 -0.0847  0.3160  0.2565
 5211SOL    HW127095   2.934   4.273  10.155 -0.7414  0.5339  1.0109
 5211SOL    HW227096   2.826   4.367  10.152 -1.0242 -1.0005 -1.4310
 5212SOL     OW27097   0.383   4.180  10.241 -0.0837  0.8787  0.7486
 5212SOL    HW127098   0.336   4.242  10.297 -1.4004 -0.1413  0.7836
 5212SOL    HW227099   0.443   4.135  10.301  0.7009  1.4143  0.3624
 5213SOL     OW27100   1.520   0.375   0.355  0.1791  0.2756 -0.3368
 5213SOL    HW127101   1.556   0.409   0.437  1.2885 -0.8370 -0.3462
 5213SOL    HW227102   1.475   0.295   0.382 -1.1985  2.5050  3.8702
 5214SOL     OW27103   1.076   1.733  10.453 -0.6484 -0.3062 -0.8249
 5214SOL    HW127104   1.126   1.705  10.530  0.0498  2.8103 -0.1370
 5214SOL    HW227105   1.143   1.741  10.385  0.5373 -0.1274  0.3522
 5215SOL     OW27106   2.257   3.518  16.300 -0.0527 -0.1579  0.0603
 5215SOL    HW127107   2.242   3.553  16.388  0.0886 -1.6609  0.6903
 5215SOL    HW227108   2.192   3.566  16.249 -1.4872 -1.0079  1.0685
 5216SOL     OW27109   2.675   3.097   6.598  0.4126 -0.2140  0.4268
 5216SOL    HW127110   2.647   3.092   6.507  0.8539 -1.1268  0.3498
 5216SOL    HW227111   2.593   3.067   6.636  0.0345  1.4057  0.9012
 5217SOL     OW27112   0.060   0.258   8.256  0.8011 -0.0223 -0.3244
 5217SOL    HW127113   0.028   0.274   8.344  1.3237  1.5357 -0.4234
 5217SOL    HW227114   0.140   0.309   8.245  0.0213  1.3658  0.5057
 5218SOL     OW27115   4.166   0.087  11.499  0.2299  0.5323 -0.1088
 5218SOL    HW127116   4.184   4.719  11.483 -2.6872  0.1958 -1.5985
 5218SOL    HW227117   4.208   0.135  11.428  3.5429  0.0104  1.5225
 5219SOL     OW27118   4.020   1.347   5.940  0.0573 -0.4792  0.8392
 5219SOL    HW127119   4.021   1.436   5.977  0.2850 -1.2304  2.6397
 5219SOL    HW227120   3.932   1.333   5.903  0.4778  0.0426 -0.3634
 5220SOL     OW27121   3.881   1.183   9.555 -0.5494  0.2541 -0.0924
 5220SOL    HW127122   3.977   1.180   9.565 -0.8362 -0.8193  2.3953
 5220SOL    HW227123   3.859   1.092   9.539  0.1348  0.2602 -1.1229
 5221SOL     OW27124   4.148   0.896   8.330 -0.0339  0.2113 -0.5385
 5221SOL    HW127125   4.201   0.929   8.402 -1.1708 -0.0138  0.3945
 5221SOL    HW227126   4.208   0.925   8.261  0.4864  1.3682  0.3949
 5222SOL     OW27127   4.493   0.917   5.114 -0.1355 -0.2471  0.3349
 5222SOL    HW127128   4.564   0.853   5.112  0.3493  0.2820  0.4794
 5222SOL    HW227129   4.482   0.936   5.021 -1.1037  0.6355  0.6337
 5223SOL     OW27130   2.403   1.174   6.887 -0.0974 -0.0088  0.3305
 5223SOL    HW127131   2.354   1.144   6.810  2.3884 -0.1347 -1.2311
 5223SOL    HW227132   2.432   1.091   6.925  2.1827  0.6770  0.0749
 5224SOL     OW27133   2.896   2.991   7.900 -0.1480 -0.3755 -0.1292
 5224SOL    HW127134   2.939   3.045   7.833  1.3140 -2.1587 -0.6292
 5224SOL    HW227135   2.915   2.903   7.869 -2.1074 -1.2298  1.1098
 5225SOL     OW27136   3.930   4.151   0.566 -0.1520  0.3658 -0.0557
 5225SOL    HW127137   3.915   4.242   0.590 -0.8153  0.7623 -1.9615
 5225SOL    HW227138   3.964   4.125   0.652 -1.2548 -0.2147  0.2078
 5226SOL     OW27139   3.772   1.280   6.224 -0.6295 -0.0881 -0.3650
 5226SOL    HW127140   3.711   1.206   6.227  0.8288 -1.2878 -0.3444
 5226SOL    HW227141   3.815   1.273   6.309 -0.5450  1.7991 -0.2679
 5227SOL     OW27142   0.481   2.912   7.869 -0.2580  0.0514 -0.0288
 5227SOL    HW127143   0.515   2.962   7.943  1.4324 -0.9309 -0.1367
 5227SOL    HW227144   0.504   2.976   7.801 -1.4891 -0.1544 -0.6222
 5228SOL     OW27145   0.373   1.893  11.276  0.4963  0.4442  0.2217
 5228SOL    HW127146   0.441   1.957  11.256 -0.5496  1.7562  0.9032
 5228SOL    HW227147   0.326   1.859  11.201 -1.3822  0.7576  1.2688
 5229SOL     OW27148   1.174   2.122   4.692 -0.1664 -0.0373 -0.0292
 5229SOL    HW127149   1.160   2.107   4.598  2.4436  1.3868 -0.6210
 5229SOL    HW227150   1.168   2.030   4.718 -0.6343  0.0652  0.2232
 5230SOL     OW27151   0.217   1.220   9.195  0.0812  0.1190  0.1248
 5230SOL    HW127152   0.284   1.153   9.182  0.4772  0.4277  0.5577
 5230SOL    HW227153   0.221   1.261   9.109 -0.6694 -1.9732 -0.9137
 5231SOL     OW27154   0.099   0.785   7.388  0.5406  0.3357 -0.6043
 5231SOL    HW127155   0.020   0.802   7.440  0.3261 -0.2321 -0.7375
 5231SOL    HW227156   0.070   0.697   7.362  1.0334  0.2054 -0.7031
 5232SOL     OW27157   4.561   0.321   2.209 -0.2038  0.1379  0.2298
 5232SOL    HW127158   4.599   0.408   2.198 -0.8278  0.6396  1.9900
 5232SOL    HW227159   4.524   0.311   2.121 -0.5129  0.5113  0.3182
 5233SOL     OW27160   1.731   3.159  16.519 -0.3924 -0.8744  0.0888
 5233SOL    HW127161   1.645   3.134  16.484 -0.8193  1.6912 -0.6796
 5233SOL    HW227162   1.789   3.157  16.443  0.0991  1.4799  0.4048
 5234SOL     OW27163   0.635   3.883   2.676 -0.1243 -0.4174 -0.4187
 5234SOL    HW127164   0.652   3.837   2.595  0.1503  0.4666 -0.8691
 5234SOL    HW227165   0.544   3.862   2.696  0.7105 -0.0933  3.8893
 5235SOL     OW27166   3.616   2.927  13.915 -0.1558 -0.2306  0.1718
 5235SOL    HW127167   3.525   2.914  13.886  0.1178 -1.6224 -0.0844
 5235SOL    HW227168   3.658   2.916  13.830  1.2195 -3.0405  1.2044
 5236SOL     OW27169   3.717   0.062   7.409 -0.3128  0.0304 -0.0569
 5236SOL    HW127170   3.729   4.705   7.359 -3.2545  0.1477 -1.0023
 5236SOL    HW227171   3.623   0.078   7.395 -1.0147 -2.5822  1.6586
 5237SOL     OW27172   0.622   4.539   8.454  0.1633  0.1254 -0.1473
 5237SOL    HW127173   0.539   4.499   8.481  0.6566 -0.4315  0.5236
 5237SOL    HW227174   0.645   4.505   8.367  0.5299 -2.0986  0.8122
 5238SOL     OW27175   1.796   3.594   6.988 -0.3147 -0.4354 -0.6624
 5238SOL    HW127176   1.751   3.560   7.066 -0.0953 -1.0495 -0.8007
 5238SOL    HW227177   1.783   3.522   6.927 -2.3422 -0.3434 -0.3299
 5239SOL     OW27178   0.597   2.962   7.066  0.0374 -0.0151  0.4407
 5239SOL    HW127179   0.553   3.021   7.127  1.2365  0.8054  0.4987
 5239SOL    HW227180   0.525   2.948   7.004  0.3832  0.5076 -0.0696
 5240SOL     OW27181   2.470   0.048   1.126  0.2695 -0.3095  0.1302
 5240SOL    HW127182   2.515   0.129   1.151 -1.6721  0.8866 -0.2165
 5240SOL    HW227183   2.531   0.021   1.057 -2.2509  0.6080 -2.4779
 5241SOL     OW27184   2.948   1.738  15.774 -0.9576 -0.1038  0.1802
 5241SOL    HW127185   2.875   1.703  15.722 -0.6494  0.2794 -0.5164
 5241SOL    HW227186   2.917   1.827  15.789  0.5674  0.5471 -0.5511
 5242SOL     OW27187   0.430   4.218   7.711 -0.3061 -0.2400 -0.3010
 5242SOL    HW127188   0.433   4.143   7.770 -2.2070 -0.4223 -0.4355
 5242SOL    HW227189   0.380   4.184   7.637 -1.3105 -1.9046  1.1653
 5243SOL     OW27190   4.357   1.854   2.006  0.3358  0.0926 -0.1658
 5243SOL    HW127191   4.381   1.775   2.054  1.6978  1.2423  1.0157
 5243SOL    HW227192   4.379   1.911   2.080 -2.2580  2.3891 -1.1551
 5244SOL     OW27193   1.984   0.919   2.072  0.3489  0.0909  0.3455
 5244SOL    HW127194   1.903   0.956   2.036  0.4257 -1.2934 -1.2637
 5244SOL    HW227195   1.951   0.830   2.085  0.0994  0.0956 -0.2572
 5245SOL     OW27196   2.480   0.180   5.571 -0.2839 -0.0956 -0.3431
 5245SOL    HW127197   2.490   0.205   5.479 -0.2259  1.6483  0.1234
 5245SOL    HW227198   2.385   0.180   5.584 -0.1964 -1.8726  0.2353
 5246SOL     OW27199   3.048   1.431   2.858 -0.3501  0.2243  0.3026
 5246SOL    HW127200   3.134   1.474   2.851 -1.0830  1.7204  0.5691
 5246SOL    HW227201   3.055   1.396   2.946  3.0275  0.0665 -0.0148
 5247SOL     OW27202   3.349   4.489   8.089  0.2328  0.2543 -0.6471
 5247SOL    HW127203   3.297   4.488   8.169 -0.5264 -0.6485 -1.1664
 5247SOL    HW227204   3.349   4.395   8.072  2.0369  0.4962 -2.0035
 5248SOL     OW27205   2.167   3.728   6.664  0.0676 -0.3088  0.2004
 5248SOL    HW127206   2.250   3.685   6.684 -0.0264  0.1245  1.4939
 5248SOL    HW227207   2.126   3.732   6.750  0.7055  2.3825  0.3845
 5249SOL     OW27208   4.254   0.714  16.245 -0.2266  0.1382 -0.4549
 5249SOL    HW127209   4.236   0.620  16.246 -0.0502  0.1007 -0.6881
 5249SOL    HW227210   4.344   0.731  16.273  0.8132 -2.2274 -2.2644
 5250SOL     OW27211   2.524   2.698  12.387  0.3011  0.2019  0.2093
 5250SOL    HW127212   2.436   2.703  12.423  0.4505 -0.4395  0.6436
 5250SOL    HW227213   2.573   2.768  12.430 -0.2516  1.2818 -0.8964
 5251SOL     OW27214   0.900   0.622   3.721  0.1463 -0.1174 -0.3112
 5251SOL    HW127215   0.863   0.566   3.653 -0.9417 -0.1873  0.3434
 5251SOL    HW227216   0.823   0.653   3.769  0.1041 -0.2136 -0.3172
 5252SOL     OW27217   2.489   4.061   0.900  0.2491 -0.6332  0.1328
 5252SOL    HW127218   2.428   4.122   0.942  2.5821  1.1666  0.8910
 5252SOL    HW227219   2.563   4.121   0.888 -1.1442  1.1177  0.3627
 5253SOL     OW27220   1.747   3.745   3.736  0.2911 -0.4192  0.6510
 5253SOL    HW127221   1.688   3.673   3.717 -0.5077  0.3811  0.1416
 5253SOL    HW227222   1.713   3.817   3.683  0.3962  1.0222  2.5124
 5254SOL     OW27223   3.205   4.610   9.440 -0.5214 -0.2476 -0.1333
 5254SOL    HW127224   3.292   4.575   9.424 -0.9129 -0.5961 -1.4502
 5254SOL    HW227225   3.214   4.698   9.404 -2.4666  0.9159  2.2025
 5255SOL     OW27226   1.492   0.071   1.359 -0.2703  0.2781  0.0182
 5255SOL    HW127227   1.516   0.016   1.434 -0.3467  1.4830  0.9198
 5255SOL    HW227228   1.576   0.115   1.347 -0.5763  1.1963  1.3100
 5256SOL     OW27229   2.223   0.122   1.247 -0.2433  0.4364  0.0006
 5256SOL    HW127230   2.289   0.056   1.224 -0.4750  0.3428 -0.4052
 5256SOL    HW227231   2.155   0.071   1.291 -0.4264  0.5324 -0.1716
 5257SOL     OW27232   2.299   2.706  16.003  0.4542  0.2810  0.6838
 5257SOL    HW127233   2.338   2.793  16.014 -3.1334  1.9733 -0.1794
 5257SOL    HW227234   2.220   2.719  16.054 -0.6983  0.4716 -1.1518
 5258SOL     OW27235   1.492   0.249   3.199  0.0366 -0.1449  0.4998
 5258SOL    HW127236   1.504   0.159   3.231  0.0898 -1.2680 -2.7218
 5258SOL    HW227237   1.464   0.298   3.276  1.7443  0.1843  0.9119
 5259SOL     OW27238   4.488   4.075  12.626  0.1512 -0.1594  0.1832
 5259SOL    HW127239   4.412   4.024  12.599 -0.3927  0.8404 -0.1790
 5259SOL    HW227240   4.470   4.160  12.585  0.0563 -0.0083  0.5343
 5260SOL     OW27241   2.897   3.933   6.445 -0.4670 -0.4787  0.2358
 5260SOL    HW127242   2.870   4.023   6.460  0.1369 -0.3255  0.3758
 5260SOL    HW227243   2.953   3.946   6.369  1.9080 -0.7427  1.9383
 5261SOL     OW27244   1.211   3.570  15.572  0.4710  0.3217 -0.1123
 5261SOL    HW127245   1.193   3.507  15.642  1.3053  1.2034  0.9049
 5261SOL    HW227246   1.254   3.639  15.622 -2.7836  1.7914  0.6983
 5262SOL     OW27247   0.243   1.359  17.190 -0.0433 -0.5419 -0.0841
 5262SOL    HW127248   0.238   1.374  17.096 -0.9308 -1.9165 -0.2723
 5262SOL    HW227249   0.152   1.335  17.207 -0.3051  0.1199 -0.5707
 5263SOL     OW27250   0.790   3.223  10.164  0.0697 -0.0040 -0.6553
 5263SOL    HW127251   0.799   3.259  10.253 -0.3029  0.7790 -0.9401
 5263SOL    HW227252   0.830   3.288  10.107 -2.1532  1.4810 -0.5191
 5264SOL     OW27253   2.849   4.718   7.188 -0.1766  0.3150  0.4024
 5264SOL    HW127254   2.869   0.068   7.246 -0.4937  2.1029 -1.7544
 5264SOL    HW227255   2.903   4.647   7.223 -1.1029  0.5136  2.2276
 5265SOL     OW27256   2.883   3.787  11.135  0.3329  0.1911  0.2288
 5265SOL    HW127257   2.978   3.795  11.122  0.2346 -0.3584 -0.8178
 5265SOL    HW227258   2.877   3.694  11.157 -0.3937  0.3188  0.5544
 5266SOL     OW27259   1.878   2.590   9.466  0.3500  0.2702 -0.1323
 5266SOL    HW127260   1.972   2.596   9.448  0.4996 -1.8415 -0.0867
 5266SOL    HW227261   1.862   2.497   9.450 -1.0469  0.7776 -1.6393
 5267SOL     OW27262   4.318   3.079  10.105  0.6475 -0.4414 -0.1635
 5267SOL    HW127263   4.302   2.995  10.064 -1.4969  1.3102 -2.9548
 5267SOL    HW227264   4.262   3.063  10.181 -0.6565  2.7631 -0.4322
 5268SOL     OW27265   2.966   2.963  12.998 -0.0827 -0.1870  0.3714
 5268SOL    HW127266   2.972   2.879  12.953  0.4139 -0.0242  0.1392
 5268SOL    HW227267   2.991   2.930  13.085  0.5342 -1.2691 -0.2231
 5269SOL     OW27268   0.843   4.255  13.295  0.2430  1.1540  0.1627
 5269SOL    HW127269   0.864   4.168  13.262 -0.6259  0.5237  1.2859
 5269SOL    HW227270   0.911   4.311  13.255  1.8700 -0.5615  0.5224
 5270SOL     OW27271   1.815   0.267  16.600  0.0223 -0.3651 -0.0698
 5270SOL    HW127272   1.773   0.297  16.681 -1.5360  1.8351 -1.6819
 5270SOL    HW227273   1.907   0.260  16.623  0.2491  3.4564  0.0472
 5271SOL     OW27274   3.756   4.219  12.219  0.2163 -0.1640  0.9456
 5271SOL    HW127275   3.731   4.131  12.247  2.4434 -0.5970  1.5408
 5271SOL    HW227276   3.848   4.199  12.201  0.1580 -0.5066  1.0125
 5272SOL     OW27277   3.421   0.976   6.873  0.8359 -0.2418  0.4056
 5272SOL    HW127278   3.502   1.006   6.831  0.4701 -2.5524 -1.9156
 5272SOL    HW227279   3.384   0.913   6.812  0.5188  2.4395 -2.1842
 5273SOL     OW27280   1.110   4.146   5.600 -0.3651 -0.1848 -0.1954
 5273SOL    HW127281   1.069   4.155   5.513  0.4966  0.2183 -0.5561
 5273SOL    HW227282   1.203   4.127   5.587 -0.4534  0.1101 -1.2685
 5274SOL     OW27283   0.016   2.039   4.539 -0.3295 -0.3548 -0.1768
 5274SOL    HW127284   4.665   2.001   4.585 -0.0532  1.3668  1.6777
 5274SOL    HW227285   4.684   2.073   4.469 -0.6554  1.5337  1.0131
 5275SOL     OW27286   0.793   1.779   6.898 -0.2460  0.0010 -0.5763
 5275SOL    HW127287   0.724   1.835   6.933 -0.7362 -0.0755 -1.4215
 5275SOL    HW227288   0.797   1.711   6.965 -0.5739  1.1898  0.6326
 5276SOL     OW27289   1.946   1.448   3.117 -0.1220 -0.5437 -0.4259
 5276SOL    HW127290   1.961   1.359   3.086 -1.0435 -1.2553  1.1737
 5276SOL    HW227291   1.851   1.454   3.120 -0.1126  0.1070 -1.3499
 5277SOL     OW27292   2.612   1.307   3.044 -0.2101  0.0173 -0.2549
 5277SOL    HW127293   2.672   1.256   2.990 -1.6268 -0.8534 -0.9911
 5277SOL    HW227294   2.526   1.286   3.008 -0.1534 -1.7759  0.6726
 5278SOL     OW27295   1.317   4.406   7.406 -0.1894  0.0454  0.3020
 5278SOL    HW127296   1.311   4.341   7.476 -2.0261 -0.6607 -0.5142
 5278SOL    HW227297   1.372   4.355   7.347  0.2661  0.2915  0.5143
 5279SOL     OW27298   3.441   2.257  11.917 -0.2821 -0.5387  0.4626
 5279SOL    HW127299   3.441   2.318  11.843 -0.1969  0.8290  1.5798
 5279SOL    HW227300   3.357   2.285  11.954 -0.8948 -1.5359 -0.1863
 5280SOL     OW27301   3.702   2.782   6.928 -0.6589  0.4264  0.5026
 5280SOL    HW127302   3.785   2.823   6.954 -0.2313 -0.5000  0.5882
 5280SOL    HW227303   3.642   2.838   6.977 -0.6319  2.6167 -1.9742
 5281SOL     OW27304   0.558   0.796   8.075  0.0904  0.2072  0.9612
 5281SOL    HW127305   0.636   0.852   8.071 -0.4862  0.9178 -0.3228
 5281SOL    HW227306   0.560   0.772   8.168  1.1199 -0.2693  0.8282
 5282SOL     OW27307   3.981   3.356   0.172  0.3889  0.4309  0.1831
 5282SOL    HW127308   3.901   3.403   0.197  0.4575  0.9049 -0.4835
 5282SOL    HW227309   4.017   3.434   0.129  3.0792 -1.6841 -1.3909
 5283SOL     OW27310   3.001   1.620  16.050 -0.3239 -0.0921 -0.2644
 5283SOL    HW127311   3.004   1.712  16.024  0.7016 -0.3129 -0.9352
 5283SOL    HW227312   2.952   1.621  16.132  1.4281  1.1473  0.7735
 5284SOL     OW27313   1.000   0.789   7.485 -0.3388 -0.0911  0.2035
 5284SOL    HW127314   0.937   0.773   7.415  0.7528 -0.8886 -0.6042
 5284SOL    HW227315   1.067   0.796   7.416 -2.6311  2.4424 -1.7447
 5285SOL     OW27316   1.350   0.617  14.570  0.4841 -0.7349 -0.0696
 5285SOL    HW127317   1.353   0.547  14.635  0.7206  0.5545  1.3316
 5285SOL    HW227318   1.364   0.688  14.633 -2.1217 -1.0399  0.8195
 5286SOL     OW27319   3.940   0.179   3.047 -0.5292  0.2994  0.0002
 5286SOL    HW127320   3.864   0.140   3.004  0.3830  1.7182 -2.9708
 5286SOL    HW227321   3.894   0.224   3.118  0.5212  0.6467  0.4617
 5287SOL     OW27322   3.941   0.735   6.436  0.0798  0.3665  0.1716
 5287SOL    HW127323   3.891   0.694   6.365  1.2733 -2.1960  0.8288
 5287SOL    HW227324   3.873   0.755   6.499 -1.6695  1.1481 -1.9683
 5288SOL     OW27325   0.497   1.706   6.602 -0.0520  0.3178  0.1509
 5288SOL    HW127326   0.435   1.671   6.537 -0.3509  0.6966  0.2271
 5288SOL    HW227327   0.461   1.794   6.617  1.7297  1.1981 -0.7733
 5289SOL     OW27328   2.067   3.287   5.560 -0.2034  0.0003 -0.1828
 5289SOL    HW127329   2.148   3.269   5.606  0.6153  1.8066 -0.8921
 5289SOL    HW227330   2.099   3.361   5.508  2.9326 -0.9032  0.4841
 5290SOL     OW27331   2.875   2.530   4.850 -0.0540  0.3610  0.2660
 5290SOL    HW127332   2.844   2.588   4.782 -0.6664  2.2396  2.1622
 5290SOL    HW227333   2.833   2.563   4.929 -2.2551 -0.1100 -0.7298
 5291SOL     OW27334   4.085   4.464   8.415 -0.6744  0.4606  0.2205
 5291SOL    HW127335   4.001   4.460   8.460 -0.6883 -2.4939 -0.0436
 5291SOL    HW227336   4.063   4.513   8.336  2.2575 -2.0602 -2.1653
 5292SOL     OW27337   3.754   1.890   3.109  0.0153  0.2007  0.2672
 5292SOL    HW127338   3.746   1.960   3.174 -1.2364  0.0740  0.2535
 5292SOL    HW227339   3.796   1.929   3.032 -0.0871 -0.3978 -0.0974
 5293SOL     OW27340   1.202   0.975  16.639  0.0728  0.5216 -0.1148
 5293SOL    HW127341   1.257   0.907  16.600  0.6036  0.7619  0.2178
 5293SOL    HW227342   1.144   0.995  16.566 -0.1847  0.9318  0.2049
 5294SOL     OW27343   3.381   4.233  10.748 -0.4819 -0.0250 -0.9225
 5294SOL    HW127344   3.459   4.189  10.713 -0.2076  1.8170 -2.6505
 5294SOL    HW227345   3.413   4.322  10.760  0.8691 -0.9572  2.2266
 5295SOL     OW27346   3.239   0.549   1.144  0.8989 -0.2226  0.1313
 5295SOL    HW127347   3.182   0.534   1.219 -0.3568 -1.2400 -1.0266
 5295SOL    HW227348   3.187   0.609   1.091 -0.7354 -0.8433  1.0549
 5296SOL     OW27349   0.779   1.472  12.002  0.3451  0.1171 -0.2639
 5296SOL    HW127350   0.819   1.404  12.056  0.3181 -0.5433 -1.0733
 5296SOL    HW227351   0.798   1.449  11.911 -1.2483 -2.1273 -0.0315
 5297SOL     OW27352   0.124   3.491   3.182 -0.0858  0.4422 -0.4279
 5297SOL    HW127353   0.057   3.427   3.205 -0.9584  1.8376  0.8942
 5297SOL    HW227354   0.193   3.478   3.247 -0.8801  0.9249  0.5130
 5298SOL     OW27355   0.691   2.861  11.057 -0.2516  0.1233  0.4855
 5298SOL    HW127356   0.687   2.809  10.976 -0.0974 -2.0883  1.8745
 5298SOL    HW227357   0.633   2.807  11.111 -1.0737  0.9037  0.3836
 5299SOL     OW27358   1.098   0.023  10.523  0.2780  0.0079  0.3278
 5299SOL    HW127359   1.179   0.016  10.574 -0.4652 -0.6805  1.4244
 5299SOL    HW227360   1.060   0.101  10.565 -0.2056 -0.9671  1.7135
 5300SOL     OW27361   1.727   0.246   7.734  0.2953  0.3919 -0.1239
 5300SOL    HW127362   1.686   0.194   7.665  0.0311 -1.0424  1.1273
 5300SOL    HW227363   1.703   0.195   7.811 -1.5534  2.4531  0.6571
 5301SOL     OW27364   2.849   0.036   0.110  0.1591  0.5644 -0.3448
 5301SOL    HW127365   2.869   0.025   0.203  1.9376 -0.5022 -0.8464
 5301SOL    HW227366   2.772   0.092   0.114  0.0360  0.3099  0.7419
 5302SOL     OW27367   4.587   4.437  15.793 -0.0484  0.6365 -0.1645
 5302SOL    HW127368   4.526   4.462  15.724  1.3382 -0.4973 -1.7799
 5302SOL    HW227369   4.601   4.345  15.771  1.0487  1.1254 -1.4889
 5303SOL     OW27370   3.892   3.940   1.484  0.4041  0.1980  0.2302
 5303SOL    HW127371   3.893   3.970   1.575  1.5909 -2.4359  1.0639
 5303SOL    HW227372   3.968   3.885   1.468 -0.3626 -0.9019  0.3837
 5304SOL     OW27373   2.097   4.660   4.027  0.1035 -0.0239  0.1954
 5304SOL    HW127374   2.015   4.677   4.071 -0.0520 -2.1100  0.6965
 5304SOL    HW227375   2.111   0.015   3.973 -1.6490  0.9378  1.1682
 5305SOL     OW27376   4.128   2.072   6.620 -0.2071  0.3585  0.2882
 5305SOL    HW127377   4.134   2.122   6.702  0.5468 -0.8921  0.9985
 5305SOL    HW227378   4.128   1.983   6.657  1.5517  0.4505  0.5000
 5306SOL     OW27379   1.568   3.682   1.479 -0.2148 -0.8096 -0.0042
 5306SOL    HW127380   1.651   3.696   1.433  0.2880 -0.5674  0.9832
 5306SOL    HW227381   1.554   3.762   1.529 -3.8495 -1.8870  0.6483
 5307SOL     OW27382   1.085   0.478  12.238 -0.4345  0.4488 -0.4961
 5307SOL    HW127383   1.039   0.553  12.200  0.9175  0.4020 -2.2282
 5307SOL    HW227384   1.138   0.447  12.164  0.1318 -0.2455  0.2057
 5308SOL     OW27385   0.450   1.723  13.430 -0.0468  0.3893 -0.2902
 5308SOL    HW127386   0.501   1.645  13.408 -2.8215 -1.8088  1.1169
 5308SOL    HW227387   0.364   1.704  13.393  0.2360  0.6146 -1.0694
 5309SOL     OW27388   0.165   4.194   3.203 -0.3940 -0.2558 -0.3713
 5309SOL    HW127389   0.072   4.184   3.180 -0.6004 -1.8957  1.1634
 5309SOL    HW227390   0.208   4.145   3.133 -1.1649 -0.2412 -0.8603
 5310SOL     OW27391   3.744   3.709   0.819  0.3034  0.0703  0.3002
 5310SOL    HW127392   3.771   3.632   0.770  2.1860  0.0881  1.3042
 5310SOL    HW227393   3.709   3.758   0.745 -0.2572 -0.2479  0.3572
 5311SOL     OW27394   1.022   1.141  10.642  0.1775  1.0361 -0.3832
 5311SOL    HW127395   1.021   1.219  10.586 -1.4627  2.0024  1.0170
 5311SOL    HW227396   1.030   1.065  10.584 -1.0102 -0.4348  1.3960
 5312SOL     OW27397   1.971   1.307  11.301 -0.8442  0.4438 -0.3349
 5312SOL    HW127398   1.918   1.306  11.221  0.9789  3.6767 -1.6053
 5312SOL    HW227399   2.061   1.324  11.274  0.1771 -2.4710  1.3039
 5313SOL     OW27400   4.247   3.411   4.595  0.6650 -0.3431 -0.2911
 5313SOL    HW127401   4.188   3.406   4.520  0.2180  0.3857  0.0083
 5313SOL    HW227402   4.202   3.457   4.666 -1.0093 -1.6336 -0.5196
 5314SOL     OW27403   2.253   1.207   5.287 -0.3771  0.8783 -0.2956
 5314SOL    HW127404   2.229   1.232   5.198 -0.0351 -0.4462 -0.7490
 5314SOL    HW227405   2.196   1.267   5.336  1.5865  1.6130  1.0806
 5315SOL     OW27406   1.790   1.413   6.976  0.5880  0.5244  0.0867
 5315SOL    HW127407   1.780   1.405   7.071  1.4413  2.3909  0.3390
 5315SOL    HW227408   1.769   1.323   6.951  0.7103  0.7047 -0.6492
 5316SOL     OW27409   3.134   4.708   9.010 -0.2972 -0.0957 -0.0621
 5316SOL    HW127410   3.112   4.619   9.036 -1.8133 -1.0668 -4.6195
 5316SOL    HW227411   3.043   0.014   9.000 -0.3390 -0.2807 -0.2516
 5317SOL     OW27412   0.646   2.543  14.134  0.6650 -0.0365  0.3011
 5317SOL    HW127413   0.657   2.638  14.136 -2.9940  0.3832  0.1873
 5317SOL    HW227414   0.735   2.506  14.143  0.4087 -0.5908  0.5856
 5318SOL     OW27415   0.198   0.549  10.541  0.0031 -0.3587 -0.0140
 5318SOL    HW127416   0.104   0.532  10.531  0.3246 -1.7517 -0.7123
 5318SOL    HW227417   0.217   0.479  10.603  0.2729  1.2941  1.7764
 5319SOL     OW27418   0.122   0.106   6.549 -0.5070  0.4042  0.4922
 5319SOL    HW127419   0.196   0.045   6.549 -3.2954 -2.9608  0.7556
 5319SOL    HW227420   0.052   0.045   6.529 -0.7159  1.0414 -0.7278
 5320SOL     OW27421   3.319   0.245   4.979 -0.7826 -0.0238  0.6094
 5320SOL    HW127422   3.414   0.246   4.975 -0.8452  1.0098 -0.5659
 5320SOL    HW227423   3.299   0.284   5.064 -0.8128  0.1467  0.5236
 5321SOL     OW27424   3.582   1.841  11.348  0.3745 -0.7068  0.0987
 5321SOL    HW127425   3.547   1.779  11.284 -2.5424  0.0729  0.9519
 5321SOL    HW227426   3.662   1.874  11.307  0.3662  0.2300  0.8361
 5322SOL     OW27427   0.377   4.466   3.731  0.0916  0.5064 -0.2049
 5322SOL    HW127428   0.450   4.404   3.741  1.3229  2.0626  0.3524
 5322SOL    HW227429   0.371   4.509   3.816 -1.5906  1.0115 -0.5703
 5323SOL     OW27430   1.065   2.972  11.258  0.2864  0.8165  0.1806
 5323SOL    HW127431   1.083   3.002  11.347 -1.1667  1.0419  0.3993
 5323SOL    HW227432   1.117   3.037  11.210  2.1708 -1.2717 -0.6090
 5324SOL     OW27433   3.061   2.071   3.370  0.6843  0.0823 -0.2605
 5324SOL    HW127434   3.052   2.022   3.288 -0.6607 -1.0278  0.5501
 5324SOL    HW227435   2.970   2.100   3.373  0.7955  0.1635  2.0695
 5325SOL     OW27436   1.034   2.302   3.624  0.6814  0.2017  0.1316
 5325SOL    HW127437   1.052   2.258   3.541  0.1553  2.1723 -1.0392
 5325SOL    HW227438   0.947   2.334   3.602  1.3525  1.5641 -0.6014
 5326SOL     OW27439   0.440   0.949   9.753 -0.3762  0.4947 -0.5664
 5326SOL    HW127440   0.442   0.865   9.707 -1.1117 -0.7233  1.6568
 5326SOL    HW227441   0.351   0.967   9.784  0.2848  0.8996  1.0553
 5327SOL     OW27442   1.130   1.886   8.761 -0.0578  0.4654  0.1618
 5327SOL    HW127443   1.113   1.966   8.712  0.8900 -0.8258 -2.3019
 5327SOL    HW227444   1.123   1.919   8.850 -1.0155  0.1353  0.2109
 5328SOL     OW27445   1.678   4.716  14.030  0.4787 -0.5275  0.0464
 5328SOL    HW127446   1.741   0.041  14.082  1.2008 -2.5317  1.0489
 5328SOL    HW227447   1.665   0.044  13.951  0.0347  1.4002  1.3905
 5329SOL     OW27448   4.419   1.815   2.547  0.6930  0.5457  0.0668
 5329SOL    HW127449   4.351   1.857   2.600 -0.1902 -2.0035  0.9846
 5329SOL    HW227450   4.392   1.724   2.555  0.2912  0.6979  0.4031
 5330SOL     OW27451   0.065   4.149  16.480  0.3204  0.2575  0.1496
 5330SOL    HW127452   0.151   4.150  16.522  1.3074  1.1447 -1.8944
 5330SOL    HW227453   0.023   4.073  16.522  3.9728 -2.4577 -1.1349
 5331SOL     OW27454   2.813   3.664   7.614  0.1018  0.0651  0.2193
 5331SOL    HW127455   2.790   3.757   7.616 -2.2591 -0.5441  1.3846
 5331SOL    HW227456   2.736   3.636   7.564  0.6050  2.0561 -1.6975
 5332SOL     OW27457   4.148   0.922   3.528  0.5254 -0.2208 -0.5396
 5332SOL    HW127458   4.113   0.940   3.616 -0.1296 -0.0680 -0.8288
 5332SOL    HW227459   4.136   1.009   3.491  0.8442 -0.4442 -1.1584
 5333SOL     OW27460   3.374   1.712   7.840 -0.7202  0.0198  0.2367
 5333SOL    HW127461   3.426   1.637   7.867  1.0228  2.1051  2.7406
 5333SOL    HW227462   3.324   1.732   7.919 -0.7205 -0.3622  0.3309
 5334SOL     OW27463   2.207   4.597   6.072 -0.1322 -0.0869  0.1795
 5334SOL    HW127464   2.160   4.644   6.003  0.9707 -0.0980 -0.5795
 5334SOL    HW227465   2.146   4.523   6.078 -1.6392  1.0670 -0.7813
 5335SOL     OW27466   3.063   1.536  15.191 -0.0215  0.1862  0.1555
 5335SOL    HW127467   3.087   1.602  15.255  0.5370  0.8413 -0.7254
 5335SOL    HW227468   3.021   1.476  15.252 -2.0820  1.4031 -0.0768
 5336SOL     OW27469   1.715   0.199   1.288  0.1387 -0.4701  0.0174
 5336SOL    HW127470   1.749   0.146   1.217  0.6374  0.1524 -0.2060
 5336SOL    HW227471   1.763   0.280   1.270  0.4215 -0.6579 -0.0730
 5337SOL     OW27472   0.634   2.625   4.371 -0.1960  0.7820 -0.2906
 5337SOL    HW127473   0.550   2.621   4.416  0.4388  2.4151  1.0048
 5337SOL    HW227474   0.621   2.557   4.304  0.7197  0.8645 -0.5608
 5338SOL     OW27475   2.093   4.629   4.709 -0.0167  0.6683 -0.1324
 5338SOL    HW127476   2.149   4.706   4.702 -1.2549  1.6457  0.8631
 5338SOL    HW227477   2.155   4.566   4.670 -0.2591  0.1341  0.3412
 5339SOL     OW27478   1.904   1.989   1.208  0.2525  0.4047  0.5306
 5339SOL    HW127479   1.840   2.038   1.157  0.7840 -1.6064 -2.0688
 5339SOL    HW227480   1.882   2.005   1.300 -0.9306  0.5442  0.2252
 5340SOL     OW27481   1.024   3.757  14.946  0.8277  0.3303  0.3645
 5340SOL    HW127482   1.003   3.764  14.853  1.6576  3.2845  0.3961
 5340SOL    HW227483   1.055   3.667  14.957  1.8374  0.6037 -0.2210
 5341SOL     OW27484   2.659   0.934   7.663  0.2791  0.9294 -0.0299
 5341SOL    HW127485   2.706   0.960   7.584 -1.4168  0.0851 -1.3183
 5341SOL    HW227486   2.693   0.999   7.724 -0.5527  0.3560  1.0562
 5342SOL     OW27487   2.078   0.129   7.836 -0.1432  0.1674  0.2943
 5342SOL    HW127488   2.131   0.107   7.912 -0.4140 -4.4619 -0.8243
 5342SOL    HW227489   1.998   0.167   7.872  0.0941  0.7938  0.1592
 5343SOL     OW27490   1.653   0.243   6.090 -0.1320  0.0733 -0.1482
 5343SOL    HW127491   1.626   0.309   6.154  0.1611  0.2198 -0.1723
 5343SOL    HW227492   1.571   0.195   6.088  0.8997 -1.5531 -3.0681
 5344SOL     OW27493   1.393   2.308   4.553  0.3374  0.3626  0.4030
 5344SOL    HW127494   1.390   2.218   4.584 -0.0302 -0.3789 -1.8218
 5344SOL    HW227495   1.318   2.346   4.598 -1.4353 -1.1859 -1.2795
 5345SOL     OW27496   4.115   3.149   9.727 -0.6088  0.0191 -0.2404
 5345SOL    HW127497   4.192   3.172   9.779 -0.5486  0.0498 -0.3437
 5345SOL    HW227498   4.124   3.218   9.661  0.6829 -1.1110 -1.2371
 5346SOL     OW27499   0.155   4.382  12.681  0.5708  0.4402 -0.4159
 5346SOL    HW127500   0.094   4.397  12.609 -1.1038 -3.6298  0.1627
 5346SOL    HW227501   0.123   4.296  12.710  1.0554  0.6386  0.7212
 5347SOL     OW27502   0.525   1.178   2.766  0.7689  0.6678  0.5455
 5347SOL    HW127503   0.460   1.178   2.836  0.1262  0.0539 -0.0556
 5347SOL    HW227504   0.567   1.098   2.799  1.0510  0.4204 -0.4216
 5348SOL     OW27505   4.607   2.337   5.047 -0.0558 -0.1515  0.2898
 5348SOL    HW127506   4.558   2.416   5.027 -0.4190 -0.0627  1.5975
 5348SOL    HW227507   4.574   2.276   4.981  0.8209  0.6782 -0.9225
 5349SOL     OW27508   4.679   4.405  12.982 -0.0120  0.4960 -0.3473
 5349SOL    HW127509   4.687   4.498  12.960  2.0811  0.7363  1.4348
 5349SOL    HW227510   4.603   4.399  13.040 -0.2259 -1.2603 -0.8332
 5350SOL     OW27511   1.550   0.132  10.653  0.2858  0.0324  0.5398
 5350SOL    HW127512   1.474   0.074  10.655 -1.6865  2.6668  2.2450
 5350SOL    HW227513   1.520   0.199  10.714  0.7511  0.2264  0.5566
 5351SOL     OW27514   2.323   0.801   9.194 -0.3989 -0.2590  0.1774
 5351SOL    HW127515   2.313   0.851   9.113  0.4802 -0.4087 -0.0210
 5351SOL    HW227516   2.412   0.767   9.184 -0.2262  0.5288 -0.8984
 5352SOL     OW27517   3.921   1.617   4.380  0.0273 -0.2362  0.0704
 5352SOL    HW127518   3.863   1.541   4.390  1.6655 -1.5932 -0.5581
 5352SOL    HW227519   3.880   1.649   4.300 -3.5476 -1.8390  1.2339
 5353SOL     OW27520   4.069   2.595   5.635  0.2033  0.0400  0.1098
 5353SOL    HW127521   4.041   2.600   5.544 -1.7325  0.1717  0.7155
 5353SOL    HW227522   4.158   2.627   5.619 -0.0135 -0.2093 -1.5558
 5354SOL     OW27523   3.647   4.664  11.998 -0.0442  0.0365 -0.5846
 5354SOL    HW127524   3.554   4.643  11.991  0.1511 -1.1326  0.3067
 5354SOL    HW227525   3.638   0.025  12.042 -1.4482 -1.7821  2.6621
 5355SOL     OW27526   3.100   3.911   7.529 -0.2173 -0.2239 -0.0147
 5355SOL    HW127527   3.159   3.940   7.460 -0.8929 -1.3840 -1.0949
 5355SOL    HW227528   3.021   3.889   7.480  0.4355 -0.0523 -1.1477
 5356SOL     OW27529   2.879   2.614   4.348 -0.1356  0.0888  0.0230
 5356SOL    HW127530   2.924   2.614   4.264 -1.5715 -1.6030 -0.7315
 5356SOL    HW227531   2.931   2.544   4.387  1.3221  1.0273 -0.2090
 5357SOL     OW27532   2.124   4.359   8.349  0.2883 -0.0825  0.0941
 5357SOL    HW127533   2.098   4.290   8.411  0.5680  0.5180  0.8783
 5357SOL    HW227534   2.153   4.416   8.419 -0.6023  1.2429 -0.6253
 5358SOL     OW27535   4.322   2.977   5.916 -0.3835  0.2972  0.7860
 5358SOL    HW127536   4.269   3.016   5.986 -2.1737 -1.9063  0.6644
 5358SOL    HW227537   4.324   3.055   5.860 -2.7367 -0.9757 -1.0441
 5359SOL     OW27538   4.553   2.640   5.643  0.4336  0.0923 -0.6553
 5359SOL    HW127539   4.607   2.616   5.719 -0.0665  0.1389 -0.2882
 5359SOL    HW227540   4.627   2.669   5.589  2.2364 -0.6046  1.4170
 5360SOL     OW27541   4.376   1.113   0.665 -0.3494  0.5554  0.7136
 5360SOL    HW127542   4.296   1.161   0.684 -2.9280 -3.2220 -0.7839
 5360SOL    HW227543   4.343   1.027   0.691  2.2305 -0.1409  1.7127
 5361SOL     OW27544   0.580   3.635   8.982  0.1909 -0.5412 -0.3800
 5361SOL    HW127545   0.673   3.656   8.979 -0.0552  0.0785 -3.6010
 5361SOL    HW227546   0.546   3.722   8.960 -0.1398  0.3457  3.5182
 5362SOL     OW27547   2.877   3.217   4.622  0.0938 -0.1485 -0.3009
 5362SOL    HW127548   2.952   3.272   4.642 -0.3018  0.7163 -1.2387
 5362SOL    HW227549   2.914   3.175   4.545  4.5624  0.3074  1.6163
 5363SOL     OW27550   0.161   4.488   0.008  0.1252  0.0906 -0.1380
 5363SOL    HW127551   0.083   4.544   0.009 -0.1725 -0.3257  0.0583
 5363SOL    HW227552   0.139   4.422  17.639 -0.2956  1.7972 -1.6963
 5364SOL     OW27553   3.150   0.804   6.929 -0.0568  0.1672  0.4854
 5364SOL    HW127554   3.124   0.873   6.990 -1.4124  0.2608 -0.1825
 5364SOL    HW227555   3.068   0.758   6.912 -0.2570  1.1148 -1.1803
 5365SOL     OW27556   2.021   0.285   8.893  0.1152  0.4404 -0.3027
 5365SOL    HW127557   1.967   0.306   8.969 -0.0526 -1.2810  0.0690
 5365SOL    HW227558   1.995   0.197   8.864  1.0952 -0.1395  0.5934
 5366SOL     OW27559   4.231   2.220   5.871  0.4562 -0.6130  0.5249
 5366SOL    HW127560   4.183   2.143   5.841 -0.0284 -0.2566  0.3923
 5366SOL    HW227561   4.321   2.188   5.867  0.1060 -1.6169  0.5481
 5367SOL     OW27562   2.713   3.560   5.971  0.4991  0.2100 -0.0669
 5367SOL    HW127563   2.801   3.567   6.007  0.9839 -1.6166 -0.8445
 5367SOL    HW227564   2.716   3.645   5.927 -1.0916  0.1249 -0.3388
 5368SOL     OW27565   2.806   0.286  15.394  0.1328 -0.4443  0.0864
 5368SOL    HW127566   2.761   0.211  15.435 -2.0944  1.8835  1.9465
 5368SOL    HW227567   2.799   0.355  15.460 -0.5048  1.1946 -1.6900
 5369SOL     OW27568   3.227   2.542   7.370  0.0362 -0.0374  0.2287
 5369SOL    HW127569   3.229   2.500   7.284  1.1230  0.2370  0.1197
 5369SOL    HW227570   3.158   2.608   7.363  0.4817  0.4508  0.4543
 5370SOL     OW27571   3.371   3.631   1.668  0.1397 -0.2212 -0.1198
 5370SOL    HW127572   3.283   3.611   1.700 -0.0004 -0.5955 -0.7354
 5370SOL    HW227573   3.425   3.618   1.745  0.5735 -4.1653 -1.1080
 5371SOL     OW27574   1.209   3.991  16.635  0.0051  0.2017  0.2532
 5371SOL    HW127575   1.115   4.011  16.631  0.3995  1.5142 -2.8043
 5371SOL    HW227576   1.242   4.079  16.654 -0.7969  0.3811  0.8090
 5372SOL     OW27577   2.579   2.389  16.894  0.2472  0.1995  0.5294
 5372SOL    HW127578   2.599   2.371  16.802  0.3310 -0.6810  0.7135
 5372SOL    HW227579   2.541   2.304  16.919 -2.7171  1.3245 -0.0674
 5373SOL     OW27580   1.258   3.937   0.733 -0.5191  0.7787  0.3835
 5373SOL    HW127581   1.317   3.995   0.685 -1.5005 -0.9747 -2.9168
 5373SOL    HW227582   1.201   3.995   0.784  0.4100 -0.2678  2.5948
 5374SOL     OW27583   1.438   3.629   4.415  0.0530  0.2203  0.2628
 5374SOL    HW127584   1.382   3.607   4.341  1.9582  0.6195 -1.2856
 5374SOL    HW227585   1.483   3.545   4.425 -2.0952 -0.9273  0.2976
 5375SOL     OW27586   1.358   3.490  11.086 -0.1447  0.0447 -0.1738
 5375SOL    HW127587   1.448   3.487  11.054 -0.3369  0.6330 -0.7775
 5375SOL    HW227588   1.323   3.504  10.997 -0.0838  0.9907 -0.0467
 5376SOL     OW27589   0.550   1.873   0.567  0.4151 -0.0207 -0.2487
 5376SOL    HW127590   0.461   1.844   0.546  0.1541  0.7779 -0.2483
 5376SOL    HW227591   0.593   1.790   0.587 -0.0170  0.5685  3.0318
 5377SOL     OW27592   3.436   3.566  15.858 -0.3161  0.0353 -0.1038
 5377SOL    HW127593   3.481   3.492  15.816  0.6609 -1.1606  3.0804
 5377SOL    HW227594   3.497   3.635  15.831 -0.7578  0.1576 -0.7987
 5378SOL     OW27595   2.150   0.132  15.211  0.1897  0.1927  0.5588
 5378SOL    HW127596   2.122   0.223  15.217 -0.4407 -0.0274  0.8723
 5378SOL    HW227597   2.221   0.146  15.148  0.2391 -0.2704  0.5071
 5379SOL     OW27598   1.875   0.564  11.267  0.0784 -0.5898 -0.1474
 5379SOL    HW127599   1.958   0.524  11.241  0.8420  1.0701 -0.3208
 5379SOL    HW227600   1.843   0.599  11.184  2.6532  0.2482 -0.8038
 5380SOL     OW27601   4.711   4.587   8.320  0.0624 -0.2800 -0.5525
 5380SOL    HW127602   0.012   4.599   8.411  1.1178  1.6222 -1.0906
 5380SOL    HW227603   0.064   4.536   8.296  1.4377  0.5792  2.1121
 5381SOL     OW27604   1.397   3.892  12.750  0.1520 -0.3016 -0.9292
 5381SOL    HW127605   1.459   3.965  12.758  0.4215 -0.6160 -0.1917
 5381SOL    HW227606   1.329   3.897  12.818 -0.0823  2.7168 -1.3967
 5382SOL     OW27607   0.109   1.994   6.701 -0.2160  0.5791 -0.1220
 5382SOL    HW127608   0.132   1.930   6.768 -2.2841  0.6559  0.6489
 5382SOL    HW227609   0.193   2.036   6.686  0.6998 -1.5676 -1.0689
 5383SOL     OW27610   1.604   4.544   7.548 -0.3656 -0.0340 -0.0560
 5383SOL    HW127611   1.644   4.629   7.533 -1.7419  0.5301 -0.5653
 5383SOL    HW227612   1.647   4.506   7.625  0.0433 -0.7959 -0.6708
 5384SOL     OW27613   4.465   2.866   6.822 -0.4431 -0.8971 -0.2621
 5384SOL    HW127614   4.426   2.780   6.806  0.0129 -0.5446 -3.2635
 5384SOL    HW227615   4.480   2.860   6.916 -0.3494 -2.1568 -0.3593
 5385SOL     OW27616   1.684   0.062   4.068  0.6571 -0.4896  0.5592
 5385SOL    HW127617   1.747   0.005   4.111  1.4559 -0.5955 -0.7410
 5385SOL    HW227618   1.616   0.000   4.042  0.4715  0.1353 -0.4507
 5386SOL     OW27619   3.806   4.274   6.173  0.5223  0.6706  0.2549
 5386SOL    HW127620   3.795   4.298   6.265  0.7990  0.5531  0.3183
 5386SOL    HW227621   3.761   4.352   6.139 -0.7971 -0.9566 -1.7338
 5387SOL     OW27622   4.240   3.387  15.071 -0.6637  0.6198 -0.0401
 5387SOL    HW127623   4.328   3.414  15.098 -0.0686 -0.1078 -1.2436
 5387SOL    HW227624   4.249   3.292  15.078 -0.4387  0.7167  1.0050
 5388SOL     OW27625   1.455   3.119   2.464 -0.5157 -0.1308  0.4600
 5388SOL    HW127626   1.443   3.065   2.542 -0.1612 -0.0096  0.5998
 5388SOL    HW227627   1.508   3.193   2.494  0.1990 -0.1639 -0.7175
 5389SOL     OW27628   0.658   2.134  17.138  0.0796  0.5002  0.1487
 5389SOL    HW127629   0.748   2.164  17.124  0.3792 -0.7127 -0.5668
 5389SOL    HW227630   0.649   2.180  17.221  1.5816  1.1049 -0.0227
 5390SOL     OW27631   0.016   1.934   5.703 -0.3411 -0.1510 -0.0350
 5390SOL    HW127632   0.013   2.025   5.672  0.9981  0.1499  0.7146
 5390SOL    HW227633   0.111   1.919   5.705 -0.9078 -3.3463  1.8036
 5391SOL     OW27634   4.296   4.047  10.202 -0.5194 -0.1204 -0.4436
 5391SOL    HW127635   4.335   4.079  10.120  1.5801  0.3743  0.7364
 5391SOL    HW227636   4.353   4.074  10.274 -0.5799  0.5268 -0.6402
 5392SOL     OW27637   0.575   1.882  10.267 -0.8184  0.7683 -0.3228
 5392SOL    HW127638   0.486   1.892  10.233 -1.7659 -3.7774  0.8364
 5392SOL    HW227639   0.558   1.825  10.342  0.9433  0.3017 -0.2798
 5393SOL     OW27640   0.193   2.391   1.335  0.0379 -0.1160 -0.0017
 5393SOL    HW127641   0.203   2.391   1.430 -0.2640  0.0216  0.0276
 5393SOL    HW227642   0.246   2.465   1.305  1.7694 -1.7424 -0.9892
 5394SOL     OW27643   1.252   1.694  14.976 -0.3389  0.5382  0.2805
 5394SOL    HW127644   1.339   1.656  14.983 -0.2649  1.1039  2.4602
 5394SOL    HW227645   1.242   1.743  15.058 -3.5000 -1.0257  0.8170
 5395SOL     OW27646   0.358   1.998   9.071 -0.6217  0.3769 -0.4466
 5395SOL    HW127647   0.330   1.922   9.020 -1.3354  0.0588  0.4259
 5395SOL    HW227648   0.330   1.980   9.161  0.3617 -0.7896 -0.3793
 5396SOL     OW27649   4.059   1.998   5.456  0.6574  0.1371  0.7699
 5396SOL    HW127650   4.041   1.963   5.369 -0.5172 -2.9372  2.2707
 5396SOL    HW227651   4.011   2.082   5.457 -3.8079 -2.3866 -0.5906
 5397SOL     OW27652   2.780   0.092   5.973 -0.5529 -0.0350  0.6073
 5397SOL    HW127653   2.724   0.050   6.038 -0.7388 -0.8945 -0.1124
 5397SOL    HW227654   2.731   0.064   5.896 -0.5855  1.8980 -0.0773
 5398SOL     OW27655   2.598   1.440   4.741  0.2697 -0.3807 -0.4205
 5398SOL    HW127656   2.535   1.512   4.744  0.1620 -0.4955  0.2478
 5398SOL    HW227657   2.578   1.385   4.817  1.5525 -0.8834 -0.4388
 5399SOL     OW27658   1.453   1.501   7.568  0.0016 -0.3539  0.3027
 5399SOL    HW127659   1.466   1.496   7.662  1.7774  0.7194  0.1195
 5399SOL    HW227660   1.358   1.495   7.568  0.0498 -1.1170  0.6056
 5400SOL     OW27661   0.941   0.857   2.188  0.4207  0.0238 -0.3319
 5400SOL    HW127662   0.916   0.874   2.279 -0.0469  1.9647 -0.8371
 5400SOL    HW227663   1.037   0.848   2.192  0.5211 -0.5319 -3.4927
 5401SOL     OW27664   2.044   0.223   4.518  0.1879 -0.5146  0.2634
 5401SOL    HW127665   1.954   0.209   4.548  0.4861 -2.0850  0.4542
 5401SOL    HW227666   2.039   0.206   4.424 -1.4027  1.8290 -0.0725
 5402SOL     OW27667   3.954   1.819  17.112  0.1598 -0.6174  0.4061
 5402SOL    HW127668   3.917   1.779  17.034 -3.0526 -0.0284  1.6182
 5402SOL    HW227669   3.969   1.741  17.167  0.1882 -0.4399  0.6532
 5403SOL     OW27670   0.955   3.296   9.204 -0.2522 -0.0397  0.0371
 5403SOL    HW127671   0.873   3.264   9.242  0.9918 -3.1968  0.0839
 5403SOL    HW227672   0.986   3.216   9.162  0.4951 -0.0755  0.6686
 5404SOL     OW27673   3.008   4.512   7.371 -0.3379 -0.0863  0.3167
 5404SOL    HW127674   2.983   4.420   7.373 -0.6058 -0.0239 -0.1914
 5404SOL    HW227675   3.065   4.511   7.294 -0.6926 -0.4306  0.0632
 5405SOL     OW27676   3.922   0.997   8.522 -0.3396  0.0746  0.3237
 5405SOL    HW127677   3.862   0.933   8.560 -1.6462  0.7081 -0.6708
 5405SOL    HW227678   4.002   0.950   8.546  0.2363  0.9577  0.1241
 5406SOL     OW27679   1.484   0.556   6.810  0.2173  0.2252  0.7405
 5406SOL    HW127680   1.393   0.548   6.838 -0.3494  2.9492 -0.3461
 5406SOL    HW227681   1.483   0.635   6.756  1.2594  0.0486  0.4496
 5407SOL     OW27682   2.844   3.981   3.519  0.0337 -0.1340 -0.1447
 5407SOL    HW127683   2.922   3.972   3.464  2.0559  1.1092  2.5454
 5407SOL    HW227684   2.814   4.070   3.498  1.8640  0.7680  1.0825
 5408SOL     OW27685   3.625   2.675  11.636 -0.8381  0.1266  0.3103
 5408SOL    HW127686   3.604   2.767  11.621 -1.3480 -0.0694 -0.1705
 5408SOL    HW227687   3.719   2.674  11.618 -1.0643  2.4861 -0.9838
 5409SOL     OW27688   4.656   0.708   5.029  0.2321 -0.3366  0.4977
 5409SOL    HW127689   4.574   0.691   4.983 -0.6844 -1.7543  2.6481
 5409SOL    HW227690   4.719   0.644   4.995 -1.4211 -1.4884 -0.3542
 5410SOL     OW27691   0.098   3.744   9.986 -0.3364 -0.0069 -0.3412
 5410SOL    HW127692   0.010   3.721  10.015 -0.0593 -2.2194 -1.2833
 5410SOL    HW227693   0.087   3.804   9.912  0.5680  0.3542 -0.1858
 5411SOL     OW27694   2.281   0.995   7.163  0.2136 -0.2532 -0.4822
 5411SOL    HW127695   2.345   1.033   7.223  0.7473 -1.2344 -0.4259
 5411SOL    HW227696   2.329   0.962   7.087  2.1563  0.8465  0.2435
 5412SOL     OW27697   3.661   1.910   8.500  0.0972 -0.4854 -0.1873
 5412SOL    HW127698   3.602   1.883   8.571  1.1705 -0.2840  0.7795
 5412SOL    HW227699   3.740   1.936   8.547  0.7336 -0.3282 -1.3342
 5413SOL     OW27700   3.389   1.831  14.663  0.1939  0.1965  0.1354
 5413SOL    HW127701   3.474   1.863  14.692  1.6261 -0.8844 -2.8516
 5413SOL    HW227702   3.415   1.829  14.571 -1.6462 -1.0798 -0.3721
 5414SOL     OW27703   0.536   0.870   9.283  0.1213 -0.1832  0.0849
 5414SOL    HW127704   0.539   0.953   9.332 -0.3154  0.0147 -0.2260
 5414SOL    HW227705   0.583   0.812   9.343  0.7844  1.2079  0.9309
 5415SOL     OW27706   2.126   2.352   5.507  0.2421 -0.3230 -0.2362
 5415SOL    HW127707   2.175   2.270   5.500 -1.5394 -1.3148 -1.0931
 5415SOL    HW227708   2.161   2.405   5.436  1.3137  0.1325  0.6356
 5416SOL     OW27709   0.602   2.105   5.672 -0.0425  0.2108  0.1299
 5416SOL    HW127710   0.568   2.077   5.587 -2.8292  0.0273  1.2923
 5416SOL    HW227711   0.687   2.131   5.639  0.4905 -0.3508  1.0556
 5417SOL     OW27712   1.760   4.163   2.235 -0.3920  0.0008  0.3556
 5417SOL    HW127713   1.816   4.087   2.249 -0.4381  0.0091  0.5817
 5417SOL    HW227714   1.736   4.201   2.319 -1.8572  0.7309 -0.3926
 5418SOL     OW27715   3.553   0.451   3.138 -0.3890  0.0442  0.6860
 5418SOL    HW127716   3.494   0.387   3.178 -2.3689  0.9123 -0.8422
 5418SOL    HW227717   3.491   0.521   3.116 -0.2805 -0.6576 -1.9010
 5419SOL     OW27718   2.222   4.448   6.811  0.1266 -0.7237  0.1691
 5419SOL    HW127719   2.219   4.486   6.899 -0.2970 -3.3215  1.2887
 5419SOL    HW227720   2.164   4.373   6.827 -0.3949 -0.2801  0.3377
 5420SOL     OW27721   0.822   0.220   4.937  0.2862  0.0174 -0.1579
 5420SOL    HW127722   0.854   0.308   4.956 -1.4706  0.6614 -0.1207
 5420SOL    HW227723   0.898   0.167   4.960 -0.2039 -0.4941  0.2853
 5421SOL     OW27724   1.570   1.802   5.601 -0.9102  0.7412  0.4016
 5421SOL    HW127725   1.534   1.876   5.651 -0.1256  1.7621 -0.5368
 5421SOL    HW227726   1.657   1.806   5.639  0.0586 -0.5042 -1.7069
 5422SOL     OW27727   3.950   0.653   4.050 -0.2434 -0.5349 -0.5452
 5422SOL    HW127728   4.024   0.710   4.031 -1.3976  1.4883  1.0004
 5422SOL    HW227729   3.943   0.643   4.144  0.6895 -0.2096 -0.4418
 5423SOL     OW27730   0.306   3.112   9.227  0.6163  0.5049 -0.1160
 5423SOL    HW127731   0.356   3.077   9.153  0.8279 -0.0818  0.3067
 5423SOL    HW227732   0.309   3.042   9.292 -1.8684  1.0464  0.5808
 5424SOL     OW27733   2.717   2.324  15.431 -0.0247 -0.4220  0.1960
 5424SOL    HW127734   2.660   2.250  15.409 -1.6174  0.6338  0.8279
 5424SOL    HW227735   2.774   2.278  15.493 -0.3292  0.0716  0.8354
 5425SOL     OW27736   0.555   2.702   1.091 -0.5156  0.3703 -0.2381
 5425SOL    HW127737   0.605   2.650   1.028 -0.9063 -0.2318 -0.0563
 5425SOL    HW227738   0.617   2.770   1.115 -0.6345 -0.0776  1.3823
 5426SOL     OW27739   4.425   0.431   9.086 -0.0950 -1.3405  0.9453
 5426SOL    HW127740   4.477   0.511   9.080 -1.5843 -0.4861 -0.7270
 5426SOL    HW227741   4.341   0.461   9.123 -0.9157 -1.3133 -0.9272
 5427SOL     OW27742   0.488   1.229   8.686 -0.0809 -0.4146 -0.6285
 5427SOL    HW127743   0.470   1.254   8.776  0.1770  1.2640 -1.0382
 5427SOL    HW227744   0.490   1.313   8.640  1.5302  0.7767  1.6236
 5428SOL     OW27745   0.307   2.711   6.931 -0.0189  0.4582 -0.0399
 5428SOL    HW127746   0.270   2.797   6.953  0.6812  0.4295  1.2217
 5428SOL    HW227747   0.350   2.736   6.849  0.9848  0.3694  0.4721
 5429SOL     OW27748   1.318   2.534   7.656  0.2270  0.4516 -0.5865
 5429SOL    HW127749   1.388   2.555   7.594  1.2762 -0.2575  0.3809
 5429SOL    HW227750   1.369   2.519   7.735  0.4288  0.4280 -0.7211
 5430SOL     OW27751   4.221   3.664   7.544 -0.0194  0.1107 -0.0049
 5430SOL    HW127752   4.175   3.685   7.625 -0.4500  0.3234 -0.3060
 5430SOL    HW227753   4.268   3.581   7.551  0.0389  0.1306 -0.1513
 5431SOL     OW27754   4.092   3.912   0.385  0.3570  0.2302 -0.1820
 5431SOL    HW127755   4.162   3.850   0.362  0.7352  1.3579 -2.0775
 5431SOL    HW227756   4.151   3.957   0.445 -0.2772  1.7253 -0.6978
 5432SOL     OW27757   3.668   4.076   6.376  0.2996 -0.0486  0.4064
 5432SOL    HW127758   3.573   4.082   6.379  0.1775 -0.6053 -1.7300
 5432SOL    HW227759   3.682   4.109   6.287  3.3695  0.3720  1.0503
 5433SOL     OW27760   1.113   3.947  15.760  0.0834  0.0521  0.4591
 5433SOL    HW127761   1.107   4.014  15.692  0.9222  0.0520  0.3876
 5433SOL    HW227762   1.207   3.936  15.766 -0.1205 -0.8009  2.2163
 5434SOL     OW27763   1.236   3.381   9.301 -0.1463 -0.0298  0.0206
 5434SOL    HW127764   1.150   3.349   9.273  0.2193 -1.7700  0.9161
 5434SOL    HW227765   1.228   3.477   9.296 -0.0619 -0.0273 -0.0731
 5435SOL     OW27766   3.539   3.211   2.200  0.1366 -0.0516 -0.4813
 5435SOL    HW127767   3.479   3.230   2.128 -0.2010  0.6844 -0.0095
 5435SOL    HW227768   3.557   3.299   2.234 -3.4115 -0.7100  3.1283
 5436SOL     OW27769   0.629   4.603   2.630  0.0987  0.2045 -0.4236
 5436SOL    HW127770   0.573   4.664   2.678 -0.9464 -0.9716 -0.1578
 5436SOL    HW227771   0.709   4.610   2.682 -0.2011 -1.0962  0.2102
 5437SOL     OW27772   4.196   1.340   4.248 -0.0954 -0.7731  0.3805
 5437SOL    HW127773   4.145   1.373   4.174  1.0043 -0.2203 -0.1467
 5437SOL    HW227774   4.283   1.339   4.207 -0.2582 -1.6088  0.0592
 5438SOL     OW27775   4.624   2.166   7.412 -0.5388 -0.2075  0.4761
 5438SOL    HW127776   4.705   2.202   7.375 -1.0813 -1.6364 -2.0987
 5438SOL    HW227777   4.597   2.247   7.455 -1.9585 -1.0794  1.2022
 5439SOL     OW27778   3.905   1.030   0.525  0.7310  0.4237 -0.2430
 5439SOL    HW127779   3.819   1.070   0.512  1.3985  1.1230 -2.5707
 5439SOL    HW227780   3.958   1.076   0.460  0.5872 -1.3921 -1.6478
 5440SOL     OW27781   1.530   4.333   3.897  0.1246  0.0010  0.3115
 5440SOL    HW127782   1.604   4.273   3.900  1.3343  1.5041  0.5640
 5440SOL    HW227783   1.482   4.292   3.969 -1.1768  1.2886  0.1706
 5441SOL     OW27784   2.850   3.311   7.049  0.1067  0.6221  0.9265
 5441SOL    HW127785   2.916   3.340   6.986 -0.4101  0.0574  0.1254
 5441SOL    HW227786   2.788   3.257   7.000  2.9631 -1.0079 -0.9386
 5442SOL     OW27787   3.408   0.605   6.280  0.9313  0.4243 -0.0752
 5442SOL    HW127788   3.386   0.652   6.200  0.1910  1.4942  0.7533
 5442SOL    HW227789   3.420   0.681   6.337  2.1488 -0.6156  1.0429
 5443SOL     OW27790   2.035   0.603   3.796 -0.3343 -0.1400  0.1487
 5443SOL    HW127791   2.052   0.646   3.880 -1.4519  0.8781 -0.1549
 5443SOL    HW227792   2.039   0.513   3.830 -1.7253  0.5293  2.0896
 5444SOL     OW27793   2.882   1.944   2.908  0.3313 -0.1334  0.6227
 5444SOL    HW127794   2.812   1.901   2.859  1.6861 -1.4399 -0.1475
 5444SOL    HW227795   2.953   1.927   2.847 -2.2730 -0.3249 -2.3319
 5445SOL     OW27796   4.082   0.999   5.676 -0.2336  0.6805  0.0523
 5445SOL    HW127797   4.100   1.093   5.689  1.2175  0.6674 -1.9601
 5445SOL    HW227798   4.040   1.001   5.590 -0.3510  1.8048  0.1310
 5446SOL     OW27799   3.091   1.511  11.522  0.2209 -0.2310  0.0849
 5446SOL    HW127800   3.064   1.455  11.595  1.2657 -0.1818  0.5065
 5446SOL    HW227801   3.020   1.491  11.461  0.4542 -0.0712 -0.2404
 5447SOL     OW27802   4.261   2.626   4.123  0.2241 -0.0412 -0.3638
 5447SOL    HW127803   4.337   2.648   4.069  0.4906  0.2522  0.1233
 5447SOL    HW227804   4.240   2.716   4.147  2.4089 -0.2856  2.5180
 5448SOL     OW27805   2.472   1.431   6.838  0.1260 -0.9217  0.1734
 5448SOL    HW127806   2.551   1.436   6.785  0.4194  0.1604  0.7142
 5448SOL    HW227807   2.456   1.337   6.846  1.2518 -1.3167 -2.4253
 5449SOL     OW27808   1.501   0.941   5.494 -0.3687  0.1221 -0.2304
 5449SOL    HW127809   1.558   0.915   5.422 -2.0499 -0.5735 -1.3082
 5449SOL    HW227810   1.521   1.034   5.489 -1.2577  0.2549 -1.3997
 5450SOL     OW27811   0.405   4.198   5.558 -0.0589  0.1423  0.0122
 5450SOL    HW127812   0.485   4.224   5.603  0.1758  0.1019 -0.3806
 5450SOL    HW227813   0.366   4.147   5.630  0.6772  0.4692  0.6465
 5451SOL     OW27814   2.457   2.212   5.826  0.4554 -0.1531  0.1355
 5451SOL    HW127815   2.413   2.293   5.803 -0.0783 -0.3842  0.3280
 5451SOL    HW227816   2.510   2.198   5.748  1.1060  0.9942  0.3746
 5452SOL     OW27817   3.855   1.516   5.398  0.6287  0.0493 -0.3943
 5452SOL    HW127818   3.817   1.590   5.445  0.3644 -0.5445  0.3241
 5452SOL    HW227819   3.777   1.461   5.405 -1.2269  2.9175  1.2956
 5453SOL     OW27820   0.962   3.704   2.468  0.2612  0.5806 -0.2683
 5453SOL    HW127821   0.980   3.613   2.493  1.1287  0.5961 -0.8189
 5453SOL    HW227822   0.973   3.748   2.553  1.1683  0.5460 -0.3685
 5454SOL     OW27823   3.173   0.953   9.479 -0.6052  0.0809  0.2275
 5454SOL    HW127824   3.211   0.931   9.394  3.6360  2.2910  1.5127
 5454SOL    HW227825   3.178   1.048   9.491 -2.6594  0.1542  0.4188
 5455SOL     OW27826   3.520   0.132  17.201  0.4647  0.0532  0.2486
 5455SOL    HW127827   3.536   0.066  17.134  0.2128 -0.2945  0.5279
 5455SOL    HW227828   3.431   0.157  17.178  0.6195  0.7548  0.3963
 5456SOL     OW27829   2.923   0.818   6.585 -0.3155  0.1692  0.0906
 5456SOL    HW127830   2.918   0.906   6.548  0.2957  0.4994  0.8027
 5456SOL    HW227831   3.013   0.785   6.578 -1.4413 -2.5639 -1.8377
 5457SOL     OW27832   4.705   0.335  10.108 -0.8192  0.9360  0.0514
 5457SOL    HW127833   0.058   0.391  10.094 -0.4207 -0.0085 -1.5623
 5457SOL    HW227834   4.647   0.357  10.034  1.5062  2.3880 -1.3273
 5458SOL     OW27835   0.852   4.280   1.827  0.2658  0.4132  0.5896
 5458SOL    HW127836   0.775   4.312   1.874  1.6326  1.5298  2.0631
 5458SOL    HW227837   0.896   4.365   1.836  1.3682 -0.0574 -0.4504
 5459SOL     OW27838   2.686   4.716   3.907  0.0891  0.0409  0.2919
 5459SOL    HW127839   2.686   0.083   3.876 -1.3005 -0.3387 -0.7974
 5459SOL    HW227840   2.683   4.669   3.824  1.6244 -0.7655  0.6892
 5460SOL     OW27841   3.145   2.417   3.000  0.6253 -0.1367  0.2879
 5460SOL    HW127842   3.102   2.458   2.925  0.5298 -0.8400 -0.0367
 5460SOL    HW227843   3.116   2.326   2.997 -0.6675  0.3333 -1.5094
 5461SOL     OW27844   1.888   3.610   7.982  0.2584  0.2998  0.3752
 5461SOL    HW127845   1.897   3.657   7.900  1.5679 -0.3094  0.1765
 5461SOL    HW227846   1.956   3.545   7.964 -0.0695 -0.1738  0.8470
 5462SOL     OW27847   3.501   4.723   2.821  0.0950  0.3627  0.5788
 5462SOL    HW127848   3.439   0.070   2.838 -0.9366 -1.0360  2.7614
 5462SOL    HW227849   3.453   4.651   2.864 -1.4229 -0.4998 -2.5048
 5463SOL     OW27850   2.066   3.467   4.092  0.2424 -0.0849 -0.4684
 5463SOL    HW127851   2.042   3.378   4.067  1.6113 -0.6573  0.2721
 5463SOL    HW227852   2.161   3.463   4.103  0.4364 -2.8683 -3.1334
 5464SOL     OW27853   1.273   0.641   2.430  0.1607 -0.0906  0.1606
 5464SOL    HW127854   1.259   0.547   2.431  2.1947 -0.4074 -0.7123
 5464SOL    HW227855   1.368   0.642   2.443  0.1620  1.4173  0.0469
 5465SOL     OW27856   2.558   1.333  10.909 -0.0364  0.4860  0.5934
 5465SOL    HW127857   2.602   1.269  10.965  3.0016  2.3271  0.2721
 5465SOL    HW227858   2.628   1.365  10.852  1.1153 -0.2952  1.5852
 5466SOL     OW27859   3.283   1.641   2.051 -0.5763 -0.4219  0.1169
 5466SOL    HW127860   3.233   1.610   1.976  0.9517 -0.2432 -0.9755
 5466SOL    HW227861   3.353   1.691   2.008  1.1223 -2.6340  0.2937
 5467SOL     OW27862   0.567   0.447  11.994  0.1436  0.5585 -0.1972
 5467SOL    HW127863   0.572   0.535  12.029 -1.9132  0.9277 -0.8396
 5467SOL    HW227864   0.474   0.423  11.998  0.5831 -0.9212  1.3107
 5468SOL     OW27865   0.209   0.749  17.295  0.2079 -0.2411 -0.4119
 5468SOL    HW127866   0.230   0.660  17.265  0.2205 -0.2017 -0.5176
 5468SOL    HW227867   0.237   0.750  17.387  0.0744 -0.3696 -0.3702
 5469SOL     OW27868   4.388   3.550   5.342  0.2246  1.0976  0.0740
 5469SOL    HW127869   4.398   3.515   5.431  1.7582  1.1087 -0.0926
 5469SOL    HW227870   4.409   3.640   5.366  0.9185  1.1919 -0.9165
 5470SOL     OW27871   2.732   4.019  10.973 -0.1753 -0.0860 -0.0551
 5470SOL    HW127872   2.746   4.028  11.068 -1.4654  0.8081  0.0545
 5470SOL    HW227873   2.768   3.932  10.958  1.4634  0.4454  0.8718
 5471SOL     OW27874   0.140   2.049   4.775 -0.1367 -0.0372 -0.3370
 5471SOL    HW127875   0.070   2.112   4.790 -0.1309 -0.0521 -0.2474
 5471SOL    HW227876   0.123   2.013   4.688 -1.6509 -1.5646  0.5825
 5472SOL     OW27877   0.860   1.668   2.768  0.0696 -0.0370 -0.1894
 5472SOL    HW127878   0.865   1.639   2.859 -0.9167  1.7101  0.4081
 5472SOL    HW227879   0.954   1.668   2.750  0.2249 -0.2253  0.6055
 5473SOL     OW27880   4.579   3.523  11.796 -0.0404  0.1003 -0.6550
 5473SOL    HW127881   4.578   3.498  11.888 -0.8091 -0.7586 -0.9052
 5473SOL    HW227882   4.611   3.613  11.805 -4.1766  1.5170 -0.1152
 5474SOL     OW27883   4.317   1.288  10.859 -0.2851  0.3633  0.5404
 5474SOL    HW127884   4.301   1.205  10.903  1.6268 -2.4659 -4.0480
 5474SOL    HW227885   4.267   1.274  10.778 -1.5985  1.2774  1.1870
 5475SOL     OW27886   2.045   2.959   7.495 -0.0151  0.4248 -0.6447
 5475SOL    HW127887   2.107   3.030   7.510  0.0690  0.2931 -0.3712
 5475SOL    HW227888   1.993   2.964   7.575 -1.8290 -1.1485 -1.7240
 5476SOL     OW27889   4.407   3.438   5.614 -0.5933 -0.2035 -0.1698
 5476SOL    HW127890   4.360   3.515   5.645  0.0934  0.0816  0.1629
 5476SOL    HW227891   4.496   3.468   5.632 -1.3110  0.3289  2.5546
 5477SOL     OW27892   2.107   4.706   3.342 -0.4185  0.0717 -0.5245
 5477SOL    HW127893   2.022   0.003   3.304 -0.3269 -0.2614 -0.9127
 5477SOL    HW227894   2.077   4.699   3.433  4.2302  3.1335  1.2461
 5478SOL     OW27895   3.486   0.654  11.314  0.5051  0.4104 -0.3274
 5478SOL    HW127896   3.530   0.569  11.309 -2.5398 -1.1390 -0.8309
 5478SOL    HW227897   3.565   0.704  11.333  1.3259 -0.5316 -1.2060
 5479SOL     OW27898   3.876   1.523   2.338  1.1127 -0.2958 -0.0310
 5479SOL    HW127899   3.820   1.461   2.291  2.2059 -0.9193 -0.5151
 5479SOL    HW227900   3.825   1.603   2.336  1.8609  0.2267  1.7191
 5480SOL     OW27901   4.698   2.695  15.579  0.5342  1.1008 -0.2032
 5480SOL    HW127902   4.604   2.713  15.578  0.6985  1.9487  0.8166
 5480SOL    HW227903   4.702   2.635  15.653  0.4674  1.3947  0.0374
 5481SOL     OW27904   3.509   3.587   9.429  0.3169 -0.3142  0.2447
 5481SOL    HW127905   3.453   3.555   9.358  0.2355 -0.9478  0.5859
 5481SOL    HW227906   3.523   3.510   9.484  1.5562 -1.0713 -1.1095
 5482SOL     OW27907   3.952   0.312   6.913 -0.1896  0.1462 -0.1121
 5482SOL    HW127908   4.027   0.372   6.909  0.6828 -0.8213  1.4638
 5482SOL    HW227909   3.939   0.312   7.008  1.3459 -0.5769  0.1051
 5483SOL     OW27910   0.027   4.352   9.793  0.8391 -0.2618 -0.0908
 5483SOL    HW127911   4.690   4.425   9.799  0.1726 -0.7081 -1.5003
 5483SOL    HW227912   0.011   4.303   9.874  1.4153 -1.6762 -0.8273
 5484SOL     OW27913   1.520   2.397   2.011 -0.2285  0.4106  0.0398
 5484SOL    HW127914   1.531   2.492   2.009 -1.8855  0.5677 -1.9432
 5484SOL    HW227915   1.440   2.387   2.063 -0.2954  0.6737 -0.0128
 5485SOL     OW27916   1.445   4.610  14.520  0.6626 -0.0086  0.4169
 5485SOL    HW127917   1.487   4.529  14.489 -0.7929 -0.7558  0.3878
 5485SOL    HW227918   1.409   4.577  14.602 -1.0517 -1.0491 -0.7578
 5486SOL     OW27919   1.218   3.750  16.508 -0.2120  0.1626 -0.7390
 5486SOL    HW127920   1.216   3.837  16.549 -0.3035 -1.2552  2.2755
 5486SOL    HW227921   1.311   3.738  16.487  0.4714 -1.5777  3.3204
 5487SOL     OW27922   4.492   1.133   7.558 -0.3277  0.2662  0.1157
 5487SOL    HW127923   4.532   1.211   7.597  1.3026 -0.8896  0.7589
 5487SOL    HW227924   4.508   1.068   7.626  0.2094 -0.5189 -0.7536
 5488SOL     OW27925   3.858   4.135   8.215  0.3369 -0.4432 -0.2576
 5488SOL    HW127926   3.935   4.128   8.272  2.1110  1.1412 -2.4653
 5488SOL    HW227927   3.883   4.070   8.150  0.9890  0.8144 -1.2637
 5489SOL     OW27928   1.569   1.378  13.709  0.1315 -0.1203  0.1066
 5489SOL    HW127929   1.597   1.410  13.795  0.5173 -0.4391  0.1009
 5489SOL    HW227930   1.584   1.285  13.727  1.1427  0.1042  0.3931
 5490SOL     OW27931   2.111   1.876   2.078 -0.3150 -0.0642 -0.4581
 5490SOL    HW127932   2.045   1.864   2.147 -0.4949 -1.8550 -0.9269
 5490SOL    HW227933   2.047   1.888   2.008 -0.5750  1.0049 -0.0309
 5491SOL     OW27934   2.995   3.978  13.008 -0.0231  0.5728  0.8486
 5491SOL    HW127935   3.052   3.918  12.959 -0.0452  0.6361  0.7455
 5491SOL    HW227936   2.955   3.921  13.073  0.7692 -2.6825 -1.5149
 5492SOL     OW27937   2.983   0.689   5.885  0.2108 -0.4094 -0.6668
 5492SOL    HW127938   2.892   0.670   5.862 -0.1616  0.2021  0.3261
 5492SOL    HW227939   3.028   0.675   5.802  1.0838  0.1236 -0.2745
 5493SOL     OW27940   0.754   1.570   7.313 -0.4292 -0.2646  0.7888
 5493SOL    HW127941   0.682   1.623   7.277  0.6552 -0.6731 -1.9827
 5493SOL    HW227942   0.803   1.645   7.346 -0.2533  1.8214 -4.2087
 5494SOL     OW27943   2.661   2.668   6.389  0.2594 -0.2904  0.3708
 5494SOL    HW127944   2.743   2.717   6.383 -1.4857  2.1404 -3.0791
 5494SOL    HW227945   2.613   2.706   6.316 -2.4066 -0.8268  1.8731
 5495SOL     OW27946   2.879   0.267  17.158  0.4400  0.4044 -0.5218
 5495SOL    HW127947   2.946   0.336  17.168 -0.9546  1.6088  0.5188
 5495SOL    HW227948   2.922   0.206  17.097 -0.3451  0.0231 -0.6837
 5496SOL     OW27949   2.198   0.543   6.515  0.5279  0.2152  0.1731
 5496SOL    HW127950   2.290   0.518   6.503  0.5547  0.7013 -0.6113
 5496SOL    HW227951   2.161   0.462   6.480  3.5220 -0.9204 -0.4060
 5497SOL     OW27952   0.077   3.493   8.543 -0.0816  0.0744 -0.1697
 5497SOL    HW127953   0.067   3.477   8.637 -1.2435 -0.9945 -0.4795
 5497SOL    HW227954   0.014   3.564   8.532 -1.0123 -1.0231 -1.9110
 5498SOL     OW27955   3.015   0.389   4.378 -0.0113  0.2539  0.1578
 5498SOL    HW127956   3.109   0.375   4.375 -0.2089 -0.7263 -1.8856
 5498SOL    HW227957   2.986   0.388   4.286 -1.1487 -0.1503  0.5150
 5499SOL     OW27958   0.031   3.939  16.787 -0.4893  0.1766 -0.2984
 5499SOL    HW127959   0.035   3.944  16.883 -0.5897  0.9367 -0.3362
 5499SOL    HW227960   4.687   4.005  16.777 -0.9277 -0.3089 -0.4985
 5500SOL     OW27961   3.592   0.184   6.952 -0.2255 -0.0703 -0.6947
 5500SOL    HW127962   3.546   0.246   6.894  0.8821  1.7159  0.3259
 5500SOL    HW227963   3.630   0.131   6.882  0.7333  0.5702 -0.6534
 5501SOL     OW27964   1.893   1.456   3.677  0.1021 -0.0137 -0.4685
 5501SOL    HW127965   1.847   1.417   3.603  0.3132  2.2886 -1.8236
 5501SOL    HW227966   1.959   1.511   3.634 -0.8022  1.1130 -0.4218
 5502SOL     OW27967   4.121   2.991   8.568 -0.4973  0.1654 -0.1413
 5502SOL    HW127968   4.194   2.967   8.624 -0.8035 -1.3076 -0.3694
 5502SOL    HW227969   4.109   3.074   8.614  2.1906  0.6387 -0.3260
 5503SOL     OW27970   4.210   0.020   7.439 -0.1079 -0.4076 -0.4404
 5503SOL    HW127971   4.268   0.090   7.409  1.9130 -1.6968  0.4908
 5503SOL    HW227972   4.183   0.045   7.528 -0.2108  0.7706 -0.8038
 5504SOL     OW27973   3.918   0.387   4.142  1.1339 -0.1464  0.3228
 5504SOL    HW127974   3.850   0.364   4.079  0.9494 -0.7419  0.7399
 5504SOL    HW227975   3.941   0.474   4.109  1.0422 -0.2149  0.0821
 5505SOL     OW27976   3.410   1.611   4.601  0.5614  0.2042 -0.5064
 5505SOL    HW127977   3.327   1.608   4.649  0.3813 -0.0769 -0.8426
 5505SOL    HW227978   3.395   1.546   4.533  0.9969  0.4107 -0.7972
 5506SOL     OW27979   3.689   2.732   9.153 -0.0851 -0.2924  0.3294
 5506SOL    HW127980   3.639   2.729   9.235 -1.9307 -1.1697 -0.8179
 5506SOL    HW227981   3.654   2.659   9.101 -1.3439 -0.3739  1.2897
 5507SOL     OW27982   0.460   1.364  15.497 -0.0740  0.3281  0.0397
 5507SOL    HW127983   0.456   1.457  15.475 -4.3881  0.3754  1.1431
 5507SOL    HW227984   0.422   1.358  15.584  0.5492  0.4105  0.3210
 5508SOL     OW27985   4.222   0.243   5.748  0.0627  0.0645  0.4081
 5508SOL    HW127986   4.243   0.321   5.798  0.1744  0.1624  0.2078
 5508SOL    HW227987   4.216   0.182   5.821 -1.3093  0.6477  0.7826
 5509SOL     OW27988   0.153   2.000   3.422 -0.0820 -0.0892 -0.8118
 5509SOL    HW127989   0.095   2.016   3.347  3.5529  1.4481 -3.3048
 5509SOL    HW227990   0.113   1.920   3.455 -0.3945  0.5444  0.3247
 5510SOL     OW27991   0.457   4.590  13.226 -0.0599 -0.0807  0.0365
 5510SOL    HW127992   0.514   4.665  13.209  1.6187 -1.4298 -0.1977
 5510SOL    HW227993   0.371   4.630  13.214  0.5732 -0.1127 -4.6600
 5511SOL     OW27994   0.365   3.783   2.734  0.2646  0.1971  0.1928
 5511SOL    HW127995   0.278   3.788   2.693 -0.4315  0.5145  1.6953
 5511SOL    HW227996   0.336   3.830   2.813  1.4211 -0.6104  1.0923
 5512SOL     OW27997   1.415   0.340   5.113  0.0969 -0.1205 -0.3916
 5512SOL    HW127998   1.474   0.410   5.088 -0.6837  0.1790 -1.4001
 5512SOL    HW227999   1.444   0.334   5.204 -2.4315 -3.2788  0.2266
 5513SOL     OW28000   2.701   4.430   6.667  0.4711 -0.7259 -0.0278
 5513SOL    HW128001   2.661   4.510   6.703 -1.2840 -0.6775 -2.0617
 5513SOL    HW228002   2.733   4.384   6.744 -0.2724 -2.1980 -0.5968
 5514SOL     OW28003   0.447   1.991   6.168 -0.5482 -0.1110  0.0791
 5514SOL    HW128004   0.534   1.965   6.139 -0.8852 -0.2186 -0.8427
 5514SOL    HW228005   0.399   1.929   6.113  0.6963 -0.4665 -0.6035
 5515SOL     OW28006   0.260   3.718   9.583  0.0436 -0.2005  0.5007
 5515SOL    HW128007   0.288   3.739   9.494 -1.2924 -1.7351 -0.2740
 5515SOL    HW228008   0.236   3.810   9.597  0.5975 -0.2341  1.6473
 5516SOL     OW28009   0.032   2.901   1.207 -0.4007  0.6778 -0.1996
 5516SOL    HW128010   4.677   2.947   1.234 -1.6976 -1.4701 -0.2455
 5516SOL    HW228011   0.018   2.815   1.247 -2.4982  1.1887  0.1758
 5517SOL     OW28012   2.399   3.257   8.433 -0.2493 -0.3495  0.0691
 5517SOL    HW128013   2.400   3.321   8.504 -1.6127 -1.7519  1.3261
 5517SOL    HW228014   2.478   3.280   8.384 -0.3834 -0.1239 -0.0456
 5518SOL     OW28015   2.068   3.567  12.941 -0.3772  0.2096 -0.1611
 5518SOL    HW128016   2.087   3.497  12.879 -0.4374  0.5690 -0.5874
 5518SOL    HW228017   2.062   3.645  12.886 -1.9210  1.1235  1.2853
 5519SOL     OW28018   1.079   2.164  14.642 -0.0346 -0.3446  0.0972
 5519SOL    HW128019   1.119   2.106  14.708 -0.5395 -0.6842  0.1070
 5519SOL    HW228020   1.086   2.250  14.683 -0.4991  0.3138 -1.2224
 5520SOL     OW28021   0.449   2.162   8.704 -0.0185 -0.0807  0.5238
 5520SOL    HW128022   0.376   2.118   8.660 -0.8976  0.5981  1.3207
 5520SOL    HW228023   0.522   2.156   8.642  0.2943 -0.7270  0.9528
 5521SOL     OW28024   4.272   1.716  12.589 -0.0457  0.3361 -0.4882
 5521SOL    HW128025   4.361   1.724  12.625 -0.1536  2.2905 -0.6426
 5521SOL    HW228026   4.280   1.761  12.505  0.3178  0.5110 -0.3604
 5522SOL     OW28027   0.444   0.616   8.623 -0.3937 -0.4839  0.0955
 5522SOL    HW128028   0.458   0.584   8.534  1.0044 -1.7643  0.7798
 5522SOL    HW228029   0.499   0.547   8.662  0.8111  0.3655 -0.0919
 5523SOL     OW28030   3.348   1.167   3.900  0.1018 -0.6776 -0.4642
 5523SOL    HW128031   3.358   1.135   3.811 -0.1704  1.1165 -1.1221
 5523SOL    HW228032   3.417   1.117   3.943 -1.5327 -0.9206  1.9421
 5524SOL     OW28033   4.262   4.551  16.867  0.2730  0.1473 -0.0728
 5524SOL    HW128034   4.178   4.505  16.863 -0.5121  1.5131  1.0973
 5524SOL    HW228035   4.262   4.590  16.779  2.0227  2.4993  0.9966
 5525SOL     OW28036   4.073   2.161   4.271 -0.3882  0.9311 -0.4253
 5525SOL    HW128037   4.134   2.113   4.327  0.4896  1.5286 -0.8686
 5525SOL    HW228038   3.991   2.128   4.309  0.0006 -1.7894 -1.9703
 5526SOL     OW28039   3.006   0.110  12.656  0.0432  0.1889  0.0898
 5526SOL    HW128040   3.004   0.176  12.586  2.0435  0.1573 -0.0188
 5526SOL    HW228041   2.918   0.126  12.690  0.1748 -1.4140  1.1674
 5527SOL     OW28042   1.575   0.535   4.047 -0.4492  0.3700  0.6446
 5527SOL    HW128043   1.578   0.567   4.137 -3.2716 -1.0531  1.2548
 5527SOL    HW228044   1.605   0.444   4.052  0.2663  0.5144 -0.9130
 5528SOL     OW28045   0.186   4.093   9.055 -0.5149  0.3512 -0.2439
 5528SOL    HW128046   0.149   4.179   9.072 -0.7138  0.9699 -3.8361
 5528SOL    HW228047   0.278   4.112   9.070 -0.8248  0.4358  1.5568
 5529SOL     OW28048   2.445   1.959   0.496 -0.6193  0.1277  0.0351
 5529SOL    HW128049   2.530   1.997   0.517  0.6972 -3.0453  0.2976
 5529SOL    HW228050   2.430   1.962   0.402  0.5189  0.6917 -0.1280
 5530SOL     OW28051   1.467   2.229   0.556  0.1303 -0.4110 -0.3656
 5530SOL    HW128052   1.548   2.241   0.506 -1.0706 -0.3576 -2.3319
 5530SOL    HW228053   1.439   2.317   0.580  2.9252  0.0188  1.3651
 5531SOL     OW28054   3.321   4.506   6.557  0.1814  0.1402  0.7122
 5531SOL    HW128055   3.264   4.488   6.482 -0.8005  2.3485  0.9312
 5531SOL    HW228056   3.285   4.592   6.577 -0.5172 -0.2096  0.9477
 5532SOL     OW28057   3.742   3.600   9.734 -0.2161  0.5365 -0.3315
 5532SOL    HW128058   3.782   3.610   9.821 -2.0489 -1.1129  0.6871
 5532SOL    HW228059   3.718   3.692   9.719  0.7887  0.7667 -0.5412
 5533SOL     OW28060   3.952   1.859  14.811 -0.4281  0.5119  0.4895
 5533SOL    HW128061   4.037   1.828  14.842 -0.4117  0.5574  0.4901
 5533SOL    HW228062   3.934   1.929  14.873 -2.0524  0.0673  0.5153
 5534SOL     OW28063   2.364   3.269   1.324  0.0900  0.3319  0.5772
 5534SOL    HW128064   2.274   3.239   1.314  0.1520  0.8517 -1.4490
 5534SOL    HW228065   2.376   3.241   1.415 -0.7453 -1.1455  0.2338
 5535SOL     OW28066   1.378   1.932   8.328  0.2165  0.0940 -0.5841
 5535SOL    HW128067   1.352   1.877   8.401 -0.0556  0.4575 -0.4075
 5535SOL    HW228068   1.446   1.881   8.284  0.4515 -1.1989  1.3149
 5536SOL     OW28069   3.952   2.359   6.829 -0.0861  0.1526 -0.3127
 5536SOL    HW128070   3.893   2.293   6.793  2.3315 -0.1429 -3.6042
 5536SOL    HW228071   3.886   2.410   6.877 -0.2412 -1.8984  1.6494
 5537SOL     OW28072   1.216   1.264   4.229 -0.1674 -0.4744 -0.1125
 5537SOL    HW128073   1.287   1.328   4.222 -2.0182  1.8667  2.5202
 5537SOL    HW228074   1.136   1.315   4.214  1.3160  1.6432 -0.8355
 5538SOL     OW28075   4.176   2.142   1.355 -0.0635  0.3405  0.0584
 5538SOL    HW128076   4.241   2.072   1.355  0.9589  1.2851 -2.0654
 5538SOL    HW228077   4.103   2.112   1.301 -0.2312  1.4037 -0.3113
 5539SOL     OW28078   3.178   4.529   5.799  0.0277 -0.0925  0.2028
 5539SOL    HW128079   3.106   4.583   5.766 -1.1583 -1.7769  0.0664
 5539SOL    HW228080   3.157   4.447   5.755 -3.5107  0.4049  0.9572
 5540SOL     OW28081   1.589   0.686  14.463  0.6531  0.3484  0.0820
 5540SOL    HW128082   1.502   0.669  14.500  0.9054  0.6828  0.8316
 5540SOL    HW228083   1.593   0.782  14.461  0.7635  0.3455  0.1574
 5541SOL     OW28084   1.689   1.311   8.593 -0.0190 -0.1435 -0.5282
 5541SOL    HW128085   1.658   1.226   8.561 -1.0842 -0.1150  0.4336
 5541SOL    HW228086   1.735   1.353   8.521  0.7730  2.0528  1.2371
 5542SOL     OW28087   1.682   0.823  11.322 -0.0514  0.2400 -0.5498
 5542SOL    HW128088   1.653   0.904  11.279 -2.6098  0.2423  1.1733
 5542SOL    HW228089   1.717   0.780  11.244  2.1212  2.4758 -0.7851
 5543SOL     OW28090   2.202   0.878   8.135 -0.4057  0.2584 -0.1420
 5543SOL    HW128091   2.256   0.811   8.093 -0.4898  0.5937 -0.7857
 5543SOL    HW228092   2.222   0.957   8.086 -0.7125 -0.1674 -0.9526
 5544SOL     OW28093   0.300   1.521  16.957 -0.0901 -0.0458  0.0145
 5544SOL    HW128094   0.373   1.516  16.895  1.1409  1.9015  1.3119
 5544SOL    HW228095   0.321   1.609  16.987  0.1945 -0.0104 -0.2919
 5545SOL     OW28096   0.426   2.505   9.004  0.2979 -0.5741 -0.0913
 5545SOL    HW128097   0.402   2.413   8.992 -2.2988  0.0949  0.1256
 5545SOL    HW228098   0.363   2.528   9.073  1.5287 -1.9628  1.4980
 5546SOL     OW28099   1.560   4.482  16.634 -0.0595 -0.2878 -0.1751
 5546SOL    HW128100   1.490   4.503  16.696 -0.1738  2.8831 -1.3801
 5546SOL    HW228101   1.599   4.566  16.609 -0.5129 -0.3716 -1.1637
 5547SOL     OW28102   1.349   1.103  16.835 -0.1096 -0.1127  0.0257
 5547SOL    HW128103   1.295   1.066  16.765  0.3059  1.5178 -1.1706
 5547SOL    HW228104   1.433   1.075  16.800 -0.9607 -0.0627 -2.0377
 5548SOL     OW28105   3.734   2.489   6.981 -0.1560  0.3854 -0.4785
 5548SOL    HW128106   3.763   2.579   6.996 -1.8639  0.8779 -0.2062
 5548SOL    HW228107   3.687   2.483   7.064 -0.3058 -1.2130 -0.6725
 5549SOL     OW28108   0.260   4.006   6.991 -0.8779 -0.1972 -0.1455
 5549SOL    HW128109   0.222   3.929   6.947  0.2402 -0.0769 -1.3118
 5549SOL    HW228110   0.219   4.005   7.077 -0.8895 -1.4244 -0.1631
 5550SOL     OW28111   3.572   1.727   7.271  1.1314 -0.2146  0.1348
 5550SOL    HW128112   3.550   1.805   7.221  0.5078 -2.3800 -2.9353
 5550SOL    HW228113   3.494   1.672   7.261  0.1540  1.0240  0.9753
 5551SOL     OW28114   0.891   3.747   9.710 -0.0888 -0.3267 -0.0292
 5551SOL    HW128115   0.837   3.696   9.650  2.0384  0.7208 -2.8540
 5551SOL    HW228116   0.905   3.822   9.653 -1.6162  1.4613  1.9711
 5552SOL     OW28117   0.887   3.690   4.076 -0.5338  0.6298  0.5102
 5552SOL    HW128118   0.964   3.635   4.087 -0.8414  0.3684  1.4134
 5552SOL    HW228119   0.886   3.701   3.981 -1.0338  3.8870  0.8723
 5553SOL     OW28120   0.166   1.386  16.393  0.4776 -0.8200 -0.0431
 5553SOL    HW128121   0.093   1.325  16.384  0.1705 -0.4157 -0.2862
 5553SOL    HW228122   0.234   1.333  16.436  1.6409 -1.4381 -2.6514
 5554SOL     OW28123   0.937   1.719   3.306 -0.4807 -0.2006 -0.0753
 5554SOL    HW128124   0.937   1.629   3.273 -0.3623 -0.1370 -0.2530
 5554SOL    HW228125   0.854   1.752   3.272 -1.2031 -2.2661 -0.3386
 5555SOL     OW28126   0.450   4.399   4.573 -0.2246  0.1832 -0.1100
 5555SOL    HW128127   0.503   4.448   4.510 -1.1130  0.8909 -0.3124
 5555SOL    HW228128   0.465   4.452   4.651 -2.5083  0.6238  0.0268
 5556SOL     OW28129   4.473   2.663  17.643 -0.5558  0.5872 -0.1833
 5556SOL    HW128130   4.415   2.739  17.637 -0.1750  0.8690 -0.2682
 5556SOL    HW228131   4.555   2.690  17.602 -0.5896 -1.9972 -1.9212
 5557SOL     OW28132   3.483   3.108  13.457 -0.1800 -0.4760 -0.6283
 5557SOL    HW128133   3.412   3.146  13.508  0.2494 -0.4134 -0.0717
 5557SOL    HW228134   3.549   3.177  13.463 -0.4354 -0.1363 -1.6339
 5558SOL     OW28135   0.244   4.430   3.246 -0.0694  0.0788  0.4549
 5558SOL    HW128136   0.171   4.460   3.192 -0.7160 -1.6577  0.3524
 5558SOL    HW228137   0.231   4.336   3.261  1.6067  0.2026  2.7685
 5559SOL     OW28138   2.477   3.827  15.469 -0.2799 -0.3078  0.7950
 5559SOL    HW128139   2.502   3.773  15.544  1.8917 -0.6833 -0.2170
 5559SOL    HW228140   2.559   3.823  15.421 -0.0871  1.5004  0.9504
 5560SOL     OW28141   2.413   2.204   2.985  0.1426  0.3717 -0.0554
 5560SOL    HW128142   2.504   2.181   3.005 -0.5411 -1.2529  1.1917
 5560SOL    HW228143   2.405   2.150   2.906  1.2096  0.7817 -0.4364
 5561SOL     OW28144   0.307   3.901   2.296  0.6874 -0.3106 -0.1180
 5561SOL    HW128145   0.230   3.951   2.323  0.4368 -1.0953  0.6409
 5561SOL    HW228146   0.298   3.815   2.336 -2.8448 -0.2277 -0.7139
 5562SOL     OW28147   1.912   0.087  13.691 -0.0474  0.1466  0.1592
 5562SOL    HW128148   1.890   0.061  13.601 -1.0917  1.6967 -0.0378
 5562SOL    HW228149   1.999   0.050  13.708 -1.1739 -2.1823  0.8526
 5563SOL     OW28150   2.666   0.607  17.220 -0.0092  0.1757 -0.1737
 5563SOL    HW128151   2.575   0.604  17.249  0.0061 -1.5122 -0.2845
 5563SOL    HW228152   2.673   0.519  17.183  0.3844 -1.0044  2.7393
 5564SOL     OW28153   0.550   3.854   9.673 -0.1400  0.0883  0.0851
 5564SOL    HW128154   0.532   3.936   9.627 -1.5690  0.6381  1.5902
 5564SOL    HW228155   0.479   3.799   9.640  0.2752  0.7769 -1.9887
 5565SOL     OW28156   0.060   4.318   9.132  0.3352  0.0854  0.1867
 5565SOL    HW128157   0.027   4.348   9.217 -1.2865 -0.6404 -0.1939
 5565SOL    HW228158   4.721   4.363   9.076 -0.9945 -0.2999  1.3794
 5566SOL     OW28159   1.958   1.725   0.686  0.2817  0.2426 -0.6078
 5566SOL    HW128160   2.032   1.728   0.626 -1.1561  1.7088 -2.2977
 5566SOL    HW228161   1.903   1.685   0.619 -0.0865 -1.5297  0.7341
 5567SOL     OW28162   3.576   2.291  16.068  0.7802  0.3926 -0.0441
 5567SOL    HW128163   3.625   2.289  15.986  0.7007  1.9525 -0.1266
 5567SOL    HW228164   3.491   2.318  16.034  1.2772  2.3929  0.2976
 5568SOL     OW28165   1.320   0.787  11.868  0.1247  0.4065  0.0882
 5568SOL    HW128166   1.237   0.800  11.915 -0.3797  1.8133 -1.2076
 5568SOL    HW228167   1.383   0.786  11.940 -1.6866 -1.9233  1.6672
 5569SOL     OW28168   3.313   2.763   8.490 -0.0024 -0.1188 -0.1239
 5569SOL    HW128169   3.266   2.766   8.574  1.4992  2.1824  0.6353
 5569SOL    HW228170   3.237   2.743   8.436  1.0951 -3.5057 -0.3643
 5570SOL     OW28171   1.540   3.239   3.871  0.0243  0.0241  0.5832
 5570SOL    HW128172   1.485   3.287   3.809  0.8520  0.4956  0.2159
 5570SOL    HW228173   1.560   3.315   3.925  0.9168 -0.9228  1.5757
 5571SOL     OW28174   1.368   1.157   2.773  0.0175 -0.2123 -0.0595
 5571SOL    HW128175   1.296   1.184   2.716  0.2998 -0.5330 -0.5631
 5571SOL    HW228176   1.440   1.130   2.716  0.3256  0.4445  0.0162
 5572SOL     OW28177   4.595   3.949  12.827  0.2533 -0.1196 -0.8180
 5572SOL    HW128178   4.656   4.017  12.856  0.3752 -0.2071 -0.8726
 5572SOL    HW228179   4.553   3.991  12.752 -0.9619  0.7704  0.3448
 5573SOL     OW28180   1.014   3.580   9.878  0.1502 -0.3172  0.2874
 5573SOL    HW128181   0.974   3.631   9.807 -1.9343  0.0870  1.7532
 5573SOL    HW228182   0.998   3.637   9.953 -1.9198 -0.8861  0.2830
 5574SOL     OW28183   0.876   0.136  11.142 -0.2841 -0.6442  0.0472
 5574SOL    HW128184   0.907   0.103  11.058  0.3239  0.4234 -0.1395
 5574SOL    HW228185   0.838   0.058  11.183  0.1209 -0.7507  0.2189
 5575SOL     OW28186   0.783   0.830   5.415  0.2081 -0.2075 -0.4289
 5575SOL    HW128187   0.842   0.905   5.406 -0.3370  0.1586 -0.9996
 5575SOL    HW228188   0.847   0.759   5.410  0.9029  0.3771  0.2006
 5576SOL     OW28189   2.771   2.260   8.670 -0.4703 -0.0643 -0.2606
 5576SOL    HW128190   2.806   2.195   8.609 -0.4390  1.9087 -2.3618
 5576SOL    HW228191   2.846   2.259   8.729  0.9027 -1.1878 -2.0291
 5577SOL     OW28192   0.065   3.297   6.046 -0.7226 -0.8206  0.3288
 5577SOL    HW128193   0.133   3.236   6.072 -1.7392 -1.4743  1.4531
 5577SOL    HW228194   0.025   3.240   5.981  1.2439  0.3847 -1.9469
 5578SOL     OW28195   3.437   4.130   7.728  0.0724  0.0024  0.3589
 5578SOL    HW128196   3.449   4.066   7.657  3.9136  1.7830 -0.6072
 5578SOL    HW228197   3.508   4.104   7.786 -0.0593 -0.7249  0.2002
 5579SOL     OW28198   2.553   0.623   9.127  0.3735 -0.6583 -0.0703
 5579SOL    HW128199   2.585   0.625   9.217 -1.1040 -1.6356  0.4741
 5579SOL    HW228200   2.630   0.628   9.072  1.2283 -0.9551  1.0960
 5580SOL     OW28201   3.394   4.706   2.511  0.0627  0.6924 -0.0164
 5580SOL    HW128202   3.309   0.009   2.545  0.4765  0.6014  1.0698
 5580SOL    HW228203   3.435   4.656   2.582 -0.1180  1.3577  0.5577
 5581SOL     OW28204   1.536   4.367   6.076 -0.3226  0.2959  0.0326
 5581SOL    HW128205   1.582   4.284   6.086 -0.5448  0.1227 -0.3629
 5581SOL    HW228206   1.443   4.343   6.080 -0.2261 -0.3944 -1.8380
 5582SOL     OW28207   1.646   3.660   5.013 -0.0732  0.2440  0.1224
 5582SOL    HW128208   1.672   3.728   4.951  0.2035 -0.2116 -0.2591
 5582SOL    HW228209   1.731   3.633   5.047  0.9408  0.6457 -2.1114
 5583SOL     OW28210   2.589   4.668   6.748 -0.0699 -0.2220  0.3531
 5583SOL    HW128211   2.622   4.713   6.825  0.6629 -0.3510  0.1192
 5583SOL    HW228212   2.535   0.012   6.708  0.5559  0.6304  0.9503
 5584SOL     OW28213   2.285   2.522   6.006  0.1603 -0.0959 -0.1965
 5584SOL    HW128214   2.355   2.491   6.064  0.4799 -0.3273 -0.7027
 5584SOL    HW228215   2.331   2.518   5.922  1.2815  1.0383  0.3561
 5585SOL     OW28216   2.009   0.719   6.468  0.1382 -0.0864  0.4409
 5585SOL    HW128217   2.071   0.648   6.480  0.4946  0.6499  3.0478
 5585SOL    HW228218   1.999   0.724   6.373  1.0439 -0.0656  0.3517
 5586SOL     OW28219   4.224   4.034   8.592 -0.6117  0.3452  0.1953
 5586SOL    HW128220   4.288   4.084   8.642 -0.2033 -0.2102  0.2292
 5586SOL    HW228221   4.145   4.019   8.643  1.9208 -1.2104  3.6815
 5587SOL     OW28222   1.038   4.712  10.147  0.0669 -0.4547 -0.0525
 5587SOL    HW128223   1.002   4.678  10.065 -1.3395 -0.3480  0.5284
 5587SOL    HW228224   1.056   4.630  10.192 -1.6152  0.2646  1.9112
 5588SOL     OW28225   0.540   3.313  10.347  0.0195  0.2437  0.2748
 5588SOL    HW128226   0.533   3.370  10.424 -0.3419  1.3535 -0.5730
 5588SOL    HW228227   0.620   3.354  10.316  0.9274 -2.1424 -0.5293
 5589SOL     OW28228   0.124   4.088   2.355 -0.0045 -0.1472  0.0817
 5589SOL    HW128229   0.099   4.150   2.423 -1.6906 -0.7771  0.0591
 5589SOL    HW228230   0.191   4.131   2.302  0.1403 -0.9134 -0.3681
 5590SOL     OW28231   2.136   3.418   6.927 -0.0429  0.1536  0.2291
 5590SOL    HW128232   2.152   3.509   6.901 -0.7365  0.9658  2.7369
 5590SOL    HW228233   2.105   3.420   7.017 -0.0135 -1.2947  0.2596
 5591SOL     OW28234   1.063   1.627  13.757 -0.4365  0.1218  0.1899
 5591SOL    HW128235   0.985   1.650  13.807 -0.5957  1.0145 -0.4583
 5591SOL    HW228236   1.056   1.532  13.752  0.9357  0.0877 -1.1626
 5592SOL     OW28237   1.629   0.549   4.989 -0.0230 -0.3559  0.3489
 5592SOL    HW128238   1.664   0.534   4.901  1.1435 -3.7097  1.3992
 5592SOL    HW228239   1.711   0.543   5.038 -0.5055  0.4272  1.2367
 5593SOL     OW28240   4.190   2.811   3.414  0.5144  0.4346  0.6876
 5593SOL    HW128241   4.140   2.824   3.333  2.6428  0.2509 -0.6607
 5593SOL    HW228242   4.279   2.818   3.378  0.0535  0.7008 -0.4022
 5594SOL     OW28243   2.166   3.965   5.615  0.1419 -0.2096 -0.5060
 5594SOL    HW128244   2.102   3.960   5.686  0.9502 -0.3863  0.2060
 5594SOL    HW228245   2.204   4.053   5.619 -0.2049  0.0317 -2.3182
 5595SOL     OW28246   2.961   0.961   3.723 -0.4857 -0.0149 -0.2828
 5595SOL    HW128247   2.905   0.964   3.646  2.1399 -1.1262 -2.2092
 5595SOL    HW228248   2.904   0.906   3.778 -1.3247  1.2060  0.0691
 5596SOL     OW28249   2.373   1.661  17.015  0.3245  0.0974 -0.0948
 5596SOL    HW128250   2.290   1.615  17.005  0.6072 -0.6381  0.9363
 5596SOL    HW228251   2.431   1.591  17.045  0.3643  0.7734  1.4413
 5597SOL     OW28252   3.834   1.362  11.902 -0.5487  0.3898 -0.7840
 5597SOL    HW128253   3.820   1.373  11.996  0.5346 -0.7593 -0.4931
 5597SOL    HW228254   3.756   1.406  11.868 -0.7529 -0.4154 -1.3786
 5598SOL     OW28255   4.659   3.285   5.188  0.2599  0.0530 -0.2257
 5598SOL    HW128256   4.638   3.344   5.260 -0.7965  0.8602 -1.2174
 5598SOL    HW228257   0.013   3.246   5.229  0.3216  1.4789  1.0430
 5599SOL     OW28258   3.577   0.140   5.530 -0.2368  0.0201 -0.7147
 5599SOL    HW128259   3.634   0.091   5.472  0.9604  1.0297 -0.3811
 5599SOL    HW228260   3.608   0.108   5.615 -2.4620 -1.5549 -0.4788
 5600SOL     OW28261   4.599   2.521   6.583 -0.0156  0.0458  0.3561
 5600SOL    HW128262   4.679   2.569   6.602 -0.2501  0.9576 -1.0207
 5600SOL    HW228263   4.578   2.476   6.665  0.0006 -0.8981 -0.1557
 5601SOL     OW28264   1.166   2.595  17.239 -0.7677 -0.5581  0.0322
 5601SOL    HW128265   1.246   2.642  17.215 -1.8518  0.3002 -1.9306
 5601SOL    HW228266   1.104   2.664  17.215  2.4979  2.7139  0.9621
 5602SOL     OW28267   1.382   3.103   6.122  0.0505 -0.6361 -0.3222
 5602SOL    HW128268   1.395   3.170   6.189  0.9978 -2.3221  1.1506
 5602SOL    HW228269   1.331   3.042   6.174 -2.1765 -0.5808 -2.4180
 5603SOL     OW28270   4.341   0.968   8.520 -0.4743  0.0866  0.7826
 5603SOL    HW128271   4.435   0.954   8.507 -0.5067 -1.5376  2.4082
 5603SOL    HW228272   4.317   0.895   8.576 -1.0560 -0.4526 -0.1687
 5604SOL     OW28273   2.979   3.725   6.616  0.0354 -0.0350  0.1047
 5604SOL    HW128274   2.946   3.801   6.568  0.2486 -0.8591 -1.3329
 5604SOL    HW228275   2.898   3.679   6.637 -0.6907  0.9706 -0.4816
 5605SOL     OW28276   0.110   2.396  11.219  0.0321 -0.3592  0.1534
 5605SOL    HW128277   0.019   2.392  11.250  0.1351  1.4182  0.6695
 5605SOL    HW228278   0.134   2.313  11.178 -1.2240 -1.5437  1.8460
 5606SOL     OW28279   2.116   2.774   9.172  0.3457  0.0395 -0.3708
 5606SOL    HW128280   2.130   2.734   9.258 -1.4384 -1.3806 -0.7404
 5606SOL    HW228281   2.169   2.727   9.109  0.3915 -0.7970  0.2974
 5607SOL     OW28282   0.867   4.612   4.491  0.3584 -0.3151 -0.1528
 5607SOL    HW128283   0.844   4.570   4.574  0.1276  1.6244  0.7640
 5607SOL    HW228284   0.914   4.545   4.441  3.6019  1.3953  0.5956
 5608SOL     OW28285   2.518   0.687   0.325  0.0274  0.2201 -0.1492
 5608SOL    HW128286   2.596   0.634   0.308  0.8597  0.7882  1.8786
 5608SOL    HW228287   2.459   0.671   0.252  1.9005  0.6481 -1.7514
 5609SOL     OW28288   4.715   2.545  15.807  0.4903 -0.1254 -0.0920
 5609SOL    HW128289   4.644   2.605  15.831 -0.1640 -0.9768  0.0961
 5609SOL    HW228290   4.697   2.474  15.868  1.3877 -0.2107  0.0708
 5610SOL     OW28291   0.592   0.535   5.737  0.7842  0.5262  0.0443
 5610SOL    HW128292   0.551   0.487   5.665  0.1877  1.1099 -0.0043
 5610SOL    HW228293   0.622   0.608   5.684 -0.9997  1.8310  0.8270
 5611SOL     OW28294   2.499   3.466   7.933  0.2135 -0.3159  0.0072
 5611SOL    HW128295   2.469   3.500   7.849 -0.0432  2.0074  1.0380
 5611SOL    HW228296   2.471   3.374   7.931  3.3416 -1.3134  2.2002
 5612SOL     OW28297   1.522   1.580  16.697 -0.2801 -0.3670 -0.3137
 5612SOL    HW128298   1.456   1.539  16.752 -0.2865  0.3626  0.2257
 5612SOL    HW228299   1.597   1.544  16.745 -0.8388 -0.8520  0.1985
 5613SOL     OW28300   3.053   1.831   6.615  0.4866 -0.3551  0.3965
 5613SOL    HW128301   3.020   1.921   6.623 -0.5548 -0.5059 -2.4814
 5613SOL    HW228302   3.119   1.843   6.546  1.9479 -0.9357  1.6949
 5614SOL     OW28303   3.102   2.457  15.950  0.1946 -0.6053  0.3014
 5614SOL    HW128304   3.053   2.451  15.868 -0.8535  1.5601  0.7809
 5614SOL    HW228305   3.135   2.545  15.937  0.6255 -0.8041  0.0522
 5615SOL     OW28306   1.438   1.473   3.751 -0.1510  0.2728  0.0354
 5615SOL    HW128307   1.344   1.474   3.767 -0.0166  0.8918  0.8008
 5615SOL    HW228308   1.437   1.496   3.658 -0.5644  1.6669  0.3871
 5616SOL     OW28309   1.232   4.021   3.408 -0.5377 -0.6093  0.0187
 5616SOL    HW128310   1.203   4.110   3.429 -0.5274 -0.3782 -0.9159
 5616SOL    HW228311   1.147   3.985   3.380  0.8190 -1.7495 -2.6261
 5617SOL     OW28312   2.770   3.705   5.268  0.2379 -0.1166  0.3210
 5617SOL    HW128313   2.825   3.662   5.333  0.9633 -1.0197 -0.8928
 5617SOL    HW228314   2.693   3.724   5.321  0.4344 -0.1140  0.6054
 5618SOL     OW28315   0.803   1.016   2.887  0.1723 -0.1899 -0.1841
 5618SOL    HW128316   0.869   0.996   2.954  0.1117 -0.5197 -0.2222
 5618SOL    HW228317   0.859   1.009   2.810  0.5432  1.6304 -0.0879
 5619SOL     OW28318   0.649   2.352   2.866  0.3353 -0.2321  0.0941
 5619SOL    HW128319   0.737   2.390   2.871  0.2806 -0.4517  2.7713
 5619SOL    HW228320   0.594   2.426   2.888  1.4953  0.5615  0.3303
 5620SOL     OW28321   3.185   0.278  15.398  0.0528 -0.6854  0.0786
 5620SOL    HW128322   3.135   0.237  15.327 -1.7346 -0.9301  1.4944
 5620SOL    HW228323   3.206   0.361  15.354 -1.4482 -0.7002 -0.6616
 5621SOL     OW28324   0.681   1.530  10.264  0.0958  0.4152  0.0015
 5621SOL    HW128325   0.642   1.617  10.257  0.2127  0.5159  0.5291
 5621SOL    HW228326   0.747   1.533  10.333 -0.9152  0.8072  0.9539
 5622SOL     OW28327   1.153   0.815   5.219 -0.1584 -1.1900 -0.2377
 5622SOL    HW128328   1.238   0.789   5.255 -0.6139 -1.8870  0.3485
 5622SOL    HW228329   1.176   0.903   5.189 -1.7522 -0.8596 -0.4763
 5623SOL     OW28330   2.951   0.832   8.419 -0.0509  0.4248 -0.6436
 5623SOL    HW128331   3.010   0.765   8.453 -0.5462  1.0323  1.4421
 5623SOL    HW228332   2.890   0.787   8.361  0.0191 -0.5757  0.0614
 5624SOL     OW28333   4.702   1.576   6.918  0.0827 -0.1421  0.0444
 5624SOL    HW128334   4.613   1.609   6.904  0.4573  0.6309 -0.4722
 5624SOL    HW228335   4.683   1.483   6.928 -2.9899  0.6133  1.3274
 5625SOL     OW28336   2.086   3.578   3.337  0.0430 -0.0096 -0.1850
 5625SOL    HW128337   2.144   3.563   3.411  1.6715 -0.9433 -1.6359
 5625SOL    HW228338   2.060   3.670   3.347 -1.4764 -0.5545  0.7778
 5626SOL     OW28339   4.271   4.456   0.852  0.1908 -0.1186 -0.1852
 5626SOL    HW128340   4.307   4.374   0.819 -1.8210 -0.5274 -1.3382
 5626SOL    HW228341   4.337   4.525   0.853  2.3674 -2.1992  0.3256
 5627SOL     OW28342   2.001   2.098  14.710 -0.1234 -0.0618 -0.0766
 5627SOL    HW128343   1.999   2.180  14.758  1.2009 -0.7770  1.2044
 5627SOL    HW228344   2.056   2.120  14.635  1.4409  1.7803  1.6333
 5628SOL     OW28345   2.450   2.638   3.730 -0.0236 -0.0047 -0.2918
 5628SOL    HW128346   2.368   2.644   3.779  0.5404  0.5126  0.5997
 5628SOL    HW228347   2.512   2.608   3.796 -0.9580 -0.5019  0.3618
 5629SOL     OW28348   3.448   0.103   8.940  0.0800 -0.6760  0.8035
 5629SOL    HW128349   3.435   0.049   9.018  3.5359 -0.0330  1.8089
 5629SOL    HW228350   3.464   0.033   8.876  2.5876 -1.1729  1.9677
 5630SOL     OW28351   0.984   1.241   6.157  0.0060  0.2910 -0.1225
 5630SOL    HW128352   1.017   1.302   6.223 -0.9009  0.0702  0.5412
 5630SOL    HW228353   0.949   1.180   6.222 -2.3033  1.5264 -0.2007
 5631SOL     OW28354   3.640   2.189  14.282 -0.2177 -0.2555 -0.4514
 5631SOL    HW128355   3.711   2.208  14.344 -0.9506  2.3113 -0.4119
 5631SOL    HW228356   3.671   2.111  14.236  1.4756  1.1742 -1.7393
 5632SOL     OW28357   3.248   4.621   7.190  0.0188  0.2048 -0.0350
 5632SOL    HW128358   3.284   4.570   7.118 -0.0663 -1.9168  1.4278
 5632SOL    HW228359   3.204   4.689   7.138  0.1454 -1.7183 -2.6182
 5633SOL     OW28360   0.704   3.934   9.868  0.5554 -0.7040 -0.0516
 5633SOL    HW128361   0.722   3.864   9.805  1.1662 -2.7479  2.3913
 5633SOL    HW228362   0.676   4.000   9.804 -0.5400 -1.6250 -0.5243
 5634SOL     OW28363   3.747   4.675   9.199  0.0766  0.3679 -0.0972
 5634SOL    HW128364   3.726   0.045   9.195 -1.5607  0.1208  2.9006
 5634SOL    HW228365   3.800   4.676   9.278 -0.8655  0.4278  0.5266
 5635SOL     OW28366   1.190   1.214  15.174  0.4926  0.0485 -0.1181
 5635SOL    HW128367   1.111   1.160  15.167 -0.1920  1.1309 -0.6594
 5635SOL    HW228368   1.193   1.211  15.270 -0.3725  0.7736 -0.0709
 5636SOL     OW28369   3.449   0.717   8.521  0.3180  0.1622  0.0024
 5636SOL    HW128370   3.473   0.795   8.470  2.1781 -1.0092 -0.9362
 5636SOL    HW228371   3.533   0.672   8.529 -0.5259 -1.5131 -0.5993
 5637SOL     OW28372   2.626   0.164   2.729 -0.6148  0.6107  0.4863
 5637SOL    HW128373   2.717   0.160   2.756 -0.8075  0.2722  1.0762
 5637SOL    HW228374   2.593   0.091   2.780  2.1839  0.8360  2.5525
 5638SOL     OW28375   1.541   3.858   6.948  0.4140  0.1669  0.5573
 5638SOL    HW128376   1.523   3.781   7.001 -3.2435  0.7322  0.1868
 5638SOL    HW228377   1.463   3.909   6.972  1.5845  0.9003  2.7483
 5639SOL     OW28378   1.165   0.315   5.022 -0.0716  0.1719  0.0210
 5639SOL    HW128379   1.151   0.220   5.028  0.3130  0.1604  0.7640
 5639SOL    HW228380   1.253   0.336   5.052 -0.5919 -0.0826  1.7108
 5640SOL     OW28381   3.887   0.477  11.920  0.3723 -0.4360 -0.4116
 5640SOL    HW128382   3.795   0.494  11.900  0.3334  0.9085  0.9012
 5640SOL    HW228383   3.890   0.517  12.006  0.0326  3.0565 -2.0144
 5641SOL     OW28384   0.720   0.522   6.288  0.1836  0.3426 -0.0595
 5641SOL    HW128385   0.752   0.435   6.262 -1.6068 -1.1491  2.7137
 5641SOL    HW228386   0.736   0.569   6.206 -0.2818 -1.8148 -1.3929
 5642SOL     OW28387   4.385   0.957   5.557  0.0739 -0.2426  0.4728
 5642SOL    HW128388   4.302   0.910   5.561 -1.2749  2.1344  0.7601
 5642SOL    HW228389   4.365   1.027   5.494  1.6108  0.4443  0.7527
 5643SOL     OW28390   2.081   1.092   3.745  0.5565  0.2748  1.0176
 5643SOL    HW128391   2.041   1.065   3.662 -0.8428  4.1695  0.4481
 5643SOL    HW228392   2.168   1.053   3.730 -0.2712 -1.1190 -0.2273
 5644SOL     OW28393   3.689   3.030   8.474  0.1338  0.5984  0.2685
 5644SOL    HW128394   3.720   3.084   8.402  0.3235 -0.5819 -0.5443
 5644SOL    HW228395   3.610   2.993   8.434  0.6888 -0.0877 -0.2066
 5645SOL     OW28396   0.470   2.182   4.236  0.1667 -0.2385 -0.4767
 5645SOL    HW128397   0.516   2.162   4.317 -1.0087  2.1803  0.8007
 5645SOL    HW228398   0.518   2.118   4.184 -0.2618 -1.7492  0.9566
 5646SOL     OW28399   2.219   1.316  14.260 -0.3279 -0.1842  0.5841
 5646SOL    HW128400   2.147   1.331  14.198  0.4913 -1.7686 -0.7567
 5646SOL    HW228401   2.245   1.405  14.285  1.3161 -0.4594 -0.1096
 5647SOL     OW28402   3.603   1.839   8.020  0.3104 -0.2731 -0.4389
 5647SOL    HW128403   3.599   1.772   8.088 -0.6096 -0.3164 -0.5411
 5647SOL    HW228404   3.531   1.810   7.965  0.4169  2.4154 -1.9975
 5648SOL     OW28405   1.213   3.200   7.584  0.1965  0.0661 -0.8613
 5648SOL    HW128406   1.246   3.276   7.536 -1.1153  0.2273 -1.4913
 5648SOL    HW228407   1.159   3.246   7.648  0.9734  0.4749 -0.4942
 5649SOL     OW28408   3.322   2.299  15.918  0.0350 -0.1972  0.0459
 5649SOL    HW128409   3.364   2.355  15.852  0.6715 -0.1444  0.5024
 5649SOL    HW228410   3.245   2.348  15.949  0.1693 -0.5944  0.9907
 5650SOL     OW28411   2.566   2.536   6.030 -0.2489 -0.5131 -0.0218
 5650SOL    HW128412   2.573   2.627   6.002 -0.1215 -0.3055  0.6696
 5650SOL    HW228413   2.609   2.493   5.957 -0.1455 -0.4769  0.0166
 5651SOL     OW28414   3.432   1.584   5.347 -0.2704  0.2517 -0.1611
 5651SOL    HW128415   3.351   1.549   5.309 -1.5188  0.4577  2.2846
 5651SOL    HW228416   3.448   1.664   5.296 -2.7312 -0.2770 -1.7781
 5652SOL     OW28417   3.316   3.021  13.942  0.3709 -0.0090 -0.4360
 5652SOL    HW128418   3.228   2.989  13.962 -0.0239  2.3831  1.7053
 5652SOL    HW228419   3.330   3.094  14.002 -0.3575 -1.0949  1.0838
 5653SOL     OW28420   0.754   3.664  14.752  0.1087  0.9476 -0.1331
 5653SOL    HW128421   0.738   3.592  14.690  1.3929  1.7277 -1.3721
 5653SOL    HW228422   0.824   3.712  14.708  1.2684  1.8619  2.7704
 5654SOL     OW28423   2.861   4.464   5.150  0.3230 -0.1948 -0.4631
 5654SOL    HW128424   2.948   4.467   5.109 -0.7208  0.6781 -2.6334
 5654SOL    HW228425   2.857   4.557   5.172  2.0256 -0.7744  2.2903
 5655SOL     OW28426   2.448   2.944   8.737 -0.1328  0.1557  0.2268
 5655SOL    HW128427   2.409   2.931   8.651  0.0158 -1.9388  0.4745
 5655SOL    HW228428   2.365   2.964   8.780 -0.0946  1.3015 -0.2351
 5656SOL     OW28429   3.556   1.813   8.738  0.3303  0.1853  0.0076
 5656SOL    HW128430   3.473   1.843   8.776 -0.3606  0.9009 -2.0888
 5656SOL    HW228431   3.527   1.722   8.743  2.1497 -0.3274  1.3279
 5657SOL     OW28432   3.745   0.083   4.156 -0.8349 -0.0535  0.1658
 5657SOL    HW128433   3.791   0.139   4.219 -0.0351 -0.3632 -0.1435
 5657SOL    HW228434   3.734   0.140   4.080 -1.9968  0.6794  0.8894
 5658SOL     OW28435   0.598   3.466   0.719  0.3124 -0.0610 -0.0494
 5658SOL    HW128436   0.544   3.387   0.727  0.8019 -0.4199 -0.3074
 5658SOL    HW228437   0.680   3.437   0.758 -1.1900 -1.7702  1.8712
 5659SOL     OW28438   0.054   0.383   4.478  0.1220  0.3095  0.3168
 5659SOL    HW128439   0.063   0.472   4.444  0.1496  0.2238  0.1025
 5659SOL    HW228440   0.141   0.345   4.466  0.2705  0.1553  1.8111
 5660SOL     OW28441   0.123   1.165   8.896  0.0511  0.6409  0.1362
 5660SOL    HW128442   0.120   1.091   8.956 -1.3004 -0.2510 -1.0377
 5660SOL    HW228443   0.038   1.198   8.925 -1.0365  0.0007 -2.3136
 5661SOL     OW28444   3.867   2.426  10.750 -0.3407  0.1090 -0.1614
 5661SOL    HW128445   3.946   2.374  10.755  0.2247  1.1973  2.2270
 5661SOL    HW228446   3.810   2.389  10.682 -0.8913 -2.0609  1.4963
 5662SOL     OW28447   4.646   3.985  12.048 -0.2004 -0.0276 -0.2395
 5662SOL    HW128448   4.636   3.905  11.995  0.0721  1.0982 -1.9880
 5662SOL    HW228449   0.006   4.023  12.021 -1.1989  4.0467  2.5063
 5663SOL     OW28450   3.184   0.682   8.509 -0.2268 -0.1646  0.5313
 5663SOL    HW128451   3.197   0.641   8.424 -2.7623  1.0300 -0.4304
 5663SOL    HW228452   3.277   0.674   8.528 -0.1591 -0.0407  0.2456
 5664SOL     OW28453   2.701   3.482   2.792 -0.0956  0.0090 -0.7928
 5664SOL    HW128454   2.750   3.487   2.710  3.7419  2.4060  1.6552
 5664SOL    HW228455   2.688   3.388   2.797  2.6038 -0.4084 -1.7788
 5665SOL     OW28456   1.432   2.995   5.417 -0.8303  0.1499 -0.1503
 5665SOL    HW128457   1.490   3.067   5.444 -1.3155 -0.5326  2.7467
 5665SOL    HW228458   1.399   2.965   5.502 -1.4397 -0.2574 -0.5308
 5666SOL     OW28459   1.020   0.047   9.052 -0.1420 -0.1940 -0.5514
 5666SOL    HW128460   1.111   0.074   9.039 -1.0309  2.6356 -0.9132
 5666SOL    HW228461   0.984   0.113   9.112 -0.5099  0.1289 -1.1209
 5667SOL     OW28462   3.416   4.263  10.412  0.1332 -0.0108  0.3229
 5667SOL    HW128463   3.495   4.211  10.428  1.2957  1.7686  0.3586
 5667SOL    HW228464   3.359   4.204  10.461 -0.9208  0.7260 -0.0073
 5668SOL     OW28465   2.431   3.884   9.377 -0.1875 -0.0796  0.1871
 5668SOL    HW128466   2.375   3.892   9.454 -0.3628 -1.0154  0.1561
 5668SOL    HW228467   2.423   3.971   9.338 -1.1091 -0.8497 -1.3626
 5669SOL     OW28468   1.472   3.997   1.645 -0.1344 -0.4318  0.1546
 5669SOL    HW128469   1.404   4.006   1.712 -1.4013 -1.0034 -1.0473
 5669SOL    HW228470   1.555   4.018   1.688 -0.8449  0.5497  1.0202
 5670SOL     OW28471   3.036   3.307   5.380  0.2861  0.0766 -0.2941
 5670SOL    HW128472   3.016   3.310   5.286  1.2941 -0.0935 -0.5103
 5670SOL    HW228473   3.010   3.216   5.392 -0.8674  0.5200  0.5834
 5671SOL     OW28474   1.506   3.555   8.923 -0.4750  0.2901  0.3031
 5671SOL    HW128475   1.524   3.647   8.937 -1.1829  0.3585  0.7997
 5671SOL    HW228476   1.521   3.512   9.008 -1.4991  0.2405  0.4680
 5672SOL     OW28477   3.165   1.032  13.766 -0.1750  0.2746 -0.5909
 5672SOL    HW128478   3.121   1.112  13.795  1.8716  1.2844 -0.2315
 5672SOL    HW228479   3.255   1.055  13.788  0.6629 -1.2680 -2.3743
 5673SOL     OW28480   2.706   4.416   5.376 -0.0556 -0.9211  0.2142
 5673SOL    HW128481   2.660   4.497   5.397  1.9312 -0.1634  1.6415
 5673SOL    HW228482   2.745   4.442   5.293  0.7949 -3.2511 -0.1018
 5674SOL     OW28483   2.619   2.541   9.647 -0.1738  0.0183 -0.3800
 5674SOL    HW128484   2.536   2.520   9.689  1.9684 -2.1839  2.7253
 5674SOL    HW228485   2.668   2.604   9.700  0.1179 -0.6373  0.1241
 5675SOL     OW28486   3.668   1.602   4.255 -0.3604  0.1002 -0.0166
 5675SOL    HW128487   3.671   1.698   4.252  2.4925  0.0326  0.7942
 5675SOL    HW228488   3.575   1.584   4.241 -0.6557  0.9963  0.8272
 5676SOL     OW28489   0.442   2.455   4.285 -0.7459 -0.1850  0.0432
 5676SOL    HW128490   0.456   2.361   4.269  0.2377 -0.0012 -0.1693
 5676SOL    HW228491   0.370   2.477   4.226  0.2627  0.4380 -0.9597
 5677SOL     OW28492   0.711   2.496   6.049 -0.0682  0.4530 -0.0056
 5677SOL    HW128493   0.795   2.480   6.005  0.9347 -0.3261  2.1860
 5677SOL    HW228494   0.679   2.406   6.043  2.0766 -0.2261 -1.1531
 5678SOL     OW28495   2.242   4.302   4.205  0.5251 -0.0652 -0.0706
 5678SOL    HW128496   2.293   4.375   4.241  0.7863 -1.2304  1.9583
 5678SOL    HW228497   2.315   4.248   4.175 -0.2798 -1.5295  0.6011
 5679SOL     OW28498   0.218   4.669   0.615 -0.0979  0.2934 -0.3100
 5679SOL    HW128499   0.249   0.033   0.638 -2.4900  0.5978  1.7851
 5679SOL    HW228500   0.252   4.656   0.527 -0.5142 -0.0264 -0.4221
 5680SOL     OW28501   0.740   0.055  10.511 -0.1352  0.2166  0.1069
 5680SOL    HW128502   0.807   0.113  10.475 -1.6173  0.9042 -1.5464
 5680SOL    HW228503   0.659   0.096  10.480 -0.6303 -1.5804 -0.9898
 5681SOL     OW28504   3.289   1.891  16.207 -0.3724  0.8711 -0.0712
 5681SOL    HW128505   3.246   1.957  16.262  1.9483  2.1654  0.1809
 5681SOL    HW228506   3.272   1.928  16.121 -0.0520 -0.6781 -0.8014
 5682SOL     OW28507   3.411   1.288   6.224  0.5895  0.8960  0.0217
 5682SOL    HW128508   3.389   1.195   6.232  0.5495  0.9017 -0.0243
 5682SOL    HW228509   3.378   1.310   6.137  1.1249  4.0359  0.6153
 5683SOL     OW28510   3.026   4.363   6.389  0.2084 -0.2537 -0.3118
 5683SOL    HW128511   3.092   4.296   6.409 -1.1110 -2.0664 -1.9058
 5683SOL    HW228512   3.067   4.421   6.325  0.5475 -1.3712 -1.1054
 5684SOL     OW28513   2.624   3.159   8.859  0.5388  0.1880 -0.0278
 5684SOL    HW128514   2.590   3.091   8.801 -0.4572  2.3253 -1.9260
 5684SOL    HW228515   2.680   3.209   8.799  2.5426  0.0178  1.6812
 5685SOL     OW28516   1.099   0.105  12.664 -0.3228 -0.4072 -0.3372
 5685SOL    HW128517   1.070   0.046  12.734 -0.0038  1.3304  1.2547
 5685SOL    HW228518   1.118   0.041  12.595 -1.4898  1.6221 -2.5402
 5686SOL     OW28519   2.132   1.388   7.279 -0.5064 -0.4743 -0.2274
 5686SOL    HW128520   2.116   1.476   7.247 -0.6795 -0.0265  1.0861
 5686SOL    HW228521   2.200   1.366   7.215 -0.7478  0.1645 -0.7076
 5687SOL     OW28522   1.119   0.737   3.952  0.3532 -0.4771 -0.0588
 5687SOL    HW128523   1.115   0.821   3.999  1.6974 -1.9592  2.6858
 5687SOL    HW228524   1.214   0.727   3.949  0.5146  0.3199  2.2324
 5688SOL     OW28525   0.916   1.312  17.299  0.0306  0.1002  0.3340
 5688SOL    HW128526   0.835   1.350  17.335  0.0633 -0.8413  1.4087
 5688SOL    HW228527   0.906   1.220  17.326 -0.9702  0.0610 -0.1649
 5689SOL     OW28528   3.775   0.951   3.509 -0.3549  0.1884  0.0137
 5689SOL    HW128529   3.774   1.046   3.499 -0.2324  0.2375  0.4840
 5689SOL    HW228530   3.835   0.915   3.444  1.8384  2.4403  0.8100
 5690SOL     OW28531   0.476   4.003   9.324 -0.3153  0.3161  0.8234
 5690SOL    HW128532   0.437   4.035   9.242  2.2413 -1.5541 -1.1140
 5690SOL    HW228533   0.422   3.925   9.338 -2.2563  1.6972  1.0676
 5691SOL     OW28534   2.900   1.062   5.289  0.5273 -0.4981  0.1259
 5691SOL    HW128535   2.847   1.129   5.334 -1.6261  0.0345 -3.1982
 5691SOL    HW228536   2.861   1.069   5.202 -1.2530  0.1684  0.9783
 5692SOL     OW28537   0.388   4.458   2.649 -0.1981  0.2125 -0.2377
 5692SOL    HW128538   0.465   4.513   2.637 -0.1969  0.2076 -0.2521
 5692SOL    HW228539   0.405   4.422   2.737 -2.1504 -2.8499 -1.1285
 5693SOL     OW28540   3.963   2.178   7.154 -0.2087 -0.0618  0.3395
 5693SOL    HW128541   4.035   2.169   7.092 -0.8915  0.1118 -0.4839
 5693SOL    HW228542   3.964   2.272   7.169  0.5600  0.0585 -0.5011
 5694SOL     OW28543   1.279   3.368   5.009 -0.0795 -0.0458  0.5799
 5694SOL    HW128544   1.241   3.359   4.921  0.5389 -2.1574  0.5193
 5694SOL    HW228545   1.233   3.304   5.063 -0.2855  1.0205  1.6708
 5695SOL     OW28546   4.179   0.394   0.283  0.2778  0.4184 -0.5451
 5695SOL    HW128547   4.211   0.346   0.360 -1.6112  0.6357  0.3770
 5695SOL    HW228548   4.113   0.436   0.339  0.0270 -1.0570  0.2630
 5696SOL     OW28549   4.490   1.686  16.223  0.4063 -0.2596  0.1518
 5696SOL    HW128550   4.427   1.618  16.199 -1.5035  1.3979  0.3747
 5696SOL    HW228551   4.456   1.708  16.310  1.1483 -0.3669  0.4617
 5697SOL     OW28552   4.190   1.054   4.868  0.0092 -0.0867  0.4782
 5697SOL    HW128553   4.143   1.043   4.951 -0.3549 -0.8835  0.1719
 5697SOL    HW228554   4.226   1.141   4.883 -0.3224  0.3352 -1.1817
 5698SOL     OW28555   3.672   3.340   9.984  0.0914  0.2074 -0.0496
 5698SOL    HW128556   3.697   3.300   9.901 -0.7064 -1.3323  0.4345
 5698SOL    HW228557   3.717   3.287  10.051  0.6364  1.3761  0.5099
 5699SOL     OW28558   0.623   0.138  11.311  0.3180  0.0844  0.2023
 5699SOL    HW128559   0.661   0.060  11.272  2.0927  1.3413 -0.5632
 5699SOL    HW228560   0.643   0.200  11.241  1.3716 -0.4437  0.0360
 5700SOL     OW28561   0.263   4.247  10.514 -0.3241  0.5854 -0.8933
 5700SOL    HW128562   0.334   4.311  10.520  0.5071 -0.2502 -1.8594
 5700SOL    HW228563   0.310   4.166  10.536 -0.6611  0.5008 -0.4817
 5701SOL     OW28564   4.499   3.028   6.424 -0.3631  0.5184 -0.0579
 5701SOL    HW128565   4.414   3.007   6.463 -0.3804 -1.3402 -1.1096
 5701SOL    HW228566   4.550   3.005   6.502 -1.7361 -2.3999 -0.0228
 5702SOL     OW28567   4.113   3.896  10.345 -0.0736 -0.1141 -0.1800
 5702SOL    HW128568   4.154   3.945  10.274 -0.3238 -1.9428 -1.5600
 5702SOL    HW228569   4.024   3.930  10.355 -0.7354 -1.6601 -0.9602
 5703SOL     OW28570   1.328   2.522   5.011  0.0693  0.0644 -0.1767
 5703SOL    HW128571   1.348   2.494   5.100  4.5823  2.8285 -0.3258
 5703SOL    HW228572   1.235   2.542   5.022 -0.0085 -0.7746  0.6223
 5704SOL     OW28573   3.634   3.004   3.460 -0.6013 -0.3190 -0.2999
 5704SOL    HW128574   3.632   2.913   3.491 -0.6408  0.2606  1.3683
 5704SOL    HW228575   3.544   3.033   3.474 -0.6384  0.4797 -2.1852
 5705SOL     OW28576   1.904   0.722  17.362  0.0077 -0.4523 -0.1837
 5705SOL    HW128577   1.948   0.806  17.355 -0.5964 -0.2843 -1.8120
 5705SOL    HW228578   1.820   0.760  17.338  0.6596  2.2082  1.8282
 5706SOL     OW28579   3.439   0.341   6.444 -0.2300  0.0393  0.2631
 5706SOL    HW128580   3.379   0.406   6.406  1.0671  2.0280  1.6023
 5706SOL    HW228581   3.377   0.280   6.484 -0.4838  0.4332  0.4776
 5707SOL     OW28582   4.005   2.273   8.493  0.0642  0.2136 -0.0390
 5707SOL    HW128583   4.015   2.362   8.460 -1.0373  0.5827  0.6437
 5707SOL    HW228584   4.092   2.238   8.471  0.3817  2.5104 -2.4458
 5708SOL     OW28585   0.733   0.652   6.046 -0.1097  0.0642 -0.1619
 5708SOL    HW128586   0.692   0.624   5.964 -2.5091  0.7962  0.7917
 5708SOL    HW228587   0.735   0.747   6.037 -1.2730  0.0629 -0.4632
 5709SOL     OW28588   2.269   0.236  16.448  0.3090  0.9849 -0.4863
 5709SOL    HW128589   2.317   0.186  16.383 -2.5329 -0.6961 -1.2668
 5709SOL    HW228590   2.321   0.267  16.523 -0.3160 -1.7410  1.0764
 5710SOL     OW28591   2.314   3.979  13.259 -0.0541  0.4194  0.4170
 5710SOL    HW128592   2.254   3.914  13.222  0.2096  0.5946 -0.3068
 5710SOL    HW228593   2.393   3.944  13.219 -0.0365 -2.0642  2.6524
 5711SOL     OW28594   2.228   4.620   7.094 -0.2533  0.1447  0.3884
 5711SOL    HW128595   2.173   4.649   7.166 -1.2495 -0.3329 -0.1758
 5711SOL    HW228596   2.308   4.665   7.123 -0.8052  0.1151  1.9163
 5712SOL     OW28597   3.825   2.860   1.606  0.1918 -0.8129 -0.2241
 5712SOL    HW128598   3.843   2.767   1.596  2.3024 -0.3532 -0.7788
 5712SOL    HW228599   3.812   2.853   1.701 -2.2671 -2.1344 -0.6825
 5713SOL     OW28600   1.041   0.018   7.355 -0.6952  0.7650  0.4141
 5713SOL    HW128601   0.985   0.002   7.279  0.9322  0.3604 -0.7031
 5713SOL    HW228602   1.056   0.111   7.336  0.0681  0.9399  1.8708
 5714SOL     OW28603   3.365   1.581   6.999  0.0379 -0.1044 -0.2133
 5714SOL    HW128604   3.299   1.533   6.949  0.9324 -0.7695 -0.7632
 5714SOL    HW228605   3.416   1.504   7.022 -0.1557 -0.0313  0.4628
 5715SOL     OW28606   2.802   1.241   9.196  0.1681  0.4398  0.1603
 5715SOL    HW128607   2.736   1.286   9.249  1.7275 -0.5814  2.9959
 5715SOL    HW228608   2.792   1.146   9.205  0.7607  0.2687 -1.0193
 5716SOL     OW28609   1.078   4.523   5.862  0.3907 -0.4179  0.3483
 5716SOL    HW128610   1.130   4.604   5.860  1.7124 -1.2286  1.7256
 5716SOL    HW228611   1.140   4.470   5.813  0.2247  0.2857 -0.6355
 5717SOL     OW28612   2.288   3.628  14.151 -0.5086  0.5341  0.1564
 5717SOL    HW128613   2.197   3.641  14.125 -0.6761 -0.5370  0.2387
 5717SOL    HW228614   2.275   3.551  14.206 -0.0111 -0.3775 -0.9895
 5718SOL     OW28615   2.569   1.707   7.635  0.2493  0.1110  0.0726
 5718SOL    HW128616   2.542   1.786   7.588 -0.2064 -0.6446 -0.9604
 5718SOL    HW228617   2.490   1.652   7.633  0.1916  0.1607  1.2466
 5719SOL     OW28618   1.194   3.171  11.136 -0.2684  0.1047 -0.1690
 5719SOL    HW128619   1.230   3.122  11.062  2.5806  0.8892  0.7036
 5719SOL    HW228620   1.268   3.228  11.155  0.2931 -0.2805 -1.2239
 5720SOL     OW28621   1.485   2.773   4.038  0.0605 -0.5128  0.2282
 5720SOL    HW128622   1.494   2.865   4.013 -1.0127 -0.3046  0.5961
 5720SOL    HW228623   1.555   2.760   4.102 -0.4317 -1.9010  0.4840
 5721SOL     OW28624   4.236   2.733  16.931  0.0232 -0.6183 -0.0449
 5721SOL    HW128625   4.219   2.786  16.854 -2.4837 -1.2676  0.0525
 5721SOL    HW228626   4.330   2.721  16.921  0.0193  1.8823 -2.6963
 5722SOL     OW28627   1.461   1.435  12.111  0.1300 -0.2763  0.0761
 5722SOL    HW128628   1.539   1.396  12.150  0.7777  0.4424 -0.4965
 5722SOL    HW228629   1.420   1.465  12.192  0.7334 -2.5531  1.2140
 5723SOL     OW28630   3.365   3.864   9.492 -0.1286  0.2080 -0.2350
 5723SOL    HW128631   3.358   3.911   9.408 -1.0706  1.1744  0.3887
 5723SOL    HW228632   3.421   3.789   9.477 -1.4725 -0.9099  0.3138
 5724SOL     OW28633   2.149   1.343  17.419 -0.5505  0.6527  0.0203
 5724SOL    HW128634   2.119   1.432  17.401  1.3409  1.5026  1.0247
 5724SOL    HW228635   2.061   1.307  17.420 -0.4091  0.3143  0.6312
 5725SOL     OW28636   1.174   2.056   8.226 -0.5144 -0.3937  0.2265
 5725SOL    HW128637   1.227   2.127   8.188  1.0411 -3.5683 -3.4994
 5725SOL    HW228638   1.240   1.996   8.262 -0.9278 -0.1202  1.4379
 5726SOL     OW28639   3.068   3.116   8.904 -0.4465  0.3133 -0.7521
 5726SOL    HW128640   3.010   3.089   8.833 -0.4081 -0.5315 -0.4610
 5726SOL    HW228641   3.025   3.190   8.947  2.8436  0.7656  1.7990
 5727SOL     OW28642   3.631   4.092  10.469  0.1718 -0.8625  0.4150
 5727SOL    HW128643   3.644   4.077  10.562  0.7187  1.4171  0.6900
 5727SOL    HW228644   3.718   4.060  10.443  0.4147  0.1971 -0.0696
 5728SOL     OW28645   1.033   4.699   5.293 -0.2352 -0.3297 -0.3271
 5728SOL    HW128646   1.044   4.608   5.321  1.6604  1.2396  4.1001
 5728SOL    HW228647   0.939   4.709   5.308 -0.3016 -0.7865 -0.4644
 5729SOL     OW28648   3.713   1.449   5.124 -0.3706  0.1930  0.4130
 5729SOL    HW128649   3.787   1.506   5.144  0.2232 -0.7244  0.8199
 5729SOL    HW228650   3.727   1.388   5.197 -0.6482 -1.2215 -0.7266
 5730SOL     OW28651   3.735   1.396   9.118 -0.2842 -0.2806 -0.5625
 5730SOL    HW128652   3.813   1.392   9.063  0.7029  0.0652  0.8170
 5730SOL    HW228653   3.778   1.400   9.203 -1.7486 -1.0146  0.2219
 5731SOL     OW28654   4.229   4.410  11.069 -0.0048  0.0838  0.0747
 5731SOL    HW128655   4.165   4.479  11.085  0.8498  0.7423  0.6763
 5731SOL    HW228656   4.299   4.463  11.032  0.0405  0.0240  0.0733
 5732SOL     OW28657   4.150   4.494   5.681 -0.2717  0.3198  0.1988
 5732SOL    HW128658   4.170   4.403   5.702  0.7142  0.6282  0.5957
 5732SOL    HW228659   4.075   4.513   5.737  0.0996 -0.0086  0.8110
 5733SOL     OW28660   2.509   4.073   7.791  0.3706  0.3328  0.2300
 5733SOL    HW128661   2.441   4.094   7.855 -1.3835  0.0906 -1.5543
 5733SOL    HW228662   2.587   4.083   7.845 -0.3039 -1.0399  1.4395
 5734SOL     OW28663   0.130   3.366   6.859 -0.2966 -0.4949  0.6812
 5734SOL    HW128664   0.129   3.410   6.774 -1.1405  0.4287  1.1676
 5734SOL    HW228665   0.171   3.432   6.915  0.6508  0.7720 -1.4917
 5735SOL     OW28666   1.778   0.487   8.814  0.0681  0.1510  0.4354
 5735SOL    HW128667   1.874   0.490   8.819  0.1853  0.5075 -1.8910
 5735SOL    HW228668   1.764   0.393   8.813 -1.0213  0.3159  0.2986
 5736SOL     OW28669   4.003   1.008   7.578  0.2921  0.6807  0.1183
 5736SOL    HW128670   3.995   1.016   7.483  0.9675  1.3250  0.1183
 5736SOL    HW228671   3.912   1.004   7.606  0.2308  0.9327 -0.0483
 5737SOL     OW28672   2.185   3.819   6.264  0.2658  0.1446  0.1793
 5737SOL    HW128673   2.206   3.732   6.299 -0.5172 -0.3197 -0.5164
 5737SOL    HW228674   2.273   3.857   6.255  0.9566 -0.9984  2.0553
 5738SOL     OW28675   3.856   3.315  12.491 -0.1389  0.1708 -0.1959
 5738SOL    HW128676   3.819   3.369  12.421  1.8806 -0.0818 -1.4729
 5738SOL    HW228677   3.783   3.288  12.546 -0.2092 -0.6574 -0.6870
 5739SOL     OW28678   0.955   0.295  17.003 -0.3574  0.2538 -0.0645
 5739SOL    HW128679   0.861   0.288  17.020 -0.2912  2.5408  1.3220
 5739SOL    HW228680   0.979   0.363  17.066 -0.5169  2.1467 -2.0516
 5740SOL     OW28681   0.972   0.789   6.986 -0.1059  0.2825  0.2419
 5740SOL    HW128682   0.894   0.748   6.948 -0.3814  0.5173  0.5574
 5740SOL    HW228683   1.037   0.737   6.939  0.1049  0.6022  0.1803
 5741SOL     OW28684   3.879   3.515   7.523  0.7277 -0.3184  0.3868
 5741SOL    HW128685   3.807   3.503   7.585  0.1613  0.2811 -0.1344
 5741SOL    HW228686   3.948   3.466   7.568  1.1136 -0.4913 -0.3945
 5742SOL     OW28687   4.627   2.972   5.332  0.0553  0.4057 -0.2541
 5742SOL    HW128688   4.715   3.008   5.338  0.5125 -0.7299 -0.1888
 5742SOL    HW228689   4.580   3.029   5.394 -1.9408 -0.3433 -1.0656
 5743SOL     OW28690   1.307   2.479   0.970  0.2247  0.4324 -0.0839
 5743SOL    HW128691   1.286   2.409   1.032  0.9345  1.7847  1.6902
 5743SOL    HW228692   1.236   2.472   0.906 -0.6056  0.3054  0.8506
 5744SOL     OW28693   2.745   2.034  14.133 -0.3557 -0.1294 -0.0151
 5744SOL    HW128694   2.798   2.020  14.054  0.3946 -2.4353  0.9090
 5744SOL    HW228695   2.676   2.083  14.088  1.1313  0.4880 -1.6063
 5745SOL     OW28696   1.917   0.978   3.520  0.0437 -0.0148  0.1474
 5745SOL    HW128697   1.955   0.892   3.534  0.1225 -0.0648 -0.3730
 5745SOL    HW228698   1.825   0.952   3.525  0.7165 -2.0096  1.8903
 5746SOL     OW28699   3.992   4.518   9.120  0.3025 -0.0433  0.3967
 5746SOL    HW128700   4.050   4.593   9.106  0.5662  0.0262  1.9306
 5746SOL    HW228701   3.928   4.565   9.174 -0.7067 -1.7949  0.7065
 5747SOL     OW28702   3.346   0.800  15.629 -0.1011 -0.1009  0.0112
 5747SOL    HW128703   3.428   0.847  15.616 -1.0701  1.7195  0.5855
 5747SOL    HW228704   3.365   0.720  15.579 -0.3468 -0.3466  0.3111
 5748SOL     OW28705   1.158   3.354  10.845 -0.3324 -0.4449 -0.3600
 5748SOL    HW128706   1.206   3.416  10.790  0.1042 -0.3888  0.0828
 5748SOL    HW228707   1.215   3.283  10.874  0.3914  0.6938  1.0108
 5749SOL     OW28708   4.542   4.248   3.537  0.3224  0.3741 -0.3615
 5749SOL    HW128709   4.521   4.161   3.503 -2.7153  1.2757 -0.8406
 5749SOL    HW228710   4.512   4.260   3.627 -0.2124 -1.3473 -0.3106
 5750SOL     OW28711   2.620   2.137   1.849  0.4666  0.7323 -0.0987
 5750SOL    HW128712   2.680   2.094   1.910  0.6930  2.5148  0.9496
 5750SOL    HW228713   2.647   2.116   1.760 -0.1715  1.1215 -0.3858
 5751SOL     OW28714   1.399   2.661   7.056 -0.6216 -0.3205 -0.2171
 5751SOL    HW128715   1.404   2.737   6.998 -2.9794  0.5896  0.7458
 5751SOL    HW228716   1.488   2.626   7.053 -0.8188 -0.7047 -1.4114
 5752SOL     OW28717   3.680   3.028   7.701 -0.3235  0.5662 -0.0232
 5752SOL    HW128718   3.757   3.078   7.730 -1.6948 -0.0330  4.6505
 5752SOL    HW228719   3.623   3.017   7.777 -1.2618 -3.0325 -1.2483
 5753SOL     OW28720   4.124   1.107   8.825 -0.2409  0.5207  0.6930
 5753SOL    HW128721   4.170   1.032   8.788 -1.3592  0.0401  0.2573
 5753SOL    HW228722   4.197   1.165   8.845 -0.7617  1.5007 -0.1988
 5754SOL     OW28723   4.651   0.922   5.485  0.2986 -0.0678 -0.0792
 5754SOL    HW128724   4.703   0.891   5.559  0.0619  2.0383  0.9537
 5754SOL    HW228725   4.565   0.904   5.523 -0.8242  2.7645 -1.2178
 5755SOL     OW28726   0.609   3.019  12.059  0.2280  0.5016  0.1851
 5755SOL    HW128727   0.607   3.065  12.143 -0.1575 -1.1471  1.0680
 5755SOL    HW228728   0.568   2.937  12.085 -0.1113  0.0682 -1.6831
 5756SOL     OW28729   4.371   3.053   7.300 -0.1742 -0.7971  0.2596
 5756SOL    HW128730   4.385   3.146   7.318 -0.4605 -0.6111 -0.4939
 5756SOL    HW228731   4.276   3.058   7.291  0.1395 -0.4344 -2.8677
 5757SOL     OW28732   0.010   3.563  13.248  0.1695 -0.3407 -0.3780
 5757SOL    HW128733   0.051   3.610  13.321 -1.8255  0.1909  0.4047
 5757SOL    HW228734   0.083   3.545  13.188  0.5699  2.2751 -0.6954
 5758SOL     OW28735   1.231   4.296   4.520 -0.0479  0.4602 -0.5396
 5758SOL    HW128736   1.238   4.342   4.604 -0.7005 -3.4309  1.6400
 5758SOL    HW228737   1.148   4.261   4.551 -1.3125  3.8252 -0.0852
 5759SOL     OW28738   0.521   4.576   4.781  0.0363 -0.3886  0.6393
 5759SOL    HW128739   0.479   4.609   4.860 -1.0406 -1.4605  0.5145
 5759SOL    HW228740   0.580   4.642   4.744 -0.7888  0.5622  1.0070
 5760SOL     OW28741   3.654   4.465   3.484  0.3709 -0.2273  0.3678
 5760SOL    HW128742   3.668   4.538   3.424  0.0025 -2.2234 -2.1473
 5760SOL    HW228743   3.562   4.466   3.510  0.4440 -2.6734  0.6957
 5761SOL     OW28744   2.735   2.126   5.821 -0.4228 -0.4856  0.1199
 5761SOL    HW128745   2.639   2.127   5.829 -0.4914 -1.1935 -0.5667
 5761SOL    HW228746   2.773   2.210   5.845  0.2004 -1.1494  1.4161
 5762SOL     OW28747   2.308   2.034  10.222 -0.0508  0.4200 -0.4740
 5762SOL    HW128748   2.372   2.105  10.215 -0.7458  0.8531 -2.5486
 5762SOL    HW228749   2.315   2.008  10.130 -1.3847  2.7658 -1.2479
 5763SOL     OW28750   1.436   1.212  15.430 -0.6563  0.1595 -0.3763
 5763SOL    HW128751   1.462   1.266  15.505 -1.6307 -0.5075  0.4473
 5763SOL    HW228752   1.343   1.206  15.452 -0.7792 -0.0910 -0.9864
 5764SOL     OW28753   2.172   2.052   1.175 -0.1249  0.2082 -0.7573
 5764SOL    HW128754   2.241   2.046   1.241 -0.4170  1.0154 -0.3784
 5764SOL    HW228755   2.094   2.054   1.231  0.0642  0.8298 -0.5228
 5765SOL     OW28756   0.400   0.860   3.876  0.5449  0.1660 -0.5270
 5765SOL    HW128757   0.434   0.779   3.838  3.7777  2.3230 -2.2248
 5765SOL    HW228758   0.384   0.910   3.796 -0.8182 -1.5503 -1.3384
 5766SOL     OW28759   0.566   2.450  12.383 -0.1235 -0.0921  0.0092
 5766SOL    HW128760   0.522   2.457  12.299  0.6664  0.7314 -0.3352
 5766SOL    HW228761   0.512   2.499  12.445 -1.3244  1.4672 -2.2583
 5767SOL     OW28762   1.529   0.392   2.956 -0.2453  0.4971 -0.0473
 5767SOL    HW128763   1.526   0.341   3.037 -1.5843 -0.7049 -0.8657
 5767SOL    HW228764   1.436   0.410   2.944 -0.3588  0.0989  0.2320
 5768SOL     OW28765   2.401   3.438   8.647  0.2619 -0.1670 -0.1864
 5768SOL    HW128766   2.429   3.524   8.613  2.1523 -1.1765 -1.2098
 5768SOL    HW228767   2.464   3.419   8.717  0.1856 -0.4570 -0.1967
 5769SOL     OW28768   1.117   1.611   2.619 -0.0925  0.2516  0.4573
 5769SOL    HW128769   1.111   1.696   2.576  0.8783 -0.6822 -1.5001
 5769SOL    HW228770   1.211   1.603   2.638  0.4447  0.9724 -1.8679
 5770SOL     OW28771   1.867   2.668   5.842  0.3393  0.2293  0.5188
 5770SOL    HW128772   1.955   2.679   5.879  1.6874 -2.8788 -1.7446
 5770SOL    HW228773   1.881   2.678   5.748  0.8048  1.7254  0.7434
 5771SOL     OW28774   3.813   3.910  15.287  0.6890  0.2776 -0.4002
 5771SOL    HW128775   3.775   3.890  15.372  1.1076 -1.1651 -0.5574
 5771SOL    HW228776   3.831   4.004  15.284  1.2592  0.1314 -1.7766
 5772SOL     OW28777   1.268   1.251   7.048  0.1637 -0.4955 -0.2582
 5772SOL    HW128778   1.308   1.249   6.962 -1.5744 -1.1462 -1.0480
 5772SOL    HW228779   1.344   1.254   7.106 -0.7872 -0.0315  0.9796
 5773SOL     OW28780   0.191   2.188   7.821  0.8184  0.2135 -0.3347
 5773SOL    HW128781   0.248   2.250   7.775  0.6527 -0.5957 -1.6219
 5773SOL    HW228782   0.224   2.106   7.783 -2.0814  0.0902 -2.5338
 5774SOL     OW28783   1.558   0.996   7.241 -0.6792  0.0538 -0.1307
 5774SOL    HW128784   1.517   0.965   7.322 -3.8423  0.5476 -1.5344
 5774SOL    HW228785   1.616   0.923   7.220 -0.4655 -0.1100  0.9935
 5775SOL     OW28786   2.704   0.331   8.448  0.3799  0.7265  1.0166
 5775SOL    HW128787   2.615   0.351   8.418  0.3580 -2.2610 -0.9404
 5775SOL    HW228788   2.706   0.379   8.531  0.6602  0.1061  1.3685
 5776SOL     OW28789   0.921   3.642   9.363  0.2475  0.3714 -0.3402
 5776SOL    HW128790   0.928   3.722   9.417  1.5584  1.7967 -2.6451
 5776SOL    HW228791   0.849   3.603   9.413  0.3780 -0.6964 -1.0127
 5777SOL     OW28792   2.135   0.595   1.072 -0.3608  0.1001 -0.4953
 5777SOL    HW128793   2.041   0.604   1.054 -0.3647  0.2739 -0.3883
 5777SOL    HW228794   2.153   0.509   1.035 -0.1091  0.1212 -0.4224
 5778SOL     OW28795   0.215   0.672   9.000 -0.2314  0.2086 -0.7620
 5778SOL    HW128796   0.195   0.764   9.017 -2.1511 -0.3048 -0.2686
 5778SOL    HW228797   0.293   0.649   9.051 -1.3045  0.2688  0.9126
 5779SOL     OW28798   4.281   2.201   4.688  0.0508  0.5668  0.6657
 5779SOL    HW128799   4.218   2.263   4.653 -1.1156 -0.2332  1.3633
 5779SOL    HW228800   4.352   2.228   4.630 -1.9134  0.4241 -1.7635
 5780SOL     OW28801   1.746   3.986   4.575 -0.5450 -0.1723  0.1878
 5780SOL    HW128802   1.703   4.072   4.580  2.4302  1.3945 -1.0125
 5780SOL    HW228803   1.728   3.968   4.483  1.4535  1.4434 -0.5271
 5781SOL     OW28804   1.280   2.124   8.554  0.3954 -0.3344  0.6731
 5781SOL    HW128805   1.364   2.118   8.600  0.9762 -1.9584 -0.5653
 5781SOL    HW228806   1.311   2.098   8.467 -0.5267  0.9500 -0.0330
 5782SOL     OW28807   2.414   2.410  16.256 -0.6853  0.3347 -0.5617
 5782SOL    HW128808   2.401   2.455  16.172 -0.0583 -0.8539 -1.2874
 5782SOL    HW228809   2.361   2.457  16.320 -2.9042  2.0064 -3.5993
 5783SOL     OW28810   4.485   2.554   9.332  0.3513  0.3879  0.1537
 5783SOL    HW128811   4.519   2.614   9.398  0.3721  0.5619 -0.0174
 5783SOL    HW228812   4.417   2.603   9.287  1.3562 -2.0761 -4.1209
 5784SOL     OW28813   3.939   2.970   4.695 -0.5345  0.0449 -0.3538
 5784SOL    HW128814   3.928   2.988   4.602 -2.0783  2.0363  0.2031
 5784SOL    HW228815   4.029   3.002   4.702  0.1243 -1.4419 -2.3770
 5785SOL     OW28816   0.222   2.350  11.552 -0.5218 -0.4410 -0.3038
 5785SOL    HW128817   0.250   2.390  11.470  1.7593 -0.6212  0.3942
 5785SOL    HW228818   0.209   2.426  11.610  2.7214 -1.2882  1.5190
 5786SOL     OW28819   4.494   3.918   8.322 -0.1551  0.1630 -0.0658
 5786SOL    HW128820   4.541   3.988   8.368  0.3647  0.8923 -1.7264
 5786SOL    HW228821   4.495   3.853   8.393  0.0470  0.1051 -0.1247
 5787SOL     OW28822   4.113   1.104   9.801  0.0548  0.5833 -0.2874
 5787SOL    HW128823   4.103   1.027   9.745  0.7770  1.0623 -1.0717
 5787SOL    HW228824   4.022   1.134   9.804 -0.1312  0.1804 -1.6723
 5788SOL     OW28825   0.405   3.434  16.241 -0.3460 -0.3476  0.0254
 5788SOL    HW128826   0.391   3.452  16.148  3.3155 -1.8114 -0.8077
 5788SOL    HW228827   0.437   3.522  16.263 -1.2042  0.0796 -0.4428
 5789SOL     OW28828   4.131   4.439   3.548  0.1500 -0.0642  0.4024
 5789SOL    HW128829   4.051   4.388   3.556 -1.4426  2.1654 -1.1452
 5789SOL    HW228830   4.170   4.419   3.463  0.0332 -1.0364  0.5798
 5790SOL     OW28831   1.045   0.073   6.871 -0.5114 -0.5864  0.2645
 5790SOL    HW128832   1.117   0.136   6.864 -0.4028 -0.7572 -0.1441
 5790SOL    HW228833   0.994   0.067   6.790  1.0448  2.0190 -0.8962
 5791SOL     OW28834   3.300   4.194  15.455 -0.3274 -0.1207  0.1935
 5791SOL    HW128835   3.392   4.171  15.446 -0.8597 -2.2184  0.0259
 5791SOL    HW228836   3.301   4.282  15.417 -2.0356  0.3436  1.2320
 5792SOL     OW28837   3.051   4.338   9.443 -0.3844  0.3470 -0.3706
 5792SOL    HW128838   2.994   4.286   9.387 -0.1524 -3.2948  2.8445
 5792SOL    HW228839   3.137   4.321   9.404 -0.6642 -0.5118 -0.6145
 5793SOL     OW28840   0.712   1.640   5.372  0.8502  0.2736 -0.5126
 5793SOL    HW128841   0.698   1.605   5.284  1.6114 -0.3763 -0.3714
 5793SOL    HW228842   0.746   1.726   5.344 -0.7933  1.9969  2.7644
 5794SOL     OW28843   1.420   4.267  12.812 -0.0158 -0.4342  0.1764
 5794SOL    HW128844   1.495   4.317  12.779 -0.1664  0.5513  1.3400
 5794SOL    HW228845   1.468   4.185  12.806  0.0387 -0.4452  0.7348
 5795SOL     OW28846   1.837   1.902  15.109  0.7139 -0.2429  0.3546
 5795SOL    HW128847   1.925   1.876  15.082  1.2098  0.7377  1.0115
 5795SOL    HW228848   1.792   1.911  15.025  1.7395  1.0973 -0.0648
 5796SOL     OW28849   3.774   3.222   3.445  0.2457  0.0227  0.3314
 5796SOL    HW128850   3.722   3.142   3.448 -0.2577  0.3288 -0.4045
 5796SOL    HW228851   3.738   3.270   3.371 -0.4998 -0.2175  0.5363
 5797SOL     OW28852   0.355   2.119   6.621  0.0822 -0.4989  0.9318
 5797SOL    HW128853   0.373   2.211   6.601  0.2080 -0.5554  0.7825
 5797SOL    HW228854   0.415   2.080   6.557 -0.5891  1.6201 -1.0084
 5798SOL     OW28855   1.807   3.181   7.344  0.1385 -0.2191 -0.2980
 5798SOL    HW128856   1.719   3.182   7.381 -0.3524 -1.0940 -1.4581
 5798SOL    HW228857   1.847   3.109   7.394  2.4803  0.5914 -0.9788
 5799SOL     OW28858   0.363   3.776   8.075 -0.0056 -0.0772 -0.0623
 5799SOL    HW128859   0.408   3.803   8.155 -1.0746 -2.2371  1.2729
 5799SOL    HW228860   0.270   3.791   8.089  0.1315  0.0862  0.6724
 5800SOL     OW28861   3.377   2.910   5.954 -0.2206  1.0214 -0.2884
 5800SOL    HW128862   3.414   2.855   6.023  0.6459  2.0738  0.0824
 5800SOL    HW228863   3.437   2.885   5.884  0.5111  1.1619  0.2940
 5801SOL     OW28864   3.534   1.797  17.529 -0.0287 -0.2802  0.1417
 5801SOL    HW128865   3.554   1.829  17.441 -0.1398 -0.1310  0.1705
 5801SOL    HW228866   3.475   1.725  17.506  0.4978  0.3453 -3.2125
 5802SOL     OW28867   0.154   0.811   7.719 -0.0491 -0.0543 -0.1067
 5802SOL    HW128868   0.213   0.756   7.667 -0.1159  0.1506 -0.4024
 5802SOL    HW228869   0.211   0.837   7.792 -1.3373 -0.3001  0.9754
 5803SOL     OW28870   0.500   3.601   8.382 -0.7066  0.1491  0.1140
 5803SOL    HW128871   0.539   3.550   8.452  1.4436 -0.3537 -1.4511
 5803SOL    HW228872   0.406   3.586   8.390 -0.6870  0.3805  0.8098
 5804SOL     OW28873   2.693   4.029   2.769 -0.4827 -0.3538  0.3491
 5804SOL    HW128874   2.597   4.025   2.778 -0.0441 -1.8611  4.1061
 5804SOL    HW228875   2.690   4.043   2.674 -0.3992 -2.3898  0.0436
 5805SOL     OW28876   4.444   0.579   7.409  0.0452 -0.2721 -0.3770
 5805SOL    HW128877   4.530   0.541   7.423  1.0627  1.4387 -1.8774
 5805SOL    HW228878   4.422   0.630   7.487  0.1582 -1.5274  0.4584
 5806SOL     OW28879   2.083   3.430   4.460 -0.2352 -0.3359  0.5818
 5806SOL    HW128880   2.135   3.375   4.402 -1.1548 -0.3591 -0.2228
 5806SOL    HW228881   2.124   3.407   4.544  0.5700  0.2648  0.3545
 5807SOL     OW28882   2.646   0.009   5.717  0.2321  0.4504 -0.2577
 5807SOL    HW128883   2.635   0.076   5.649 -3.9605  0.3888  0.3568
 5807SOL    HW228884   2.667   4.655   5.667 -0.8671  0.9920 -1.5706
 5808SOL     OW28885   1.977   3.026   0.881  0.0589 -0.3065 -0.0901
 5808SOL    HW128886   1.946   3.106   0.839  1.8780  0.2117 -0.4591
 5808SOL    HW228887   1.982   2.971   0.803 -1.2971 -1.7707  0.8653
 5809SOL     OW28888   4.301   3.676   9.321  0.0594  0.7339  0.1269
 5809SOL    HW128889   4.310   3.600   9.262  1.7176  0.9671  0.0710
 5809SOL    HW228890   4.395   3.688   9.334 -0.3677  0.6169  3.1983
 5810SOL     OW28891   3.378   2.676   1.009  0.3017 -0.2213 -0.2761
 5810SOL    HW128892   3.413   2.746   0.954 -0.3053  0.0632 -0.2983
 5810SOL    HW228893   3.298   2.660   0.959  0.4498  0.1689 -0.6376
 5811SOL     OW28894   2.944   3.186   8.303 -0.1521 -0.3897 -0.9066
 5811SOL    HW128895   2.885   3.117   8.273  0.9751 -2.6232  2.1135
 5811SOL    HW228896   3.021   3.157   8.255  0.1614 -1.5083  0.3154
 5812SOL     OW28897   2.952   0.511   2.533 -0.0962 -0.1449 -0.3579
 5812SOL    HW128898   2.977   0.530   2.443 -0.3888  1.6234 -0.0586
 5812SOL    HW228899   2.934   0.418   2.520 -0.7174 -0.3217  1.6886
 5813SOL     OW28900   4.081   0.962   9.149 -0.2903  0.3841 -0.0713
 5813SOL    HW128901   4.024   0.907   9.095 -2.3295  0.9579  1.5473
 5813SOL    HW228902   4.069   0.922   9.235 -0.2429 -1.1345 -0.7673
 5814SOL     OW28903   4.154   2.367   6.094  0.0651  0.9378  0.1365
 5814SOL    HW128904   4.241   2.328   6.093  0.1786  1.2232 -1.1839
 5814SOL    HW228905   4.129   2.350   6.003 -2.1692 -1.8307  1.2619
 5815SOL     OW28906   0.054   0.946   1.496  0.1033 -0.9746  0.2405
 5815SOL    HW128907   0.106   1.001   1.437 -1.9983  0.5344 -0.2079
 5815SOL    HW228908   0.114   0.939   1.570  0.9623  1.3322 -0.2626
 5816SOL     OW28909   3.061   1.219  11.087 -0.1935 -0.3749  0.7665
 5816SOL    HW128910   2.992   1.197  11.150  0.3008 -1.2499  1.0100
 5816SOL    HW228911   3.007   1.267  11.024  1.5074  0.0477 -0.3615
 5817SOL     OW28912   2.847   0.383  15.145 -0.1116 -0.2619  0.1283
 5817SOL    HW128913   2.827   0.326  15.219  0.5405 -1.7411 -0.8378
 5817SOL    HW228914   2.862   0.463  15.194  0.1274 -0.2761  0.0780
 5818SOL     OW28915   3.917   2.947   4.186  0.4504 -0.2258  0.4778
 5818SOL    HW128916   3.833   2.904   4.175  0.0536  0.3365  1.3439
 5818SOL    HW228917   3.933   2.939   4.092  0.7721  0.7610  0.4420
 5819SOL     OW28918   3.269   0.532   2.874  0.3258  0.0767 -0.0689
 5819SOL    HW128919   3.297   0.615   2.914 -2.1217 -0.2174  2.2593
 5819SOL    HW228920   3.285   0.463   2.939 -0.3587 -0.7636 -0.7984
 5820SOL     OW28921   2.202   2.964   8.881  0.4962  0.5051 -0.0182
 5820SOL    HW128922   2.228   2.996   8.968  3.1406  0.5495 -0.8524
 5820SOL    HW228923   2.141   3.030   8.849  0.3374  0.5113  0.2896
 5821SOL     OW28924   1.404   2.759  13.492  0.4643 -0.0405 -0.5448
 5821SOL    HW128925   1.350   2.786  13.566 -1.9492  0.2029 -2.3957
 5821SOL    HW228926   1.343   2.752  13.418  2.0725 -0.0817 -1.8682
 5822SOL     OW28927   1.354   4.005   5.897 -0.7470 -0.2690 -0.2664
 5822SOL    HW128928   1.380   4.049   5.977  0.8457 -1.5355 -0.0818
 5822SOL    HW228929   1.342   3.913   5.922  0.6271 -0.3802  0.0002
 5823SOL     OW28930   2.032   1.510   0.955 -0.1489 -0.0653 -0.3475
 5823SOL    HW128931   2.020   1.602   0.978 -1.5933 -0.0487 -1.1761
 5823SOL    HW228932   2.010   1.470   1.040  1.7267 -3.2630 -1.3739
 5824SOL     OW28933   0.888   0.981   4.266 -0.1321  0.6261  0.4253
 5824SOL    HW128934   0.822   0.915   4.243  0.4127 -0.0402  0.7443
 5824SOL    HW228935   0.870   0.973   4.359 -0.3470 -1.8003  0.2038
 5825SOL     OW28936   3.046   3.340   4.949  0.0371  0.3207  0.3435
 5825SOL    HW128937   3.081   3.252   4.937 -0.1966  0.4306 -1.1433
 5825SOL    HW228938   2.983   3.328   5.019 -0.6700  0.1614 -0.3233
 5826SOL     OW28939   2.285   0.587   8.314  0.9104  0.3860  0.1846
 5826SOL    HW128940   2.267   0.504   8.357  0.0076  0.9242  0.8564
 5826SOL    HW228941   2.249   0.652   8.374  1.5099 -0.7841  1.8030
 5827SOL     OW28942   0.869   0.345   9.854 -0.4088  0.3373 -0.0674
 5827SOL    HW128943   0.923   0.414   9.816 -2.9529  0.5869 -3.1990
 5827SOL    HW228944   0.906   0.269   9.809  0.4716  0.6421  0.1426
 5828SOL     OW28945   3.944   3.880   0.888 -0.0412 -0.2556 -0.1275
 5828SOL    HW128946   3.864   3.849   0.845 -0.9508 -1.5428  2.4849
 5828SOL    HW228947   3.980   3.797   0.920  1.5477 -0.8298 -3.4769
 5829SOL     OW28948   1.462   0.120  13.790 -0.0974  0.3224  0.2180
 5829SOL    HW128949   1.441   0.153  13.703 -0.2451  0.8243  0.4464
 5829SOL    HW228950   1.549   0.153  13.814  0.9097 -2.2308  0.0894
 5830SOL     OW28951   4.346   1.639   2.267 -0.2037  0.8137 -0.1551
 5830SOL    HW128952   4.256   1.663   2.290 -0.8945 -0.7956 -1.2033
 5830SOL    HW228953   4.381   1.604   2.349  1.4253  0.5861 -0.9532
 5831SOL     OW28954   4.142   1.232   3.923 -0.0121 -0.3932 -0.4799
 5831SOL    HW128955   4.089   1.279   3.988  0.7411  1.2273 -1.0179
 5831SOL    HW228956   4.112   1.281   3.846  0.6628 -2.9642 -2.3653
 5832SOL     OW28957   1.938   1.542  11.445 -0.1944 -0.3233 -0.2038
 5832SOL    HW128958   1.954   1.465  11.391  2.4193  0.4623 -0.5620
 5832SOL    HW228959   1.926   1.511  11.535 -2.5310  2.3416  0.3860
 5833SOL     OW28960   1.481   2.212   2.952 -0.4511  0.0666  0.6258
 5833SOL    HW128961   1.472   2.119   2.932 -0.8289  0.2592 -0.0941
 5833SOL    HW228962   1.550   2.227   2.887 -0.3086 -2.5136  0.2138
 5834SOL     OW28963   2.630   1.946   3.283 -0.5669  0.2078 -0.5957
 5834SOL    HW128964   2.594   1.929   3.196 -1.7433  3.9063 -0.8265
 5834SOL    HW228965   2.551   1.952   3.336 -0.4935  2.8175 -0.7803
 5835SOL     OW28966   4.173   1.452   0.484  0.1292 -0.3235 -0.4382
 5835SOL    HW128967   4.180   1.422   0.393 -0.8247 -2.4560  0.1959
 5835SOL    HW228968   4.178   1.368   0.530  0.3037 -0.4995 -0.7774
 5836SOL     OW28969   4.463   1.568  17.594  0.5502  0.1143  0.3166
 5836SOL    HW128970   4.396   1.581  17.661 -0.6752  2.2701 -1.3493
 5836SOL    HW228971   4.436   1.478  17.573  1.2029 -0.7108  2.9987
 5837SOL     OW28972   2.744   0.296   5.617  0.1741 -0.4028 -0.1748
 5837SOL    HW128973   2.747   0.352   5.539  1.3091 -0.1522  0.0538
 5837SOL    HW228974   2.651   0.273   5.609  0.5993 -2.0662 -0.2519
 5838SOL     OW28975   3.365   2.611   8.208 -0.4011  0.1222  0.2885
 5838SOL    HW128976   3.310   2.533   8.207 -1.3651  0.7889  0.8624
 5838SOL    HW228977   3.445   2.578   8.249 -0.2274 -1.5856 -1.4398
 5839SOL     OW28978   3.954   4.417   6.654 -0.2671 -0.0599  0.2741
 5839SOL    HW128979   3.986   4.379   6.572 -1.6818  0.9933 -0.7770
 5839SOL    HW228980   4.022   4.484   6.661 -1.1054  0.8637 -0.3598
 5840SOL     OW28981   1.420   2.412  17.329 -0.2812  0.2317 -0.2523
 5840SOL    HW128982   1.335   2.405  17.285  0.1572 -4.2515 -0.4197
 5840SOL    HW228983   1.399   2.474  17.399  1.4197  0.5611 -0.0432
 5841SOL     OW28984   0.764   0.710   8.671  0.0468 -0.0129 -0.0611
 5841SOL    HW128985   0.709   0.721   8.593 -1.2397 -0.6456  0.7676
 5841SOL    HW228986   0.705   0.688   8.743 -0.0568  1.3119  0.2559
 5842SOL     OW28987   4.622   0.928  11.729  0.0555  0.3660  0.0551
 5842SOL    HW128988   4.645   0.868  11.800  1.4499  0.4286 -0.3455
 5842SOL    HW228989   4.623   1.013  11.774 -0.9153 -0.0898  0.9308
 5843SOL     OW28990   3.751   3.472   3.536  0.4519 -0.6441 -0.2673
 5843SOL    HW128991   3.710   3.465   3.622 -1.1277  2.0916 -0.7951
 5843SOL    HW228992   3.764   3.381   3.508  0.1430 -1.2851  1.7288
 5844SOL     OW28993   2.689   1.553   7.043 -0.1999 -0.1925 -0.0088
 5844SOL    HW128994   2.704   1.586   7.132 -0.5677 -1.1718  0.4147
 5844SOL    HW228995   2.624   1.619   7.019 -1.9691 -2.1850 -0.7381
 5845SOL     OW28996   4.228   0.940   6.302 -0.3923 -0.1412  0.3113
 5845SOL    HW128997   4.206   1.030   6.282  1.5649 -0.0453 -1.4478
 5845SOL    HW228998   4.320   0.933   6.277 -0.0609  3.5384  0.5429
 5846SOL     OW28999   1.155   2.285   5.939 -0.0109 -1.0193 -0.2394
 5846SOL    HW129000   1.071   2.298   5.895 -1.1938  0.4618  2.4570
 5846SOL    HW229001   1.197   2.225   5.878  1.9867 -0.5820  0.7330
 5847SOL     OW29002   2.748   3.074   4.346 -0.0581 -0.5351  0.5676
 5847SOL    HW129003   2.839   3.083   4.375 -0.0056 -1.2649  0.6307
 5847SOL    HW229004   2.757   3.094   4.253 -0.9181  1.1551  0.8464
 5848SOL     OW29005   0.068   1.775   3.528 -0.1434 -0.1754 -0.4458
 5848SOL    HW129006   4.723   1.726   3.573  0.2347  0.7616  1.1814
 5848SOL    HW229007   0.144   1.725   3.557 -0.4090 -0.0450  0.4701
 5849SOL     OW29008   2.355   3.086  16.377  0.1976 -0.2789  0.1314
 5849SOL    HW129009   2.418   3.151  16.407 -1.8752  1.8220 -0.0972
 5849SOL    HW229010   2.414   3.012  16.391 -0.4711 -0.5194  1.7346
 5850SOL     OW29011   4.206   2.314   0.179 -0.0282  0.8321 -0.2352
 5850SOL    HW129012   4.278   2.377   0.189 -0.8403  1.6860  0.1586
 5850SOL    HW229013   4.205   2.301   0.084 -1.2709  0.3041 -0.1444
 5851SOL     OW29014   2.298   3.519   4.612  0.1698  0.3776 -0.0584
 5851SOL    HW129015   2.291   3.600   4.562 -2.5665 -0.1881 -0.5730
 5851SOL    HW229016   2.295   3.548   4.703 -0.3019 -2.3957  0.8154
 5852SOL     OW29017   1.651   1.331  11.594  0.3119  0.2756 -0.2483
 5852SOL    HW129018   1.666   1.384  11.672  1.6445  0.2313 -0.4698
 5852SOL    HW229019   1.569   1.369  11.562 -0.4386  0.0123  1.3801
 5853SOL     OW29020   1.421   0.855   6.153 -0.8163  0.3512 -0.1511
 5853SOL    HW129021   1.478   0.798   6.203 -1.6760 -0.6268 -0.2790
 5853SOL    HW229022   1.333   0.822   6.174 -0.6980 -0.1182 -0.4064
 5854SOL     OW29023   0.360   1.905  10.027  0.1023  0.5149 -0.2878
 5854SOL    HW129024   0.306   1.898  10.106 -0.4751 -3.1506 -1.0313
 5854SOL    HW229025   0.324   1.984   9.986  0.8478  1.2555  0.4870
 5855SOL     OW29026   2.982   3.520   4.710  0.5091 -0.1068  0.5917
 5855SOL    HW129027   3.006   3.480   4.794 -0.6822  0.4166  1.1810
 5855SOL    HW229028   3.038   3.467   4.653 -0.0920  1.3525 -1.3357
 5856SOL     OW29029   0.582   0.872  10.123 -0.1745 -0.1379  0.2518
 5856SOL    HW129030   0.631   0.806  10.074 -0.0758 -0.4233  0.7332
 5856SOL    HW229031   0.548   0.813  10.190 -2.7767  1.3124  0.1949
 5857SOL     OW29032   3.848   2.077   8.616  0.0743 -0.4035  0.2572
 5857SOL    HW129033   3.926   2.037   8.657  1.8364  2.9253  0.1221
 5857SOL    HW229034   3.883   2.135   8.549 -0.4057 -0.4218 -0.0096
 5858SOL     OW29035   0.260   4.033  16.698 -0.9453  0.4795  0.7858
 5858SOL    HW129036   0.174   4.001  16.725 -0.7016 -0.0320  0.9478
 5858SOL    HW229037   0.288   3.958  16.646 -1.4428  1.2678 -0.6046
 5859SOL     OW29038   0.845   4.590   9.621  0.3604 -0.0465 -0.2941
 5859SOL    HW129039   0.761   4.600   9.575  0.3751  1.0877 -0.0613
 5859SOL    HW229040   0.882   4.526   9.560  0.5828 -0.0908 -0.1123
 5860SOL     OW29041   1.947   2.105   4.978  0.4484  0.6321 -0.2166
 5860SOL    HW129042   1.853   2.087   4.980  0.4520  1.2742  4.3832
 5860SOL    HW229043   1.940   2.179   4.918  1.0648 -0.1055 -1.2116
 5861SOL     OW29044   0.869   1.309   5.271  0.3399 -0.7449  0.2809
 5861SOL    HW129045   0.782   1.309   5.311 -0.4684 -1.4848 -1.4454
 5861SOL    HW229046   0.906   1.392   5.300 -1.3987  0.1280  0.0511
 5862SOL     OW29047   3.659   3.463   5.271  0.2494 -0.2936  0.6843
 5862SOL    HW129048   3.744   3.498   5.300  0.1926 -1.2443  1.9794
 5862SOL    HW229049   3.686   3.419   5.190  0.3020  0.6370  0.1979
 5863SOL     OW29050   2.452   3.888   5.681 -0.6618  0.0500 -0.1809
 5863SOL    HW129051   2.430   3.846   5.765 -0.8770 -0.2017 -0.3617
 5863SOL    HW229052   2.366   3.899   5.641 -0.0322 -0.7448 -1.7456
 5864SOL     OW29053   4.528   0.510   1.336 -0.1765 -0.2823 -0.1696
 5864SOL    HW129054   4.553   0.432   1.386 -0.9843 -0.6262 -0.3077
 5864SOL    HW229055   4.439   0.523   1.370  0.4391 -1.6899  1.9913
 5865SOL     OW29056   3.143   0.105   9.267  0.6278  0.3330  0.3298
 5865SOL    HW129057   3.172   0.177   9.211  0.7346  0.0560  0.0284
 5865SOL    HW229058   3.104   0.055   9.195  2.8710 -1.3728  0.3036
 5866SOL     OW29059   4.165   2.176   0.398 -0.1208 -0.2833 -0.2584
 5866SOL    HW129060   4.084   2.131   0.375  0.4140 -0.8262 -1.0553
 5866SOL    HW229061   4.172   2.242   0.329  1.1101  2.1196  2.1673
 5867SOL     OW29062   0.357   4.599   8.989 -0.4636 -0.2373  0.0525
 5867SOL    HW129063   0.370   4.512   8.952  1.2579  0.4287 -0.9117
 5867SOL    HW229064   0.346   4.656   8.913 -0.6529  0.0991  0.3303
 5868SOL     OW29065   4.662   2.741   3.505  0.3271 -0.4284 -0.7781
 5868SOL    HW129066   4.675   2.836   3.497 -0.3727 -0.1150  1.7405
 5868SOL    HW229067   0.017   2.696   3.477  0.1883  0.1221 -2.0547
 5869SOL     OW29068   2.174   0.995   5.596  0.6193  0.5481  0.0347
 5869SOL    HW129069   2.080   0.993   5.616  0.5962  3.0988  0.1325
 5869SOL    HW229070   2.214   1.029   5.676 -0.1092  0.0804  0.6057
 5870SOL     OW29071   0.499   0.206  14.819 -0.5772 -0.1344 -0.8249
 5870SOL    HW129072   0.421   0.183  14.770 -0.6295 -1.3933 -0.1542
 5870SOL    HW229073   0.519   0.126  14.868  1.0491  0.8238  0.1106
 5871SOL     OW29074   1.610   4.069  12.795  0.4022 -0.5333  0.4862
 5871SOL    HW129075   1.675   4.138  12.783 -0.0769  0.3536  2.8370
 5871SOL    HW229076   1.662   4.002  12.751 -0.7887 -1.2379  0.1557
 5872SOL     OW29077   1.352   1.671   7.021 -0.2314  0.0838  0.5728
 5872SOL    HW129078   1.310   1.612   6.958  2.0903  1.6545 -2.4428
 5872SOL    HW229079   1.423   1.627   7.068  0.2728  0.1445 -0.1400
 5873SOL     OW29080   4.023   3.583   8.759  0.0862 -0.2939  0.1709
 5873SOL    HW129081   3.946   3.527   8.769  0.3959 -0.8528 -0.5910
 5873SOL    HW229082   4.085   3.544   8.821  1.0685  0.6103 -0.2276
 5874SOL     OW29083   1.928   0.626  13.152 -0.3400 -0.4533 -0.4726
 5874SOL    HW129084   1.856   0.587  13.104 -0.8548  0.9098 -0.7969
 5874SOL    HW229085   1.959   0.550  13.202 -0.3818  0.8827  1.5735
 5875SOL     OW29086   2.291   1.545   7.841  0.1388 -0.4715  0.1126
 5875SOL    HW129087   2.210   1.518   7.884  1.0082 -1.1695  1.3107
 5875SOL    HW229088   2.333   1.574   7.922 -1.9323 -1.7559  1.6362
 5876SOL     OW29089   3.182   3.124  15.071  0.1663  0.3176  0.3589
 5876SOL    HW129090   3.201   3.192  15.006  2.0286  0.2219  0.7975
 5876SOL    HW229091   3.246   3.065  15.029 -1.4695 -1.5671  0.5171
 5877SOL     OW29092   4.042   2.603   5.372 -0.0926  0.1114 -0.2721
 5877SOL    HW129093   3.951   2.619   5.345  0.3544  2.6861 -0.2310
 5877SOL    HW229094   4.094   2.668   5.326  1.1531  0.7221  2.0114
 5878SOL     OW29095   0.716   2.101   7.448  0.4269  0.4395 -0.0019
 5878SOL    HW129096   0.742   2.017   7.484 -0.3853 -0.7238 -2.0775
 5878SOL    HW229097   0.747   2.091   7.358 -0.1092 -0.7717 -0.0583
 5879SOL     OW29098   2.535   3.609   6.227 -0.9600  0.0656  0.2621
 5879SOL    HW129099   2.579   3.645   6.150 -0.3413 -1.5436 -0.1528
 5879SOL    HW229100   2.455   3.566   6.197 -2.0280  0.1169  3.0261
 5880SOL     OW29101   0.865   1.055   6.314  0.0424 -0.4806  0.4301
 5880SOL    HW129102   0.815   0.987   6.269 -1.4723  2.1840 -1.9200
 5880SOL    HW229103   0.815   1.069   6.395 -2.0053  1.2341 -1.1156
 5881SOL     OW29104   0.148   1.881   7.134 -0.4776  0.5506 -0.0632
 5881SOL    HW129105   0.197   1.953   7.093  0.9060 -0.1831  0.3181
 5881SOL    HW229106   0.066   1.885   7.084 -0.2848  0.4742 -0.3806
 5882SOL     OW29107   4.556   4.716   4.520  0.0444 -0.0919 -0.1370
 5882SOL    HW129108   4.495   4.649   4.491  1.9089 -1.9096  0.1687
 5882SOL    HW229109   4.628   4.720   4.456 -0.0043 -3.6173 -0.3974
 5883SOL     OW29110   1.117   0.348   1.514  0.0611  0.1005  0.8273
 5883SOL    HW129111   1.159   0.340   1.600  1.2150 -1.1845  0.1360
 5883SOL    HW229112   1.114   0.442   1.500 -0.6447  0.2069  1.6873
 5884SOL     OW29113   3.099   4.002   5.654 -0.4025  0.3375 -0.0534
 5884SOL    HW129114   3.081   3.917   5.613 -2.5173 -0.0403  1.6773
 5884SOL    HW229115   3.177   4.028   5.605 -1.2906  1.8112 -0.6849
 5885SOL     OW29116   1.838   1.022   2.587 -0.3199 -0.6111 -0.1687
 5885SOL    HW129117   1.860   0.943   2.538 -0.7150 -0.7143 -0.1804
 5885SOL    HW229118   1.763   1.056   2.539  0.2367 -1.7355 -1.8545
 5886SOL     OW29119   4.593   1.301   7.763  0.5135  0.3185 -0.3910
 5886SOL    HW129120   4.560   1.371   7.820 -2.8329 -0.5933 -1.1984
 5886SOL    HW229121   4.646   1.254   7.827  1.5738  1.9959 -0.0442
 5887SOL     OW29122   2.334   1.769   3.368 -0.6394 -0.4262 -0.0852
 5887SOL    HW129123   2.243   1.791   3.349 -1.6074 -3.3974  1.1015
 5887SOL    HW229124   2.359   1.824   3.443  1.3953  1.2220 -1.9623
 5888SOL     OW29125   0.730   4.373   8.692 -0.9224 -0.1317 -0.1606
 5888SOL    HW129126   0.815   4.415   8.675 -1.4106  0.8082 -0.2580
 5888SOL    HW229127   0.720   4.339   8.603 -0.1493 -1.6670  0.3311
 5889SOL     OW29128   0.012   3.412   8.808  0.4695  0.1441 -0.0230
 5889SOL    HW129129   0.065   3.489   8.831  0.6884  0.6257 -2.1219
 5889SOL    HW229130   0.060   3.340   8.847 -1.2334 -1.1912 -0.3706
 5890SOL     OW29131   2.420   0.423  16.035 -0.2922  0.4127  0.2995
 5890SOL    HW129132   2.516   0.420  16.043 -0.2712  0.6243  0.1077
 5890SOL    HW229133   2.397   0.330  16.043  1.4782 -0.0778 -0.1818
 5891SOL     OW29134   0.826   0.206   3.176 -0.3310 -0.1242  0.4921
 5891SOL    HW129135   0.897   0.254   3.133 -0.7674  0.4007  0.3511
 5891SOL    HW229136   0.781   0.168   3.101 -3.4873  0.5960  2.0128
 5892SOL     OW29137   1.381   0.643   4.991  0.6929  0.3920 -0.1230
 5892SOL    HW129138   1.394   0.712   4.926  0.1834 -0.5856 -1.2736
 5892SOL    HW229139   1.455   0.586   4.975 -0.3343 -1.0831  0.3872
 5893SOL     OW29140   3.378   4.530  11.570  0.1970  0.3282 -0.5530
 5893SOL    HW129141   3.417   4.474  11.637  0.8003  2.5444  0.9234
 5893SOL    HW229142   3.429   4.610  11.579 -1.3078  1.4165 -1.6922
 5894SOL     OW29143   2.950   2.250   4.943  0.1593 -0.9798  0.2107
 5894SOL    HW129144   2.941   2.211   4.857 -0.1826 -0.9230  0.2197
 5894SOL    HW229145   2.957   2.344   4.926  0.0007 -1.4200 -2.1683
 5895SOL     OW29146   1.972   1.577   4.544 -0.4156  0.3333 -0.1645
 5895SOL    HW129147   1.982   1.655   4.600  0.3802  0.8316 -1.0012
 5895SOL    HW229148   1.878   1.572   4.529 -0.2164 -2.2278 -0.4484
 5896SOL     OW29149   0.190   4.522   7.080  0.5762 -0.0048 -0.2491
 5896SOL    HW129150   0.097   4.519   7.100  0.5069 -1.2697 -0.7597
 5896SOL    HW229151   0.214   4.435   7.049  2.3251  0.8045 -1.1873
 5897SOL     OW29152   3.437   0.901   7.751  0.5191  0.1769 -0.3483
 5897SOL    HW129153   3.396   0.868   7.671  1.4504 -0.9811 -0.3428
 5897SOL    HW229154   3.469   0.986   7.722 -1.5013  0.5288 -1.5876
 5898SOL     OW29155   3.677   1.910   0.963 -0.3095 -0.0576  0.0536
 5898SOL    HW129156   3.698   1.842   1.027  2.5389  0.9066  0.1392
 5898SOL    HW229157   3.754   1.903   0.908  0.3892  0.1264  1.0042
 5899SOL     OW29158   4.031   2.453   7.217  0.2630  0.0322  0.3627
 5899SOL    HW129159   3.971   2.517   7.177  1.6729  0.7290 -0.6117
 5899SOL    HW229160   4.117   2.488   7.195 -0.1883 -0.9940 -3.0978
 5900SOL     OW29161   3.184   2.196   5.097 -0.6166  0.0655  0.0822
 5900SOL    HW129162   3.232   2.278   5.105 -2.8675  1.6741 -2.8468
 5900SOL    HW229163   3.121   2.208   5.026 -0.7772 -0.2782  0.1687
 5901SOL     OW29164   1.629   1.154  16.580 -0.3572  0.2264  0.0549
 5901SOL    HW129165   1.544   1.198  16.575 -0.7887 -0.5180  0.8116
 5901SOL    HW229166   1.686   1.222  16.544  0.1335 -0.1999  0.0153
 5902SOL     OW29167   0.080   2.771   4.044 -0.5761  0.3625  0.5198
 5902SOL    HW129168   0.047   2.829   3.976  0.3747  0.7535  0.3925
 5902SOL    HW229169   0.057   2.689   3.999  0.3525  0.8230 -0.8168
 5903SOL     OW29170   4.186   3.599   5.773  0.4180 -0.2075 -0.1355
 5903SOL    HW129171   4.232   3.682   5.780  1.6976 -0.8058 -1.5681
 5903SOL    HW229172   4.162   3.592   5.866  0.9744 -0.1180  0.0150
 5904SOL     OW29173   1.322   4.705   2.273 -0.1214 -0.3575  0.6994
 5904SOL    HW129174   1.406   4.662   2.262  0.1928  0.5442 -0.3646
 5904SOL    HW229175   1.361   0.050   2.327  2.2064 -2.1297  1.2454
 5905SOL     OW29176   3.765   0.382  13.917  0.6300  0.0206  0.0970
 5905SOL    HW129177   3.788   0.474  13.925 -4.0703  1.2074  0.0761
 5905SOL    HW229178   3.737   0.359  14.006  2.2733 -0.8883  0.3811
 5906SOL     OW29179   4.642   0.350  10.802 -0.4334 -0.1317 -0.3321
 5906SOL    HW129180   4.639   0.437  10.841  1.1217  0.2520 -1.0816
 5906SOL    HW229181   4.654   0.370  10.709 -0.8489  2.5688  0.2010
 5907SOL     OW29182   0.279   4.207   6.566 -0.1785  0.2793  0.4422
 5907SOL    HW129183   0.227   4.151   6.623 -0.8028  0.5738  0.1599
 5907SOL    HW229184   0.233   4.291   6.557 -0.5859 -0.0709 -0.6739
 5908SOL     OW29185   4.073   4.245   7.961 -0.0512  0.0647  0.1734
 5908SOL    HW129186   4.038   4.239   8.050 -0.7189  3.8335  0.1593
 5908SOL    HW229187   4.024   4.307   7.908  0.9200 -0.2112 -1.0374
 5909SOL     OW29188   1.088   3.852   3.163 -0.7226 -0.3699  0.1311
 5909SOL    HW129189   1.082   3.888   3.075 -2.5103 -0.0502  0.3924
 5909SOL    HW229190   0.995   3.844   3.183 -0.5732 -0.5827  0.7276
 5910SOL     OW29191   3.318   2.172   4.729  0.2326 -0.6254 -0.2638
 5910SOL    HW129192   3.359   2.186   4.644  0.6699  0.0065  0.0541
 5910SOL    HW229193   3.247   2.237   4.733  0.4277 -0.4928  1.1924
 5911SOL     OW29194   3.908   4.154   5.754  0.1196  0.2239  0.0015
 5911SOL    HW129195   3.852   4.230   5.746  2.4389  1.9657  0.1932
 5911SOL    HW229196   3.965   4.191   5.822 -0.6450 -0.8047  1.1923
 5912SOL     OW29197   4.456   2.511   6.040 -0.4234  0.1383 -0.5660
 5912SOL    HW129198   4.548   2.496   6.016 -0.9099 -0.2395 -2.1763
 5912SOL    HW229199   4.447   2.593   5.991  1.4047 -0.5561 -2.0648
 5913SOL     OW29200   4.648   4.313  10.083  0.5556  0.3398  0.5479
 5913SOL    HW129201   4.566   4.292  10.127 -0.2413  2.5050  0.1078
 5913SOL    HW229202   4.674   4.222  10.068 -1.0263 -0.5649  3.3056
 5914SOL     OW29203   4.169   0.777  15.238  0.0497 -0.0330 -0.3000
 5914SOL    HW129204   4.226   0.809  15.307  0.7182  0.4359 -1.0699
 5914SOL    HW229205   4.121   0.708  15.282 -1.0757  1.2107  0.4351
 5915SOL     OW29206   3.069   1.872   3.156  0.1086  0.3689 -0.7497
 5915SOL    HW129207   3.118   1.887   3.075 -0.1050  1.0982 -0.7461
 5915SOL    HW229208   3.003   1.810   3.124 -3.8007  4.3101 -0.4404
 5916SOL     OW29209   4.619   1.651   4.354  0.0262 -0.0055  0.0107
 5916SOL    HW129210   4.590   1.741   4.343  0.8018  0.2603  0.1689
 5916SOL    HW229211   4.662   1.660   4.439  1.3916 -0.1976 -0.6554
 5917SOL     OW29212   2.220   3.684   4.832  0.1270 -0.4758 -0.1759
 5917SOL    HW129213   2.163   3.721   4.899 -1.2483 -0.0701 -1.5872
 5917SOL    HW229214   2.254   3.767   4.797 -1.3401  0.2284  0.0960
 5918SOL     OW29215   4.331   0.488   7.169  0.1205 -0.3226  0.2702
 5918SOL    HW129216   4.381   0.531   7.239 -2.6651  1.5097  1.1105
 5918SOL    HW229217   4.251   0.470   7.219  0.3027 -0.1628  0.6224
 5919SOL     OW29218   2.704   2.004   6.676 -0.3720 -0.4864 -0.2318
 5919SOL    HW129219   2.754   2.001   6.594 -0.1039  1.1628 -0.1308
 5919SOL    HW229220   2.644   2.073   6.647  0.9865  0.3080 -1.1785
 5920SOL     OW29221   3.070   1.157  16.896 -0.6379  0.1703 -0.0560
 5920SOL    HW129222   3.147   1.162  16.953 -0.2636  1.8964 -0.7114
 5920SOL    HW229223   3.007   1.202  16.952  0.7934  0.0219  1.6418
 5921SOL     OW29224   4.562   3.860   4.308 -0.2766  0.6433 -0.5683
 5921SOL    HW129225   4.628   3.812   4.358 -2.2092 -0.2858  1.0891
 5921SOL    HW229226   4.485   3.804   4.311 -0.0031  0.3842  1.6295
 5922SOL     OW29227   1.012   3.747   3.423  0.4157  0.2719 -0.5086
 5922SOL    HW129228   1.090   3.785   3.383 -1.0344  0.6943 -2.8832
 5922SOL    HW229229   0.991   3.821   3.481  0.0877 -0.2903  0.1009
 5923SOL     OW29230   1.071   2.552   1.983 -0.1986  0.5845  0.3004
 5923SOL    HW129231   1.019   2.614   2.034 -2.2681 -0.9558  0.0443
 5923SOL    HW229232   1.017   2.557   1.904 -2.8429  1.7714  2.2129
 5924SOL     OW29233   2.828   0.952   5.624 -0.1329  0.2608  0.5202
 5924SOL    HW129234   2.777   0.993   5.555  0.3053 -3.3129 -1.9135
 5924SOL    HW229235   2.780   0.871   5.644 -0.5374  0.2472 -0.5161
 5925SOL     OW29236   4.357   1.128   4.117 -0.1461 -0.3961 -0.1844
 5925SOL    HW129237   4.319   1.147   4.031 -2.9958  0.9589  1.3455
 5925SOL    HW229238   4.276   1.111   4.165 -0.3785 -1.0212 -0.7983
 5926SOL     OW29239   2.679   3.469   1.235  0.6838  0.5887 -0.3083
 5926SOL    HW129240   2.595   3.450   1.194 -0.4833 -1.0933  2.9035
 5926SOL    HW229241   2.667   3.547   1.289  1.8381  1.5515 -1.4231
 5927SOL     OW29242   3.625   0.533   9.109  0.2088 -0.1561  0.2932
 5927SOL    HW129243   3.607   0.468   9.041  0.8171  2.8893 -2.7602
 5927SOL    HW229244   3.627   0.478   9.187  1.4650 -0.6628 -0.0941
 5928SOL     OW29245   3.114   1.452   4.073 -0.3911 -0.8182 -0.2087
 5928SOL    HW129246   3.171   1.397   4.126  0.1738 -0.7085 -0.6957
 5928SOL    HW229247   3.117   1.404   3.990  0.6171 -1.3558  0.1473
 5929SOL     OW29248   4.151   2.517   3.707  0.0799  0.8917 -0.6589
 5929SOL    HW129249   4.157   2.518   3.611  1.0241 -1.0818 -0.6211
 5929SOL    HW229250   4.180   2.607   3.723 -0.1366  0.7615  0.4436
 5930SOL     OW29251   4.358   2.317   3.443 -0.4016  0.5560  0.1432
 5930SOL    HW129252   4.313   2.398   3.420  1.5173  1.3684 -0.8293
 5930SOL    HW229253   4.327   2.261   3.373  1.4546  1.3887 -1.3632
 5931SOL     OW29254   1.170   0.591   8.514  0.3704 -0.4138  0.1276
 5931SOL    HW129255   1.122   0.643   8.448 -1.0368 -2.6238 -0.6030
 5931SOL    HW229256   1.105   0.590   8.584 -0.8268  1.1530 -0.9418
 5932SOL     OW29257   1.608   2.372  16.949 -0.4559  0.1727 -0.1522
 5932SOL    HW129258   1.657   2.408  16.875 -0.2032 -0.3727 -0.2506
 5932SOL    HW229259   1.647   2.288  16.974 -0.1374  0.2065 -0.5364
 5933SOL     OW29260   0.819   3.894   8.489  0.2687 -0.1765  0.2138
 5933SOL    HW129261   0.847   3.963   8.429  0.6256  0.0628  0.6547
 5933SOL    HW229262   0.837   3.814   8.439 -0.3031 -1.0405  1.3822
 5934SOL     OW29263   3.074   1.544   7.653 -0.0875  0.0120  0.0140
 5934SOL    HW129264   3.138   1.557   7.583  0.3631  0.1572  0.4577
 5934SOL    HW229265   3.084   1.620   7.709  0.4661 -0.0443 -0.0097
 5935SOL     OW29266   0.702   2.507   6.798  1.1180  0.5056  0.5963
 5935SOL    HW129267   0.713   2.419   6.762 -1.0239  1.3085 -1.9733
 5935SOL    HW229268   0.776   2.551   6.756 -0.1446  1.7650 -0.2933
 5936SOL     OW29269   4.250   3.027   1.943 -0.4649 -0.0459  0.2624
 5936SOL    HW129270   4.212   2.982   1.867  1.4912 -0.0939 -0.7054
 5936SOL    HW229271   4.324   3.080   1.914 -1.0106  0.5528 -0.0142
 5937SOL     OW29272   1.681   1.687   3.557 -0.7311  0.0326 -0.0128
 5937SOL    HW129273   1.589   1.688   3.581  0.0005 -1.8677  2.9076
 5937SOL    HW229274   1.698   1.593   3.554  1.7699  0.5163 -1.1440
 5938SOL     OW29275   1.503   2.450   4.816  0.0211  0.6281 -0.5532
 5938SOL    HW129276   1.459   2.416   4.738 -0.8470 -2.5129  1.3127
 5938SOL    HW229277   1.433   2.465   4.879 -0.7719 -2.9076 -0.6081
 5939SOL     OW29278   0.352   3.336   5.435 -0.1177  0.4891  0.1786
 5939SOL    HW129279   0.437   3.301   5.459 -0.3019 -0.3875 -0.4467
 5939SOL    HW229280   0.371   3.401   5.367  0.1905 -0.6184 -0.7910
 5940SOL     OW29281   4.504   3.963   3.400  0.5288 -0.2992 -0.0054
 5940SOL    HW129282   4.464   3.996   3.320 -0.6085 -1.3053  0.1392
 5940SOL    HW229283   4.430   3.959   3.461  0.2684  1.9791 -0.1723
 5941SOL     OW29284   3.311   0.720   4.388 -0.3300  0.1249  0.0748
 5941SOL    HW129285   3.401   0.701   4.414 -0.2350 -1.4907 -1.4284
 5941SOL    HW229286   3.333   0.735   4.297  0.9149 -2.2866 -0.0284
 5942SOL     OW29287   4.351   1.693   7.158  0.4251  0.5464 -0.0868
 5942SOL    HW129288   4.405   1.624   7.196  0.7460  0.9167  0.1282
 5942SOL    HW229289   4.415   1.764   7.149 -1.1089  1.8002 -1.0118
 5943SOL     OW29290   0.764   3.657  15.920  0.0722 -0.0294 -0.2866
 5943SOL    HW129291   0.805   3.649  16.007 -2.7456  0.4822  1.0685
 5943SOL    HW229292   0.847   3.667  15.872 -0.3942 -0.6220 -1.2022
 5944SOL     OW29293   0.814   2.830   4.498 -0.0102  0.3764  0.3751
 5944SOL    HW129294   0.774   2.750   4.466  0.5719 -0.2316  1.1657
 5944SOL    HW229295   0.782   2.896   4.436 -1.0245 -0.2193  0.2686
 5945SOL     OW29296   3.225   3.876   2.465 -0.2759  0.3662  0.2359
 5945SOL    HW129297   3.157   3.909   2.523  0.5507 -0.6659  1.7858
 5945SOL    HW229298   3.249   3.793   2.506 -1.2640 -0.6507 -1.2540
 5946SOL     OW29299   4.539   0.768   0.623 -0.0133  0.6105 -0.3077
 5946SOL    HW129300   4.613   0.712   0.643  0.1037  0.5900 -0.8162
 5946SOL    HW229301   4.465   0.736   0.675 -0.5217  0.2967 -1.2169
 5947SOL     OW29302   3.798   2.346   5.541  0.5051 -0.6591 -0.1523
 5947SOL    HW129303   3.887   2.332   5.509  0.1198 -2.2614 -0.5118
 5947SOL    HW229304   3.778   2.264   5.586  0.9428 -0.0383  1.1835
 5948SOL     OW29305   3.259   3.447   7.633  0.2322  0.4519 -0.4295
 5948SOL    HW129306   3.185   3.462   7.692  0.7643 -0.8708  0.5832
 5948SOL    HW229307   3.236   3.506   7.562  0.0450 -2.2127 -2.5950
 5949SOL     OW29308   0.239   2.745   5.573 -0.2622 -0.4793 -0.1140
 5949SOL    HW129309   0.169   2.679   5.574 -0.3611 -0.3914 -1.0951
 5949SOL    HW229310   0.235   2.759   5.668  2.0591  0.6301 -0.1779
 5950SOL     OW29311   0.467   1.848   6.875  0.0069  0.5268  0.6280
 5950SOL    HW129312   0.408   1.775   6.861  3.5564 -1.9585 -1.2923
 5950SOL    HW229313   0.402   1.919   6.872 -0.9855 -0.3668  1.2377
 5951SOL     OW29314   2.714   1.380   1.902 -0.5026  0.0279  0.3183
 5951SOL    HW129315   2.718   1.358   1.809  1.2247 -1.2848  0.7026
 5951SOL    HW229316   2.804   1.386   1.932 -0.4871  1.4272 -0.0201
 5952SOL     OW29317   3.015   3.814   3.183 -0.1304  0.7572 -0.8201
 5952SOL    HW129318   3.072   3.801   3.107  1.1046  0.9242  0.0786
 5952SOL    HW229319   3.080   3.836   3.249 -1.0389  3.2615 -0.7701
 5953SOL     OW29320   1.115   0.991   8.125  0.7539  0.0122  0.4180
 5953SOL    HW129321   1.110   1.067   8.067  0.8071 -0.0647  0.3143
 5953SOL    HW229322   1.168   0.942   8.063  1.5989  1.5585 -0.0892
 5954SOL     OW29323   1.789   1.544   1.971  0.0205  0.5062 -0.2491
 5954SOL    HW129324   1.739   1.605   1.917  0.2446 -0.5955 -1.7279
 5954SOL    HW229325   1.763   1.457   1.938  2.5429  0.6920 -2.7220
 5955SOL     OW29326   2.004   0.421  13.373 -0.0780 -0.0569  0.2052
 5955SOL    HW129327   2.054   0.488  13.419  0.4566 -0.1140 -0.3013
 5955SOL    HW229328   2.072   0.356  13.355  0.2855  0.2641  0.4416
 5956SOL     OW29329   1.266   1.189   3.875 -0.8691  0.0985 -0.0844
 5956SOL    HW129330   1.327   1.116   3.890 -2.7761 -1.4628  0.0112
 5956SOL    HW229331   1.228   1.191   3.963  0.7423 -2.8881  0.7110
 5957SOL     OW29332   2.408   4.002   2.732  0.1967  0.2008 -0.2304
 5957SOL    HW129333   2.369   3.975   2.649  2.6009 -0.5402 -1.1361
 5957SOL    HW229334   2.370   3.929   2.781 -0.9767  0.9493 -0.0336
 5958SOL     OW29335   4.165   3.693   3.408 -0.0902 -0.4191 -0.4315
 5958SOL    HW129336   4.134   3.736   3.488  1.0034 -0.9230  0.2654
 5958SOL    HW229337   4.166   3.605   3.445 -1.8048  0.4211  1.6288
 5959SOL     OW29338   1.074   1.928   9.225 -0.2300  0.0328  0.8949
 5959SOL    HW129339   1.160   1.947   9.262  0.9241  0.0722 -1.7842
 5959SOL    HW229340   1.106   1.855   9.172 -0.4853  0.2435  0.4519
 5960SOL     OW29341   0.489   2.993   6.176  0.2850  0.0545 -0.5683
 5960SOL    HW129342   0.569   3.027   6.135 -0.0461 -0.3463 -1.5336
 5960SOL    HW229343   0.527   2.961   6.258  0.5445 -3.3767 -2.0392
 5961SOL     OW29344   0.567   1.388   0.469 -0.1582 -0.5046  0.0504
 5961SOL    HW129345   0.533   1.342   0.546 -0.6059 -0.1986  0.0336
 5961SOL    HW229346   0.513   1.343   0.405 -0.2528 -0.5115  0.1342
 5962SOL     OW29347   1.228   2.183   5.501 -0.1202 -1.0735 -0.4328
 5962SOL    HW129348   1.142   2.174   5.460  0.0660  2.6540 -1.7218
 5962SOL    HW229349   1.253   2.272   5.472  0.9362 -0.9444  0.8981
 5963SOL     OW29350   0.656   2.211  10.828 -0.1275 -0.3174  0.0195
 5963SOL    HW129351   0.585   2.257  10.874 -0.3118  1.6665 -2.2260
 5963SOL    HW229352   0.638   2.219  10.735  0.5642 -2.6540 -0.3082
 5964SOL     OW29353   2.608   1.019  17.285 -0.0683 -0.5007 -0.2474
 5964SOL    HW129354   2.548   1.092  17.301  0.7006 -0.2019  1.3097
 5964SOL    HW229355   2.602   1.009  17.190  0.6148 -1.7232 -0.1704
 5965SOL     OW29356   4.428   1.550   0.338 -0.4748 -0.5180 -0.2253
 5965SOL    HW129357   4.475   1.538   0.420  3.1939 -0.0756 -2.2321
 5965SOL    HW229358   4.355   1.489   0.351 -0.6990 -0.1629  0.1665
 5966SOL     OW29359   2.078   3.336   7.313  0.7022 -0.3671 -0.1209
 5966SOL    HW129360   2.083   3.255   7.261 -1.6296 -0.7722  0.2712
 5966SOL    HW229361   1.983   3.341   7.308  0.6874 -1.8311 -1.4684
 5967SOL     OW29362   1.989   4.683   8.934  1.0890 -0.2831  0.1074
 5967SOL    HW129363   1.963   4.693   9.025  2.0142  0.8536  0.2545
 5967SOL    HW229364   1.928   4.614   8.909 -0.1707  0.6603  0.5788
 5968SOL     OW29365   1.924   1.960   6.310 -0.0000  0.1764  0.3842
 5968SOL    HW129366   2.012   1.941   6.343  0.7133  1.1588 -0.9363
 5968SOL    HW229367   1.913   2.049   6.343 -0.4691 -0.5904  2.2706
 5969SOL     OW29368   3.129   3.131  15.368 -0.0378 -0.2644 -0.5193
 5969SOL    HW129369   3.083   3.134  15.284 -1.2922 -2.8518  0.0776
 5969SOL    HW229370   3.218   3.148  15.337  0.3836 -3.3555 -1.0027
 5970SOL     OW29371   0.846   0.584   4.013  0.5115  0.3159  0.0137
 5970SOL    HW129372   0.768   0.538   3.980  0.1864 -0.5133  1.8910
 5970SOL    HW229373   0.826   0.555   4.102  0.1577 -1.4592 -0.6269
 5971SOL     OW29374   4.005   3.779  16.324  0.3087 -0.3624  0.2771
 5971SOL    HW129375   3.958   3.772  16.407  0.2971 -0.0677  0.2929
 5971SOL    HW229376   4.031   3.687  16.311 -0.7827 -0.7605  0.9313
 5972SOL     OW29377   1.072   0.199   0.272  0.6612 -0.2774  0.4812
 5972SOL    HW129378   1.107   0.234   0.354 -0.3457  1.8779 -0.0134
 5972SOL    HW229379   1.017   0.274   0.249  1.4932  0.2910  0.3181
 5973SOL     OW29380   1.601   0.900  12.358 -0.2356 -0.4758  0.1365
 5973SOL    HW129381   1.631   0.814  12.329  1.1765  0.0985 -0.1146
 5973SOL    HW229382   1.565   0.866  12.440 -0.6563 -1.3376 -0.4056
 5974SOL     OW29383   4.650   0.525  12.282 -0.8963 -0.3060  0.1558
 5974SOL    HW129384   4.577   0.585  12.268 -0.1166  0.4468 -0.6442
 5974SOL    HW229385   4.677   0.537  12.373  1.4865  0.3900 -0.6530
 5975SOL     OW29386   1.055   1.530  13.107 -0.1076  0.1773 -0.2877
 5975SOL    HW129387   1.100   1.506  13.187 -0.1714  0.3924 -0.1865
 5975SOL    HW229388   1.120   1.572  13.050 -1.4694  1.4835 -0.8801
 5976SOL     OW29389   2.426   4.177   4.920 -0.1231 -0.2076  0.3430
 5976SOL    HW129390   2.420   4.256   4.867 -2.1983 -0.5868  0.0064
 5976SOL    HW229391   2.473   4.226   4.988 -0.4879  0.6210  0.0001
 5977SOL     OW29392   4.686   0.438   9.446  0.4963 -0.0571  0.0349
 5977SOL    HW129393   0.021   0.414   9.517 -2.5832 -4.4366  1.0729
 5977SOL    HW229394   4.687   0.363   9.386  0.1906  0.4885 -0.6547
 5978SOL     OW29395   3.874   4.594  14.816  0.3823  0.0626 -0.9146
 5978SOL    HW129396   3.958   4.627  14.784 -0.5756  0.8746 -2.5488
 5978SOL    HW229397   3.875   4.512  14.766 -0.5217  0.0769 -0.9495
 5979SOL     OW29398   0.693   4.528   4.254 -0.3873  0.0827  0.1145
 5979SOL    HW129399   0.775   4.553   4.297  0.1175 -3.4116  1.2228
 5979SOL    HW229400   0.714   4.540   4.162 -0.8602 -2.0728 -0.2810
 5980SOL     OW29401   0.352   1.859  10.659 -0.0063 -0.2129  0.0450
 5980SOL    HW129402   0.409   1.893  10.590  0.5600  0.7434  0.9896
 5980SOL    HW229403   0.274   1.914  10.651 -0.2662 -0.4365  1.0048
 5981SOL     OW29404   3.223   2.871   4.952 -0.2291 -0.1641  0.3539
 5981SOL    HW129405   3.183   2.854   4.867 -0.3882  2.0872 -0.0153
 5981SOL    HW229406   3.191   2.795   5.001 -4.3147 -0.4773 -2.7807
 5982SOL     OW29407   2.590   2.855   8.193  0.2589 -0.7552  0.3292
 5982SOL    HW129408   2.599   2.779   8.250 -0.8800 -1.6182 -0.6372
 5982SOL    HW229409   2.680   2.885   8.185  0.2120 -0.4891  0.8031
 5983SOL     OW29410   4.580   0.246   9.232 -0.0826 -0.2468  0.1309
 5983SOL    HW129411   4.496   0.256   9.277 -0.3633 -1.1759 -0.1945
 5983SOL    HW229412   4.571   0.326   9.181 -3.3891 -0.8364 -0.2466
 5984SOL     OW29413   3.790   4.014  15.663 -0.7354  0.2379 -0.4207
 5984SOL    HW129414   3.863   4.050  15.714 -0.6435  0.2079 -0.5333
 5984SOL    HW229415   3.753   4.101  15.646 -2.4568 -0.1416  1.3764
 5985SOL     OW29416   1.479   4.572   6.377  0.0120  0.1092 -0.1335
 5985SOL    HW129417   1.436   4.499   6.421 -0.2371  1.7280  2.2947
 5985SOL    HW229418   1.563   4.541   6.343 -0.0548 -0.6127  0.3658
 5986SOL     OW29419   0.150   0.315   9.619 -0.1582 -0.1708  0.1692
 5986SOL    HW129420   0.178   0.229   9.650  1.5390  0.3269 -0.0063
 5986SOL    HW229421   0.172   0.379   9.686 -0.8847  1.1479 -0.8538
 5987SOL     OW29422   2.410   4.379   7.913  0.2840 -0.0382 -0.3706
 5987SOL    HW129423   2.330   4.373   7.860  0.2856  2.2846 -0.6282
 5987SOL    HW229424   2.363   4.414   7.988  2.7935 -0.6970  1.4921
 5988SOL     OW29425   2.513   2.245   2.626 -0.0412 -0.5661  0.5868
 5988SOL    HW129426   2.603   2.222   2.650  0.4164 -0.3538 -0.9736
 5988SOL    HW229427   2.514   2.335   2.656  1.6063 -1.0735  2.0415
 5989SOL     OW29428   3.783   0.285   3.240 -0.2859 -0.1504 -0.0198
 5989SOL    HW129429   3.712   0.340   3.207 -1.2839 -1.0044  0.6983
 5989SOL    HW229430   3.797   0.323   3.327  0.5622 -1.4521  0.4251
 5990SOL     OW29431   3.735   4.048   3.274 -0.1732 -0.0438  0.0178
 5990SOL    HW129432   3.822   4.034   3.311  0.2763  1.7022 -0.3574
 5990SOL    HW229433   3.720   3.964   3.232 -2.0594 -0.3155  1.2231
 5991SOL     OW29434   4.266   1.253  13.769 -0.5255  0.1489  0.0461
 5991SOL    HW129435   4.293   1.240  13.860 -2.8067 -1.3224  0.5135
 5991SOL    HW229436   4.288   1.346  13.765 -1.7244  0.4571  0.5391
 5992SOL     OW29437   0.594   2.888   6.415  0.1992 -0.1708  0.0341
 5992SOL    HW129438   0.543   2.953   6.462  0.4927  0.1452 -0.0857
 5992SOL    HW229439   0.668   2.885   6.476  0.6266  1.7300 -0.3976
 5993SOL     OW29440   0.615   4.037   4.743 -0.5250 -0.0441  0.1931
 5993SOL    HW129441   0.564   4.087   4.807 -0.6524 -0.8967  0.7555
 5993SOL    HW229442   0.573   3.952   4.737 -0.6289 -0.0845  1.4848
 5994SOL     OW29443   1.493   0.790   4.547  0.3822  0.3612 -0.2572
 5994SOL    HW129444   1.483   0.883   4.523 -0.7024 -0.4226 -2.8480
 5994SOL    HW229445   1.545   0.785   4.627 -0.2435  2.2406  0.2853
 5995SOL     OW29446   1.448   3.610   1.832 -0.1838  0.5796  0.0318
 5995SOL    HW129447   1.512   3.542   1.854 -0.9826 -0.3047 -0.3296
 5995SOL    HW229448   1.490   3.695   1.844 -1.4965  1.1746  0.4059
 5996SOL     OW29449   0.980   1.317   7.621  0.0870 -0.2372  0.0521
 5996SOL    HW129450   0.925   1.375   7.675  1.1280  0.5316  0.2758
 5996SOL    HW229451   0.918   1.285   7.555 -0.4339  0.1298  0.3555
 5997SOL     OW29452   0.567   4.717   5.780 -0.1309 -0.0494  0.0669
 5997SOL    HW129453   0.546   4.710   5.687 -2.4129  0.8052  0.4931
 5997SOL    HW229454   0.640   4.659   5.798 -0.5318 -0.2637  1.0346
 5998SOL     OW29455   3.188   1.450   5.296  0.9333  0.0014 -0.2766
 5998SOL    HW129456   3.120   1.482   5.237 -1.0815 -1.5583  1.2162
 5998SOL    HW229457   3.177   1.356   5.284 -3.1504  0.4274  0.1169
 5999SOL     OW29458   4.480   0.726  13.733  0.1179  0.4403  0.4276
 5999SOL    HW129459   4.406   0.770  13.775 -0.4165 -0.1330  0.0780
 5999SOL    HW229460   4.542   0.795  13.711  0.6407 -0.0135  0.4927
 6000SOL     OW29461   1.988   1.002  13.981 -0.3966 -0.0265  0.1019
 6000SOL    HW129462   1.923   1.042  14.039 -3.2535 -0.8232 -2.5502
 6000SOL    HW229463   2.040   0.945  14.038 -0.3565  0.6228  0.7066
 6001SOL     OW29464   2.327   3.000   8.487 -0.5966  0.3599 -0.4334
 6001SOL    HW129465   2.269   2.987   8.412 -0.8218  0.0887 -0.2138
 6001SOL    HW229466   2.360   3.088   8.470 -0.0041 -0.1182 -1.7487
 6002SOL     OW29467   0.780   4.112   2.664 -0.2144  0.4114 -0.3399
 6002SOL    HW129468   0.721   4.038   2.674 -0.9389  1.1335  0.8026
 6002SOL    HW229469   0.746   4.174   2.729  0.4873  0.5486 -0.1005
 6003SOL     OW29470   0.604   3.693  12.584  0.4909 -0.6962 -0.0767
 6003SOL    HW129471   0.572   3.761  12.643  0.9795 -1.9963  1.6885
 6003SOL    HW229472   0.540   3.708  12.514 -0.4920  0.6208  1.1134
 6004SOL     OW29473   0.935   2.637   6.395  0.1356  0.2609  0.2584
 6004SOL    HW129474   0.937   2.668   6.304  0.2784 -0.6568 -0.0549
 6004SOL    HW229475   0.844   2.609   6.401 -0.4178  1.6114 -1.5840
 6005SOL     OW29476   3.196   1.449   8.427 -0.6596  0.2652 -0.1425
 6005SOL    HW129477   3.110   1.467   8.387 -0.4026  1.8182 -0.0051
 6005SOL    HW229478   3.204   1.534   8.470  1.4051 -0.3980  0.7466
 6006SOL     OW29479   0.685   4.213  10.170  0.1699 -0.4541  0.1040
 6006SOL    HW129480   0.640   4.147  10.224 -1.7751  0.8986  0.1249
 6006SOL    HW229481   0.645   4.296  10.198 -1.5950 -0.6619 -1.7924
 6007SOL     OW29482   2.809   2.461  16.375  0.3707  0.1396  0.3430
 6007SOL    HW129483   2.832   2.438  16.465 -0.7913 -1.6608  0.1776
 6007SOL    HW229484   2.731   2.516  16.388 -1.1779 -0.9279 -4.0607
 6008SOL     OW29485   2.779   1.657  13.061 -0.4397 -0.3406  0.5040
 6008SOL    HW129486   2.691   1.622  13.052 -1.5776  2.9350 -1.1020
 6008SOL    HW229487   2.810   1.615  12.980  0.7109  1.2316  0.1176
 6009SOL     OW29488   2.765   1.003   8.199  0.1607  0.0044  0.4737
 6009SOL    HW129489   2.740   0.919   8.159  2.5916  0.8126 -2.6986
 6009SOL    HW229490   2.721   0.987   8.283  0.9498  0.3030  0.9425
 6010SOL     OW29491   0.178   3.964   8.041  0.4004  0.3258 -0.0004
 6010SOL    HW129492   0.123   4.043   8.042  0.1129  0.0973  2.0197
 6010SOL    HW229493   0.148   3.925   7.959  0.4244  0.9012 -0.2852
 6011SOL     OW29494   4.695   2.695   5.205  0.0067  0.0864  0.5594
 6011SOL    HW129495   4.622   2.741   5.166  1.4619  2.9104  1.2062
 6011SOL    HW229496   4.684   2.707   5.300 -2.6589  0.1548  0.2338
 6012SOL     OW29497   0.926   1.290   4.030  0.1837 -0.1865 -0.3523
 6012SOL    HW129498   0.879   1.222   3.981  1.3817 -1.3822  0.1415
 6012SOL    HW229499   0.896   1.286   4.121  1.3211  1.9448  0.0988
 6013SOL     OW29500   0.104   3.711  12.026 -0.0479 -0.4922  0.9100
 6013SOL    HW129501   0.008   3.708  12.022 -0.0975  1.0435  1.2529
 6013SOL    HW229502   0.115   3.624  11.986  1.9450  0.7062 -1.1544
 6014SOL     OW29503   0.615   0.493  16.359  0.4832  0.0501  0.2174
 6014SOL    HW129504   0.534   0.536  16.384  0.5554 -0.0823  0.6835
 6014SOL    HW229505   0.648   0.446  16.436  3.2868  1.7454  0.0374
 6015SOL     OW29506   1.232   2.493   4.655 -0.6811  0.3743 -0.0975
 6015SOL    HW129507   1.232   2.489   4.560 -1.6469 -1.2334 -0.0225
 6015SOL    HW229508   1.259   2.584   4.668 -0.4573  0.3759 -0.5798
 6016SOL     OW29509   1.613   3.510   3.684 -0.2591 -0.0499  0.2525
 6016SOL    HW129510   1.672   3.437   3.662  3.2018  2.5931  0.7670
 6016SOL    HW229511   1.572   3.523   3.598 -0.0822 -0.9110  0.0297
 6017SOL     OW29512   3.734   0.685  10.782  0.1033  0.0930  0.1637
 6017SOL    HW129513   3.688   0.686  10.698 -0.8897  1.3435  0.7265
 6017SOL    HW229514   3.685   0.646  10.854 -0.4772 -1.5017 -1.1112
 6018SOL     OW29515   1.004   3.243   3.009 -0.4803 -0.2220  0.3922
 6018SOL    HW129516   0.977   3.152   2.998 -1.9013  0.0729  1.5176
 6018SOL    HW229517   1.056   3.262   2.931 -0.3047 -0.5262  0.4325
 6019SOL     OW29518   0.897   4.439   7.130 -0.4993 -0.8848  0.4816
 6019SOL    HW129519   0.891   4.457   7.224  2.4878  0.0336  0.5149
 6019SOL    HW229520   0.991   4.449   7.113 -0.3691  1.1843  2.4183
 6020SOL     OW29521   4.121   2.550   6.712  0.1191  0.0998  0.3892
 6020SOL    HW129522   4.076   2.472   6.745  2.9962 -1.9277 -0.5524
 6020SOL    HW229523   4.048   2.589   6.664  0.9725 -0.8276 -1.6284
 6021SOL     OW29524   0.111   1.014   2.564 -0.2846 -0.1332  0.0610
 6021SOL    HW129525   0.175   0.986   2.629 -1.5441 -0.3129  1.2147
 6021SOL    HW229526   0.030   0.970   2.591  1.1980 -2.4358  0.7106
 6022SOL     OW29527   2.443   4.357   8.325 -0.0902  0.1330 -0.1224
 6022SOL    HW129528   2.433   4.270   8.287  0.2152 -0.1577  0.4540
 6022SOL    HW229529   2.425   4.333   8.416 -0.3698  0.8607  0.0174
 6023SOL     OW29530   4.075   2.156   6.356 -0.1879 -0.2593 -0.1081
 6023SOL    HW129531   4.088   2.109   6.439 -1.5704 -0.1308  0.1910
 6023SOL    HW229532   4.041   2.240   6.387  0.9143  0.4504 -0.8619
 6024SOL     OW29533   0.049   3.809   5.964 -0.1743  0.5745 -0.1086
 6024SOL    HW129534   0.067   3.720   5.996  0.4905  0.0643 -1.8871
 6024SOL    HW229535   4.678   3.799   5.952  0.2258 -2.1769 -1.1313
 6025SOL     OW29536   0.741   4.697  14.686 -0.4001 -0.4585 -0.1341
 6025SOL    HW129537   0.782   4.629  14.633 -0.8422  0.6740 -1.9315
 6025SOL    HW229538   0.730   4.648  14.767 -0.3618  0.5297  0.4619
 6026SOL     OW29539   0.312   3.582   2.048 -0.2934 -0.7375  0.4540
 6026SOL    HW129540   0.220   3.589   2.022 -0.2271 -3.0080 -0.4013
 6026SOL    HW229541   0.303   3.578   2.143  2.4527 -0.0970  0.7519
 6027SOL     OW29542   4.044   3.856   3.598 -0.1037  0.1972  0.1828
 6027SOL    HW129543   4.004   3.784   3.647  0.3310 -0.8260 -0.9490
 6027SOL    HW229544   3.962   3.898   3.572  0.0618  0.5301  0.1990
 6028SOL     OW29545   1.076   4.531   6.428 -0.8253 -0.7736 -0.1967
 6028SOL    HW129546   1.134   4.457   6.409  0.2727 -0.1753  0.8275
 6028SOL    HW229547   1.076   4.514   6.522  1.4158 -0.3854 -0.1244
 6029SOL     OW29548   3.868   2.626  17.584 -0.1234  0.6286  0.1553
 6029SOL    HW129549   3.951   2.608  17.540 -2.1686 -0.9699 -2.9750
 6029SOL    HW229550   3.853   2.542  17.626 -0.8372  0.7961  0.2303
 6030SOL     OW29551   3.730   0.816   8.964 -0.2705 -0.2850  0.0795
 6030SOL    HW129552   3.637   0.804   8.945 -0.1343  0.4932 -1.0595
 6030SOL    HW229553   3.736   0.886   9.029  1.6815 -0.4309  0.0553
 6031SOL     OW29554   2.221   0.858   8.768  0.1523  0.0238  0.5865
 6031SOL    HW129555   2.223   0.819   8.680 -0.8799  2.5118 -0.5472
 6031SOL    HW229556   2.186   0.785   8.819  0.2646 -1.3772 -1.2981
 6032SOL     OW29557   0.419   3.442   4.139  0.4115 -0.3124 -0.0141
 6032SOL    HW129558   0.444   3.413   4.226  0.6610  0.7321  0.2654
 6032SOL    HW229559   0.481   3.509   4.110 -0.5062  0.6232  0.1558
 6033SOL     OW29560   1.802   3.519  16.208  0.2519 -0.2004 -0.2603
 6033SOL    HW129561   1.738   3.459  16.170  1.4280  0.1557 -2.8036
 6033SOL    HW229562   1.787   3.506  16.302  1.1309 -4.2737 -0.6648
 6034SOL     OW29563   1.340   1.591  10.932 -0.6818  0.6976  0.6795
 6034SOL    HW129564   1.433   1.598  10.953 -0.6714  2.2378  0.1459
 6034SOL    HW229565   1.298   1.549  11.008  0.0516 -3.5019 -1.2876
 6035SOL     OW29566   3.120   2.153   7.221 -0.2247 -0.3299  0.1116
 6035SOL    HW129567   3.199   2.101   7.239 -0.1526 -1.0861 -2.4586
 6035SOL    HW229568   3.065   2.098   7.165 -2.0551  3.4232 -1.7147
 6036SOL     OW29569   0.526   0.663   6.714 -0.2537 -0.6728 -0.0257
 6036SOL    HW129570   0.452   0.702   6.669  0.2825  1.3057  0.8011
 6036SOL    HW229571   0.599   0.716   6.681  0.1351 -1.4102 -0.3594
 6037SOL     OW29572   1.172   0.931   4.208  0.7975  1.0717 -0.5739
 6037SOL    HW129573   1.086   0.937   4.167  0.6267  0.5724 -0.2792
 6037SOL    HW229574   1.184   1.006   4.266  1.6801 -0.4948  1.2629
 6038SOL     OW29575   1.961   0.194  16.961  0.2402  0.6195  0.1699
 6038SOL    HW129576   2.029   0.133  16.933  1.4296  1.2313  1.7090
 6038SOL    HW229577   1.897   0.149  17.016  0.2149 -0.8160 -1.0422
 6039SOL     OW29578   4.183   1.314   4.540  0.2087 -0.2284  0.3152
 6039SOL    HW129579   4.097   1.272   4.532 -0.6264  1.6101 -0.4878
 6039SOL    HW229580   4.181   1.336   4.446 -0.3181  1.7629  0.8021
 6040SOL     OW29581   1.136   1.311  16.832  0.2706  0.1563  0.1506
 6040SOL    HW129582   1.180   1.226  16.832  2.3517  1.2286  0.3918
 6040SOL    HW229583   1.046   1.287  16.815 -0.5359  2.8337  0.5717
 6041SOL     OW29584   4.337   0.424   7.627  0.2310 -0.0669 -0.1914
 6041SOL    HW129585   4.263   0.436   7.568  1.1827  1.5667 -1.0214
 6041SOL    HW229586   4.403   0.412   7.559  2.0377 -1.6689  1.8501
 6042SOL     OW29587   4.721   1.938  13.690  0.4805  0.0812  1.1138
 6042SOL    HW129588   4.637   1.894  13.681  0.7198 -0.1092 -0.2458
 6042SOL    HW229589   4.701   2.021  13.734  0.2985  0.7409 -0.2232
 6043SOL     OW29590   2.356   3.371   6.107 -0.3805  0.1405 -0.7345
 6043SOL    HW129591   2.415   3.373   6.031 -1.0722 -0.7591 -1.2884
 6043SOL    HW229592   2.311   3.287   6.094 -1.6682  0.9600 -1.5956
 6044SOL     OW29593   4.604   4.183   0.071 -0.0376 -0.4199  0.1021
 6044SOL    HW129594   4.667   4.199   0.001 -0.3118 -0.5231 -0.1673
 6044SOL    HW229595   4.541   4.256   0.063  0.0795 -0.3701 -0.3340
 6045SOL     OW29596   0.872   1.014   7.166 -0.4653  0.0451 -0.2062
 6045SOL    HW129597   0.829   0.948   7.219 -0.9586 -0.2337 -0.9548
 6045SOL    HW229598   0.938   0.957   7.126 -0.6968 -1.5986  1.8060
 6046SOL     OW29599   4.063   4.212   4.796 -0.1551  0.0229 -0.3531
 6046SOL    HW129600   4.064   4.175   4.884 -0.8555  0.5112 -0.1472
 6046SOL    HW229601   4.008   4.150   4.749 -2.3504 -0.4733  2.9309
 6047SOL     OW29602   1.407   2.365   1.767 -0.3087 -0.0211 -0.0795
 6047SOL    HW129603   1.371   2.448   1.734 -0.7084 -0.7369 -1.4616
 6047SOL    HW229604   1.430   2.381   1.858  3.5151 -0.7964 -0.8923
 6048SOL     OW29605   0.536   4.091   1.941  0.1135 -0.1292  0.4227
 6048SOL    HW129606   0.538   4.179   1.905 -2.7190 -0.2459 -0.0236
 6048SOL    HW229607   0.558   4.044   1.860 -0.5918  1.5788 -0.7519
 6049SOL     OW29608   0.470   4.135   9.069  0.5686  0.3621  0.2094
 6049SOL    HW129609   0.518   4.136   8.986  0.5543  0.1826  0.1995
 6049SOL    HW229610   0.522   4.191   9.128  0.8202  0.3795 -0.0275
 6050SOL     OW29611   3.119   0.679   9.740 -0.4396  0.4537  0.1080
 6050SOL    HW129612   3.190   0.657   9.800 -0.0350  0.7179 -0.2766
 6050SOL    HW229613   3.139   0.624   9.665 -0.4130  2.3558 -1.2755
 6051SOL     OW29614   2.864   0.130   2.823  0.3991 -0.5601  0.0573
 6051SOL    HW129615   2.919   0.207   2.832  1.0442 -1.1826  1.4229
 6051SOL    HW229616   2.927   0.066   2.857  2.5174  2.3340  1.5760
 6052SOL     OW29617   2.149   0.734   7.182  0.5385 -0.0132  0.4840
 6052SOL    HW129618   2.147   0.829   7.179 -0.3139 -0.0946 -1.4778
 6052SOL    HW229619   2.239   0.702   7.171  1.1333  1.7449  0.3070
 6053SOL     OW29620   0.367   1.077   2.459  0.1375 -0.3199  0.0115
 6053SOL    HW129621   0.273   1.066   2.466 -0.3137  2.6590 -1.2499
 6053SOL    HW229622   0.400   1.008   2.516  0.3502 -0.0607  0.2029
 6054SOL     OW29623   2.809   4.160   6.192 -0.5535 -0.0071  0.3174
 6054SOL    HW129624   2.747   4.225   6.225  0.9405  2.0618 -0.9533
 6054SOL    HW229625   2.746   4.113   6.137  1.1686 -0.8320 -0.9468
 6055SOL     OW29626   2.090   2.389   5.771 -0.2030  0.6691 -0.0194
 6055SOL    HW129627   2.128   2.474   5.750 -1.1589  0.7748 -1.3461
 6055SOL    HW229628   2.099   2.344   5.687  2.6616 -0.5306  0.9522
 6056SOL     OW29629   4.324   3.157   7.779  0.0721  0.7692 -0.2156
 6056SOL    HW129630   4.338   3.187   7.869  0.4215  0.9443 -0.3320
 6056SOL    HW229631   4.291   3.068   7.789  0.1735  0.8728  1.0213
 6057SOL     OW29632   3.152   2.758  14.568  0.1240 -0.0333  0.7571
 6057SOL    HW129633   3.133   2.674  14.528 -0.4160 -0.0969  1.1520
 6057SOL    HW229634   3.131   2.815  14.494  3.4716 -0.2155 -0.3648
 6058SOL     OW29635   2.583   2.632   5.687 -0.3287 -0.1436  0.0677
 6058SOL    HW129636   2.678   2.638   5.684 -0.4307  1.8894  1.0753
 6058SOL    HW229637   2.568   2.726   5.678  0.3485 -0.0664 -0.2813
 6059SOL     OW29638   2.594   3.228  12.632 -0.6784  0.3645  0.2307
 6059SOL    HW129639   2.686   3.203  12.637 -0.5811  0.0342 -2.8643
 6059SOL    HW229640   2.592   3.263  12.721 -0.3443  0.0049  0.3773
 6060SOL     OW29641   0.211   1.567  15.890  0.0720 -0.0012 -0.3221
 6060SOL    HW129642   0.204   1.507  15.965 -0.8172  0.1141 -0.3176
 6060SOL    HW229643   0.262   1.639  15.925 -1.9447  0.8330  0.8798
 6061SOL     OW29644   4.334   3.808   5.864  0.4619 -0.0026  0.1210
 6061SOL    HW129645   4.404   3.869   5.841  2.6720 -2.4166  0.5135
 6061SOL    HW229646   4.280   3.866   5.918 -0.0271  0.2245 -0.6214
 6062SOL     OW29647   2.461   1.323   7.756  0.2245  0.7118  0.0110
 6062SOL    HW129648   2.390   1.386   7.769 -0.6972  0.0681 -2.0012
 6062SOL    HW229649   2.453   1.290   7.667  1.6507  0.2289  0.0694
 6063SOL     OW29650   4.492   0.088   3.890  0.2508 -0.1640 -0.3255
 6063SOL    HW129651   4.551   0.162   3.875  2.7862 -2.3353 -1.1569
 6063SOL    HW229652   4.518   0.040   3.811 -1.4579 -0.9244 -0.4183
 6064SOL     OW29653   0.867   1.314   9.034 -0.5852  0.0281  0.3297
 6064SOL    HW129654   0.878   1.342   8.944 -0.6007  1.4936  0.7893
 6064SOL    HW229655   0.810   1.380   9.072 -1.2277  0.7293 -1.9327
 6065SOL     OW29656   3.758   3.677   1.604  0.1736 -0.5108 -0.1201
 6065SOL    HW129657   3.743   3.757   1.654 -0.7361  0.6643 -2.2430
 6065SOL    HW229658   3.824   3.627   1.651 -2.1835 -2.8594  0.6383
 6066SOL     OW29659   2.867   2.694   2.455  0.4118  0.3098 -0.0617
 6066SOL    HW129660   2.908   2.627   2.510  2.4385  1.9765  0.4735
 6066SOL    HW229661   2.883   2.662   2.366  2.0587 -1.0789  0.7253
 6067SOL     OW29662   1.763   2.552  16.500 -0.1593 -0.2381  0.0987
 6067SOL    HW129663   1.750   2.500  16.579  2.6443  1.9599  2.0376
 6067SOL    HW229664   1.672   2.577  16.489 -0.8485 -3.0630 -0.6527
 6068SOL     OW29665   2.917   3.372   4.013  0.4220 -0.3797  0.1382
 6068SOL    HW129666   2.844   3.428   4.038  2.2873  2.0328  0.1675
 6068SOL    HW229667   2.966   3.411   3.941 -1.1182  2.4284  0.5989
 6069SOL     OW29668   3.231   0.649   8.060  0.2948  0.0381  0.4239
 6069SOL    HW129669   3.244   0.743   8.073 -0.3561  0.4569 -1.9693
 6069SOL    HW229670   3.253   0.635   7.968  1.2675  3.0204  0.2038
 6070SOL     OW29671   3.026   0.557  11.772  0.3243  0.0569 -0.4400
 6070SOL    HW129672   3.082   0.633  11.786 -0.6972  0.8635 -0.7990
 6070SOL    HW229673   2.994   0.585  11.686  0.3998  2.1785  0.2192
 6071SOL     OW29674   0.816   4.600  13.196  0.2540  0.5592 -0.1173
 6071SOL    HW129675   0.908   4.622  13.205  0.8716 -1.8295 -0.4341
 6071SOL    HW229676   0.783   4.602  13.286  0.7609  0.4823  0.0673
 6072SOL     OW29677   4.573   3.222  10.045  0.2555 -0.2052  0.5683
 6072SOL    HW129678   4.558   3.248  10.136  2.2648  1.0132  0.5493
 6072SOL    HW229679   4.490   3.178  10.025 -0.9244  0.6680  3.5347
 6073SOL     OW29680   4.193   1.541   9.624  0.1155  0.1317  0.2863
 6073SOL    HW129681   4.210   1.615   9.682 -1.3900 -0.0722  0.9947
 6073SOL    HW229682   4.106   1.515   9.655 -0.5029  1.7520 -0.0526
 6074SOL     OW29683   0.197   3.180   8.257 -0.1902 -0.2699  0.3965
 6074SOL    HW129684   0.220   3.257   8.308 -0.6754  0.2099 -0.1056
 6074SOL    HW229685   0.147   3.126   8.319  1.3081 -0.7032  1.2141
 6075SOL     OW29686   1.735   4.081   0.662 -0.3707  0.4291 -0.5109
 6075SOL    HW129687   1.754   4.073   0.755 -1.6459 -0.8749 -0.3713
 6075SOL    HW229688   1.809   4.140   0.644 -0.1838  1.3331  3.1234
 6076SOL     OW29689   0.650   1.257   4.234  0.0529  0.4909  0.1879
 6076SOL    HW129690   0.606   1.301   4.306 -0.4303  1.2963 -0.6053
 6076SOL    HW229691   0.739   1.293   4.237  0.0588  0.5779 -1.1289
 6077SOL     OW29692   2.967   1.398  15.401 -0.0409 -0.1690  0.4642
 6077SOL    HW129693   2.995   1.334  15.466 -0.2658 -0.4888  0.2477
 6077SOL    HW229694   2.885   1.361  15.370 -1.1493  3.7833 -1.2943
 6078SOL     OW29695   2.605   1.884   0.059  0.2917  0.5115  0.5017
 6078SOL    HW129696   2.606   1.798   0.019  0.9661  0.7644 -0.0169
 6078SOL    HW229697   2.671   1.933   0.010  1.9958 -0.2637  2.0252
 6079SOL     OW29698   2.692   1.970   6.938 -0.8777  0.0945 -0.4988
 6079SOL    HW129699   2.614   2.025   6.939 -0.3094  0.8638  0.9993
 6079SOL    HW229700   2.705   1.977   6.843 -1.8224  0.3040 -0.6129
 6080SOL     OW29701   3.659   1.322   8.219  0.1819  0.6749 -0.1924
 6080SOL    HW129702   3.601   1.278   8.157 -0.4182 -0.8516  1.4455
 6080SOL    HW229703   3.606   1.302   8.296 -0.8140  1.3398 -0.6968
 6081SOL     OW29704   3.517   2.262   4.914  0.1554  0.0097  0.4366
 6081SOL    HW129705   3.488   2.347   4.948  1.6180  0.9526 -0.6880
 6081SOL    HW229706   3.435   2.238   4.870 -0.1582 -0.4079  1.2457
 6082SOL     OW29707   1.796   1.837   7.670  0.5619  0.0598  0.5130
 6082SOL    HW129708   1.716   1.801   7.632  0.0512  1.6930  0.0405
 6082SOL    HW229709   1.853   1.817   7.596 -0.9485 -1.1626 -0.3132
 6083SOL     OW29710   4.545   1.522  10.835 -1.0178 -0.1842  0.0115
 6083SOL    HW129711   4.607   1.595  10.839  0.4891 -1.5357  1.2877
 6083SOL    HW229712   4.594   1.449  10.795 -2.4827 -0.2109 -1.7264
 6084SOL     OW29713   3.258   4.553  12.514 -0.2454  0.5590 -0.0122
 6084SOL    HW129714   3.309   4.481  12.552 -3.2303  0.5377  3.9119
 6084SOL    HW229715   3.314   4.623  12.548  2.5713 -1.1817 -1.0126
 6085SOL     OW29716   1.555   4.244   6.912  0.2847 -0.3871  0.0103
 6085SOL    HW129717   1.623   4.204   6.859  1.3299  1.5625 -0.0899
 6085SOL    HW229718   1.609   4.282   6.981  1.6730 -0.9713 -0.7746
 6086SOL     OW29719   0.274   1.661   5.531  0.1590 -1.0503 -0.6056
 6086SOL    HW129720   0.293   1.725   5.598 -0.7555  0.2389 -1.5838
 6086SOL    HW229721   0.228   1.704   5.459  0.5650  0.0211 -0.2130
 6087SOL     OW29722   4.463   2.379   4.542 -0.4072 -0.0692  0.0978
 6087SOL    HW129723   4.501   2.465   4.558 -0.4997 -0.1000  0.4808
 6087SOL    HW229724   4.493   2.340   4.460 -1.0061  2.7225 -1.4463
 6088SOL     OW29725   1.528   2.141   8.671  0.3499  0.1080 -0.3700
 6088SOL    HW129726   1.531   2.160   8.765  2.1979 -1.8258 -0.0603
 6088SOL    HW229727   1.568   2.217   8.629  0.0858  1.2438  1.3812
 6089SOL     OW29728   0.620   1.582   5.616 -0.2108  0.4133 -0.1120
 6089SOL    HW129729   0.667   1.597   5.534 -1.6082 -0.8770 -1.1465
 6089SOL    HW229730   0.565   1.510   5.585  0.3735 -1.5647  3.4991
 6090SOL     OW29731   3.483   4.128   4.902 -0.4034  0.1678 -0.0448
 6090SOL    HW129732   3.461   4.050   4.851  1.2382  0.4543 -1.2021
 6090SOL    HW229733   3.564   4.149   4.855 -1.1270  1.9266 -0.4894
 6091SOL     OW29734   0.791   3.916  10.239  0.3828 -0.0848 -0.4130
 6091SOL    HW129735   0.761   3.980  10.303 -2.5169 -1.2729 -0.5858
 6091SOL    HW229736   0.734   3.839  10.246  0.8166 -0.2031  1.6624
 6092SOL     OW29737   2.913   0.481  15.612  0.6731  0.6094  0.2779
 6092SOL    HW129738   2.948   0.528  15.536 -1.0240 -0.5600 -1.2505
 6092SOL    HW229739   2.994   0.445  15.647 -0.6626 -1.4369  1.2716
 6093SOL     OW29740   1.131   4.534   2.463 -0.0180 -0.5988 -0.0028
 6093SOL    HW129741   1.074   4.557   2.390  0.4106  0.7262  0.0743
 6093SOL    HW229742   1.150   4.441   2.451  1.9647  0.0495 -1.9686
 6094SOL     OW29743   1.268   3.276  12.829 -0.3596  0.2740  0.2839
 6094SOL    HW129744   1.189   3.270  12.883  0.1850  2.4664  1.3098
 6094SOL    HW229745   1.334   3.258  12.896  0.0534 -3.4348 -1.0940
 6095SOL     OW29746   2.392   2.445   5.009  0.1280 -0.2204  0.3579
 6095SOL    HW129747   2.415   2.396   4.930  0.8041 -0.6231  0.8032
 6095SOL    HW229748   2.431   2.529   4.986 -0.3962 -0.0871 -0.0618
 6096SOL     OW29749   1.747   3.081   4.323  0.1861  0.4421  0.0001
 6096SOL    HW129750   1.791   3.075   4.407  1.2070 -2.0377 -0.7024
 6096SOL    HW229751   1.758   3.173   4.300  0.4642 -0.1254 -2.1384
 6097SOL     OW29752   4.668   2.387   3.954 -0.0556  0.5420  0.0859
 6097SOL    HW129753   4.599   2.408   4.017  0.3085  1.0868  0.2952
 6097SOL    HW229754   4.704   2.466   3.915 -1.8285  1.7321  0.8371
 6098SOL     OW29755   1.177   3.636   4.470 -0.0184 -0.0315 -0.1606
 6098SOL    HW129756   1.165   3.666   4.560 -2.5835  2.4602 -1.3173
 6098SOL    HW229757   1.266   3.667   4.455 -0.5915  0.0771 -3.2944
 6099SOL     OW29758   0.342   4.698   7.268 -0.2772  0.6915  0.2455
 6099SOL    HW129759   0.328   4.644   7.190 -0.0060  1.4806 -0.3524
 6099SOL    HW229760   0.264   4.692   7.323  0.2087 -2.8162  0.5397
 6100SOL     OW29761   2.973   1.227   3.329  0.8740 -0.1929  0.0979
 6100SOL    HW129762   3.031   1.268   3.265  0.5791  0.7065  0.3971
 6100SOL    HW229763   2.967   1.136   3.302  1.6491 -0.3922  0.5971
 6101SOL     OW29764   0.955   0.883   3.727  0.3272  0.2291 -0.2166
 6101SOL    HW129765   0.929   0.793   3.709  2.7992 -0.6871  0.8342
 6101SOL    HW229766   0.930   0.885   3.819 -1.4746  0.4087 -0.7131
 6102SOL     OW29767   2.498   1.568  11.180  0.6566  0.5572  0.6062
 6102SOL    HW129768   2.551   1.614  11.115  0.9582 -0.1386  0.3528
 6102SOL    HW229769   2.535   1.480  11.169  0.1280  0.2609  1.2321
 6103SOL     OW29770   4.647   0.386   4.183  0.0041  0.7951 -0.2767
 6103SOL    HW129771   4.623   0.294   4.168 -0.8046  0.8342  0.7741
 6103SOL    HW229772   4.664   0.387   4.277  0.2829  1.4642 -0.3351
 6104SOL     OW29773   1.501   4.604   3.994  0.0293 -0.6930  0.8205
 6104SOL    HW129774   1.521   4.517   3.961 -0.2673 -0.8310  1.0057
 6104SOL    HW229775   1.427   4.587   4.052 -0.6186  0.2593  0.2702
 6105SOL     OW29776   2.807   4.297  11.144  0.1161 -0.1683  0.2484
 6105SOL    HW129777   2.832   4.250  11.064 -1.0676 -1.9100  0.9073
 6105SOL    HW229778   2.889   4.302  11.194  0.0590 -0.3570  0.3604
 6106SOL     OW29779   1.487   2.429   6.838  0.1227  0.8577 -0.3111
 6106SOL    HW129780   1.497   2.367   6.765 -1.0081 -0.1601  0.4005
 6106SOL    HW229781   1.422   2.387   6.894  1.0045 -0.3827 -0.2024
 6107SOL     OW29782   0.019   2.437   3.224 -0.3482  0.2484  0.0318
 6107SOL    HW129783   0.113   2.453   3.236 -0.3189 -0.4674  0.7822
 6107SOL    HW229784   4.709   2.511   3.173  0.0674  1.3027  1.2937
 6108SOL     OW29785   3.135   2.553   2.598  0.2755 -0.2981  1.3112
 6108SOL    HW129786   3.073   2.567   2.670 -1.5315  0.5016 -0.3922
 6108SOL    HW229787   3.178   2.637   2.580 -0.8334  0.5131  2.3865
 6109SOL     OW29788   0.388   2.966   9.853 -0.9882  0.1676  0.1831
 6109SOL    HW129789   0.474   2.986   9.889  0.3852 -2.7253 -1.5077
 6109SOL    HW229790   0.354   2.906   9.919 -1.2458 -0.1960 -0.2779
 6110SOL     OW29791   0.016   2.238   3.683  0.3581  0.2542  0.4547
 6110SOL    HW129792   4.699   2.281   3.759  0.6174  0.7414  0.3144
 6110SOL    HW229793   4.704   2.279   3.605  2.0107  0.8343 -0.0007
 6111SOL     OW29794   2.064   2.108   6.715 -0.3106  0.1829 -0.1036
 6111SOL    HW129795   2.131   2.148   6.659  0.3828 -2.4263 -1.1168
 6111SOL    HW229796   2.029   2.039   6.659  1.2092  0.3252 -1.2269
 6112SOL     OW29797   2.006   0.967  17.457 -0.0238 -0.0467 -0.4862
 6112SOL    HW129798   2.083   1.004  17.499 -0.1041  0.0559 -0.4289
 6112SOL    HW229799   1.993   1.013  17.374  1.3291 -2.0293 -1.8141
 6113SOL     OW29800   0.940   0.552   8.102  0.1939  0.4610  0.2729
 6113SOL    HW129801   0.878   0.573   8.032  0.8511 -1.6878 -0.9632
 6113SOL    HW229802   1.000   0.493   8.056 -0.7471 -1.1138  1.0385
 6114SOL     OW29803   3.290   1.525   3.514  0.4492  0.1019  0.5388
 6114SOL    HW129804   3.243   1.589   3.460  2.2745  0.6567 -0.3805
 6114SOL    HW229805   3.365   1.577   3.541  0.6570  0.3904 -0.5985
 6115SOL     OW29806   0.578   0.810  17.689  0.4130 -1.0851  0.0717
 6115SOL    HW129807   0.556   0.862  17.611  1.3967 -3.0298 -1.4748
 6115SOL    HW229808   0.668   0.784  17.671  1.7422  2.4636  1.4184
 6116SOL     OW29809   3.309   3.055   2.900  0.0204  0.2766  0.2080
 6116SOL    HW129810   3.321   2.984   2.964  1.6803 -0.7203 -1.2041
 6116SOL    HW229811   3.392   3.044   2.853 -1.0996 -0.0469 -1.6938
 6117SOL     OW29812   3.858   3.625  13.839  0.4837  0.1654 -0.0713
 6117SOL    HW129813   3.782   3.669  13.879  2.0472 -0.2362  3.2917
 6117SOL    HW229814   3.930   3.685  13.821  0.5962 -0.7041 -2.4739
 6118SOL     OW29815   0.389   4.429   5.060  0.0586  0.1574  0.3156
 6118SOL    HW129816   0.407   4.361   5.124 -1.2380  0.2296  0.7583
 6118SOL    HW229817   0.413   4.504   5.114 -1.7661 -0.1443  1.5650
 6119SOL     OW29818   0.051   3.791   7.870 -0.3101 -0.6435 -0.7434
 6119SOL    HW129819   4.718   3.793   7.948  2.8183 -0.1400  1.5378
 6119SOL    HW229820   4.707   3.801   7.803 -2.0247  0.6569  1.1580
 6120SOL     OW29821   1.948   2.606   4.117 -0.4302 -0.3396 -0.2180
 6120SOL    HW129822   1.941   2.670   4.046 -0.3313  0.0564  0.1339
 6120SOL    HW229823   2.040   2.610   4.143 -1.2132 -1.2030  2.6952
 6121SOL     OW29824   2.007   1.488   4.250  0.1116  0.0570  0.1460
 6121SOL    HW129825   1.912   1.492   4.252  0.1483  1.1416 -0.0317
 6121SOL    HW229826   2.025   1.423   4.318  0.0318 -0.0570  0.0571
 6122SOL     OW29827   3.268   2.394   9.563  0.2326  0.9463  0.7026
 6122SOL    HW129828   3.362   2.385   9.583  0.1117 -0.9419  0.4097
 6122SOL    HW229829   3.247   2.330   9.495 -0.3290  0.1168  1.6495
 6123SOL     OW29830   1.462   2.740  13.088 -0.6437 -0.4866  0.0508
 6123SOL    HW129831   1.497   2.658  13.054 -1.3486 -0.3604 -0.9562
 6123SOL    HW229832   1.414   2.772  13.012 -0.6561 -1.0209 -0.1668
 6124SOL     OW29833   4.602   3.266   3.723  0.4541  0.8945 -0.1475
 6124SOL    HW129834   4.666   3.286   3.792 -0.9729 -0.2772  1.5096
 6124SOL    HW229835   4.558   3.349   3.706  1.4219  1.3013 -0.6468
 6125SOL     OW29836   4.213   4.664   6.438  0.2084 -0.6386  0.0698
 6125SOL    HW129837   4.121   4.685   6.454  0.1121 -0.4184 -0.7883
 6125SOL    HW229838   4.245   0.022   6.401 -1.4176 -1.0616 -2.2639
 6126SOL     OW29839   4.036   3.329   6.831  0.4602  0.4433  0.3024
 6126SOL    HW129840   4.103   3.367   6.888  1.1467 -1.3828  0.7122
 6126SOL    HW229841   4.094   3.291   6.765  0.7326 -1.2835  1.5464
 6127SOL     OW29842   3.189   0.415  10.943  0.1928 -0.0065  0.2293
 6127SOL    HW129843   3.271   0.366  10.947 -0.0602 -0.4421  0.0218
 6127SOL    HW229844   3.218   0.504  10.922  0.2501 -0.0206  0.2487
 6128SOL     OW29845   3.498   0.440   0.337  0.0936 -0.0672 -0.1147
 6128SOL    HW129846   3.499   0.535   0.348  0.6782  0.1308 -1.8981
 6128SOL    HW229847   3.416   0.413   0.296 -0.6679 -0.1272  1.4699
 6129SOL     OW29848   0.445   0.326   7.661  0.5667  0.6208 -0.6748
 6129SOL    HW129849   0.536   0.355   7.657  0.3456  1.3067 -0.6367
 6129SOL    HW229850   0.433   0.274   7.582 -1.3615 -1.5926  1.0602
 6130SOL     OW29851   1.794   0.435  14.202 -0.5263 -0.6632 -0.2743
 6130SOL    HW129852   1.798   0.356  14.148 -0.7973  0.5976 -2.1446
 6130SOL    HW229853   1.782   0.505  14.137  0.5731 -1.2516 -1.1010
 6131SOL     OW29854   0.735   2.117   3.497 -0.3139  0.1894  0.1357
 6131SOL    HW129855   0.727   2.213   3.492  0.9214  0.2825 -0.0892
 6131SOL    HW229856   0.712   2.110   3.590  1.0049  0.7817  0.5131
 6132SOL     OW29857   3.554   2.397   9.579  0.1045  0.8017 -0.5761
 6132SOL    HW129858   3.626   2.334   9.576 -1.5700 -1.1516  0.2261
 6132SOL    HW229859   3.582   2.441   9.659  0.9607 -0.0362 -0.4120
 6133SOL     OW29860   2.506   1.534  17.388  0.4767 -0.0488  0.0466
 6133SOL    HW129861   2.423   1.580  17.400  0.5604 -0.0082  0.4663
 6133SOL    HW229862   2.552   1.579  17.318  0.8606  1.6001  1.3516
 6134SOL     OW29863   1.163   0.338   6.933  0.2358  0.1490 -0.0011
 6134SOL    HW129864   1.179   0.420   6.885 -0.9663 -1.2132 -2.6942
 6134SOL    HW229865   1.239   0.291   6.898 -0.0556 -0.6022  0.3853
 6135SOL     OW29866   3.854   2.596  10.391 -0.0153  0.0069  0.1065
 6135SOL    HW129867   3.949   2.591  10.405  0.3629  3.0738 -1.3044
 6135SOL    HW229868   3.830   2.601  10.483 -1.2831 -1.7482 -0.1393
 6136SOL     OW29869   2.516   4.164  16.329  0.6663  0.6377 -0.8915
 6136SOL    HW129870   2.603   4.143  16.294 -0.5140 -0.9426 -2.8530
 6136SOL    HW229871   2.455   4.150  16.257  0.5128 -2.5039 -0.1791
 6137SOL     OW29872   4.568   0.774   1.511 -0.6736  0.8721 -0.1264
 6137SOL    HW129873   4.653   0.819   1.509 -1.2684  2.1063  1.8903
 6137SOL    HW229874   4.564   0.744   1.420  0.5778 -0.0318  0.1062
 6138SOL     OW29875   2.057   1.291   0.065  0.5792 -0.2216  0.1736
 6138SOL    HW129876   2.073   1.385   0.058 -2.2749  0.1660 -1.1220
 6138SOL    HW229877   1.963   1.291   0.082  0.7222 -0.8785  0.9704
 6139SOL     OW29878   1.554   2.591  11.673 -0.2150 -0.0006  0.7519
 6139SOL    HW129879   1.635   2.580  11.623 -0.7992  0.4149 -0.2803
 6139SOL    HW229880   1.518   2.503  11.672  0.9045 -0.4643  0.7135
 6140SOL     OW29881   4.035   1.682   1.942 -0.1761 -0.0196  0.0934
 6140SOL    HW129882   4.003   1.751   2.000 -0.5942  0.3724 -0.6130
 6140SOL    HW229883   4.077   1.726   1.868 -2.0172  1.2465 -0.1961
 6141SOL     OW29884   0.024   4.642   4.843  0.1875 -0.5879  0.4866
 6141SOL    HW129885   4.688   4.716   4.835 -1.2134 -1.7243  0.4760
 6141SOL    HW229886   0.027   4.627   4.937 -0.5261  2.7492  1.0227
 6142SOL     OW29887   4.119   3.731   7.273  0.1691 -0.3459  0.2237
 6142SOL    HW129888   4.142   3.822   7.252 -0.5972  0.2693  2.1218
 6142SOL    HW229889   4.145   3.721   7.364 -2.2575 -2.5760  0.6757
 6143SOL     OW29890   2.445   4.672  13.830 -0.2739 -0.4589 -0.4187
 6143SOL    HW129891   2.532   4.678  13.789  0.0172 -1.0892  0.1080
 6143SOL    HW229892   2.439   4.581  13.857 -0.0758  0.4629  2.7195
 6144SOL     OW29893   4.653   1.997  11.336 -0.3316 -0.0403  0.3060
 6144SOL    HW129894   4.713   2.014  11.409  0.7613 -0.1334 -0.5687
 6144SOL    HW229895   4.702   2.036  11.264  0.8606 -0.1531  1.0574
 6145SOL     OW29896   3.402   3.993   4.111  0.0636 -0.3689 -0.1649
 6145SOL    HW129897   3.459   4.070   4.100 -0.6369  0.3427  1.1306
 6145SOL    HW229898   3.460   3.917   4.114 -0.8921 -1.0791  0.4253
 6146SOL     OW29899   2.106   1.734   3.054  0.9647  0.2983  0.1105
 6146SOL    HW129900   2.014   1.739   3.031  0.9291  0.8771  0.3821
 6146SOL    HW229901   2.144   1.780   2.980  0.0483 -0.0185 -0.5538
 6147SOL     OW29902   0.235   1.188   5.954  0.4962  0.1307 -0.2749
 6147SOL    HW129903   0.243   1.282   5.940  1.4809  0.2408  1.0284
 6147SOL    HW229904   0.322   1.165   5.987  0.4161  2.8403  1.8746
 6148SOL     OW29905   1.767   1.821   5.104 -0.9055 -0.1522  0.7274
 6148SOL    HW129906   1.760   1.883   5.177  0.2216  1.4461 -0.5139
 6148SOL    HW229907   1.854   1.782   5.110  0.1159  1.8036 -1.5155
 6149SOL     OW29908   1.612   1.042   5.186  0.3139 -0.4259  0.0801
 6149SOL    HW129909   1.664   0.964   5.167 -1.2155 -1.5115  0.3586
 6149SOL    HW229910   1.530   1.009   5.150  0.1367 -2.2247  2.1165
 6150SOL     OW29911   1.520   2.900   1.540  0.1307 -0.6803  0.6325
 6150SOL    HW129912   1.584   2.969   1.522 -0.4202 -0.7908 -1.7462
 6150SOL    HW229913   1.447   2.927   1.483  0.5488 -0.5648  0.1533
 6151SOL     OW29914   1.278   0.480   3.159 -0.5833 -0.5636  0.1853
 6151SOL    HW129915   1.345   0.546   3.176  0.1425 -1.0947 -0.6193
 6151SOL    HW229916   1.291   0.483   3.064 -0.6163  0.0512  0.2043
 6152SOL     OW29917   1.778   0.791   8.746 -0.2384  0.3806 -0.2429
 6152SOL    HW129918   1.719   0.724   8.781 -2.0103  2.5663  0.9772
 6152SOL    HW229919   1.819   0.748   8.671  1.5878 -0.4111  1.2241
 6153SOL     OW29920   2.937   3.534   5.465 -0.3089 -0.2340 -0.5042
 6153SOL    HW129921   2.982   3.456   5.433 -1.1178 -1.0577  0.3847
 6153SOL    HW229922   2.851   3.494   5.470  0.0133 -1.0214 -1.2832
 6154SOL     OW29923   3.615   3.496   8.612  0.0499  0.3897  0.6067
 6154SOL    HW129924   3.691   3.452   8.649  0.1834  0.8058  0.8233
 6154SOL    HW229925   3.575   3.419   8.572 -0.0879  0.8739 -0.1945
 6155SOL     OW29926   3.328   1.166   9.033  0.6609  0.3205  0.4244
 6155SOL    HW129927   3.392   1.226   9.071  1.2693 -0.0823  0.0243
 6155SOL    HW229928   3.243   1.193   9.069  0.8650 -0.3418  1.3834
 6156SOL     OW29929   1.579   0.869   0.231  0.0027 -0.1316  0.1224
 6156SOL    HW129930   1.619   0.791   0.191  1.5560 -0.6555  2.6508
 6156SOL    HW229931   1.645   0.874   0.300  0.6413 -4.0180 -0.2135
 6157SOL     OW29932   1.483   4.076   2.617  0.1823 -0.0131 -0.2917
 6157SOL    HW129933   1.567   4.108   2.647  0.1652  0.3654 -0.6402
 6157SOL    HW229934   1.489   3.982   2.636 -0.5317 -0.1090 -0.5104
 6158SOL     OW29935   4.081   3.669   8.491 -0.0460  0.1089  0.0517
 6158SOL    HW129936   4.068   3.677   8.585  0.9138  2.8952 -0.0313
 6158SOL    HW229937   4.011   3.720   8.450  0.1145  0.5025  0.2682
 6159SOL     OW29938   1.763   4.249   2.769  0.0252  0.1327 -0.3563
 6159SOL    HW129939   1.771   4.176   2.830 -1.1007  1.4347  1.3524
 6159SOL    HW229940   1.827   4.220   2.704  1.1723 -1.2037  1.3690
 6160SOL     OW29941   1.822   3.414   4.524 -0.2982  0.3039  0.2770
 6160SOL    HW129942   1.912   3.430   4.497 -0.1067  0.5944  1.0767
 6160SOL    HW229943   1.804   3.492   4.577 -1.0776 -2.5916  4.3698
 6161SOL     OW29944   4.389   2.210   8.746  0.3199 -0.5101  0.1768
 6161SOL    HW129945   4.359   2.258   8.823 -0.2153 -1.3777  0.5110
 6161SOL    HW229946   4.450   2.154   8.793  0.9579 -1.0200 -1.2595
 6162SOL     OW29947   0.417   3.492   7.597 -0.2411 -0.2796  0.1536
 6162SOL    HW129948   0.391   3.495   7.689  0.8820 -0.4253  0.4845
 6162SOL    HW229949   0.340   3.464   7.548 -0.3631 -0.2168  0.3091
 6163SOL     OW29950   1.707   4.676   9.338 -0.3633 -0.6703  0.4080
 6163SOL    HW129951   1.631   4.620   9.327 -0.4272 -0.3312 -0.9838
 6163SOL    HW229952   1.777   4.639   9.284 -0.6234 -0.6842  0.0797
 6164SOL     OW29953   2.733   3.441   8.724 -0.2703  0.1405 -0.4811
 6164SOL    HW129954   2.794   3.512   8.745  1.1027 -1.6008  1.4769
 6164SOL    HW229955   2.674   3.439   8.800  0.3599 -1.3277 -0.0163
 6165SOL     OW29956   2.641   4.360   8.131 -0.0797  0.5295 -0.2260
 6165SOL    HW129957   2.557   4.392   8.164  0.9986  3.0531  0.0620
 6165SOL    HW229958   2.665   4.311   8.209 -1.0478 -0.0362 -0.2777
 6166SOL     OW29959   4.323   0.868   1.603  0.6673 -0.0871 -0.2827
 6166SOL    HW129960   4.395   0.829   1.552  1.4234  2.4125 -1.1092
 6166SOL    HW229961   4.335   0.961   1.585 -0.4562  0.2912  0.9570
 6167SOL     OW29962   0.010   3.328   2.277  0.5565  1.1461 -0.3274
 6167SOL    HW129963   0.006   3.294   2.187  1.1007  1.3254 -0.4168
 6167SOL    HW229964   4.687   3.265   2.332 -0.3346  0.6772 -1.6165
 6168SOL     OW29965   1.784   3.231   4.729 -0.2165  0.1688  0.2560
 6168SOL    HW129966   1.784   3.306   4.670 -1.6002 -1.8028 -2.2917
 6168SOL    HW229967   1.781   3.158   4.667  2.8046  0.9160 -0.7608
 6169SOL     OW29968   0.760   1.321   7.406  0.2451  0.3625 -0.2611
 6169SOL    HW129969   0.694   1.322   7.475  0.3537 -1.5424 -0.1221
 6169SOL    HW229970   0.750   1.407   7.365 -1.1670  0.1271 -0.4256
 6170SOL     OW29971   1.718   1.987   3.108 -0.0640 -0.0018 -0.3735
 6170SOL    HW129972   1.755   2.069   3.143 -0.8842 -0.6330  1.9473
 6170SOL    HW229973   1.735   1.928   3.180 -0.9541  2.1649  1.6089
 6171SOL     OW29974   0.071   1.468  11.092  0.6275 -0.0246 -0.7835
 6171SOL    HW129975   0.055   1.515  11.174  3.2774  0.3665 -0.5030
 6171SOL    HW229976   0.145   1.506  11.046  0.9019  0.9425  0.4383
 6172SOL     OW29977   0.462   0.612   6.290  0.6997 -0.3513  0.0323
 6172SOL    HW129978   0.416   0.555   6.229  0.7659 -0.5252  0.1456
 6172SOL    HW229979   0.546   0.567   6.283  0.1828 -1.4580  0.9440
 6173SOL     OW29980   1.623   4.411  15.429 -0.1502 -0.2642 -0.0057
 6173SOL    HW129981   1.541   4.396  15.381 -1.4050  2.4971  1.3036
 6173SOL    HW229982   1.671   4.353  15.370  1.1575  0.9819 -0.1614
 6174SOL     OW29983   0.780   4.008   9.016 -0.3958 -0.2066  0.4225
 6174SOL    HW129984   0.841   3.981   8.947 -0.5335  0.0541  0.1985
 6174SOL    HW229985   0.729   4.071   8.965  0.5709 -0.5015 -0.9339
 6175SOL     OW29986   0.756   3.602   4.286 -0.2023 -0.1053  0.8049
 6175SOL    HW129987   0.830   3.545   4.306  2.4821  2.2842 -2.2043
 6175SOL    HW229988   0.804   3.654   4.221  0.0502 -0.1492  0.9554
 6176SOL     OW29989   1.061   2.578  13.445  0.0831 -0.7655 -0.3026
 6176SOL    HW129990   1.131   2.606  13.386  1.6715 -0.2283  1.8622
 6176SOL    HW229991   1.074   2.651  13.505  0.5357 -1.8925  0.9610
 6177SOL     OW29992   1.238   2.089   7.234  0.8533 -0.0012 -0.1785
 6177SOL    HW129993   1.234   2.060   7.325  1.4844 -1.7429 -0.6862
 6177SOL    HW229994   1.185   2.168   7.234 -0.9841 -1.2378 -0.3856
 6178SOL     OW29995   4.094   3.838   4.245 -0.6318 -0.2757 -0.1106
 6178SOL    HW129996   4.012   3.886   4.247 -0.0952  0.6904 -1.0113
 6178SOL    HW229997   4.162   3.906   4.240 -1.2459  0.4591  1.3936
 6179SOL     OW29998   3.195   3.469  17.171  0.1343  0.2363  0.3151
 6179SOL    HW129999   3.175   3.382  17.206  1.0855 -0.3739 -0.6821
 6179SOL    HW230000   3.291   3.479  17.176 -0.3125  4.0270  2.1612
 6180SOL     OW30001   0.905   3.931   6.337 -0.2596  0.0303 -0.1044
 6180SOL    HW130002   0.846   3.999   6.371 -0.5711  0.0976 -0.7862
 6180SOL    HW230003   0.881   3.913   6.246 -1.1687  0.4894  0.0469
 6181SOL     OW30004   4.663   1.819   4.935 -0.1123 -0.2241 -0.1984
 6181SOL    HW130005   0.034   1.807   4.944  0.1840  1.5315 -0.8491
 6181SOL    HW230006   4.623   1.735   4.913  0.8911 -0.3240 -1.6422
 6182SOL     OW30007   1.723   3.867   9.166 -0.6514  0.2860  0.1364
 6182SOL    HW130008   1.786   3.804   9.133 -0.9140  0.7380 -1.2223
 6182SOL    HW230009   1.718   3.849   9.260 -1.2673  1.1594  0.2689
 6183SOL     OW30010   3.583   1.024   4.009  0.0755  0.2941  0.2132
 6183SOL    HW130011   3.620   0.939   4.031 -1.7052 -1.0419 -1.9857
 6183SOL    HW230012   3.635   1.052   3.933  1.2110 -0.5588  0.6784
 6184SOL     OW30013   2.384   4.112   8.838  0.2487  0.3616 -0.5753
 6184SOL    HW130014   2.339   4.108   8.923  0.9526 -1.5115 -0.2813
 6184SOL    HW230015   2.411   4.021   8.825  1.4724  0.2400  2.9203
 6185SOL     OW30016   1.274   1.998   2.847 -0.2086  0.4889 -0.1375
 6185SOL    HW130017   1.210   2.068   2.835  0.9910  1.4666 -0.8049
 6185SOL    HW230018   1.219   1.929   2.882 -0.1046 -0.1594 -1.2386
 6186SOL     OW30019   4.666   2.234  13.756  0.2296 -0.2124 -0.2794
 6186SOL    HW130020   4.690   2.265  13.669 -1.2610 -1.6156 -1.1889
 6186SOL    HW230021   4.573   2.214  13.740  0.5629 -1.7501 -0.2830
 6187SOL     OW30022   1.304   2.376  11.907 -0.3973  0.2170  0.1125
 6187SOL    HW130023   1.291   2.310  11.975  1.9264 -0.5022 -0.1295
 6187SOL    HW230024   1.378   2.343  11.855 -0.1913 -2.1222  1.9412
 6188SOL     OW30025   1.219   3.802   6.966  0.0626 -0.2157  0.2404
 6188SOL    HW130026   1.178   3.863   6.904 -0.9309 -0.1011  1.0008
 6188SOL    HW230027   1.210   3.856   7.045 -0.1595 -0.1410  0.1646
 6189SOL     OW30028   2.810   1.277   1.671 -0.2003  0.1545 -0.3527
 6189SOL    HW130029   2.748   1.235   1.611  1.4696 -3.7062  0.6508
 6189SOL    HW230030   2.867   1.202   1.686 -0.5770 -0.2918 -1.1858
 6190SOL     OW30031   3.761   4.224   5.273  0.7912  0.3652 -0.1122
 6190SOL    HW130032   3.783   4.134   5.296 -2.9047 -0.7711 -0.8994
 6190SOL    HW230033   3.771   4.274   5.354  0.5535  0.7706 -0.3375
 6191SOL     OW30034   3.239   0.726  11.787 -0.2641 -0.6494 -0.0711
 6191SOL    HW130035   3.302   0.687  11.848 -1.9083 -0.6713  1.6078
 6191SOL    HW230036   3.273   0.692  11.704  0.2227  0.7613 -0.4580
 6192SOL     OW30037   0.714   4.684  16.604  0.0426 -0.1630  0.4751
 6192SOL    HW130038   0.623   4.656  16.603  0.1441 -0.4372 -2.5722
 6192SOL    HW230039   0.700   0.055  16.597  2.6300  0.2531  0.7966
 6193SOL     OW30040   4.373   1.400   9.222 -0.4584 -0.4017  0.5124
 6193SOL    HW130041   4.412   1.345   9.290  1.3553  1.7474  1.2089
 6193SOL    HW230042   4.346   1.478   9.271 -2.0611  0.5257 -1.8714
 6194SOL     OW30043   2.010   3.660  17.002 -0.2673 -0.6058 -0.1310
 6194SOL    HW130044   2.056   3.637  17.083  0.3121  0.8719 -0.0556
 6194SOL    HW230045   1.937   3.713  17.034 -0.4999  0.1357 -1.8946
 6195SOL     OW30046   4.644   2.887   0.941 -0.7740  0.2834  0.2979
 6195SOL    HW130047   4.614   2.972   0.909 -0.8457  0.4450  0.7966
 6195SOL    HW230048   4.693   2.917   1.017  1.1610  0.5518 -1.0729
 6196SOL     OW30049   1.053   3.121  15.636 -0.4100  0.7477  0.1339
 6196SOL    HW130050   0.978   3.071  15.667  0.9030 -2.7229 -2.3346
 6196SOL    HW230051   1.119   3.053  15.629 -0.2851  0.8247  0.6074
 6197SOL     OW30052   4.089   2.744   7.373 -0.3356 -0.2726 -0.1227
 6197SOL    HW130053   4.149   2.784   7.436  0.2465  1.8743 -2.0182
 6197SOL    HW230054   4.133   2.726   7.290  1.3387 -2.2894  1.2234
 6198SOL     OW30055   1.663   3.201   8.868 -0.0489  0.0355  0.2096
 6198SOL    HW130056   1.701   3.277   8.912 -2.0280  1.6490 -0.8706
 6198SOL    HW230057   1.743   3.149   8.875 -0.2573  0.0320  2.6657
 6199SOL     OW30058   2.188   0.642   9.454 -0.3972  0.2484  0.2190
 6199SOL    HW130059   2.244   0.619   9.379 -1.2462  0.0609 -0.3555
 6199SOL    HW230060   2.219   0.570   9.509  0.8382  0.3710 -0.3105
 6200SOL     OW30061   2.300   4.510   7.402 -0.8867  0.1377 -0.0785
 6200SOL    HW130062   2.344   4.571   7.343 -0.0564  0.1323  0.5396
 6200SOL    HW230063   2.210   4.541   7.393 -0.8119 -0.1806 -1.9998
 6201SOL     OW30064   4.275   2.388   6.525 -0.6051 -0.0383  0.3368
 6201SOL    HW130065   4.208   2.415   6.587 -0.4292 -0.7671  0.8382
 6201SOL    HW230066   4.341   2.346   6.581  0.4631 -0.5372 -1.2989
 6202SOL     OW30067   3.222   2.009   4.028  0.3442  0.3422  0.6662
 6202SOL    HW130068   3.269   1.945   3.975  0.2339 -0.9921  2.2025
 6202SOL    HW230069   3.259   1.986   4.112 -0.0624 -2.0355  0.1913
 6203SOL     OW30070   0.942   1.382   8.757 -0.0243  0.1567  0.2694
 6203SOL    HW130071   0.929   1.466   8.712  1.3379 -0.6905 -1.6842
 6203SOL    HW230072   0.944   1.330   8.677  2.8217  0.4838  0.1463
 6204SOL     OW30073   1.655   3.446   7.199  0.2003  0.1800 -0.5701
 6204SOL    HW130074   1.639   3.528   7.247  1.5037  0.4393 -0.5810
 6204SOL    HW230075   1.678   3.391   7.274 -0.3162 -1.1888 -1.4210
 6205SOL     OW30076   4.509   4.218   5.557 -0.1919 -0.1458 -0.4611
 6205SOL    HW130077   4.479   4.203   5.467 -3.4513 -0.7496  0.7495
 6205SOL    HW230078   4.546   4.131   5.570 -1.0581 -0.1380  2.0135
 6206SOL     OW30079   3.237   2.101  17.531  0.1377  0.2995 -0.5270
 6206SOL    HW130080   3.160   2.115  17.476 -2.2979 -1.8774  2.3658
 6206SOL    HW230081   3.306   2.139  17.476 -0.2712  1.9775  0.1132
 6207SOL     OW30082   3.714   0.802  12.929 -0.0143 -0.0681 -0.4503
 6207SOL    HW130083   3.659   0.846  12.993  1.9624  1.4519  0.2201
 6207SOL    HW230084   3.800   0.811  12.970 -0.3538 -0.2560  0.2938
 6208SOL     OW30085   1.628   2.217   8.086  0.2394  0.3075 -0.3080
 6208SOL    HW130086   1.538   2.236   8.111 -0.6188  0.8472 -3.9501
 6208SOL    HW230087   1.617   2.131   8.044  1.4506  0.4127 -0.8380
 6209SOL     OW30088   1.370   0.537  12.496  0.0416 -0.7896 -0.1522
 6209SOL    HW130089   1.395   0.609  12.439 -1.4601 -0.0399  0.1395
 6209SOL    HW230090   1.455   0.495  12.509 -0.3928 -1.2693  1.1694
 6210SOL     OW30091   3.316   2.691   9.602  0.7855 -0.8319  0.3173
 6210SOL    HW130092   3.280   2.607   9.576 -2.4408  1.0829 -1.4387
 6210SOL    HW230093   3.337   2.671   9.693 -0.5435  1.3827  1.1084
 6211SOL     OW30094   2.056   4.700  13.069  0.2689 -0.5528 -0.3451
 6211SOL    HW130095   1.973   0.014  13.040  0.2358 -0.4415 -0.1005
 6211SOL    HW230096   2.090   4.647  12.997  0.6507  0.9253 -1.2609
 6212SOL     OW30097   3.763   0.844   5.044 -0.3325 -0.0394  0.1424
 6212SOL    HW130098   3.824   0.890   5.101  0.5827 -1.2780  0.1861
 6212SOL    HW230099   3.795   0.754   5.054 -0.9748 -0.6518 -3.2835
 6213SOL     OW30100   3.732   3.426   7.108  0.2582 -0.5980  0.3939
 6213SOL    HW130101   3.779   3.490   7.054 -1.5469  1.5070  1.3276
 6213SOL    HW230102   3.709   3.486   7.179  0.3272 -1.8562  1.4655
 6214SOL     OW30103   0.388   1.415   2.725  0.0396 -0.7539 -0.0694
 6214SOL    HW130104   0.325   1.344   2.734  0.3612 -0.9198  0.9397
 6214SOL    HW230105   0.328   1.481   2.690 -1.5565 -1.3793  1.4488
 6215SOL     OW30106   2.499   0.943   6.985 -0.2916  0.3750  0.0079
 6215SOL    HW130107   2.570   0.975   7.039 -1.0819  1.6212  0.3000
 6215SOL    HW230108   2.523   0.850   6.991 -1.4161  0.0909  0.2446
 6216SOL     OW30109   2.186   1.080   9.114 -0.1511  0.0647  0.4050
 6216SOL    HW130110   2.273   1.042   9.119  0.7645  1.8872 -1.4867
 6216SOL    HW230111   2.171   1.120   9.200  0.3163  3.2795 -1.0097
 6217SOL     OW30112   0.493   3.403   4.661  0.2946 -0.0379  0.5984
 6217SOL    HW130113   0.544   3.351   4.600  0.2090  2.1238 -1.3190
 6217SOL    HW230114   0.412   3.356   4.640 -0.9927  2.4688 -0.0922
 6218SOL     OW30115   1.503   0.933   8.079  0.5288  0.2932  0.2744
 6218SOL    HW130116   1.556   0.989   8.023  0.5534 -0.1999 -0.2001
 6218SOL    HW230117   1.506   0.999   8.148 -0.0751  1.0015 -0.3679
 6219SOL     OW30118   0.948   3.454   6.873  0.3802  0.1173  0.1251
 6219SOL    HW130119   1.039   3.480   6.860  1.3557 -2.4243  1.7194
 6219SOL    HW230120   0.903   3.537   6.890 -0.2351  0.0619 -1.2993
 6220SOL     OW30121   0.001   1.428   3.419 -0.2907 -0.3292  0.1713
 6220SOL    HW130122   4.666   1.404   3.348  0.8535 -0.5629 -0.6944
 6220SOL    HW230123   0.054   1.498   3.380  0.3950 -0.9416  0.0213
 6221SOL     OW30124   4.400   0.697   4.918  0.0676  0.0930  0.1672
 6221SOL    HW130125   4.310   0.704   4.950 -0.1411 -2.7090  0.1843
 6221SOL    HW230126   4.412   0.779   4.871 -1.7803  0.0777 -0.3410
 6222SOL     OW30127   2.173   4.342   9.572 -0.5922  0.1405  0.0160
 6222SOL    HW130128   2.259   4.301   9.564 -0.6031  0.2163 -0.4925
 6222SOL    HW230129   2.177   4.420   9.517 -0.2799 -0.6411 -1.0715
 6223SOL     OW30130   2.877   0.097   8.981 -0.3149 -0.3460  0.3204
 6223SOL    HW130131   2.785   0.083   9.006 -1.0496 -0.3175 -2.3810
 6223SOL    HW230132   2.868   0.134   8.893 -1.0607 -1.6454 -0.1519
 6224SOL     OW30133   3.557   3.687   8.927  0.1126 -0.8716  0.5140
 6224SOL    HW130134   3.592   3.614   8.979  2.9656  0.2013  0.1093
 6224SOL    HW230135   3.609   3.760   8.959  1.8774 -1.7172 -0.4365
 6225SOL     OW30136   2.244   0.355   3.426  0.3614 -0.3246  0.4107
 6225SOL    HW130137   2.265   0.264   3.446  0.6641 -0.3756 -0.1627
 6225SOL    HW230138   2.153   0.348   3.396 -0.1527  2.2331  1.3671
 6226SOL     OW30139   3.643   0.435  11.259 -0.0328 -0.3429  0.4415
 6226SOL    HW130140   3.671   0.421  11.169 -0.3050  1.6246  0.0630
 6226SOL    HW230141   3.648   0.349  11.301  0.8245 -0.7749 -0.5666
 6227SOL     OW30142   1.985   4.285   4.461  0.6564 -0.0843 -0.1096
 6227SOL    HW130143   2.007   4.209   4.407  0.3853  0.1079 -0.4933
 6227SOL    HW230144   1.982   4.245   4.548  1.1582  2.1309  0.9248
 6228SOL     OW30145   4.352   3.445   0.857  0.1973 -0.1070  0.0525
 6228SOL    HW130146   4.394   3.504   0.919 -1.4973  1.1100  0.0489
 6228SOL    HW230147   4.275   3.432   0.913 -0.7523 -1.5043 -1.5861
 6229SOL     OW30148   4.187   3.805  13.262  0.6788  0.4886  0.5601
 6229SOL    HW130149   4.109   3.771  13.219 -0.3079  1.0050  1.9091
 6229SOL    HW230150   4.255   3.744  13.236 -0.4652  0.2622 -1.8719
 6230SOL     OW30151   2.522   0.105   2.227  0.3301 -0.5893  0.2706
 6230SOL    HW130152   2.527   0.094   2.322  1.0724  0.5345  0.3721
 6230SOL    HW230153   2.470   0.026   2.213 -1.3629  0.3342  1.3667
 6231SOL     OW30154   1.701   0.192  13.845  0.1289 -0.1011 -0.4118
 6231SOL    HW130155   1.783   0.161  13.805  0.8926  1.3797  0.0034
 6231SOL    HW230156   1.713   0.286  13.834  1.5839 -0.4506 -1.7944
 6232SOL     OW30157   2.442   4.512   5.912  0.5163 -0.6306 -0.7024
 6232SOL    HW130158   2.420   4.580   5.976 -0.1960 -2.0330  0.5513
 6232SOL    HW230159   2.536   4.528   5.907  0.6337 -1.2629 -0.5585
 6233SOL     OW30160   3.240   0.985  10.298 -0.2411 -0.1091 -0.0549
 6233SOL    HW130161   3.168   0.924  10.306 -1.2853  1.0110 -0.8375
 6233SOL    HW230162   3.191   1.062  10.328 -0.5170 -0.2713 -0.0980
 6234SOL     OW30163   2.770   0.572   6.542 -0.4548 -1.1250 -0.0378
 6234SOL    HW130164   2.837   0.637   6.521 -1.7417 -0.0157 -0.7141
 6234SOL    HW230165   2.788   0.518   6.466  0.8345  2.4307 -2.2672
 6235SOL     OW30166   4.480   4.360  10.904 -0.1043 -0.0578  0.2996
 6235SOL    HW130167   4.517   4.275  10.930  1.2674  0.4999  0.1810
 6235SOL    HW230168   4.473   4.401  10.990 -1.2940 -1.1134  0.6986
 6236SOL     OW30169   2.980   3.301   2.895  0.5137  0.1421  0.2814
 6236SOL    HW130170   2.989   3.360   2.820  1.2781  2.0579  1.8492
 6236SOL    HW230171   2.942   3.221   2.860  0.0852 -0.5614  2.3902
 6237SOL     OW30172   2.199   0.328   1.662 -0.4266 -0.4425  0.1645
 6237SOL    HW130173   2.209   0.287   1.748  1.7729 -0.5354 -0.1352
 6237SOL    HW230174   2.289   0.335   1.631 -0.3197 -0.8368  0.3760
 6238SOL     OW30175   2.394   2.657  11.644  0.6673  0.1050 -0.0374
 6238SOL    HW130176   2.407   2.751  11.661  1.0499  0.1883 -0.7856
 6238SOL    HW230177   2.476   2.612  11.666  0.1248 -0.2108  1.3074
 6239SOL     OW30178   3.295   3.089  13.225 -0.5343  0.3837  0.4097
 6239SOL    HW130179   3.231   3.130  13.283 -1.1470  0.0257 -0.0153
 6239SOL    HW230180   3.374   3.103  13.277 -0.9033 -3.6230  2.0784
 6240SOL     OW30181   4.636   3.577   5.660 -0.4748 -0.8114 -0.0336
 6240SOL    HW130182   4.717   3.528   5.648  0.3940  0.3111  1.2112
 6240SOL    HW230183   4.656   3.656   5.609 -0.3229 -0.2540  0.8940
 6241SOL     OW30184   0.414   0.915   8.390  0.5440 -0.0518 -0.0446
 6241SOL    HW130185   0.388   0.944   8.477 -0.9714  0.7967 -0.7740
 6241SOL    HW230186   0.493   0.863   8.405  0.3899  0.0991  1.2614
 6242SOL     OW30187   2.748   0.484   0.287 -0.3573 -0.9703 -0.1772
 6242SOL    HW130188   2.804   0.555   0.255  0.6238 -1.6857 -0.0530
 6242SOL    HW230189   2.764   0.486   0.381  0.9754 -1.9109 -0.3787
 6243SOL     OW30190   4.623   4.598   7.165  0.3581 -0.3395  0.4225
 6243SOL    HW130191   4.555   4.559   7.110  1.8184  1.1060 -2.4036
 6243SOL    HW230192   4.597   4.576   7.254 -0.2654  0.6088  0.4701
 6244SOL     OW30193   3.327   1.846   7.614  0.0748  0.0318 -0.3970
 6244SOL    HW130194   3.341   1.794   7.692  1.8451 -0.5799 -1.1274
 6244SOL    HW230195   3.231   1.838   7.611  0.0616 -0.7296  2.4361
 6245SOL     OW30196   3.664   0.599   8.068 -0.3123 -0.9115  0.3374
 6245SOL    HW130197   3.657   0.694   8.057  0.3942 -0.8102  0.7742
 6245SOL    HW230198   3.692   0.601   8.159  0.6842 -0.4157  0.0125
 6246SOL     OW30199   0.276   3.022   5.519  0.4214  0.4014 -0.1807
 6246SOL    HW130200   0.238   3.056   5.439  1.3184 -3.7925 -2.3770
 6246SOL    HW230201   0.246   2.932   5.529  2.2609 -0.3153 -1.1367
 6247SOL     OW30202   2.579   0.976  16.724  0.2469  0.1068 -0.1219
 6247SOL    HW130203   2.598   1.002  16.634 -0.2603 -2.2508 -0.9032
 6247SOL    HW230204   2.539   0.891  16.709  1.1599 -0.2093 -0.7442
 6248SOL     OW30205   0.077   4.529  10.204 -0.0327 -0.1533  0.4692
 6248SOL    HW130206   0.020   4.461  10.168 -0.2941 -0.1184  0.8118
 6248SOL    HW230207   0.053   4.521  10.297 -1.0143 -0.9251  0.1466
 6249SOL     OW30208   3.672   2.423   9.035 -0.6506 -0.6343 -0.1532
 6249SOL    HW130209   3.639   2.366   8.965 -0.2507 -2.5662  1.2231
 6249SOL    HW230210   3.693   2.498   8.980  0.5615 -1.9546 -1.5044
 6250SOL     OW30211   3.859   2.257   6.139 -0.9512 -0.8675  0.0293
 6250SOL    HW130212   3.858   2.216   6.052  1.9940  0.0910 -0.4675
 6250SOL    HW230213   3.954   2.250   6.151 -1.1763 -0.1670  2.2326
 6251SOL     OW30214   2.625   4.227   4.326 -0.1993 -0.0751  0.1747
 6251SOL    HW130215   2.666   4.270   4.400  1.1572  1.2634 -1.3691
 6251SOL    HW230216   2.664   4.139   4.322 -1.4267 -0.6211  0.1548
 6252SOL     OW30217   2.911   2.391   7.775  0.2028 -0.3493  0.0958
 6252SOL    HW130218   2.818   2.370   7.784  0.2336 -0.7341 -0.5048
 6252SOL    HW230219   2.916   2.411   7.682 -1.2008 -0.0694  0.0947
 6253SOL     OW30220   2.733   1.523   2.559 -0.2440  0.3948  0.8119
 6253SOL    HW130221   2.698   1.534   2.471  1.5652 -0.6185 -0.0165
 6253SOL    HW230222   2.740   1.428   2.551  0.8949  0.5310  0.2559
 6254SOL     OW30223   1.738   3.162   2.850 -0.1082 -0.8401 -0.6316
 6254SOL    HW130224   1.667   3.103   2.876  0.6302 -1.6248 -0.3670
 6254SOL    HW230225   1.726   3.237   2.908  1.6943 -1.0782  0.0577
 6255SOL     OW30226   3.537   2.460   7.671 -0.3168 -0.4665 -0.2127
 6255SOL    HW130227   3.487   2.392   7.625 -0.3694 -0.4005 -0.2518
 6255SOL    HW230228   3.472   2.529   7.682  0.5670  0.1940  0.8843
 6256SOL     OW30229   3.732   0.940   4.373 -0.5165  0.4686  0.2094
 6256SOL    HW130230   3.641   0.971   4.380 -0.4075  0.6229  0.9397
 6256SOL    HW230231   3.755   0.919   4.463 -2.2473  0.2193  0.6066
 6257SOL     OW30232   0.653   4.235   5.648  0.1105 -0.1153 -0.2272
 6257SOL    HW130233   0.682   4.260   5.735 -0.3937  0.0681 -0.1144
 6257SOL    HW230234   0.702   4.152   5.642 -1.6558 -1.1396 -0.5767
 6258SOL     OW30235   3.795   0.065   1.920  0.5093 -0.2821 -0.4093
 6258SOL    HW130236   3.882   0.027   1.911  0.1548 -0.7352 -1.9531
 6258SOL    HW230237   3.767   4.710   1.966  0.1684 -0.6313 -1.2154
 6259SOL     OW30238   2.713   4.692   4.485 -0.5693  0.4188 -0.1344
 6259SOL    HW130239   2.702   0.055   4.525  0.4236  0.6043 -0.2379
 6259SOL    HW230240   2.733   4.635   4.559  0.9046 -1.1298 -1.7245
 6260SOL     OW30241   0.117   1.031  15.504 -0.0674 -0.2744 -0.2260
 6260SOL    HW130242   0.079   0.947  15.480  0.8728 -0.8937  0.4403
 6260SOL    HW230243   0.129   1.011  15.597  1.9923 -0.0668 -0.4381
 6261SOL     OW30244   1.104   3.133   8.187  0.1389 -0.6087 -0.3432
 6261SOL    HW130245   1.103   3.165   8.278  1.2338 -0.6256 -0.3227
 6261SOL    HW230246   1.116   3.039   8.200 -1.3054 -0.6922  0.3963
 6262SOL     OW30247   4.367   2.921   1.093 -0.3404  0.2327 -0.1698
 6262SOL    HW130248   4.445   2.975   1.091  0.0730 -0.3879 -1.1460
 6262SOL    HW230249   4.371   2.885   1.004  0.5235  0.5702 -0.2609
 6263SOL     OW30250   3.569   1.899   5.421 -0.1114  0.3403  0.4002
 6263SOL    HW130251   3.578   1.989   5.391 -3.0106 -0.0163 -1.5217
 6263SOL    HW230252   3.559   1.855   5.337 -0.9973 -0.0297  0.6978
 6264SOL     OW30253   3.698   1.271   4.686  0.3958 -0.6130 -0.3381
 6264SOL    HW130254   3.768   1.208   4.668  0.6609  0.3120 -2.5082
 6264SOL    HW230255   3.655   1.245   4.767 -1.2191 -0.5237 -1.1665
 6265SOL     OW30256   1.997   1.053   7.127 -0.1154  0.1116 -0.1333
 6265SOL    HW130257   1.959   1.058   7.214  1.1968 -1.5981  0.5230
 6265SOL    HW230258   2.088   1.027   7.143 -0.3332  0.2029  1.2263
 6266SOL     OW30259   3.339   1.569   7.514  0.1139 -0.0389 -0.0750
 6266SOL    HW130260   3.403   1.615   7.568 -0.1468 -1.5309  1.5339
 6266SOL    HW230261   3.339   1.622   7.435  0.7483  0.0393 -0.0225
 6267SOL     OW30262   2.714   1.399   0.097  0.2806 -0.2824 -0.0877
 6267SOL    HW130263   2.704   1.306   0.116 -0.3937  0.1517  1.6637
 6267SOL    HW230264   2.627   1.418   0.132  0.2175 -3.8847  1.7227
 6268SOL     OW30265   0.269   4.202   4.697  0.1929  1.0596 -0.1922
 6268SOL    HW130266   0.332   4.268   4.668  2.0422 -0.2712  0.8211
 6268SOL    HW230267   0.220   4.242   4.768 -0.6412 -1.4256  0.6291
 6269SOL     OW30268   2.674   1.260   2.530 -0.3959 -0.0898 -0.0097
 6269SOL    HW130269   2.644   1.203   2.601 -1.6021  3.0703  2.0038
 6269SOL    HW230270   2.615   1.232   2.460  0.4259  1.9786 -1.5483
 6270SOL     OW30271   0.720   2.233  13.164 -0.3283  0.5228 -0.5786
 6270SOL    HW130272   0.733   2.311  13.218  1.5169  0.6992 -1.2785
 6270SOL    HW230273   0.627   2.216  13.180  0.7095 -2.0620  2.8002
 6271SOL     OW30274   1.474   0.128  16.659 -0.2278  0.5563  0.6495
 6271SOL    HW130275   1.548   0.073  16.633 -0.9547 -0.2372  0.2676
 6271SOL    HW230276   1.490   0.150  16.751 -2.8849  1.2920  0.9303
 6272SOL     OW30277   4.533   4.543   8.561 -0.0752  0.3404 -0.4036
 6272SOL    HW130278   4.459   4.502   8.606  1.0208 -1.8806 -0.6140
 6272SOL    HW230279   4.500   4.549   8.471  2.4436  0.8657 -1.2830
 6273SOL     OW30280   0.865   2.970   6.328  0.0373 -0.1675  0.0496
 6273SOL    HW130281   0.773   2.970   6.351 -0.2296  0.5135 -1.0314
 6273SOL    HW230282   0.902   2.932   6.408  0.5308  1.4533  0.6030
 6274SOL     OW30283   4.279   1.807  14.166 -0.3298  0.4343  0.2054
 6274SOL    HW130284   4.297   1.800  14.072  2.7856  2.1627  0.6869
 6274SOL    HW230285   4.251   1.718  14.189 -1.7198  0.5954 -0.8987
 6275SOL     OW30286   4.383   0.154   8.008 -0.0404 -0.0752  0.4741
 6275SOL    HW130287   4.323   0.205   7.954 -0.9270 -1.8877 -0.2555
 6275SOL    HW230288   4.430   0.219   8.059  0.1699  0.0190  0.1582
 6276SOL     OW30289   1.033   0.056   5.008  0.2755  0.5429  0.1320
 6276SOL    HW130290   1.036   0.044   5.102  1.5590  2.7584  0.3642
 6276SOL    HW230291   1.061   4.698   4.966  1.5957  1.4873 -0.8528
 6277SOL     OW30292   1.012   2.887  10.972  0.2075 -0.3868 -0.0886
 6277SOL    HW130293   1.080   2.955  10.976  0.1617 -0.4029  1.1682
 6277SOL    HW230294   1.033   2.849  10.887 -1.7989  0.7812 -1.0833
 6278SOL     OW30295   2.252   0.082  14.081 -0.6091 -0.1497  0.4529
 6278SOL    HW130296   2.193   0.153  14.054 -1.4462 -0.4176  1.5568
 6278SOL    HW230297   2.211   0.009  14.034  3.1081 -0.0530 -2.9357
 6279SOL     OW30298   2.375   0.474   1.272 -0.5628 -0.6135  0.2028
 6279SOL    HW130299   2.433   0.419   1.220 -0.3962  0.4079 -0.6980
 6279SOL    HW230300   2.310   0.516   1.216  0.2264  1.5284  0.8812
 6280SOL     OW30301   1.637   0.136  17.345 -0.4862 -0.3764 -0.4259
 6280SOL    HW130302   1.683   0.059  17.377 -0.2632 -0.3191 -0.6078
 6280SOL    HW230303   1.633   0.194  17.421 -0.7507 -0.1987 -0.5718
 6281SOL     OW30304   2.271   1.140   0.680 -0.0898 -0.4166  0.7109
 6281SOL    HW130305   2.181   1.172   0.687 -0.0747  0.4664 -3.2172
 6281SOL    HW230306   2.292   1.111   0.769  0.6525 -2.6570 -0.1807
 6282SOL     OW30307   3.156   4.107   2.959 -0.2531  0.1284 -0.2499
 6282SOL    HW130308   3.176   4.097   3.052 -0.1313  0.4187 -0.2454
 6282SOL    HW230309   3.140   4.016   2.932  2.6365 -0.4514  0.0238
 6283SOL     OW30310   0.284   2.417   6.368  0.3665 -0.2789  0.8003
 6283SOL    HW130311   0.247   2.503   6.350  1.0579  0.0145  0.7689
 6283SOL    HW230312   0.268   2.413   6.462 -0.5065  0.1375  0.6675
 6284SOL     OW30313   0.038   4.123   7.609  0.1312  0.1104 -0.1437
 6284SOL    HW130314   4.703   4.072   7.554  0.0224 -0.5255  0.5767
 6284SOL    HW230315   0.003   4.211   7.590 -0.3402 -0.4352 -1.7906
 6285SOL     OW30316   2.066   2.616   5.128 -0.1428 -0.4639  0.4932
 6285SOL    HW130317   2.132   2.664   5.178  0.2010  0.4186 -0.8232
 6285SOL    HW230318   2.009   2.690   5.106  0.0875  0.4795  3.0474
 6286SOL     OW30319   3.574   3.568   8.143  0.1981  0.2305  0.4116
 6286SOL    HW130320   3.649   3.572   8.203  1.3814  1.8384 -1.1685
 6286SOL    HW230321   3.585   3.480   8.109 -2.5320  0.3610 -0.8741
 6287SOL     OW30322   4.333   3.160  15.203  0.2994 -0.0929 -0.3211
 6287SOL    HW130323   4.393   3.115  15.263  0.3465 -1.1809 -1.1971
 6287SOL    HW230324   4.267   3.187  15.268  1.7462  4.5988 -0.8466
 6288SOL     OW30325   1.535   1.301  10.666 -0.5045  0.1407  0.1085
 6288SOL    HW130326   1.626   1.275  10.654 -0.8211 -0.9934  0.2072
 6288SOL    HW230327   1.535   1.281  10.759 -1.1821 -1.9372 -0.3249
 6289SOL     OW30328   4.042   4.318  14.894 -0.6205  0.3155 -0.7754
 6289SOL    HW130329   3.978   4.303  14.824 -0.1509 -2.1948 -0.6716
 6289SOL    HW230330   4.049   4.224  14.910 -0.3446  0.9998  2.9987
 6290SOL     OW30331   1.535   1.368   5.864  1.0480  0.3123 -0.2074
 6290SOL    HW130332   1.534   1.345   5.957 -0.4099 -1.6715 -0.7280
 6290SOL    HW230333   1.551   1.283   5.824  0.7560  1.6773 -3.2254
 6291SOL     OW30334   3.075   0.845  15.624  0.2619  0.2133  0.3755
 6291SOL    HW130335   3.059   0.806  15.710 -0.6856  0.0450  0.1218
 6291SOL    HW230336   3.171   0.838  15.625  0.2762  0.0076 -2.7151
 6292SOL     OW30337   2.299   1.385   9.432 -0.2965 -0.2691  0.3103
 6292SOL    HW130338   2.267   1.444   9.500 -0.4948 -1.7287  1.4771
 6292SOL    HW230339   2.316   1.309   9.487  0.2053  0.2587  0.8909
 6293SOL     OW30340   2.949   0.867   1.388 -0.0193 -0.1515 -0.3021
 6293SOL    HW130341   2.918   0.908   1.469  0.0184  0.5277 -0.6318
 6293SOL    HW230342   2.916   0.778   1.400 -4.0308  1.4855  0.6145
 6294SOL     OW30343   3.189   4.414   5.124 -0.3996  0.4743 -0.0890
 6294SOL    HW130344   3.163   4.334   5.169  1.5382  1.2719  2.4848
 6294SOL    HW230345   3.217   4.469   5.198  0.3638  0.2320 -0.2006
 6295SOL     OW30346   1.063   2.683   7.877  0.0629 -0.1257  0.4323
 6295SOL    HW130347   1.091   2.698   7.787  0.3903 -0.9683  0.3894
 6295SOL    HW230348   1.065   2.587   7.886  1.6612 -0.0047  1.4639
 6296SOL     OW30349   3.816   0.638   0.376 -0.2994 -0.1642 -0.0335
 6296SOL    HW130350   3.763   0.647   0.455 -1.8476  0.7743 -1.1763
 6296SOL    HW230351   3.861   0.721   0.360  0.4876 -0.6204 -0.1919
 6297SOL     OW30352   4.292   1.639   0.103 -0.1480  0.3500  0.5344
 6297SOL    HW130353   4.346   1.658   0.180 -1.0352  1.4328  0.8891
 6297SOL    HW230354   4.302   1.726   0.062 -1.5764 -0.8571 -2.3837
 6298SOL     OW30355   2.404   2.751  10.945 -0.0348  0.8089 -0.0093
 6298SOL    HW130356   2.470   2.803  10.990  1.1312  0.2779 -1.1016
 6298SOL    HW230357   2.325   2.800  10.968  0.0806  0.6546  0.6939
 6299SOL     OW30358   0.194   1.052   7.566 -0.1397 -0.5619  0.1108
 6299SOL    HW130359   0.141   0.978   7.594 -3.3660  2.4238  1.9899
 6299SOL    HW230360   0.249   1.022   7.493 -1.4044  0.0864 -1.1223
 6300SOL     OW30361   1.150   1.674  16.893 -0.3436 -0.1478 -0.1685
 6300SOL    HW130362   1.210   1.609  16.855 -1.2856 -0.8028 -0.5241
 6300SOL    HW230363   1.125   1.627  16.972 -0.7484 -0.5362 -0.5241
 6301SOL     OW30364   1.191   3.557  16.308 -0.0076 -0.3513  0.2568
 6301SOL    HW130365   1.247   3.483  16.333  2.2369  1.4153  0.4581
 6301SOL    HW230366   1.213   3.617  16.380 -1.9249  0.7545 -0.0731
 6302SOL     OW30367   2.246   3.566  10.843 -0.3795  0.0918  0.0005
 6302SOL    HW130368   2.206   3.479  10.837 -3.0430  1.2688  0.7897
 6302SOL    HW230369   2.301   3.562  10.765 -1.1120  0.9095 -0.5452
 6303SOL     OW30370   3.665   0.425   8.455  0.0262  0.6167  0.4972
 6303SOL    HW130371   3.667   0.365   8.530 -0.4269 -0.6406 -0.4957
 6303SOL    HW230372   3.585   0.385   8.422  1.4840 -1.1901 -0.8453
 6304SOL     OW30373   0.956   3.035   7.768 -0.0784  0.4171 -0.0497
 6304SOL    HW130374   0.955   3.130   7.779 -3.8208  0.2181  1.2102
 6304SOL    HW230375   1.003   3.014   7.848  0.2174 -2.5704 -0.9874
 6305SOL     OW30376   4.363   2.511   5.301 -0.1683 -0.0876 -0.0870
 6305SOL    HW130377   4.338   2.432   5.252 -0.3126  0.6169 -1.1432
 6305SOL    HW230378   4.309   2.501   5.380 -2.0689  0.2322 -1.3601
 6306SOL     OW30379   3.828   2.267   4.543 -0.0257  0.5360 -0.1092
 6306SOL    HW130380   3.913   2.310   4.543 -0.0001  0.4849 -2.3287
 6306SOL    HW230381   3.777   2.337   4.501 -0.3971 -0.9263 -2.1112
 6307SOL     OW30382   3.615   2.403   5.129  0.1353 -0.5904  0.2691
 6307SOL    HW130383   3.675   2.461   5.082 -1.5874  0.5264 -0.5667
 6307SOL    HW230384   3.688   2.359   5.173  0.4711 -1.0278 -0.7301
 6308SOL     OW30385   0.242   0.480   0.599 -0.0726  0.1154 -0.1979
 6308SOL    HW130386   0.316   0.447   0.650  1.4959  4.8414  0.5358
 6308SOL    HW230387   0.200   0.403   0.561  1.6577 -1.1020  0.3878
 6309SOL     OW30388   2.745   3.803   5.865 -0.2863  0.3758  0.5284
 6309SOL    HW130389   2.835   3.834   5.875  0.1196 -0.8793  0.8027
 6309SOL    HW230390   2.711   3.866   5.801 -0.9198 -0.3996  0.0857
 6310SOL     OW30391   2.013   4.389   2.054 -0.2591  0.0641  0.2482
 6310SOL    HW130392   1.982   4.401   2.144  0.0010 -0.9777  0.4708
 6310SOL    HW230393   2.103   4.413   2.074  0.7588 -1.8522 -2.0358
 6311SOL     OW30394   1.442   1.101   0.532  0.0464 -0.3732  0.1305
 6311SOL    HW130395   1.424   1.192   0.557 -0.8023  0.0115 -1.7924
 6311SOL    HW230396   1.403   1.052   0.604  0.6967 -1.3542 -0.1946
 6312SOL     OW30397   1.907   0.644   7.253 -0.0098  0.1027 -0.1990
 6312SOL    HW130398   1.897   0.632   7.348 -0.8978  1.2947 -0.1398
 6312SOL    HW230399   1.990   0.691   7.250 -0.9521  1.9378  2.1223
 6313SOL     OW30400   4.021   0.396   8.782  0.0260  0.2617 -0.4284
 6313SOL    HW130401   3.977   0.400   8.698 -1.0364  0.9358  0.1685
 6313SOL    HW230402   4.086   0.465   8.771 -0.6326  0.6534 -1.8503
 6314SOL     OW30403   0.705   3.404  13.413  0.4386 -0.0434 -0.3972
 6314SOL    HW130404   0.710   3.324  13.360  1.5299 -0.3073  0.1117
 6314SOL    HW230405   0.785   3.393  13.463  0.3326 -1.4194 -0.5092
 6315SOL     OW30406   0.953   3.292  11.259 -0.0218 -0.1185  0.2954
 6315SOL    HW130407   1.033   3.281  11.207 -0.5934 -1.4970 -0.2690
 6315SOL    HW230408   0.897   3.228  11.216 -2.5725  0.6753  2.4662
 6316SOL     OW30409   4.565   1.082   4.619  0.2507 -0.1372  0.0728
 6316SOL    HW130410   4.544   1.170   4.587 -0.9212 -0.2862  0.4104
 6316SOL    HW230411   4.524   1.033   4.548  1.4831  1.3791 -1.6838
 6317SOL     OW30412   0.387   0.316   7.947 -0.5815 -0.6242  0.7287
 6317SOL    HW130413   0.482   0.305   7.943 -0.7113 -1.0222 -0.9173
 6317SOL    HW230414   0.372   0.225   7.921 -0.7761 -0.3388 -0.1396
 6318SOL     OW30415   2.868   0.105   3.655 -0.0273 -0.2113  0.1991
 6318SOL    HW130416   2.802   0.060   3.708 -0.6949 -0.3514 -0.7349
 6318SOL    HW230417   2.812   0.141   3.586 -1.2414 -1.0592  0.7437
 6319SOL     OW30418   0.345   1.071   7.333 -0.2529 -0.2256 -0.2013
 6319SOL    HW130419   0.339   1.001   7.269  0.6699 -0.0513 -0.4840
 6319SOL    HW230420   0.312   1.148   7.287 -0.4690  0.0555  0.4193
 6320SOL     OW30421   3.610   3.412  17.597 -0.1249 -0.5199 -0.5858
 6320SOL    HW130422   3.616   3.498  17.555 -3.0320  0.1165  0.3362
 6320SOL    HW230423   3.702   3.386  17.594  0.5777  2.0592 -2.1366
 6321SOL     OW30424   2.277   1.440   5.667  0.1766  0.6168  0.2458
 6321SOL    HW130425   2.257   1.521   5.621  1.6417 -0.2879 -1.9962
 6321SOL    HW230426   2.346   1.457   5.731 -0.4558  0.5807  0.9354
 6322SOL     OW30427   0.192   1.947  13.271 -0.2675 -0.3696 -0.2691
 6322SOL    HW130428   0.210   1.854  13.286  2.1355  0.2708  0.8923
 6322SOL    HW230429   0.266   1.970  13.215 -0.7588  0.3869 -0.6070
 6323SOL     OW30430   1.537   1.660  10.687 -0.2284 -0.0848 -0.0430
 6323SOL    HW130431   1.506   1.678  10.599 -1.3307  0.4391  0.4541
 6323SOL    HW230432   1.530   1.748  10.724 -0.0731 -0.2156  0.2940
 6324SOL     OW30433   3.092   3.666   9.201 -0.6599  0.0087  0.1332
 6324SOL    HW130434   3.161   3.669   9.136 -2.1299 -0.3691 -1.4262
 6324SOL    HW230435   3.110   3.747   9.250  0.6417 -0.4706  0.4277
 6325SOL     OW30436   4.363   1.521   1.422 -0.2182 -0.0702 -0.6788
 6325SOL    HW130437   4.402   1.437   1.446 -1.8064 -0.6284 -0.1028
 6325SOL    HW230438   4.314   1.539   1.501 -0.4261  0.1297 -0.8537
 6326SOL     OW30439   0.972   1.788  10.910 -0.5780  0.1119  0.0855
 6326SOL    HW130440   0.980   1.695  10.888 -1.0382  0.0420  0.2124
 6326SOL    HW230441   0.944   1.821  10.825 -0.1326  1.1808  0.3491
 6327SOL     OW30442   0.665   3.269   1.548  0.3020  0.7741 -0.0436
 6327SOL    HW130443   0.665   3.353   1.501  1.7604  2.8893  3.7124
 6327SOL    HW230444   0.583   3.287   1.593 -0.1614  0.1239 -0.6274
 6328SOL     OW30445   3.325   4.323   8.441 -0.4525 -0.0629 -0.3875
 6328SOL    HW130446   3.352   4.335   8.532 -2.3057  0.7285  0.0599
 6328SOL    HW230447   3.294   4.232   8.445  1.1777 -0.5834  0.2888
 6329SOL     OW30448   3.560   3.420   9.663  0.3166  0.0256  0.1800
 6329SOL    HW130449   3.486   3.412   9.723  0.6363  0.3321  0.6165
 6329SOL    HW230450   3.627   3.466   9.713  1.0348 -1.5418  0.6821
 6330SOL     OW30451   3.009   1.581   2.247 -0.8766  0.6078 -1.0500
 6330SOL    HW130452   2.984   1.601   2.157 -0.7651 -2.3451 -1.7287
 6330SOL    HW230453   3.037   1.669   2.274 -0.4896  0.2848 -0.3955
 6331SOL     OW30454   3.505   2.594   4.886 -0.4525 -0.9074 -0.3358
 6331SOL    HW130455   3.432   2.603   4.824 -0.7200  3.2641  0.6252
 6331SOL    HW230456   3.453   2.600   4.967  1.6416 -4.9025  1.2985
 6332SOL     OW30457   2.538   3.335   4.621  0.4317 -0.7998 -0.3066
 6332SOL    HW130458   2.607   3.401   4.614  1.8336 -2.5377 -2.8647
 6332SOL    HW230459   2.466   3.386   4.585 -0.3821 -1.5185  0.3009
 6333SOL     OW30460   0.130   1.484  10.647 -0.1438 -0.5654 -0.2629
 6333SOL    HW130461   0.042   1.508  10.676 -0.0147  0.8024 -1.0394
 6333SOL    HW230462   0.142   1.537  10.569 -1.2255 -0.6390 -0.4732
 6334SOL     OW30463   0.610   4.630   9.493  0.3110  0.0833 -0.2677
 6334SOL    HW130464   0.624   4.681   9.412 -0.6847  1.0388  0.1604
 6334SOL    HW230465   0.576   4.699   9.550  0.6063  1.9284 -2.2956
 6335SOL     OW30466   1.857   4.660   6.432  0.2120 -0.1190  0.2283
 6335SOL    HW130467   1.825   4.575   6.402 -2.3755  0.1537  2.2042
 6335SOL    HW230468   1.950   4.648   6.448  0.2579 -1.5277 -1.1537
 6336SOL     OW30469   2.362   4.125  15.324  0.1283  0.1356 -0.1555
 6336SOL    HW130470   2.384   4.096  15.413  0.1925  3.1228  0.7819
 6336SOL    HW230471   2.266   4.119  15.324  0.2947 -2.5180 -2.7269
 6337SOL     OW30472   1.913   2.024   7.208 -0.1452  0.3315  0.0843
 6337SOL    HW130473   1.956   2.109   7.222  0.5369 -0.0700  0.4381
 6337SOL    HW230474   1.960   2.009   7.126  0.4240  3.0854 -0.1088
 6338SOL     OW30475   0.409   2.138  11.600 -0.9463 -0.3580 -0.4292
 6338SOL    HW130476   0.356   2.059  11.608  0.4697 -1.5606 -2.7852
 6338SOL    HW230477   0.344   2.205  11.620  0.1993  1.2647 -2.0982
 6339SOL     OW30478   2.478   0.024  13.240  0.1461 -0.4690 -0.8944
 6339SOL    HW130479   2.474   0.117  13.220 -0.3171 -0.2264  0.2907
 6339SOL    HW230480   2.513   4.714  13.158 -1.5621 -0.4026 -1.6420
 6340SOL     OW30481   2.295   2.416   4.081 -0.4667 -0.0924  0.1648
 6340SOL    HW130482   2.390   2.429   4.088 -0.5621  1.2143 -0.8502
 6340SOL    HW230483   2.253   2.495   4.117  0.2253  0.0374  0.6889
 6341SOL     OW30484   0.622   1.996  15.127 -0.2358 -0.4161  0.1173
 6341SOL    HW130485   0.609   1.929  15.060  0.0391 -0.7071  0.3582
 6341SOL    HW230486   0.679   2.054  15.076 -2.0366  0.3482 -1.0497
 6342SOL     OW30487   4.290   0.927  13.810  0.0932 -0.5771 -0.0624
 6342SOL    HW130488   4.260   0.978  13.736  1.8675  1.4461  0.6226
 6342SOL    HW230489   4.203   0.916  13.851  1.2691 -2.2419  2.0385
 6343SOL     OW30490   3.997   4.048   6.205 -0.1212 -0.1045  0.4706
 6343SOL    HW130491   3.929   4.116   6.204  0.7251  0.7201 -1.1951
 6343SOL    HW230492   3.967   3.984   6.270  2.2897 -0.6757  1.0251
 6344SOL     OW30493   0.317   3.576   9.932 -0.2246  0.3028 -0.4802
 6344SOL    HW130494   0.259   3.652   9.940 -0.0965 -0.0405  3.3098
 6344SOL    HW230495   0.301   3.527  10.012 -0.6266  1.6405  0.2585
 6345SOL     OW30496   1.483   1.947   3.992 -0.1695  0.4623 -0.3233
 6345SOL    HW130497   1.499   2.018   3.931 -1.9520  0.4983 -0.7458
 6345SOL    HW230498   1.412   1.895   3.953  0.7631 -1.1508  0.1224
 6346SOL     OW30499   3.259   1.862  12.793 -0.4103  0.0732 -0.2627
 6346SOL    HW130500   3.292   1.853  12.703 -2.5922  1.7581 -1.2203
 6346SOL    HW230501   3.338   1.840  12.843  1.4184  3.8220 -1.4959
 6347SOL     OW30502   3.157   1.174   5.260 -0.3571 -0.1977  0.4466
 6347SOL    HW130503   3.068   1.139   5.265 -1.6588  2.7564 -2.3768
 6347SOL    HW230504   3.206   1.106   5.307 -0.3982 -2.1194 -2.2453
 6348SOL     OW30505   1.622   4.084   3.028  0.6109  0.2637 -0.2040
 6348SOL    HW130506   1.679   4.013   2.997 -0.9503 -1.5092  1.0272
 6348SOL    HW230507   1.664   4.111   3.110  1.4830 -1.1352 -0.1944
 6349SOL     OW30508   0.003   2.152   9.139 -0.0236  0.2944  0.4651
 6349SOL    HW130509   0.028   2.114   9.055  0.2978  3.9572 -1.0701
 6349SOL    HW230510   0.086   2.151   9.187 -1.1828 -1.9052  2.4204
 6350SOL     OW30511   0.224   1.581  14.926  0.2507 -0.1415  0.6531
 6350SOL    HW130512   0.268   1.654  14.883  2.2348 -1.9881 -0.5156
 6350SOL    HW230513   0.280   1.506  14.903 -1.5013 -0.7567 -1.5438
 6351SOL     OW30514   4.009   1.793   8.929 -0.4680 -0.6016  0.4629
 6351SOL    HW130515   4.033   1.806   9.021 -0.2904 -0.3369  0.3804
 6351SOL    HW230516   3.928   1.841   8.914  0.5122  0.2858 -1.9724
 6352SOL     OW30517   2.060   4.313  15.531 -0.2913  0.1708  0.0517
 6352SOL    HW130518   2.052   4.225  15.495  3.7654 -0.2325  0.1278
 6352SOL    HW230519   2.142   4.348  15.497 -0.3668 -1.1320 -1.4303
 6353SOL     OW30520   2.805   2.112   3.391  0.0472  0.1979 -0.0503
 6353SOL    HW130521   2.772   2.187   3.342 -0.0378  0.6340  0.6785
 6353SOL    HW230522   2.775   2.037   3.339  0.6729 -0.1961  0.1551
 6354SOL     OW30523   3.937   0.412   9.573 -0.2264 -0.5375  0.1910
 6354SOL    HW130524   4.007   0.464   9.612  0.4175 -1.1242 -0.1898
 6354SOL    HW230525   3.913   0.371   9.656 -0.3171  2.1700  1.4968
 6355SOL     OW30526   3.878   0.967   6.279 -0.6254  0.2410 -0.3332
 6355SOL    HW130527   3.915   1.030   6.342 -0.2319 -1.7640  1.4484
 6355SOL    HW230528   3.883   0.880   6.318  2.3808  0.4461 -0.2305
 6356SOL     OW30529   1.354   3.677  14.874  0.3124 -0.0500 -0.3757
 6356SOL    HW130530   1.448   3.658  14.872  0.3077 -0.1402  0.3412
 6356SOL    HW230531   1.321   3.646  14.958  2.6611 -3.3602 -0.6453
 6357SOL     OW30532   4.575   0.186  11.730 -0.3002  0.5406  0.4322
 6357SOL    HW130533   4.596   0.279  11.722 -3.3418  1.0246 -1.8128
 6357SOL    HW230534   4.481   0.190  11.711 -0.4004  0.0914  0.8402
 6358SOL     OW30535   0.061   3.048   6.297  0.8062 -0.0503  0.5143
 6358SOL    HW130536   4.692   3.070   6.292  0.6035 -0.7142  1.4117
 6358SOL    HW230537   0.067   2.958   6.329 -0.1318 -0.8569 -1.5829
 6359SOL     OW30538   0.759   2.855   3.239 -0.3373 -0.6723  0.4545
 6359SOL    HW130539   0.728   2.943   3.217  0.0560 -0.2411  1.6689
 6359SOL    HW230540   0.853   2.866   3.227 -0.4089  0.1224  0.6384
 6360SOL     OW30541   0.419   1.893   2.820 -0.2950 -0.1751  0.1086
 6360SOL    HW130542   0.493   1.865   2.765  0.2556  0.8879  0.3095
 6360SOL    HW230543   0.419   1.986   2.800  1.6347 -0.6383 -2.1194
 6361SOL     OW30544   0.269   1.838   6.014 -0.0886  0.4944 -0.7418
 6361SOL    HW130545   0.187   1.860   6.059 -1.1166  0.3254 -2.5264
 6361SOL    HW230546   0.260   1.745   5.991 -0.9823  0.9498 -2.2168
 6362SOL     OW30547   0.724   0.266   8.752 -0.1354  0.5191 -0.9542
 6362SOL    HW130548   0.704   0.317   8.674 -0.2380  0.3917 -1.0092
 6362SOL    HW230549   0.673   0.187   8.735  0.7122 -0.5150  1.2120
 6363SOL     OW30550   0.498   4.173  11.043  0.0995  0.2127  0.2107
 6363SOL    HW130551   0.512   4.243  11.107 -1.9025  0.9815 -0.1902
 6363SOL    HW230552   0.574   4.188  10.987 -0.7142 -0.5407 -1.1125
 6364SOL     OW30553   4.559   2.955   4.493 -0.1732  0.4003 -0.0826
 6364SOL    HW130554   4.502   2.878   4.494  3.4000 -2.2169  1.2144
 6364SOL    HW230555   4.506   3.035   4.503 -0.3995  0.3040 -0.5066
 6365SOL     OW30556   2.549   0.449   4.153  0.2099  0.0318  0.1736
 6365SOL    HW130557   2.517   0.465   4.065 -0.9292  0.8604  0.7440
 6365SOL    HW230558   2.470   0.405   4.185  2.6237 -2.1765  3.1247
 6366SOL     OW30559   2.943   2.365   7.239 -0.1310  0.1166  0.3136
 6366SOL    HW130560   3.005   2.292   7.237  1.0464  1.0854  1.5683
 6366SOL    HW230561   2.873   2.329   7.185 -0.8471  0.2375  1.1768
 6367SOL     OW30562   0.601   1.812   8.776  0.6302 -0.1771 -0.8763
 6367SOL    HW130563   0.664   1.741   8.768  2.0999  1.1117 -0.8068
 6367SOL    HW230564   0.658   1.881   8.812  0.0087  0.0368 -0.2985
 6368SOL     OW30565   1.639   2.770   2.468 -0.2314 -0.0362  0.3810
 6368SOL    HW130566   1.585   2.808   2.538 -0.9350 -0.9643  0.3572
 6368SOL    HW230567   1.689   2.707   2.521 -0.6898 -1.3801 -0.7712
 6369SOL     OW30568   0.621   2.396   8.087 -0.1638 -0.0835 -0.0779
 6369SOL    HW130569   0.551   2.455   8.058  0.7296  1.1089  0.1707
 6369SOL    HW230570   0.649   2.376   7.998 -0.9162  3.5864 -1.1475
 6370SOL     OW30571   2.383   3.989   4.058 -0.1837  0.1649  0.4769
 6370SOL    HW130572   2.303   4.026   4.020 -1.4296 -0.3648  2.5422
 6370SOL    HW230573   2.348   3.935   4.129  0.1016 -0.2461  0.3032
 6371SOL     OW30574   1.157   2.593   2.900  0.1711 -0.0304 -0.1961
 6371SOL    HW130575   1.233   2.535   2.910  0.5413  0.3305 -0.9057
 6371SOL    HW230576   1.185   2.631   2.817 -3.2631  2.9276 -0.0110
 6372SOL     OW30577   3.174   1.691  16.475  0.2976  0.0862  0.2657
 6372SOL    HW130578   3.262   1.690  16.439  0.7928 -2.7389  1.5539
 6372SOL    HW230579   3.133   1.750  16.412 -0.7495  0.6007  1.4205
 6373SOL     OW30580   2.623   3.478   4.234 -0.4438  0.0699  0.1206
 6373SOL    HW130581   2.602   3.553   4.290  1.2317 -1.1347  2.3618
 6373SOL    HW230582   2.661   3.519   4.157 -1.5637 -1.1819 -1.1011
 6374SOL     OW30583   0.939   4.336   2.176  0.1347 -0.4164  0.0722
 6374SOL    HW130584   1.027   4.353   2.208 -0.2039 -1.4451  1.5722
 6374SOL    HW230585   0.949   4.375   2.089 -0.4235  2.1548  1.1848
 6375SOL     OW30586   2.290   1.171  17.196  0.5610 -0.4332  0.1249
 6375SOL    HW130587   2.210   1.181  17.143 -0.2609  1.3153  1.7014
 6375SOL    HW230588   2.264   1.220  17.274  0.9724 -0.0909  0.0426
 6376SOL     OW30589   3.689   2.242   8.774  0.5691  0.2647 -0.2160
 6376SOL    HW130590   3.730   2.165   8.735  1.5280  1.1576 -0.9512
 6376SOL    HW230591   3.631   2.280   8.708  0.2932  0.5847  0.2121
 6377SOL     OW30592   3.737   3.001   5.819  0.1553 -0.0641 -0.0148
 6377SOL    HW130593   3.745   3.023   5.912 -0.8439  0.7004 -0.0988
 6377SOL    HW230594   3.809   3.052   5.783  1.1534  0.1267  2.2719
 6378SOL     OW30595   1.509   2.656   1.945 -0.2701 -0.2464  0.2455
 6378SOL    HW130596   1.440   2.701   1.897 -0.8406 -0.0110  1.2923
 6378SOL    HW230597   1.528   2.706   2.025  1.8782  0.7909 -0.8851
 6379SOL     OW30598   1.074   0.813  12.000 -0.3155  0.1020  0.2841
 6379SOL    HW130599   1.042   0.758  12.072 -1.3516 -0.2867 -0.4794
 6379SOL    HW230600   1.005   0.803  11.936 -1.2141  2.1613  0.9195
 6380SOL     OW30601   3.957   1.893  13.062 -1.1028 -0.1925  0.2324
 6380SOL    HW130602   4.026   1.942  13.017 -0.5338 -1.4470 -0.2803
 6380SOL    HW230603   3.932   1.942  13.140 -0.1692  3.0177 -1.4810
 6381SOL     OW30604   0.864   2.558   3.946  0.2869  0.3758 -0.0761
 6381SOL    HW130605   0.948   2.550   3.902 -1.2238 -0.8426 -2.7221
 6381SOL    HW230606   0.842   2.465   3.947 -1.4565  0.7922 -0.4641
 6382SOL     OW30607   3.160   2.625   7.023 -0.0843 -0.3464 -0.4322
 6382SOL    HW130608   3.202   2.565   7.085 -0.2439  0.5867  0.5882
 6382SOL    HW230609   3.211   2.600   6.946 -0.2867  0.0261 -0.6846
 6383SOL     OW30610   1.656   3.207   9.891 -0.1972 -0.0198 -0.7251
 6383SOL    HW130611   1.590   3.138   9.885 -0.7256  0.4952 -0.7055
 6383SOL    HW230612   1.604   3.270   9.940 -1.7205 -0.3024 -1.9889
 6384SOL     OW30613   3.778   1.499  10.574 -0.1939 -0.0018  0.1529
 6384SOL    HW130614   3.811   1.427  10.629 -0.0542 -0.7592 -0.9164
 6384SOL    HW230615   3.759   1.571  10.634  3.3214  1.5467 -0.6027
 6385SOL     OW30616   1.878   1.575  13.706 -0.2405  0.3155  0.2651
 6385SOL    HW130617   1.804   1.635  13.710  0.2391  0.8557  1.1476
 6385SOL    HW230618   1.859   1.506  13.642 -0.5808  1.6606 -1.0709
 6386SOL     OW30619   2.742   3.015  13.141 -0.3162  0.5287  0.0443
 6386SOL    HW130620   2.804   2.989  13.073  1.2604 -1.1203  2.0998
 6386SOL    HW230621   2.730   2.925  13.172 -0.2860  0.3980 -0.3276
 6387SOL     OW30622   0.814   4.488  14.996 -0.3388  0.2561  0.0316
 6387SOL    HW130623   0.879   4.434  15.040 -1.6160 -0.9313  0.4775
 6387SOL    HW230624   0.808   4.562  15.056  0.8227 -0.0341  0.4996
 6388SOL     OW30625   2.874   4.660  16.142 -0.1334 -0.2421 -0.0210
 6388SOL    HW130626   2.811   4.599  16.182 -0.5964  0.1610 -0.1451
 6388SOL    HW230627   2.908   4.700  16.222 -0.3159 -0.4940  0.1852
 6389SOL     OW30628   0.070   1.277  12.996  0.0610 -0.3803  0.2896
 6389SOL    HW130629   0.043   1.215  13.064 -2.0751  0.6126  0.3651
 6389SOL    HW230630   0.140   1.221  12.964  0.3917  1.2831 -1.9286
 6390SOL     OW30631   2.852   0.889   9.442 -0.0592  0.5234 -0.5200
 6390SOL    HW130632   2.940   0.917   9.467  0.1614 -1.8530  1.4860
 6390SOL    HW230633   2.874   0.857   9.355 -0.1702  0.8395 -0.6641
 6391SOL     OW30634   2.565   2.422  12.317  0.1213 -0.3514  0.1851
 6391SOL    HW130635   2.545   2.511  12.347  1.6982  0.0397  0.0572
 6391SOL    HW230636   2.625   2.437  12.244 -2.0845 -0.4709 -1.6621
 6392SOL     OW30637   2.651   3.855   8.646 -0.5587 -0.0388  0.7513
 6392SOL    HW130638   2.730   3.895   8.610 -0.8872  1.0252  1.2059
 6392SOL    HW230639   2.687   3.810   8.723  0.4888 -0.9045 -0.2480
 6393SOL     OW30640   2.919   3.606  14.451  0.3025 -0.8098 -0.1080
 6393SOL    HW130641   2.908   3.640  14.362 -1.0224  0.9311  0.7368
 6393SOL    HW230642   2.827   3.598  14.474 -0.1872  1.3589 -1.3399
 6394SOL     OW30643   0.849   3.506   5.491  0.1886 -0.0717  0.5841
 6394SOL    HW130644   0.925   3.545   5.449 -0.1263 -0.8509 -0.6927
 6394SOL    HW230645   0.864   3.412   5.486 -1.1588 -0.3659  1.7732
 6395SOL     OW30646   4.624   2.053  10.503  0.0607 -0.4733 -0.0893
 6395SOL    HW130647   4.533   2.084  10.496  0.3303  0.4397  0.3817
 6395SOL    HW230648   4.626   1.996  10.426  0.9665 -1.3345  0.5867
 6396SOL     OW30649   0.858   4.022  17.202 -0.8791  0.0485 -0.2354
 6396SOL    HW130650   0.812   3.976  17.133 -1.2018 -0.8500  0.5835
 6396SOL    HW230651   0.808   4.102  17.216  0.4344  1.6061 -4.5750
 6397SOL     OW30652   1.655   2.969   8.206 -0.0604  0.2270 -0.7139
 6397SOL    HW130653   1.565   3.003   8.207  1.3039  3.8755  0.4955
 6397SOL    HW230654   1.708   3.049   8.212  0.7227 -0.4565  1.4126
 6398SOL     OW30655   1.925   2.980   1.760 -0.4084 -0.2074 -0.2534
 6398SOL    HW130656   1.842   3.006   1.798  0.5060 -1.3453  2.5328
 6398SOL    HW230657   1.922   2.885   1.768 -3.5100 -0.1958 -1.6890
 6399SOL     OW30658   0.839   1.933   5.808 -0.3037 -0.4445 -0.1018
 6399SOL    HW130659   0.845   2.000   5.876  0.9678 -0.5187 -0.1342
 6399SOL    HW230660   0.907   1.872   5.836 -1.7260 -0.9744  2.1816
 6400SOL     OW30661   3.572   2.746   3.557 -0.2625  0.3236 -0.5949
 6400SOL    HW130662   3.490   2.745   3.607 -0.4641 -0.6766 -0.9571
 6400SOL    HW230663   3.566   2.663   3.510 -0.8398 -0.4618  0.8701
 6401SOL     OW30664   4.718   0.405   7.969 -0.4512  0.4275 -0.4523
 6401SOL    HW130665   4.689   0.492   7.997 -0.6901 -0.2218  1.3443
 6401SOL    HW230666   4.660   0.351   8.022  0.1129 -0.2796 -0.5475
 6402SOL     OW30667   4.185   0.501   9.163 -0.2981  0.4258 -0.0773
 6402SOL    HW130668   4.126   0.540   9.098 -0.6296 -0.3716 -0.2581
 6402SOL    HW230669   4.122   0.455   9.218 -0.4404  3.1220  2.0102
 6403SOL     OW30670   3.198   1.136   6.991 -0.0583 -0.5530 -0.0303
 6403SOL    HW130671   3.286   1.145   6.954  0.2392  1.2286  1.1140
 6403SOL    HW230672   3.147   1.138   6.910 -1.5408 -2.5972  0.8748
 6404SOL     OW30673   3.139   4.512   8.267 -0.0642  0.1604 -0.0553
 6404SOL    HW130674   3.136   4.446   8.336  0.0309 -0.6636 -0.8486
 6404SOL    HW230675   3.051   4.498   8.234 -0.1042 -0.1489  0.1863
 6405SOL     OW30676   2.881   0.935   2.481  0.8490  0.3007 -0.0351
 6405SOL    HW130677   2.883   0.869   2.550 -1.7048  0.2279 -0.0309
 6405SOL    HW230678   2.788   0.927   2.462  0.9960  2.2966 -1.6522
 6406SOL     OW30679   3.914   1.918  15.535 -0.4030  0.3100 -0.0476
 6406SOL    HW130680   3.946   1.828  15.541  1.0428  0.7939 -0.4241
 6406SOL    HW230681   3.852   1.916  15.608  0.1204  0.0927  0.3911
 6407SOL     OW30682   3.102   4.718   3.577  0.5748 -0.3678 -0.8475
 6407SOL    HW130683   3.129   4.664   3.652  2.4779  1.3811 -0.2795
 6407SOL    HW230684   3.021   0.034   3.607  0.8094 -0.0729 -0.6079
 6408SOL     OW30685   2.840   2.977   8.168 -0.1632  0.2892 -0.0892
 6408SOL    HW130686   2.862   2.992   8.076 -0.9661 -1.9167 -0.6337
 6408SOL    HW230687   2.877   2.890   8.182  0.7190  0.7669  0.5085
 6409SOL     OW30688   3.256   2.837  13.084 -0.2620  0.5200  0.0881
 6409SOL    HW130689   3.239   2.887  13.004  1.3654 -0.0497 -0.6231
 6409SOL    HW230690   3.284   2.910  13.139 -1.4193  1.7354 -0.9210
 6410SOL     OW30691   2.165   3.338   3.263  0.0130  0.0731 -0.4445
 6410SOL    HW130692   2.162   3.433   3.268  1.7672  0.0073  1.7272
 6410SOL    HW230693   2.166   3.313   3.356  0.6689  2.3486  0.1725
 6411SOL     OW30694   1.344   0.120   4.551 -0.8852 -0.4268 -0.2402
 6411SOL    HW130695   1.340   0.144   4.459 -1.8257 -1.5169 -0.4895
 6411SOL    HW230696   1.251   0.107   4.568 -0.8510 -0.1142  0.1981
 6412SOL     OW30697   1.751   2.574   2.135  0.4010 -0.4529  0.2610
 6412SOL    HW130698   1.738   2.511   2.205 -1.3487 -0.6567 -0.2387
 6412SOL    HW230699   1.840   2.600   2.155  0.4177  0.0881 -0.5049
 6413SOL     OW30700   4.699   2.001   5.267 -0.3131  0.4635 -0.5035
 6413SOL    HW130701   0.036   2.041   5.204 -1.1747 -0.6737 -2.0735
 6413SOL    HW230702   4.614   2.029   5.232 -0.2980  0.6025 -0.4283
 6414SOL     OW30703   0.724   4.254   1.566 -0.6553  0.5129 -0.4052
 6414SOL    HW130704   0.763   4.282   1.649  0.1196  0.0428 -0.6165
 6414SOL    HW230705   0.670   4.180   1.593  2.9269 -1.9669 -0.1719
 6415SOL     OW30706   0.913   1.942  14.824  0.3190  0.0855  0.1571
 6415SOL    HW130707   0.886   1.902  14.907 -1.2749 -1.4866 -1.1468
 6415SOL    HW230708   1.001   1.976  14.845 -0.0542  0.5903  0.9216
 6416SOL     OW30709   3.749   0.997   9.358  0.1637 -0.6241 -0.0061
 6416SOL    HW130710   3.807   0.922   9.369  0.8442  0.4083  3.3876
 6416SOL    HW230711   3.757   1.024   9.266 -1.7806 -0.8138 -0.2245
 6417SOL     OW30712   1.116   4.113  14.777  0.4720 -0.2782 -0.2432
 6417SOL    HW130713   1.152   4.060  14.848 -2.2856 -2.2192 -0.2946
 6417SOL    HW230714   1.027   4.126  14.810  1.2714  1.5736  1.1808
 6418SOL     OW30715   3.241   3.228  14.820  0.1485  0.0886  0.0593
 6418SOL    HW130716   3.329   3.266  14.815 -0.4087  1.2997 -0.4740
 6418SOL    HW230717   3.254   3.160  14.754 -1.8099 -2.3756  2.2020
 6419SOL     OW30718   3.695   3.908   8.949 -0.5084 -0.8579 -0.0584
 6419SOL    HW130719   3.740   3.948   8.875  1.1623  0.5153  1.7270
 6419SOL    HW230720   3.656   3.986   8.988  0.5787  0.1884 -1.0755
 6420SOL     OW30721   4.018   4.092  10.018 -0.0210  0.1792 -0.6605
 6420SOL    HW130722   4.106   4.118  10.048  0.4361 -0.8639 -1.1017
 6420SOL    HW230723   4.024   4.092   9.922  0.6511  2.2548 -0.6227
 6421SOL     OW30724   4.702   1.275   6.801 -0.3336 -0.1390  0.6225
 6421SOL    HW130725   4.704   1.295   6.707 -0.3065  0.5952  0.7789
 6421SOL    HW230726   4.607   1.264   6.812 -0.4983 -0.4889 -1.1179
 6422SOL     OW30727   4.492   0.612   3.448  0.1173 -0.0161  0.3011
 6422SOL    HW130728   4.564   0.614   3.385 -1.6762 -2.0898 -1.8002
 6422SOL    HW230729   4.506   0.523   3.481  2.5015  1.1624  2.4571
 6423SOL     OW30730   2.662   3.366   8.460  0.3348 -0.2711 -0.3088
 6423SOL    HW130731   2.699   3.394   8.544 -1.8568 -0.4738  0.7188
 6423SOL    HW230732   2.665   3.451   8.416 -0.3969 -0.2372 -0.2969
 6424SOL     OW30733   2.705   1.131   0.002  0.0700 -0.9261  0.1030
 6424SOL    HW130734   2.713   1.194  17.627 -0.9491 -0.9688 -0.0574
 6424SOL    HW230735   2.684   1.048  17.657 -0.6321 -2.0354  2.6546
 6425SOL     OW30736   1.657   3.834   6.507  0.5100  0.4426  0.5645
 6425SOL    HW130737   1.730   3.773   6.518 -1.4461 -2.0771 -0.4340
 6425SOL    HW230738   1.706   3.914   6.484 -0.7394  1.7615  2.5092
 6426SOL     OW30739   3.347   4.102   6.947  0.8562 -0.2401  0.1905
 6426SOL    HW130740   3.267   4.076   6.901  1.1717 -0.2989 -0.3230
 6426SOL    HW230741   3.370   4.175   6.889 -0.7686  1.1207  1.2458
 6427SOL     OW30742   1.025   4.397   3.910  0.4828  0.3865 -0.3133
 6427SOL    HW130743   0.997   4.332   3.844 -0.0634 -0.8440  1.1318
 6427SOL    HW230744   1.051   4.334   3.976 -0.0901 -0.3153 -0.7487
 6428SOL     OW30745   0.085   0.943  10.457  0.2570  0.1224 -0.3414
 6428SOL    HW130746   0.169   0.939  10.502 -0.5883 -1.9294  1.0691
 6428SOL    HW230747   0.033   0.912  10.531 -1.8477 -1.4485 -2.4732
 6429SOL     OW30748   0.631   0.098  13.228 -0.1389 -0.0566  0.2130
 6429SOL    HW130749   0.625   0.190  13.255 -0.1616  0.3467 -1.1600
 6429SOL    HW230750   0.695   0.071  13.293  1.4250 -2.3418 -2.2644
 6430SOL     OW30751   2.195   2.238   6.400 -0.1835 -0.0025 -0.3719
 6430SOL    HW130752   2.104   2.212   6.385 -0.2319 -0.5510  0.8739
 6430SOL    HW230753   2.243   2.182   6.340  0.1708 -0.1871  0.0850
 6431SOL     OW30754   4.600   0.235   4.663 -0.0843  0.1437 -0.5633
 6431SOL    HW130755   4.647   0.302   4.613  2.6372 -1.4899 -0.1996
 6431SOL    HW230756   4.621   0.163   4.604 -0.1302 -0.8167  0.5948
 6432SOL     OW30757   3.273   4.174   6.077  0.2191  0.1134  0.0780
 6432SOL    HW130758   3.356   4.133   6.053  0.2322  0.0071  0.3030
 6432SOL    HW230759   3.271   4.256   6.028 -2.4415  0.1498  0.2068
 6433SOL     OW30760   3.037   0.037   1.936 -0.9960  0.3427 -0.1564
 6433SOL    HW130761   3.130   0.057   1.924 -0.6120 -1.3933  0.0180
 6433SOL    HW230762   3.022   4.677   1.893 -1.8573  0.1512  0.5357
 6434SOL     OW30763   0.581   4.422  12.067 -0.7787  0.3497  0.2679
 6434SOL    HW130764   0.665   4.375  12.062 -1.3594 -0.7705  0.8518
 6434SOL    HW230765   0.612   4.512  12.060 -0.0387 -0.0029 -0.9802
 6435SOL     OW30766   0.324   4.366  11.754 -0.4795  0.5572 -0.0178
 6435SOL    HW130767   0.305   4.314  11.833 -0.0714  1.4179  0.6446
 6435SOL    HW230768   0.236   4.381  11.719  0.2959 -0.1593 -2.2019
 6436SOL     OW30769   3.254   0.804  15.187 -0.0543 -0.9135  0.6721
 6436SOL    HW130770   3.343   0.790  15.155 -0.1287  0.3364 -0.0895
 6436SOL    HW230771   3.262   0.882  15.241 -1.4394 -0.0655 -0.3307
 6437SOL     OW30772   1.011   0.142   6.144  0.0252  0.4621 -0.3065
 6437SOL    HW130773   0.935   0.200   6.132  0.2487  0.3501 -2.2119
 6437SOL    HW230774   0.969   0.059   6.120  0.7999  0.3997 -1.3969
 6438SOL     OW30775   1.218   2.973  17.264 -0.5062  0.4485 -0.5209
 6438SOL    HW130776   1.266   3.006  17.188  0.1383  0.2322 -0.2030
 6438SOL    HW230777   1.268   2.892  17.272 -2.5096 -0.6731  0.6284
 6439SOL     OW30778   0.567   3.643   9.248  0.4251  0.0785  0.3907
 6439SOL    HW130779   0.531   3.556   9.263 -1.4150  1.1076  1.9501
 6439SOL    HW230780   0.577   3.643   9.153 -1.4646 -0.2335  0.1949
 6440SOL     OW30781   0.378   4.227   1.473  0.0177 -0.8670 -0.2063
 6440SOL    HW130782   0.381   4.156   1.537 -1.8672 -0.7237  0.0473
 6440SOL    HW230783   0.356   4.302   1.529  3.2924 -0.2760  0.2899
 6441SOL     OW30784   4.626   2.997   8.210  0.0900 -0.4733  0.2719
 6441SOL    HW130785   4.609   2.927   8.147  0.3954 -0.9963  0.7687
 6441SOL    HW230786   4.678   3.048   8.148 -2.0861  1.3016 -0.1010
 6442SOL     OW30787   3.896   1.558   8.255 -0.0564 -0.2674 -0.0687
 6442SOL    HW130788   3.942   1.636   8.222  0.9427 -1.2917 -1.1110
 6442SOL    HW230789   3.857   1.597   8.333  0.1735  1.3602 -0.7677
 6443SOL     OW30790   2.395   0.936   4.412 -0.0844  0.0614 -0.1106
 6443SOL    HW130791   2.484   0.903   4.422  0.0481  1.3885  3.3104
 6443SOL    HW230792   2.421   1.028   4.400  0.1517 -0.2605 -2.0241
 6444SOL     OW30793   3.867   2.887  11.593  0.1370  0.5501 -0.2171
 6444SOL    HW130794   3.873   2.828  11.517 -0.9520  0.5226 -0.2931
 6444SOL    HW230795   3.775   2.913  11.585 -0.3828 -1.1433  0.2881
 6445SOL     OW30796   0.568   0.115  12.960 -0.6290  0.1883 -0.0332
 6445SOL    HW130797   0.602   0.097  13.047 -0.7667 -2.7851 -0.5934
 6445SOL    HW230798   0.577   0.029  12.917  0.5212  2.2111 -3.8578
 6446SOL     OW30799   0.790   1.212   5.571  0.8664  0.2632  0.1607
 6446SOL    HW130800   0.704   1.171   5.567  0.6851  0.9410 -2.9715
 6446SOL    HW230801   0.843   1.133   5.581 -0.6802 -0.7675  0.0823
 6447SOL     OW30802   3.520   2.316   9.995 -0.5230 -1.0459 -0.4880
 6447SOL    HW130803   3.575   2.294   9.920  1.0473 -1.9244  0.9126
 6447SOL    HW230804   3.444   2.262   9.974 -0.6483 -1.4515  0.9843
 6448SOL     OW30805   4.168   2.089   8.939  0.3956  0.3866  0.2232
 6448SOL    HW130806   4.237   2.028   8.964 -0.8597 -0.9635  0.4101
 6448SOL    HW230807   4.148   2.058   8.851 -1.4290 -2.2655  1.5853
 6449SOL     OW30808   2.910   2.266   8.373  0.5738  0.1857  0.2419
 6449SOL    HW130809   2.834   2.207   8.365  0.2665  0.6069  0.0765
 6449SOL    HW230810   2.889   2.340   8.316 -1.1252 -2.3890 -2.4603
 6450SOL     OW30811   4.224   2.658   4.964 -0.3717  0.4589  0.7569
 6450SOL    HW130812   4.185   2.745   4.969 -1.0444  0.1647  0.5277
 6450SOL    HW230813   4.154   2.601   4.932  0.5127 -0.1792 -0.0604
 6451SOL     OW30814   2.580   3.770   5.465  0.1204 -0.8873 -0.2680
 6451SOL    HW130815   2.534   3.688   5.481  0.3188 -0.5463  2.0241
 6451SOL    HW230816   2.541   3.830   5.528  0.1731 -0.9108 -0.2132
 6452SOL     OW30817   0.733   2.947   1.131 -0.2865 -0.0560 -0.0181
 6452SOL    HW130818   0.782   2.904   1.060  0.2936 -1.1772  1.0574
 6452SOL    HW230819   0.801   2.954   1.198  0.2822  2.2955 -0.8642
 6453SOL     OW30820   1.760   3.804   3.165  0.1727  0.1268  0.2778
 6453SOL    HW130821   1.748   3.811   3.070 -0.9341 -0.3244  0.3825
 6453SOL    HW230822   1.780   3.891   3.199 -0.8089 -0.4995  2.4641
 6454SOL     OW30823   3.463   4.413  14.252  0.3849 -0.3005  0.2857
 6454SOL    HW130824   3.420   4.388  14.170  2.7193 -1.6006 -0.5377
 6454SOL    HW230825   3.400   4.376  14.314  0.8601 -1.2515  0.2085
 6455SOL     OW30826   1.769   4.596  12.160  0.5242  0.2806 -0.5229
 6455SOL    HW130827   1.794   4.638  12.078 -2.7852 -0.2345 -1.7926
 6455SOL    HW230828   1.843   4.622  12.215  0.0728 -0.1629  0.3056
 6456SOL     OW30829   3.405   4.165  15.130 -0.2520 -0.4931 -0.2331
 6456SOL    HW130830   3.489   4.128  15.103 -0.8754 -1.1912 -1.2583
 6456SOL    HW230831   3.363   4.099  15.184  2.6850 -1.2834  1.0585
 6457SOL     OW30832   1.451   3.708   6.666 -0.0236  0.7591  0.1075
 6457SOL    HW130833   1.454   3.685   6.759 -1.3225  1.2688  0.2769
 6457SOL    HW230834   1.540   3.742   6.653  0.7454 -1.1883  0.2466
 6458SOL     OW30835   0.167   1.097   4.285  0.3616 -0.4052  0.6900
 6458SOL    HW130836   0.074   1.111   4.265  0.3660  0.1180  1.0318
 6458SOL    HW230837   0.209   1.108   4.200  0.4647  1.6882  1.0237
 6459SOL     OW30838   4.145   4.376   1.121 -0.2208 -0.3091 -0.0044
 6459SOL    HW130839   4.224   4.376   1.067 -0.1585 -1.8005  0.0808
 6459SOL    HW230840   4.123   4.468   1.106 -0.1407 -0.2940 -0.0300
 6460SOL     OW30841   0.140   0.162  12.886 -0.4460  0.1034 -0.3274
 6460SOL    HW130842   0.109   0.236  12.834 -0.8649  0.1128 -0.0617
 6460SOL    HW230843   0.151   0.192  12.976 -2.6570  1.6988 -0.5823
 6461SOL     OW30844   4.183   1.797   6.650 -0.3098 -0.0340 -0.0003
 6461SOL    HW130845   4.149   1.734   6.714  0.7577 -0.5312  0.0706
 6461SOL    HW230846   4.224   1.732   6.593  1.2111  0.7884  0.1634
 6462SOL     OW30847   0.178   0.518  10.093 -0.3920 -0.2201  0.1136
 6462SOL    HW130848   0.208   0.467  10.168  1.0520 -1.4593 -1.3187
 6462SOL    HW230849   0.164   0.606  10.130  1.1797  1.4856 -3.4076
 6463SOL     OW30850   4.298   0.784   3.355  0.1354  0.0081 -0.3014
 6463SOL    HW130851   4.364   0.721   3.385  1.4658  0.2173 -2.8207
 6463SOL    HW230852   4.271   0.821   3.439 -0.2379 -1.2162  0.1147
 6464SOL     OW30853   1.877   2.888   2.414 -0.2451 -0.6538  0.2417
 6464SOL    HW130854   1.918   2.828   2.352 -0.8814 -0.3227 -0.5115
 6464SOL    HW230855   1.784   2.866   2.414 -0.4996  0.4151  3.1879
 6465SOL     OW30856   0.211   0.708   1.865 -0.0784 -0.2531 -0.0590
 6465SOL    HW130857   0.295   0.670   1.889  0.3255 -0.0891 -1.1985
 6465SOL    HW230858   0.237   0.790   1.823 -1.8678  0.4974  0.3141
 6466SOL     OW30859   3.653   1.040   7.439 -0.4816 -0.0442  0.5643
 6466SOL    HW130860   3.579   1.034   7.379  0.0483  1.2395 -0.2080
 6466SOL    HW230861   3.614   1.085   7.514 -0.0522 -0.3926  0.9974
 6467SOL     OW30862   3.387   2.414  11.701 -0.2969  0.1101 -0.4106
 6467SOL    HW130863   3.331   2.366  11.640 -0.1422 -0.9663  0.3056
 6467SOL    HW230864   3.362   2.506  11.689 -0.5580  0.1473  0.4746
 6468SOL     OW30865   1.145   2.986  16.053 -0.8575  0.7520  0.3619
 6468SOL    HW130866   1.070   3.039  16.024  0.1649  2.2125  0.3717
 6468SOL    HW230867   1.167   2.953  15.966  2.7955  0.7860  1.2840
 6469SOL     OW30868   3.878   3.032  10.367  0.6147 -0.4151  0.3191
 6469SOL    HW130869   3.969   3.003  10.367  0.3883 -1.1184  1.7302
 6469SOL    HW230870   3.838   2.965  10.312  0.2917 -0.5186  0.6871
 6470SOL     OW30871   1.143   3.208   3.365 -0.2824  0.3446  0.0949
 6470SOL    HW130872   1.195   3.179   3.290 -1.6490 -1.1034 -0.2959
 6470SOL    HW230873   1.059   3.223   3.323 -0.7776  0.2631  1.0643
 6471SOL     OW30874   3.158   4.672  14.983 -0.3764 -0.2864 -0.6462
 6471SOL    HW130875   3.117   4.717  14.909  2.0008  1.9916 -0.5401
 6471SOL    HW230876   3.251   4.679  14.964 -0.5625 -0.9544 -1.8701
 6472SOL     OW30877   2.564   0.613   5.115 -0.2790  0.1929 -0.6033
 6472SOL    HW130878   2.565   0.591   5.208 -1.6449 -1.5027 -0.9871
 6472SOL    HW230879   2.641   0.564   5.086 -0.1776 -0.3745  0.5952
 6473SOL     OW30880   0.816   2.782  15.739  0.1633 -0.5069 -0.0213
 6473SOL    HW130881   0.911   2.769  15.740  0.1593 -0.6279 -1.7855
 6473SOL    HW230882   0.806   2.873  15.767  0.7029 -0.0001 -1.5045
 6474SOL     OW30883   1.788   1.438   3.424 -0.2616  0.1820 -0.0522
 6474SOL    HW130884   1.788   1.513   3.363  1.6219  0.3202  0.1292
 6474SOL    HW230885   1.784   1.364   3.363  0.1093  0.5937 -0.5827
 6475SOL     OW30886   0.882   3.152   1.695 -0.2902  0.5419  0.4986
 6475SOL    HW130887   0.929   3.222   1.650  3.9301 -1.5073  1.6823
 6475SOL    HW230888   0.798   3.170   1.653 -1.1610  2.8565  3.2536
 6476SOL     OW30889   1.053   0.390  10.982  0.0945  0.2967 -0.2137
 6476SOL    HW130890   1.032   0.479  11.013 -1.0962  0.2779 -0.9496
 6476SOL    HW230891   0.990   0.338  11.033 -0.6775  3.3854  2.0182
 6477SOL     OW30892   0.464   1.232   6.134  0.0139  0.2657  0.0033
 6477SOL    HW130893   0.532   1.284   6.177  0.9487 -0.4714 -0.5886
 6477SOL    HW230894   0.402   1.226   6.207 -0.0033 -1.2937 -0.1297
 6478SOL     OW30895   1.559   0.501   7.915 -0.3874  0.1372 -0.4058
 6478SOL    HW130896   1.513   0.579   7.883  2.2363  1.6985 -0.3827
 6478SOL    HW230897   1.603   0.536   7.992 -2.4597  1.2461  0.2818
 6479SOL     OW30898   2.636   0.785   8.058  0.2019  0.1509 -0.2094
 6479SOL    HW130899   2.677   0.775   7.972 -1.7296 -2.1713 -0.8355
 6479SOL    HW230900   2.560   0.729   8.042 -0.4416  0.9717 -0.0089
 6480SOL     OW30901   2.648   0.961   8.442  0.1065  0.0602 -0.4559
 6480SOL    HW130902   2.641   1.049   8.477 -0.2911 -0.0464 -0.2679
 6480SOL    HW230903   2.566   0.921   8.470  0.8813 -0.1447  1.5157
 6481SOL     OW30904   0.866   2.871   9.163 -0.2699  0.1953  0.3269
 6481SOL    HW130905   0.812   2.887   9.240  0.5685  0.3660  0.8760
 6481SOL    HW230906   0.866   2.957   9.120 -1.5210  1.2181  2.3752
 6482SOL     OW30907   1.827   3.220   5.696  0.1515  0.1452 -0.0602
 6482SOL    HW130908   1.897   3.244   5.634 -0.0938  0.0912 -0.3587
 6482SOL    HW230909   1.856   3.134   5.727  1.6843  0.7087  0.1031
 6483SOL     OW30910   0.242   3.984   9.556 -0.3184 -0.7397  0.1295
 6483SOL    HW130911   0.205   4.028   9.479  2.3350 -1.4186 -1.5014
 6483SOL    HW230912   0.286   4.055   9.602 -2.5041 -0.6590  2.1277
 6484SOL     OW30913   0.921   0.395   4.277  0.0480  0.5976  0.4532
 6484SOL    HW130914   0.946   0.486   4.293  1.0628  0.4340 -0.1792
 6484SOL    HW230915   0.982   0.380   4.205 -0.5732 -0.5452  0.1684
 6485SOL     OW30916   0.345   3.246   8.952  0.0763  0.2672 -0.0695
 6485SOL    HW130917   0.323   3.287   9.035  0.0183 -0.9512  0.5107
 6485SOL    HW230918   0.435   3.271   8.933  0.0052  0.9007  0.4297
 6486SOL     OW30919   1.468   2.111   3.542  0.2519  0.3463 -0.6678
 6486SOL    HW130920   1.561   2.111   3.564  0.6247  0.2204 -2.2209
 6486SOL    HW230921   1.464   2.178   3.474  0.4384 -0.3871 -1.4087
 6487SOL     OW30922   4.708   1.032   8.204  0.4664 -0.1501 -0.0449
 6487SOL    HW130923   4.677   1.123   8.204 -0.9869 -0.6417 -1.5346
 6487SOL    HW230924   4.677   0.994   8.285  2.3147  0.1237  0.7951
 6488SOL     OW30925   4.367   1.472   3.031  0.3701 -0.4892  0.0475
 6488SOL    HW130926   4.337   1.383   3.051  0.1234 -0.8555 -1.9411
 6488SOL    HW230927   4.319   1.471   2.948  0.6117 -0.3087 -0.0947
 6489SOL     OW30928   4.200   1.977  13.275  0.7898 -0.0381 -0.3020
 6489SOL    HW130929   4.200   2.046  13.341  0.9645 -2.2842  2.0434
 6489SOL    HW230930   4.114   1.937  13.282  1.6077 -1.5522  1.0236
 6490SOL     OW30931   1.580   4.197   4.607 -0.6358 -0.7296  0.1014
 6490SOL    HW130932   1.612   4.280   4.572 -0.2177 -0.3620  1.3435
 6490SOL    HW230933   1.515   4.233   4.668 -2.3369  1.8574 -3.2753
 6491SOL     OW30934   1.167   3.586   1.869 -0.3396 -0.4951  0.8274
 6491SOL    HW130935   1.134   3.602   1.957 -0.0760 -1.1193  1.0378
 6491SOL    HW230936   1.261   3.600   1.885  0.1468 -1.7434 -0.9568
 6492SOL     OW30937   0.800   3.375   2.693 -0.2097  0.2138  0.0152
 6492SOL    HW130938   0.723   3.367   2.636  1.2467  0.3100 -1.9740
 6492SOL    HW230939   0.767   3.344   2.777 -0.6711 -0.7860 -0.5392
 6493SOL     OW30940   0.544   3.158   8.403 -0.4936  0.0265 -0.0209
 6493SOL    HW130941   0.483   3.204   8.460 -0.3262 -0.7387  0.7875
 6493SOL    HW230942   0.498   3.148   8.320  0.4876  0.8818 -0.6589
 6494SOL     OW30943   4.478   4.182   4.027 -0.0622  0.2794  0.0931
 6494SOL    HW130944   4.474   4.267   4.072 -0.4770 -0.3152  1.1984
 6494SOL    HW230945   4.457   4.198   3.935 -1.7443  2.3132  0.8201
 6495SOL     OW30946   3.517   2.524   6.291  1.1856 -0.3161 -0.3296
 6495SOL    HW130947   3.515   2.591   6.360  0.4781  0.5965 -1.2453
 6495SOL    HW230948   3.607   2.497   6.309  0.8879 -1.7862 -1.0951
 6496SOL     OW30949   1.957   4.521   2.607 -0.3354  0.3219  0.7760
 6496SOL    HW130950   1.978   4.614   2.607 -1.1072  0.4943 -2.6564
 6496SOL    HW230951   1.949   4.511   2.702 -1.3528  1.0625  0.7717
 6497SOL     OW30952   3.104   2.887   5.332  0.1158  0.1780 -0.0629
 6497SOL    HW130953   3.192   2.852   5.324  0.5591  1.6785 -1.9058
 6497SOL    HW230954   3.126   2.940   5.409 -0.7250 -0.9295  0.9227
 6498SOL     OW30955   4.594   1.015  15.882 -0.2981  0.1909 -0.3326
 6498SOL    HW130956   4.516   1.023  15.938 -1.2943 -0.7090 -1.5819
 6498SOL    HW230957   4.665   1.026  15.945 -0.6268 -1.2677  0.2797
 6499SOL     OW30958   3.732   0.795   6.587  0.2296 -0.4119  0.4443
 6499SOL    HW130959   3.643   0.813   6.556  1.0578  0.1359 -1.5830
 6499SOL    HW230960   3.723   0.734   6.660  0.6298  0.0784  0.9064
 6500SOL     OW30961   4.535   3.386   6.177  0.0669 -0.2585 -0.2960
 6500SOL    HW130962   4.608   3.430   6.133 -0.2411  1.3070  0.7533
 6500SOL    HW230963   4.518   3.310   6.122 -0.6889 -0.3028  0.0051
 6501SOL     OW30964   1.522   1.532   7.851  0.3328  0.2761  0.2783
 6501SOL    HW130965   1.601   1.584   7.836  1.0480 -1.0704 -0.6786
 6501SOL    HW230966   1.456   1.601   7.851 -1.3117 -1.3165  0.1888
 6502SOL     OW30967   4.550   4.434  13.253  0.6577 -0.1402  0.1411
 6502SOL    HW130968   4.583   4.371  13.318  1.9030  0.3543 -0.0049
 6502SOL    HW230969   4.461   4.398  13.253  0.4239  0.4493 -2.4294
 6503SOL     OW30970   4.283   4.092   8.962  0.0253 -0.6776  0.0964
 6503SOL    HW130971   4.298   4.068   9.054  1.0069  0.8757  0.3422
 6503SOL    HW230972   4.351   4.158   8.949 -0.2886  0.1718  2.8365
 6504SOL     OW30973   4.469   3.195   1.035 -0.1198 -0.3413  0.0802
 6504SOL    HW130974   4.416   3.273   1.023  0.7213 -0.2651 -3.1229
 6504SOL    HW230975   4.483   3.173   0.943 -1.1935  1.9640 -0.6200
 6505SOL     OW30976   0.134   0.436   7.702  0.1439  0.0770  0.1139
 6505SOL    HW130977   0.088   0.383   7.767 -0.0490  0.9180  0.6736
 6505SOL    HW230978   0.073   0.502   7.669  0.0619  1.4487  2.9306
 6506SOL     OW30979   1.888   0.297   5.207 -0.3944 -0.1143 -0.4251
 6506SOL    HW130980   1.843   0.213   5.220 -1.0915  0.2005 -0.8088
 6506SOL    HW230981   1.979   0.269   5.211 -0.3399  0.2435  0.9477
 6507SOL     OW30982   3.923   0.635   6.798 -0.5428 -0.1752 -0.2866
 6507SOL    HW130983   3.978   0.707   6.828 -1.2507  1.4184 -2.7868
 6507SOL    HW230984   3.963   0.616   6.713  2.1462  1.6398  0.5700
 6508SOL     OW30985   1.980   1.136   8.248 -0.5740 -0.4754 -0.1564
 6508SOL    HW130986   2.074   1.154   8.249 -1.2011  2.8284  0.2999
 6508SOL    HW230987   1.946   1.206   8.305  2.3490  1.0402 -0.2841
 6509SOL     OW30988   1.589   4.647   5.978  0.6823  0.2556 -0.7099
 6509SOL    HW130989   1.565   4.577   6.039  0.2758  0.6514 -0.4116
 6509SOL    HW230990   1.571   4.722   6.035  1.7183 -0.0430  0.0146
 6510SOL     OW30991   3.855   1.989   7.402 -0.7847  0.0452  0.0749
 6510SOL    HW130992   3.791   2.060   7.393  1.2994  1.7957 -0.9343
 6510SOL    HW230993   3.881   1.986   7.310 -0.9146  2.7977 -0.0519
 6511SOL     OW30994   3.531   2.677   6.511  0.4017 -0.0526  0.5918
 6511SOL    HW130995   3.441   2.698   6.536  0.2432 -0.0193 -0.0117
 6511SOL    HW230996   3.569   2.746   6.565  0.8263 -0.4785  0.8329
 6512SOL     OW30997   4.123   0.518   1.700 -0.2518 -0.2521 -0.1086
 6512SOL    HW130998   4.183   0.492   1.630  0.1487 -0.2416  0.2274
 6512SOL    HW230999   4.046   0.539   1.647 -2.6036  0.4869  3.5978
 6513SOL     OW31000   2.556   2.246   8.017  0.1159  0.2949 -0.2321
 6513SOL    HW131001   2.593   2.329   7.988 -2.3071  0.7224 -2.1277
 6513SOL    HW231002   2.464   2.263   7.996  0.2398  1.2561  0.0023
 6514SOL     OW31003   0.456   4.020  16.316 -0.0189 -0.5494 -0.3826
 6514SOL    HW131004   0.423   3.955  16.378 -1.1684  1.8939  1.5633
 6514SOL    HW231005   0.388   4.088  16.316  0.2614 -0.2705  0.3741
 6515SOL     OW31006   1.712   2.128   7.497  0.3095  0.0303 -0.4794
 6515SOL    HW131007   1.658   2.189   7.446 -1.9995 -2.2784 -0.7667
 6515SOL    HW231008   1.670   2.048   7.465  2.2688 -1.9426  1.8961
 6516SOL     OW31009   1.689   3.848   6.169  0.4207 -0.2708  0.5426
 6516SOL    HW131010   1.775   3.839   6.211  0.7314 -0.4046 -0.1360
 6516SOL    HW231011   1.639   3.770   6.194 -1.1273  0.7424  0.5552
 6517SOL     OW31012   1.623   3.915  10.459  0.0641  0.0789  0.4870
 6517SOL    HW131013   1.672   3.996  10.444 -0.2388  0.3522  0.9917
 6517SOL    HW231014   1.674   3.873  10.529  2.3669  1.6370 -0.2488
 6518SOL     OW31015   0.929   0.717   3.068  0.0278  0.0847  0.4534
 6518SOL    HW131016   0.880   0.681   2.995  0.4448  0.2611  0.0871
 6518SOL    HW231017   0.942   0.638   3.121  2.5213 -0.5854 -1.1952
 6519SOL     OW31018   0.713   1.358   4.790 -0.5091  0.2423 -0.5911
 6519SOL    HW131019   0.804   1.329   4.792 -0.3621  0.6623 -1.1077
 6519SOL    HW231020   0.719   1.435   4.733  0.6374  0.6030  0.0265
 6520SOL     OW31021   2.169   0.914   4.570  0.3292 -0.3624 -0.6640
 6520SOL    HW131022   2.259   0.911   4.536  0.4093  0.5902 -0.5289
 6520SOL    HW231023   2.148   0.822   4.585 -0.5018 -0.2533 -1.1770
 6521SOL     OW31024   0.656   4.390  14.799 -0.1833 -0.4755 -0.1853
 6521SOL    HW131025   0.564   4.405  14.824  0.0070  1.5397 -0.7170
 6521SOL    HW231026   0.707   4.414  14.877  0.6420 -0.0963 -0.8500
 6522SOL     OW31027   3.954   0.434  11.633 -0.2002  0.0589  0.3035
 6522SOL    HW131028   3.955   0.521  11.592 -1.6963  0.7965  1.7802
 6522SOL    HW231029   3.916   0.448  11.720 -2.7096  0.5720 -0.8793
 6523SOL     OW31030   4.673   0.492   5.630  0.3819 -0.0294 -0.8023
 6523SOL    HW131031   4.640   0.404   5.649  0.2310  0.1191 -0.3795
 6523SOL    HW231032   4.638   0.510   5.542 -0.2904 -0.2934 -0.5887
 6524SOL     OW31033   1.673   1.575   4.387 -0.4229 -0.0934  0.1578
 6524SOL    HW131034   1.690   1.619   4.304 -1.0826  0.0551  0.0980
 6524SOL    HW231035   1.593   1.528   4.363 -0.9241  1.3394 -1.0032
 6525SOL     OW31036   0.535   4.219   7.203 -0.2316 -0.6563  0.1376
 6525SOL    HW131037   0.531   4.298   7.149 -2.4810 -1.0517 -0.2816
 6525SOL    HW231038   0.457   4.243   7.253 -1.5945 -0.2651 -2.1682
 6526SOL     OW31039   0.470   4.507  13.523  0.3740  0.3214 -0.0470
 6526SOL    HW131040   0.444   4.598  13.508 -0.2819  0.4042  1.5499
 6526SOL    HW231041   0.470   4.519  13.618 -1.3339 -3.5820  0.4591
 6527SOL     OW31042   2.371   0.269   8.052  0.2057  0.3923 -0.0716
 6527SOL    HW131043   2.447   0.316   8.019  1.0571 -1.1120 -0.2481
 6527SOL    HW231044   2.318   0.251   7.974 -0.3975  0.1588  0.3950
 6528SOL     OW31045   0.054   3.517   4.689 -0.2289 -0.3724 -0.4668
 6528SOL    HW131046   4.693   3.504   4.645 -0.4254  1.9720 -0.7630
 6528SOL    HW231047   0.065   3.610   4.671 -3.0765  0.2069  0.8535
 6529SOL     OW31048   3.908   2.767   4.840  0.2843 -0.4296 -0.6557
 6529SOL    HW131049   3.915   2.838   4.777 -0.5555 -1.9885 -2.4971
 6529SOL    HW231050   3.966   2.809   4.904 -2.4080  0.4000  1.2367
 6530SOL     OW31051   4.610   1.497   2.780 -0.2136  0.0217  0.0314
 6530SOL    HW131052   4.683   1.468   2.836 -0.2532 -1.9847 -0.9439
 6530SOL    HW231053   4.606   1.587   2.811  0.9154 -0.3298  1.2288
 6531SOL     OW31054   1.770   2.434   1.883  0.6487 -0.1655 -0.4491
 6531SOL    HW131055   1.796   2.478   1.964  0.4681  2.1695 -1.6903
 6531SOL    HW231056   1.685   2.400   1.913  1.5351 -0.8426  1.3219
 6532SOL     OW31057   0.131   0.541  12.511  0.1060 -0.4437  0.1228
 6532SOL    HW131058   0.181   0.621  12.526 -0.2863  0.2796 -2.3948
 6532SOL    HW231059   0.190   0.488  12.458 -1.9857 -0.1721 -2.4942
 6533SOL     OW31060   4.298   4.266  12.188  0.2238  0.0575  0.0152
 6533SOL    HW131061   4.286   4.349  12.234 -1.4325  0.4106 -1.0929
 6533SOL    HW231062   4.306   4.293  12.097 -0.8846 -1.9083 -0.6668
 6534SOL     OW31063   0.967   1.767  13.252 -0.3702  0.2068 -0.3286
 6534SOL    HW131064   1.053   1.746  13.216  0.2052  1.7291  0.1634
 6534SOL    HW231065   0.915   1.718  13.187 -0.0526 -0.0397 -0.3939
 6535SOL     OW31066   1.036   4.236   6.826  0.3589 -0.0862  0.5102
 6535SOL    HW131067   1.131   4.240   6.814  0.3177 -2.0011 -0.4084
 6535SOL    HW231068   1.008   4.195   6.745 -0.5295  1.7081 -0.0813
 6536SOL     OW31069   4.385   1.284   3.408 -0.0580 -0.5335 -0.5025
 6536SOL    HW131070   4.431   1.215   3.456  0.1652  0.8577  1.2989
 6536SOL    HW231071   4.452   1.340   3.368 -0.6623  1.6608  1.5235
 6537SOL     OW31072   3.693   0.831   7.823  0.5228  0.7064 -0.3750
 6537SOL    HW131073   3.709   0.782   7.743  1.9622  1.0864 -0.3223
 6537SOL    HW231074   3.602   0.849   7.802  0.0497  0.4881  1.5323
 6538SOL     OW31075   0.145   2.117  11.216 -0.3016 -0.5812  0.3263
 6538SOL    HW131076   0.164   2.035  11.171 -3.4314 -0.4964 -1.1540
 6538SOL    HW231077   0.236   2.128  11.241 -0.6689 -1.9053  2.2614
 6539SOL     OW31078   2.554   3.186  12.192 -0.5603 -0.0459  0.1687
 6539SOL    HW131079   2.475   3.238  12.208 -0.0661  0.3836  1.2459
 6539SOL    HW231080   2.544   3.125  12.265  1.1402  0.5529  0.9051
 6540SOL     OW31081   3.693   1.700   5.553  1.0917  0.2289 -0.1384
 6540SOL    HW131082   3.785   1.724   5.567  1.4951 -1.4915  0.0716
 6540SOL    HW231083   3.657   1.767   5.493  0.9592 -1.1555 -1.5995
 6541SOL     OW31084   3.546   4.414   4.596  0.2818 -0.7620 -0.7849
 6541SOL    HW131085   3.585   4.428   4.683 -1.4851  1.6699 -0.3836
 6541SOL    HW231086   3.466   4.461   4.616  2.5464  0.8198  4.7810
 6542SOL     OW31087   0.984   2.270   1.010  0.5247 -0.5832 -0.0015
 6542SOL    HW131088   0.916   2.280   1.076 -0.4448  1.1899 -1.2731
 6542SOL    HW231089   0.993   2.175   1.001  0.0964 -0.4489 -1.8562
 6543SOL     OW31090   1.841   2.518   0.005  0.1700 -0.8413 -0.1718
 6543SOL    HW131091   1.928   2.478  17.690  0.1043 -0.6399 -1.2393
 6543SOL    HW231092   1.816   2.471   0.085 -1.4118  0.4544  0.0873
 6544SOL     OW31093   0.911   3.125  15.987  0.0083  0.0690 -0.4071
 6544SOL    HW131094   0.860   3.070  16.047 -0.4694  1.6088  0.6070
 6544SOL    HW231095   0.927   3.197  16.048 -0.0477  0.6357 -1.0630
 6545SOL     OW31096   0.575   1.185  15.312 -0.0560  0.0837  0.0545
 6545SOL    HW131097   0.534   1.240  15.244 -1.5727 -1.7102 -0.4918
 6545SOL    HW231098   0.542   1.236  15.386 -0.3577 -1.2453  0.8337
 6546SOL     OW31099   2.474   0.689  14.613  0.0612  0.4121 -0.0466
 6546SOL    HW131100   2.472   0.680  14.518 -1.8085  1.4767 -0.1242
 6546SOL    HW231101   2.392   0.647  14.642  0.3249  0.9455  1.4795
 6547SOL     OW31102   3.736   1.186   3.342  0.5191  0.0223 -0.4519
 6547SOL    HW131103   3.739   1.281   3.340 -1.9209  0.0791 -2.2867
 6547SOL    HW231104   3.643   1.175   3.323 -0.4533  1.2347  3.6318
 6548SOL     OW31105   4.034   4.115   0.798 -0.1310  0.0304  0.3212
 6548SOL    HW131106   4.037   4.028   0.836  1.2302 -1.1038 -2.3583
 6548SOL    HW231107   4.006   4.160   0.878 -0.9783 -1.0543  0.6337
 6549SOL     OW31108   2.639   3.010   3.683 -0.2785 -0.4042 -0.1299
 6549SOL    HW131109   2.669   2.975   3.599 -1.7596  1.4756 -1.4463
 6549SOL    HW231110   2.550   2.975   3.683  0.0095 -1.1194 -2.1134
 6550SOL     OW31111   1.479   1.395   4.251 -0.2494 -0.6819 -0.8055
 6550SOL    HW131112   1.530   1.314   4.259 -1.1428 -0.6987  4.8605
 6550SOL    HW231113   1.516   1.419   4.166 -0.3246 -5.2832 -2.1252
 6551SOL     OW31114   3.453   3.812   8.391 -0.5109  0.2956  0.6099
 6551SOL    HW131115   3.517   3.817   8.461  1.0726  1.6136 -0.9201
 6551SOL    HW231116   3.395   3.742   8.421  0.2739 -0.6100  0.0201
 6552SOL     OW31117   1.333   3.152  11.699  0.0124 -0.3340 -0.1627
 6552SOL    HW131118   1.343   3.241  11.664 -0.0209 -0.1845  0.2086
 6552SOL    HW231119   1.420   3.131  11.734 -0.3800 -0.4426  0.7545
 6553SOL     OW31120   4.329   1.460   7.669  0.0062 -0.0004  0.4095
 6553SOL    HW131121   4.372   1.471   7.753 -2.8728  5.0780  1.1757
 6553SOL    HW231122   4.308   1.366   7.674  3.0227 -0.7060 -0.1008
 6554SOL     OW31123   2.339   1.381   7.105  0.1559 -0.0145  0.1912
 6554SOL    HW131124   2.357   1.323   7.031 -2.2507  0.8683 -1.0701
 6554SOL    HW231125   2.420   1.432   7.096 -1.1190  2.1110  0.7918
 6555SOL     OW31126   1.212   3.562   7.952 -0.3355 -0.5624 -0.0431
 6555SOL    HW131127   1.213   3.600   8.040  0.6334 -2.4026  0.7344
 6555SOL    HW231128   1.298   3.581   7.915  0.3094  0.9758  2.2204
 6556SOL     OW31129   3.201   2.392   2.391 -0.1075 -0.2595 -0.1553
 6556SOL    HW131130   3.296   2.398   2.398 -0.0479 -1.1665 -0.1069
 6556SOL    HW231131   3.174   2.448   2.463  0.8878  2.6436 -2.0233
 6557SOL     OW31132   2.108   2.693   7.744  0.5457 -0.2686 -0.1023
 6557SOL    HW131133   2.026   2.729   7.779  1.1630 -0.4404  1.5058
 6557SOL    HW231134   2.130   2.633   7.815 -1.2851 -1.2651 -0.3624
 6558SOL     OW31135   4.578   0.946   7.795  0.4306 -0.5275 -0.4522
 6558SOL    HW131136   4.627   1.019   7.834 -0.7006  0.1482 -0.3087
 6558SOL    HW231137   4.538   0.896   7.866  0.4035  1.0981  0.6843
 6559SOL     OW31138   1.644   1.141   2.407  0.1823  0.2073  0.5405
 6559SOL    HW131139   1.599   1.098   2.335 -0.1820  1.1765  0.1849
 6559SOL    HW231140   1.722   1.177   2.365 -0.6739  0.5160 -0.7725
 6560SOL     OW31141   3.181   1.612   5.952  0.0927  0.5138 -0.2053
 6560SOL    HW131142   3.258   1.571   5.915  0.2451 -0.4960  1.2151
 6560SOL    HW231143   3.223   1.692   5.985  0.8337 -0.2215  0.6222
 6561SOL     OW31144   2.739   4.398  13.008  0.2083  0.2509 -0.4829
 6561SOL    HW131145   2.666   4.354  13.053  1.4678  1.1443  2.4544
 6561SOL    HW231146   2.730   4.490  13.030 -1.5963 -0.1902  0.6058
 6562SOL     OW31147   2.028   4.296   6.341  0.0130 -0.3347 -0.0917
 6562SOL    HW131148   2.026   4.235   6.415  1.6423  1.6082  1.5597
 6562SOL    HW231149   2.091   4.361   6.372 -1.9639  1.4141  0.2134
 6563SOL     OW31150   2.615   3.079   4.671 -0.2368  0.4881  0.3756
 6563SOL    HW131151   2.578   3.165   4.650  0.4722  1.5169  3.2824
 6563SOL    HW231152   2.699   3.092   4.628 -0.7159 -1.6171 -1.1897
 6564SOL     OW31153   4.311   4.305   6.783  0.0225 -0.3708 -0.5066
 6564SOL    HW131154   4.381   4.241   6.792 -0.2175 -0.3423  1.5389
 6564SOL    HW231155   4.248   4.259   6.728  0.3069  0.5598 -1.5922
 6565SOL     OW31156   3.507   2.431   4.572 -0.2390 -0.2659 -0.8501
 6565SOL    HW131157   3.491   2.338   4.581 -1.6921  0.3621  3.0260
 6565SOL    HW231158   3.460   2.452   4.492 -0.3252  0.9491 -0.4888
 6566SOL     OW31159   2.527   2.412  15.044  0.1894 -0.3849  0.3924
 6566SOL    HW131160   2.609   2.362  15.044  0.3830 -0.0820 -0.9749
 6566SOL    HW231161   2.468   2.369  14.981  1.1455  0.7672 -1.2960
 6567SOL     OW31162   1.024   1.208   2.975  0.0397  0.2263  0.6608
 6567SOL    HW131163   1.033   1.221   2.880 -4.0649 -1.0514  0.0996
 6567SOL    HW231164   1.086   1.272   3.010  0.2690  0.7565 -0.7015
 6568SOL     OW31165   1.686   0.026  14.495 -0.3482  0.3221 -0.3983
 6568SOL    HW131166   1.678   0.118  14.468 -0.4919  1.2981  3.0115
 6568SOL    HW231167   1.593   0.008  14.506 -0.1165 -2.1226 -2.4766
 6569SOL     OW31168   3.595   3.360  13.853  0.5399 -0.5851 -0.0024
 6569SOL    HW131169   3.637   3.294  13.908  1.7948  0.3583  0.1579
 6569SOL    HW231170   3.515   3.373  13.906  0.5860  1.2169 -0.3619
 6570SOL     OW31171   2.292   3.535   9.029 -0.3697  0.3470  0.2537
 6570SOL    HW131172   2.280   3.618   9.075 -0.9104 -0.5779  1.8026
 6570SOL    HW231173   2.265   3.472   9.097 -2.2900  0.2361 -0.6399
 6571SOL     OW31174   2.170   2.434   8.542  0.4361 -0.0176 -0.5859
 6571SOL    HW131175   2.091   2.487   8.555  0.5397  0.4817 -2.0252
 6571SOL    HW231176   2.132   2.347   8.549 -2.2352  1.2838  0.8686
 6572SOL     OW31177   1.697   0.310   9.918  0.5269  0.6248 -0.0901
 6572SOL    HW131178   1.713   0.253   9.993 -1.2001 -0.3564 -0.4450
 6572SOL    HW231179   1.770   0.279   9.864 -0.8838 -0.7319 -1.2486
 6573SOL     OW31180   1.919   1.685   8.067  0.4461  0.3027  0.1336
 6573SOL    HW131181   2.006   1.724   8.073  0.7603 -0.8310  3.3139
 6573SOL    HW231182   1.902   1.640   8.150  3.9107 -1.4079 -0.0949
 6574SOL     OW31183   0.010   0.226   8.959 -0.7490  0.2918  1.0115
 6574SOL    HW131184   4.679   0.164   9.005  0.0482 -0.8603  0.4165
 6574SOL    HW231185   0.037   0.281   9.033  2.4924  0.0428  0.0180
 6575SOL     OW31186   3.770   2.523   9.367 -0.3664  0.0838 -0.6300
 6575SOL    HW131187   3.757   2.596   9.427  0.4748 -1.6682  1.6963
 6575SOL    HW231188   3.861   2.538   9.343  0.3093 -2.2278  0.4061
 6576SOL     OW31189   1.522   1.544   7.182  0.2835 -1.2778 -0.4898
 6576SOL    HW131190   1.585   1.555   7.252 -0.9923  1.2138  0.2838
 6576SOL    HW231191   1.511   1.451   7.163  0.5289 -1.5379  0.6996
 6577SOL     OW31192   3.533   4.611   8.766  0.6220 -0.4892 -0.1394
 6577SOL    HW131193   3.593   4.579   8.833  1.1563  2.3018  0.7071
 6577SOL    HW231194   3.549   4.555   8.690  3.4655  0.3235 -0.1589
 6578SOL     OW31195   4.352   1.539   2.537  0.0200  0.5199  0.2944
 6578SOL    HW131196   4.406   1.492   2.601  2.1284  1.8996 -0.4518
 6578SOL    HW231197   4.302   1.466   2.502  0.2230  0.6459 -0.2737
 6579SOL     OW31198   4.033   1.667  17.642  0.1436  0.3188  0.4989
 6579SOL    HW131199   4.039   1.595  17.580 -3.6581 -0.3074  0.8512
 6579SOL    HW231200   4.108   1.650   0.001  0.3315 -0.1527  0.1021
 6580SOL     OW31201   3.179   1.972  14.808 -0.0440  0.0166 -0.2027
 6580SOL    HW131202   3.191   1.895  14.864  0.7475  1.1121  1.1175
 6580SOL    HW231203   3.253   1.959  14.749  0.0465  1.8810 -0.4936
 6581SOL     OW31204   1.933   3.125   8.994  1.0062 -0.2469 -0.8246
 6581SOL    HW131205   2.027   3.133   8.983  1.1559  0.0848  0.6309
 6581SOL    HW231206   1.918   3.187   9.065 -1.0798  0.5728 -1.9961
 6582SOL     OW31207   2.707   1.553   3.132 -0.0332  0.2129 -0.0682
 6582SOL    HW131208   2.681   1.469   3.093  1.7475 -0.1962 -0.4233
 6582SOL    HW231209   2.626   1.601   3.143 -0.3770 -0.2145 -0.7037
 6583SOL     OW31210   2.734   0.821   6.337  0.0518  0.7186 -0.3554
 6583SOL    HW131211   2.817   0.842   6.294 -0.1675  1.9224 -0.1807
 6583SOL    HW231212   2.739   0.867   6.421 -0.7616 -0.6776  0.4621
 6584SOL     OW31213   4.471   2.557   3.658  0.6254 -0.5413 -0.0433
 6584SOL    HW131214   4.473   2.465   3.633  1.3167 -0.4309 -0.4098
 6584SOL    HW231215   4.500   2.603   3.579 -2.3983 -1.0943 -1.4782
 6585SOL     OW31216   1.364   0.371   1.255 -0.5129 -0.4477  0.1849
 6585SOL    HW131217   1.435   0.353   1.193 -0.8405 -0.6679 -0.1256
 6585SOL    HW231218   1.414   0.411   1.326  1.0652 -2.5954  0.2485
 6586SOL     OW31219   2.257   3.608   3.532 -0.9531 -0.6794 -0.4664
 6586SOL    HW131220   2.248   3.700   3.553  0.2174 -0.8478  0.7918
 6586SOL    HW231221   2.353   3.599   3.534 -0.9665 -0.8716 -0.6232
 6587SOL     OW31222   2.562   2.188   6.531  0.7311 -0.2374  0.1405
 6587SOL    HW131223   2.500   2.248   6.573  2.3004  1.3851  0.1535
 6587SOL    HW231224   2.644   2.237   6.541 -0.4460  1.9828 -1.1053
 6588SOL     OW31225   0.161   3.375   4.171  0.1271  0.5235  0.1703
 6588SOL    HW131226   0.169   3.385   4.266  0.7563 -0.3011  0.2030
 6588SOL    HW231227   0.256   3.378   4.161  0.0741  0.6726 -0.2810
 6589SOL     OW31228   3.483   0.502   1.035 -0.8782  0.3214 -0.5463
 6589SOL    HW131229   3.536   0.518   1.113 -1.8017 -0.7562  0.3005
 6589SOL    HW231230   3.399   0.490   1.080 -0.3698 -3.7447 -0.6819
 6590SOL     OW31231   2.197   0.062  16.132 -0.3593 -0.1282  0.0736
 6590SOL    HW131232   2.279   0.089  16.091  0.3744  0.3124  1.8154
 6590SOL    HW231233   2.144   0.140  16.115 -1.5609 -0.9684  0.0039
 6591SOL     OW31234   4.423   1.714   5.054  0.5264 -0.0393 -0.3068
 6591SOL    HW131235   4.447   1.625   5.029 -1.0387 -1.2000  2.3107
 6591SOL    HW231236   4.474   1.727   5.134  0.7056  1.1471 -0.6145
 6592SOL     OW31237   0.401   0.294   2.625  0.6799  0.5152  0.4687
 6592SOL    HW131238   0.378   0.380   2.587  0.1105  0.2015  0.1007
 6592SOL    HW231239   0.496   0.296   2.615  0.7553 -0.4607  1.0857
 6593SOL     OW31240   1.147   1.480  11.128  0.1158  0.7857  0.1574
 6593SOL    HW131241   1.083   1.507  11.194  1.6336  2.6362  0.8781
 6593SOL    HW231242   1.212   1.459  11.194 -0.0395  0.8003  0.3146
 6594SOL     OW31243   2.176   1.250   2.857  0.2465  0.0771  0.2506
 6594SOL    HW131244   2.087   1.230   2.887 -0.2860 -0.6089 -1.8240
 6594SOL    HW231245   2.164   1.235   2.764  1.8429  0.9904 -0.0972
 6595SOL     OW31246   0.060   3.214  17.301 -0.4621  0.3533 -0.4121
 6595SOL    HW131247   0.122   3.140  17.302 -1.2128 -0.2574  0.5782
 6595SOL    HW231248   0.124   3.282  17.281 -0.0418 -0.0530 -0.4705
 6596SOL     OW31249   1.360   0.798  12.261 -0.3323 -0.0574 -0.1076
 6596SOL    HW131250   1.277   0.846  12.265  0.8873  2.0337  0.1890
 6596SOL    HW231251   1.416   0.876  12.264 -2.0073  1.1977 -1.9936
 6597SOL     OW31252   0.138   2.400   4.692  0.1811 -0.0742  0.2641
 6597SOL    HW131253   0.058   2.353   4.718  0.5308 -0.0435  1.3745
 6597SOL    HW231254   0.168   2.430   4.778 -0.7596 -0.6324  0.7978
 6598SOL     OW31255   3.075   0.301   2.810 -0.0617 -0.2026  0.3251
 6598SOL    HW131256   3.117   0.384   2.788  0.7035 -0.3049  1.3831
 6598SOL    HW231257   3.131   0.276   2.884  0.5510  0.0989 -0.0372
 6599SOL     OW31258   4.133   0.024   5.898  0.2962  0.1565 -0.5963
 6599SOL    HW131259   4.067   4.689   5.861 -0.9702  1.7571 -0.8807
 6599SOL    HW231260   4.193   4.679   5.926  0.5162 -0.4822 -2.6799
 6600SOL     OW31261   2.075   0.016   8.371  0.0279 -0.5854  0.3870
 6600SOL    HW131262   2.171   0.010   8.378  0.1820  2.8116  1.4409
 6600SOL    HW231263   2.067   0.021   8.276  2.5796  0.1123  0.1917
 6601SOL     OW31264   3.925   3.570   9.536  0.1792  0.7857 -0.5391
 6601SOL    HW131265   3.843   3.575   9.585 -0.2513 -0.3156 -1.1463
 6601SOL    HW231266   3.962   3.659   9.536  1.4079  0.2817  1.0293
 6602SOL     OW31267   1.225   1.752  13.108 -0.1507  0.0977  0.2763
 6602SOL    HW131268   1.292   1.807  13.150  0.0986 -0.5899  0.7969
 6602SOL    HW231269   1.219   1.790  13.021  0.4893 -0.6751 -0.1063
 6603SOL     OW31270   1.970   4.651  17.622 -0.9672  0.0216 -0.6925
 6603SOL    HW131271   1.905   4.667  17.690 -0.2591 -1.2363  0.2815
 6603SOL    HW231272   2.021   4.580  17.661 -0.6377 -1.3953 -3.7252
 6604SOL     OW31273   1.537   3.061  13.814  0.1051 -0.0348 -0.1816
 6604SOL    HW131274   1.501   3.099  13.894  3.0966 -0.1738  1.2078
 6604SOL    HW231275   1.478   3.103  13.751  2.1034  0.1692 -1.9014
 6605SOL     OW31276   2.085   1.961  17.594 -0.1709  0.2705 -0.0517
 6605SOL    HW131277   2.151   2.002  17.539 -2.3233  1.6494 -1.5798
 6605SOL    HW231278   2.058   2.033  17.651 -0.6943 -1.3772  1.8040
 6606SOL     OW31279   2.865   3.148   3.784 -0.7111 -0.2657  0.1070
 6606SOL    HW131280   2.790   3.191   3.743 -0.9052  0.6398  1.4274
 6606SOL    HW231281   2.830   3.060   3.796  0.0868 -0.2305  2.5854
 6607SOL     OW31282   2.318   1.179   9.600 -0.0702 -0.1480  0.4481
 6607SOL    HW131283   2.274   1.181   9.685  1.5319  1.2657  1.2285
 6607SOL    HW231284   2.369   1.100   9.615 -1.0989 -1.4307 -2.7817
 6608SOL     OW31285   3.271   2.129   2.472  0.4956  0.7287  0.4487
 6608SOL    HW131286   3.281   2.080   2.390 -0.4431  1.6326 -0.2161
 6608SOL    HW231287   3.219   2.203   2.440  0.4179  0.2056 -0.6500
 6609SOL     OW31288   1.501   2.605   5.641  0.2728 -0.0534 -0.2830
 6609SOL    HW131289   1.472   2.643   5.558 -0.0894  0.5740  0.1350
 6609SOL    HW231290   1.576   2.660   5.663 -0.8335  0.4716  2.1514
 6610SOL     OW31291   0.726   1.184   2.433 -0.2853 -0.1469  0.2252
 6610SOL    HW131292   0.811   1.218   2.406  0.0397  0.5376  2.0947
 6610SOL    HW231293   0.697   1.142   2.352 -0.4288  0.3583  0.0104
 6611SOL     OW31294   4.028   2.472   4.926 -0.3032  0.4067  0.4312
 6611SOL    HW131295   4.031   2.382   4.958 -1.4542  0.5784  1.0454
 6611SOL    HW231296   3.936   2.492   4.945 -1.2926 -0.3926 -3.5212
 6612SOL     OW31297   0.876   2.187  10.412  0.3686  0.0290  0.3750
 6612SOL    HW131298   0.897   2.098  10.438 -0.8018 -0.3884 -0.1071
 6612SOL    HW231299   0.876   2.184  10.317  0.4671  0.7037  0.3529
 6613SOL     OW31300   0.312   4.288   6.973  0.8130  0.4913  0.2409
 6613SOL    HW131301   0.306   4.318   6.882  4.2189  0.0572 -0.1340
 6613SOL    HW231302   0.302   4.194   6.962  0.7098  0.6224 -0.8243
 6614SOL     OW31303   0.591   1.326   5.286 -0.3098 -0.3993 -0.2012
 6614SOL    HW131304   0.556   1.375   5.360  1.3374  2.1260 -1.1090
 6614SOL    HW231305   0.541   1.365   5.215 -0.3067 -0.0739 -0.0245
 6615SOL     OW31306   4.524   1.578  11.257 -0.6078 -0.4591  0.5937
 6615SOL    HW131307   4.536   1.668  11.228 -0.3738 -0.8266 -0.4876
 6615SOL    HW231308   4.593   1.566  11.322  0.0883  0.0457 -0.0532
 6616SOL     OW31309   2.341   2.332   6.595 -0.2040  0.4699  0.6469
 6616SOL    HW131310   2.281   2.285   6.538 -1.2578  2.9505 -0.2921
 6616SOL    HW231311   2.297   2.417   6.603 -2.3362 -0.6320  0.6031
 6617SOL     OW31312   2.693   1.052   7.144  0.6137  0.2566 -0.4533
 6617SOL    HW131313   2.780   1.041   7.105  1.2035 -0.0505  0.9604
 6617SOL    HW231314   2.704   1.146   7.158 -2.2405  0.5049  0.0951
 6618SOL     OW31315   4.545   0.384   3.612 -0.2710 -0.0776  0.0587
 6618SOL    HW131316   4.526   0.293   3.588  1.4017  0.0071 -1.6256
 6618SOL    HW231317   4.576   0.376   3.702 -1.2677  1.1615  0.5141
 6619SOL     OW31318   0.191   1.884  10.263  0.2351  0.1884  0.3201
 6619SOL    HW131319   0.177   1.812  10.325 -0.6781  0.6771  0.6764
 6619SOL    HW231320   0.098   1.907  10.257  0.2825 -0.3292 -2.5703
 6620SOL     OW31321   4.249   0.204   6.697 -0.0852  0.7606 -0.3626
 6620SOL    HW131322   4.188   0.277   6.707 -1.5115 -0.5465  0.4639
 6620SOL    HW231323   4.227   0.186   6.605 -2.1524 -0.1031  0.2862
 6621SOL     OW31324   4.029   2.881  15.591 -0.4680 -0.2468 -0.6286
 6621SOL    HW131325   4.038   2.895  15.497 -1.7521  2.1403 -0.4016
 6621SOL    HW231326   4.029   2.972  15.623 -1.0496 -0.5664  0.3174
 6622SOL     OW31327   2.020   0.168  10.049 -0.6090 -0.2544 -0.3682
 6622SOL    HW131328   1.932   0.179  10.085 -0.2171 -0.5337  0.6734
 6622SOL    HW231329   1.994   0.192   9.960  1.4163  1.6653 -0.4532
 6623SOL     OW31330   0.073   1.262   4.662 -0.6010 -0.2384  0.2923
 6623SOL    HW131331   0.026   1.191   4.620 -2.7690  0.4193  1.6219
 6623SOL    HW231332   0.003   1.327   4.652  0.1012  0.5929  0.7077
 6624SOL     OW31333   3.168   0.816   2.898 -0.5953 -0.4872  0.0154
 6624SOL    HW131334   3.132   0.887   2.951  1.9554  0.6884  0.1740
 6624SOL    HW231335   3.244   0.861   2.863  0.1796  2.7110  5.7802
 6625SOL     OW31336   2.195   1.819   6.339 -0.1636  0.0025  0.4248
 6625SOL    HW131337   2.194   1.797   6.246 -1.0201 -0.4557  0.5438
 6625SOL    HW231338   2.285   1.851   6.350  1.3921 -3.6234 -1.6246
 6626SOL     OW31339   0.801   3.177   9.437 -0.2302  0.3825 -0.1190
 6626SOL    HW131340   0.787   3.193   9.530 -0.1342  1.6738 -0.3203
 6626SOL    HW231341   0.776   3.085   9.429  0.4321  0.1182  0.8194
 6627SOL     OW31342   3.780   0.631   2.146  0.6540 -0.4609  0.3332
 6627SOL    HW131343   3.778   0.565   2.216 -1.4084  0.0263  0.7234
 6627SOL    HW231344   3.760   0.576   2.070 -1.9982  2.1589 -0.8277
 6628SOL     OW31345   1.933   4.544  16.647 -0.1867 -0.7284  0.1934
 6628SOL    HW131346   2.019   4.581  16.630  0.2984 -1.2220  1.6466
 6628SOL    HW231347   1.924   4.486  16.571  0.6908  0.7408 -1.0243
 6629SOL     OW31348   0.005   3.105   9.431  0.2623  0.0882  0.4359
 6629SOL    HW131349   4.651   3.131   9.382  0.2992  1.4310  1.1115
 6629SOL    HW231350   4.692   3.079   9.515 -0.7374 -2.5589 -0.8071
 6630SOL     OW31351   2.986   1.925  16.051 -0.1161  1.2381 -0.7093
 6630SOL    HW131352   2.928   1.954  15.981 -0.2151  0.2563 -1.0414
 6630SOL    HW231353   3.055   1.991  16.043  2.0256 -0.7879  0.8859
 6631SOL     OW31354   3.520   1.691   8.393  0.6567  0.0615  0.6607
 6631SOL    HW131355   3.577   1.766   8.410  0.4328  0.0139  1.5960
 6631SOL    HW231356   3.440   1.708   8.443  0.5529  1.1602  0.1347
 6632SOL     OW31357   0.933   2.441   5.544  0.5684 -0.2691 -0.9644
 6632SOL    HW131358   0.899   2.352   5.545  1.7859 -0.7173  1.1507
 6632SOL    HW231359   0.894   2.480   5.466  0.1703  0.0310 -0.6170
 6633SOL     OW31360   0.028   0.904   0.798  0.3726  0.3146 -0.6556
 6633SOL    HW131361   4.684   0.944   0.744 -0.3402  1.4789  1.1011
 6633SOL    HW231362   0.061   0.832   0.743  2.0314  0.6698 -0.1384
 6634SOL     OW31363   2.885   3.646   5.009 -0.6654  0.1479  0.0304
 6634SOL    HW131364   2.893   3.555   5.037 -0.8235  0.1439  0.0608
 6634SOL    HW231365   2.832   3.671   5.084  0.6977 -1.5397  1.5745
 6635SOL     OW31366   1.098   2.309   6.552  0.0183 -0.2175  0.5479
 6635SOL    HW131367   1.072   2.223   6.586 -1.3526  0.7691  2.0290
 6635SOL    HW231368   1.178   2.279   6.508 -0.7768 -1.8540  0.2121
 6636SOL     OW31369   0.503   1.972   6.437 -0.4012 -0.0116 -0.2631
 6636SOL    HW131370   0.587   1.936   6.464 -1.1842 -3.1824 -2.0170
 6636SOL    HW231371   0.499   1.976   6.341  0.1710  2.9444 -0.1641
 6637SOL     OW31372   3.539   1.364  16.180 -0.5434  0.4426 -0.0409
 6637SOL    HW131373   3.611   1.305  16.206 -1.8033 -1.7119 -1.4078
 6637SOL    HW231374   3.537   1.435  16.244 -0.5904  1.2342 -0.9346
 6638SOL     OW31375   2.664   1.192   0.770 -0.2837 -0.4317 -0.3117
 6638SOL    HW131376   2.642   1.130   0.840  3.8038 -3.8263 -2.0683
 6638SOL    HW231377   2.664   1.139   0.690  2.4153  0.1497 -0.7032
 6639SOL     OW31378   4.304   2.488   1.613  0.0797  0.8094 -0.2771
 6639SOL    HW131379   4.254   2.567   1.631 -0.7211  0.8397 -2.6086
 6639SOL    HW231380   4.248   2.456   1.541  0.8868 -3.0882  0.8033
 6640SOL     OW31381   2.133   2.484   7.095  0.0190 -0.1108  0.2724
 6640SOL    HW131382   2.053   2.533   7.076  0.0892  0.4948  1.5238
 6640SOL    HW231383   2.199   2.551   7.076  0.8470 -1.0251 -0.0753
 6641SOL     OW31384   3.222   4.302   4.005 -0.5213  0.0199  0.3369
 6641SOL    HW131385   3.140   4.344   4.033  0.6241  3.5766 -1.6581
 6641SOL    HW231386   3.200   4.258   3.922 -0.0110 -0.2034  0.3227
 6642SOL     OW31387   3.558   1.969   7.668 -0.1515 -0.0121  0.0763
 6642SOL    HW131388   3.493   1.929   7.610  1.0011 -2.3306  0.4090
 6642SOL    HW231389   3.510   1.999   7.745 -2.0566  0.4325 -1.2783
 6643SOL     OW31390   3.407   1.783   4.008  0.0999  0.2545 -0.0910
 6643SOL    HW131391   3.391   1.782   4.102 -0.4951 -0.4149 -0.2026
 6643SOL    HW231392   3.321   1.761   3.974 -0.0887  0.2006  0.4321
 6644SOL     OW31393   4.289   4.564   6.008  0.5503 -0.8016  0.3386
 6644SOL    HW131394   4.318   4.552   6.098 -0.9987 -1.1377  0.7992
 6644SOL    HW231395   4.340   4.499   5.961  0.5920 -1.0224  0.6890
 6645SOL     OW31396   1.010   4.146   5.325  0.2832 -0.4253 -0.0049
 6645SOL    HW131397   1.043   4.123   5.238 -0.7729 -2.7191  0.1984
 6645SOL    HW231398   0.944   4.077   5.338  1.7934 -1.2519  3.1049
 6646SOL     OW31399   2.598   0.726   5.531  0.0692 -0.1209  0.1154
 6646SOL    HW131400   2.504   0.708   5.523  0.4379 -2.4282  0.8662
 6646SOL    HW231401   2.620   0.765   5.447  0.9863 -1.4877 -0.2851
 6647SOL     OW31402   2.427   3.561  14.986 -0.0440 -0.6128  0.0808
 6647SOL    HW131403   2.336   3.557  15.015 -0.0950 -0.2720 -0.0312
 6647SOL    HW231404   2.423   3.531  14.896  2.4398 -0.3041 -0.1315
 6648SOL     OW31405   0.942   0.469   4.950  0.2678  0.0322  0.1685
 6648SOL    HW131406   0.956   0.563   4.960 -1.1143  0.2559  0.0574
 6648SOL    HW231407   1.027   0.431   4.972  0.7009  0.4757 -0.7062
 6649SOL     OW31408   3.805   1.849   6.128  0.6883 -0.2800 -0.1796
 6649SOL    HW131409   3.867   1.869   6.198  0.2605  1.7620 -0.4018
 6649SOL    HW231410   3.860   1.859   6.051  1.7993 -0.2589  0.6036
 6650SOL     OW31411   3.267   0.198  17.151 -0.5275  0.3290 -0.1599
 6650SOL    HW131412   3.242   0.290  17.158  0.6394  0.6719 -0.5046
 6650SOL    HW231413   3.234   0.164  17.235  0.4919 -2.7054 -0.9675
 6651SOL     OW31414   0.603   2.141   8.271  0.1176  0.2974 -0.2108
 6651SOL    HW131415   0.658   2.150   8.349  0.7056 -1.4162 -0.4239
 6651SOL    HW231416   0.648   2.195   8.206 -1.0262  0.6888 -0.6667
 6652SOL     OW31417   4.501   3.535   7.720  0.1580 -0.1064 -0.4195
 6652SOL    HW131418   4.425   3.484   7.693 -0.8496  0.8423  0.5970
 6652SOL    HW231419   4.473   3.586   7.796  0.1416  1.7612 -1.6762
 6653SOL     OW31420   1.291   1.982   6.593 -0.8764  0.1594 -0.4204
 6653SOL    HW131421   1.373   2.006   6.550 -1.3336  0.5994 -1.0466
 6653SOL    HW231422   1.230   1.977   6.520 -1.5779  1.6166  0.0555
 6654SOL     OW31423   3.377   3.694   6.352 -0.0490 -0.6931  0.0495
 6654SOL    HW131424   3.423   3.667   6.431  1.3702  0.8558 -0.2534
 6654SOL    HW231425   3.442   3.682   6.283  0.2007  1.3673 -0.0608
 6655SOL     OW31426   1.210   4.143   2.680  0.1601  0.7054 -0.1524
 6655SOL    HW131427   1.304   4.138   2.696 -0.2558 -0.9194  1.8024
 6655SOL    HW231428   1.174   4.163   2.767 -0.8223 -0.5069 -0.2844
 6656SOL     OW31429   3.821   0.338   2.318 -0.3072  0.2892  0.2006
 6656SOL    HW131430   3.831   0.268   2.382 -1.7861 -0.2924 -0.2091
 6656SOL    HW231431   3.736   0.374   2.340 -0.6355 -0.0061 -0.5976
 6657SOL     OW31432   4.423   4.423   9.612 -0.0860  0.0094 -0.0967
 6657SOL    HW131433   4.392   4.353   9.669  2.2311 -0.4710  0.5612
 6657SOL    HW231434   4.498   4.464   9.656 -0.7905 -1.4325  2.4772
 6658SOL     OW31435   3.952   4.053  14.585  0.3745  0.5051  0.1633
 6658SOL    HW131436   4.031   4.011  14.620 -0.5638 -0.9458  0.5280
 6658SOL    HW231437   3.983   4.057  14.494 -1.2418  0.6777 -0.3775
 6659SOL     OW31438   2.599   2.058   8.777  0.0675 -0.0449 -0.2118
 6659SOL    HW131439   2.659   2.125   8.745  0.2058 -0.0410  0.0560
 6659SOL    HW231440   2.538   2.048   8.703 -1.5397 -3.1571  1.5341
 6660SOL     OW31441   4.614   3.836   5.527  0.1344  0.4445 -0.6354
 6660SOL    HW131442   4.531   3.846   5.480 -0.9627  0.9901  1.3883
 6660SOL    HW231443   4.678   3.854   5.459  1.7339 -3.7595 -0.2485
 6661SOL     OW31444   4.305   3.365   6.554  0.2000 -0.0176 -0.8227
 6661SOL    HW131445   4.326   3.382   6.646 -0.5759 -1.3500 -0.3998
 6661SOL    HW231446   4.293   3.270   6.546 -0.9111 -0.1901  3.1446
 6662SOL     OW31447   4.168   0.167   3.392  0.3949 -0.1662 -0.5157
 6662SOL    HW131448   4.255   0.165   3.430 -0.5434 -1.0318  1.5514
 6662SOL    HW231449   4.190   0.169   3.298  0.6115 -1.3790 -0.4855
 6663SOL     OW31450   1.970   3.812   3.429  0.2828  0.2920  0.2765
 6663SOL    HW131451   2.003   3.902   3.424 -0.6001  0.4508 -3.0020
 6663SOL    HW231452   1.875   3.812   3.436  0.3879 -0.7903  1.7102
 6664SOL     OW31453   0.493   3.699   5.905  0.1765  0.8242 -0.2182
 6664SOL    HW131454   0.528   3.709   5.993  0.9487  0.5474 -0.5011
 6664SOL    HW231455   0.516   3.776   5.853 -2.0204  0.4039 -1.8264
 6665SOL     OW31456   0.260   3.556   5.903  0.1608  0.4996 -0.3539
 6665SOL    HW131457   0.345   3.589   5.874  0.0268 -0.2160 -1.5080
 6665SOL    HW231458   0.272   3.465   5.878 -1.6455  0.1796 -0.0699
 6666SOL     OW31459   0.259   0.328   7.230  0.7128  0.3269  0.0551
 6666SOL    HW131460   0.186   0.324   7.292  1.5673  0.0288  1.0515
 6666SOL    HW231461   0.219   0.360   7.149  1.2500  2.4798  0.6266
 6667SOL     OW31462   2.367   4.611   2.497 -0.1504  0.2512 -0.0447
 6667SOL    HW131463   2.320   4.620   2.580  0.3861  0.8269  0.1991
 6667SOL    HW231464   2.453   4.652   2.505 -0.5380  1.1115 -0.3272
 6668SOL     OW31465   1.283   3.846   9.232 -0.3475  0.5396 -0.2306
 6668SOL    HW131466   1.203   3.887   9.199 -0.9857 -2.0517 -1.8451
 6668SOL    HW231467   1.268   3.752   9.226  2.5345  0.1501 -1.2459
 6669SOL     OW31468   0.398   0.502   5.168  0.2583 -1.2019 -0.2797
 6669SOL    HW131469   0.492   0.505   5.180  0.2607  0.3904 -0.8458
 6669SOL    HW231470   0.372   0.583   5.213  0.0032  0.3941 -3.3537
 6670SOL     OW31471   3.647   0.233  11.445  0.2428  0.3341  0.4472
 6670SOL    HW131472   3.733   0.195  11.460 -0.3887  0.0655  3.5159
 6670SOL    HW231473   3.635   0.254  11.538 -2.4494  0.2488  0.1377
 6671SOL     OW31474   0.436   3.470   6.624 -0.3941  0.0689  0.4348
 6671SOL    HW131475   0.470   3.384   6.648 -1.2398 -0.2429  0.5167
 6671SOL    HW231476   0.489   3.494   6.548  0.6630  0.0829  1.1917
 6672SOL     OW31477   2.899   3.071   5.428  0.0421  0.4925  0.1818
 6672SOL    HW131478   2.874   2.978   5.422  1.6783  0.0236  0.7489
 6672SOL    HW231479   2.858   3.105   5.508  1.5127  0.3835  0.9699
 6673SOL     OW31480   4.500   0.727  16.624 -0.0093 -0.2993 -0.0470
 6673SOL    HW131481   4.580   0.703  16.671 -0.2540 -0.9309  0.0565
 6673SOL    HW231482   4.436   0.669  16.667 -0.4916 -1.2973 -2.0970
 6674SOL     OW31483   3.647   4.134   9.069  0.6884 -0.0541  0.0663
 6674SOL    HW131484   3.717   4.198   9.083  1.1941 -0.5635 -0.1318
 6674SOL    HW231485   3.582   4.185   9.020  2.5145  0.9415 -1.3228
 6675SOL     OW31486   4.040   3.644   2.041 -0.4009  0.5979  0.6465
 6675SOL    HW131487   4.025   3.738   2.029  0.8120  0.5524 -1.2666
 6675SOL    HW231488   4.021   3.628   2.134 -0.3574  2.3608  0.9622
 6676SOL     OW31489   0.446   2.958   3.359 -0.0275 -0.2318  0.2304
 6676SOL    HW131490   0.466   2.950   3.265  1.3228  3.4574  0.1957
 6676SOL    HW231491   0.352   2.945   3.358  0.0720 -0.9771  1.2241
 6677SOL     OW31492   4.700   4.690  13.262  0.4379 -0.4535  0.3892
 6677SOL    HW131493   4.641   4.713  13.190 -0.6548  1.1234  1.7866
 6677SOL    HW231494   4.661   4.609  13.292 -0.1344 -0.8106 -1.2882
 6678SOL     OW31495   2.441   2.001  10.816 -0.4603  0.7842  0.1059
 6678SOL    HW131496   2.494   1.965  10.888  0.1481 -1.0885 -1.2895
 6678SOL    HW231497   2.447   1.941  10.742  0.3270  0.7706  0.1818
 6679SOL     OW31498   3.614   2.920  14.189  0.3668  0.2112 -0.0968
 6679SOL    HW131499   3.597   2.917  14.094  0.6906  1.5242 -0.1995
 6679SOL    HW231500   3.709   2.928  14.187  0.2053  1.7517 -1.4656
 6680SOL     OW31501   3.474   1.214   3.280  0.0222  0.1787 -0.8157
 6680SOL    HW131502   3.483   1.279   3.210  1.3364 -0.1041 -0.9194
 6680SOL    HW231503   3.384   1.225   3.311  0.0878 -0.6851 -0.3177
 6681SOL     OW31504   0.159   2.421  10.216 -0.1219 -0.5568 -0.0373
 6681SOL    HW131505   0.098   2.405  10.144 -1.7517  1.8391  0.8271
 6681SOL    HW231506   0.113   2.397  10.296  0.3788  1.2115  0.7764
 6682SOL     OW31507   0.808   3.422   2.331  0.6651  0.0906 -0.5467
 6682SOL    HW131508   0.883   3.434   2.390  1.4866  0.8509 -1.7206
 6682SOL    HW231509   0.743   3.419   2.401  1.5306  0.2615  0.2629
 6683SOL     OW31510   3.723   0.006   7.692  0.1320  0.1579 -0.0887
 6683SOL    HW131511   3.693   0.019   7.602 -0.7699 -0.1655  0.1649
 6683SOL    HW231512   3.698   4.640   7.710  0.6612 -0.0489 -0.4025
 6684SOL     OW31513   4.450   3.848   9.175 -0.5081  0.2662 -0.5175
 6684SOL    HW131514   4.376   3.787   9.184  0.9146 -1.9043 -3.5099
 6684SOL    HW231515   4.398   3.928   9.185 -3.5849 -1.4933 -2.3503
 6685SOL     OW31516   2.722   2.130   3.659 -0.2530 -0.5049  0.0845
 6685SOL    HW131517   2.790   2.068   3.684  0.0569  0.7651  2.3906
 6685SOL    HW231518   2.714   2.105   3.567 -0.5604  0.0145 -0.0277
 6686SOL     OW31519   4.104   2.260   7.451  0.2446  0.1816  0.0087
 6686SOL    HW131520   4.039   2.292   7.389 -0.1297 -3.5722 -1.5353
 6686SOL    HW231521   4.143   2.335   7.495  1.3157 -0.5553  0.3297
 6687SOL     OW31522   3.517   1.204   9.439  0.7404  0.1320 -0.1877
 6687SOL    HW131523   3.551   1.120   9.409 -0.2595 -0.8028  1.3005
 6687SOL    HW231524   3.432   1.213   9.396  0.2543 -0.8468  0.5673
 6688SOL     OW31525   3.550   0.415  12.513  0.4942 -0.2624  0.7597
 6688SOL    HW131526   3.539   0.370  12.597  0.4999  0.8630  1.3653
 6688SOL    HW231527   3.581   0.347  12.453  0.2434  0.5647 -0.3009
 6689SOL     OW31528   2.052   1.753  14.995  0.1657 -0.0393 -0.5575
 6689SOL    HW131529   2.051   1.659  14.977  0.8846 -0.2150  0.3349
 6689SOL    HW231530   2.142   1.763  15.025  0.5661  2.9592 -2.7685
 6690SOL     OW31531   2.204   3.475  13.313  0.0540 -0.1435 -0.0665
 6690SOL    HW131532   2.167   3.456  13.399 -1.0516 -1.2036 -0.7835
 6690SOL    HW231533   2.287   3.428  13.306 -0.2369 -0.7447  0.6604
 6691SOL     OW31534   2.630   4.279   9.162  0.5259  0.2308 -0.6197
 6691SOL    HW131535   2.602   4.328   9.085 -1.2444 -0.7660 -0.5936
 6691SOL    HW231536   2.720   4.255   9.143  0.3560  0.7971 -2.1582
 6692SOL     OW31537   1.057   1.854   2.957 -0.1208  0.2483 -0.0105
 6692SOL    HW131538   1.037   1.767   2.992  0.4243  0.5982  1.1881
 6692SOL    HW231539   0.968   1.888   2.965 -0.1063 -0.0360  1.3716
 6693SOL     OW31540   4.033   2.773   4.466 -0.3670  0.0464 -0.1492
 6693SOL    HW131541   3.971   2.835   4.502  1.7472  0.8561  2.0924
 6693SOL    HW231542   4.021   2.693   4.517  0.3290  0.4337  0.6277
 6694SOL     OW31543   2.865   2.884   5.205 -0.3961  0.2018 -0.2172
 6694SOL    HW131544   2.951   2.893   5.246 -0.3417  0.6778 -0.4361
 6694SOL    HW231545   2.825   2.969   5.226 -1.4134 -0.6223  1.1420
 6695SOL     OW31546   2.925   0.185  14.024 -0.6222 -0.2507 -0.1428
 6695SOL    HW131547   3.009   0.183  13.978 -0.5501 -2.0433  0.0471
 6695SOL    HW231548   2.905   0.278  14.031  0.0538 -0.1719  0.7639
 6696SOL     OW31549   1.489   2.024   4.712 -0.0184 -0.2429  0.3572
 6696SOL    HW131550   1.523   1.999   4.626 -2.0644 -2.2891  0.1442
 6696SOL    HW231551   1.563   2.008   4.770 -0.2081 -1.8245  0.1494
 6697SOL     OW31552   2.910   1.709  13.296  0.8335 -0.3737 -0.3149
 6697SOL    HW131553   2.898   1.803  13.310 -0.9729 -0.6667  0.1890
 6697SOL    HW231554   2.884   1.694  13.205 -1.5863 -0.1953  0.3340
 6698SOL     OW31555   2.101   3.020   4.162 -1.0851  0.4224  0.3007
 6698SOL    HW131556   2.177   2.974   4.127  0.6757  0.5604  3.9876
 6698SOL    HW231557   2.060   2.943   4.201  0.4343 -0.1391  0.7574
 6699SOL     OW31558   1.400   1.305   7.916  0.4375 -0.1873  1.2206
 6699SOL    HW131559   1.416   1.397   7.892 -0.2862 -0.2055  0.6461
 6699SOL    HW231560   1.458   1.293   7.991 -1.2080  0.5143  2.6290
 6700SOL     OW31561   4.384   2.028   5.491  0.5694  0.1386  0.3388
 6700SOL    HW131562   4.381   1.980   5.573 -1.0283  2.0487  1.3834
 6700SOL    HW231563   4.293   2.057   5.485  0.3603 -0.4645  0.6523
 6701SOL     OW31564   3.605   0.159   0.464  0.3284 -0.3291 -0.6021
 6701SOL    HW131565   3.558   0.239   0.439 -0.9290 -0.4162  1.5146
 6701SOL    HW231566   3.692   0.193   0.484  0.4923 -0.7819 -0.5494
 6702SOL     OW31567   2.600   4.628  13.469  0.1416 -0.1597 -0.0802
 6702SOL    HW131568   2.555   4.668  13.395  0.5948  0.0612 -0.2371
 6702SOL    HW231569   2.592   4.539  13.437 -1.3396 -0.8163  2.1599
 6703SOL     OW31570   1.837   4.351  16.029 -0.1498  0.3467 -0.6038
 6703SOL    HW131571   1.932   4.341  16.030 -0.0403  1.9197  2.9074
 6703SOL    HW231572   1.827   4.431  15.978 -2.8520  0.8417  0.7136
 6704SOL     OW31573   2.137   2.194   0.696  0.8329 -0.0568 -0.3919
 6704SOL    HW131574   2.127   2.155   0.783 -1.4003  1.3561 -0.0306
 6704SOL    HW231575   2.159   2.285   0.714  0.1249  0.3778 -1.7577
 6705SOL     OW31576   4.051   0.894  16.370 -0.4354  0.4234  0.4628
 6705SOL    HW131577   4.128   0.855  16.328 -1.7881  0.4730 -2.0450
 6705SOL    HW231578   4.028   0.972  16.320 -1.2456 -0.5024 -0.6024
 6706SOL     OW31579   3.469   0.883   2.299  0.5000 -0.1645 -0.1198
 6706SOL    HW131580   3.426   0.889   2.384 -2.1559  1.1330 -1.5346
 6706SOL    HW231581   3.518   0.965   2.306  0.6698 -0.0467 -2.5412
 6707SOL     OW31582   2.434   3.707   7.260  0.7748  0.2865  0.0787
 6707SOL    HW131583   2.398   3.630   7.216  0.3906 -0.2147  1.2737
 6707SOL    HW231584   2.473   3.759   7.189  0.2714 -0.7432 -0.9709
 6708SOL     OW31585   4.065   1.141   1.360 -0.1068 -0.0603  0.2200
 6708SOL    HW131586   4.119   1.121   1.437  0.1475  1.6405  0.4886
 6708SOL    HW231587   3.992   1.087   1.389 -0.2220 -0.5309 -0.9663
 6709SOL     OW31588   3.679   4.472   2.258 -0.4046 -0.3281  0.1431
 6709SOL    HW131589   3.665   4.567   2.253 -2.0061 -0.4725  1.6273
 6709SOL    HW231590   3.673   4.454   2.165  3.0672  0.4472 -0.2561
 6710SOL     OW31591   0.896   4.535   9.183 -0.0372  0.6188 -0.0362
 6710SOL    HW131592   0.923   4.619   9.145  1.3999  0.3585  0.3802
 6710SOL    HW231593   0.801   4.533   9.181 -0.0604  1.4060  0.2194
 6711SOL     OW31594   4.249   1.586   9.021  0.3015 -0.2536  0.3544
 6711SOL    HW131595   4.285   1.510   9.066  0.2828 -1.9645 -2.5621
 6711SOL    HW231596   4.161   1.560   8.994  0.1061  1.9938 -1.1679
 6712SOL     OW31597   1.051   3.521   2.132  0.0244 -0.7013  0.6838
 6712SOL    HW131598   0.987   3.581   2.093  0.8696  1.0582  2.0227
 6712SOL    HW231599   1.062   3.556   2.221 -0.7368  0.1874  0.4252
 6713SOL     OW31600   4.362   2.762   0.855 -0.0604  0.0022  0.2566
 6713SOL    HW131601   4.390   2.688   0.909  2.4995  0.5232 -0.3836
 6713SOL    HW231602   4.266   2.755   0.855 -0.2889  3.1447  0.3715
 6714SOL     OW31603   3.264   1.009   4.239  0.4000  0.1561  0.0233
 6714SOL    HW131604   3.168   1.001   4.237  0.4032  0.0687  0.1868
 6714SOL    HW231605   3.289   0.928   4.195  2.1549  1.8564 -2.0709
 6715SOL     OW31606   3.390   2.848   3.261 -0.0927  0.1258 -1.0513
 6715SOL    HW131607   3.414   2.772   3.314  0.7125  0.1340 -1.3971
 6715SOL    HW231608   3.331   2.805   3.199  1.8904 -1.2878 -1.9448
 6716SOL     OW31609   2.187   1.370   4.033 -0.2902  0.3460 -0.1937
 6716SOL    HW131610   2.268   1.405   4.071  0.0229  2.9506 -3.2893
 6716SOL    HW231611   2.113   1.423   4.064  0.1653  0.4136  0.7906
 6717SOL     OW31612   1.566   3.150   7.490  0.1304  0.0942 -0.1488
 6717SOL    HW131613   1.523   3.077   7.536  0.7459 -0.9593 -1.2501
 6717SOL    HW231614   1.496   3.164   7.426 -0.2186  1.8051  0.6014
 6718SOL     OW31615   3.471   0.861  10.846 -0.2535 -0.0808 -0.2474
 6718SOL    HW131616   3.472   0.769  10.875 -1.2311  0.6019  1.9616
 6718SOL    HW231617   3.500   0.847  10.756  0.9302  1.7638 -0.1437
 6719SOL     OW31618   3.069   0.069   7.060 -0.3094  0.0686 -0.7364
 6719SOL    HW131619   3.089   0.147   7.112 -0.5599  0.7712 -1.7029
 6719SOL    HW231620   2.981   0.060   7.095  0.9085  1.7937  2.7676
 6720SOL     OW31621   1.317   0.002  10.691 -0.2424 -0.9315 -0.0587
 6720SOL    HW131622   1.274   4.646  10.723 -0.9967  0.3172  2.0162
 6720SOL    HW231623   1.298   0.063  10.762  0.8934  0.3176 -0.8152
 6721SOL     OW31624   0.972   0.487   9.336  0.0141  0.5036 -0.4008
 6721SOL    HW131625   1.067   0.499   9.332  0.1752 -0.6343 -0.0492
 6721SOL    HW231626   0.960   0.529   9.421  3.1888  0.8837 -0.1457
 6722SOL     OW31627   2.822   3.687  13.630  0.2625 -0.2914  0.2043
 6722SOL    HW131628   2.728   3.686  13.646  0.3223 -1.9807  0.4571
 6722SOL    HW231629   2.850   3.721  13.715 -0.7365 -0.1242  0.4656
 6723SOL     OW31630   1.171   0.902   8.361 -0.5784  0.0612  0.3769
 6723SOL    HW131631   1.155   0.950   8.280  0.7423 -1.5326 -0.8137
 6723SOL    HW231632   1.094   0.845   8.368  0.5127 -1.4285  0.1432
 6724SOL     OW31633   4.656   2.812   0.309  0.4135  0.6985  0.0523
 6724SOL    HW131634   4.561   2.803   0.310  0.4143  0.5070 -1.8772
 6724SOL    HW231635   4.681   2.764   0.230  0.5251  0.6201  0.1338
 6725SOL     OW31636   2.756   1.639   7.319  0.6247 -0.5037 -0.0156
 6725SOL    HW131637   2.821   1.705   7.346  0.6550 -2.3906  4.4807
 6725SOL    HW231638   2.698   1.704   7.278  0.5769  0.0882  0.9895
 6726SOL     OW31639   3.172   0.170   8.576 -0.6409  0.0132 -0.5635
 6726SOL    HW131640   3.164   0.105   8.506 -1.3017 -0.0894 -0.3884
 6726SOL    HW231641   3.223   0.112   8.632  1.1381  0.8196 -1.3620
 6727SOL     OW31642   4.687   4.039   4.157  0.0037 -0.1633 -0.0295
 6727SOL    HW131643   4.603   4.068   4.122 -0.0854 -0.4871 -0.0777
 6727SOL    HW231644   4.649   3.969   4.209 -0.3681  1.6443  2.1222
 6728SOL     OW31645   0.542   3.614   5.165  0.1989  0.2392 -0.2903
 6728SOL    HW131646   0.580   3.530   5.141 -1.0621 -0.2035 -0.7200
 6728SOL    HW231647   0.550   3.614   5.261 -0.2604 -2.1201 -0.2610
 6729SOL     OW31648   0.852   0.199  14.599  0.5912  0.2380 -0.1535
 6729SOL    HW131649   0.849   0.103  14.595  0.5608  0.3089 -1.6620
 6729SOL    HW231650   0.848   0.210  14.504  0.5958 -0.9935 -0.2976
 6730SOL     OW31651   4.661   3.872   0.048  0.3651  0.0590 -0.0761
 6730SOL    HW131652   0.003   3.871  17.677  0.3847 -3.0677 -0.0154
 6730SOL    HW231653   4.630   3.962   0.046 -0.3048 -0.2193 -1.7680
 6731SOL     OW31654   2.899   2.153   6.126 -0.1976 -0.4083  0.2223
 6731SOL    HW131655   2.978   2.201   6.151 -0.4355 -0.5979  1.3479
 6731SOL    HW231656   2.829   2.193   6.176 -0.9171  0.0670 -1.1710
 6732SOL     OW31657   2.336   4.246   1.035  0.8961  0.5175  0.1766
 6732SOL    HW131658   2.351   4.337   1.012  0.6139  0.3903 -0.5173
 6732SOL    HW231659   2.358   4.234   1.127 -0.5160  0.0728  0.4629
 6733SOL     OW31660   3.618   1.496   0.601 -0.6711  0.2569 -0.3471
 6733SOL    HW131661   3.548   1.431   0.604  0.5694 -0.9465  2.8921
 6733SOL    HW231662   3.677   1.451   0.541  0.0367 -0.6134  0.9951
 6734SOL     OW31663   2.347   2.122   3.746  0.0066 -0.4616  0.1128
 6734SOL    HW131664   2.294   2.083   3.816 -0.0765 -0.9605 -0.2242
 6734SOL    HW231665   2.436   2.123   3.779 -0.7406  0.6517  2.1051
 6735SOL     OW31666   4.476   4.587  11.071 -0.4634 -0.2099  0.6828
 6735SOL    HW131667   4.555   4.641  11.071  0.7479 -1.9718  0.7171
 6735SOL    HW231668   4.461   4.583  11.165 -1.2722  1.5528  0.6170
 6736SOL     OW31669   1.938   0.019  16.301  0.5278 -0.1611  0.1136
 6736SOL    HW131670   1.889   0.101  16.312 -1.4402 -1.1408 -1.2265
 6736SOL    HW231671   2.025   0.051  16.278  0.3450 -0.8917 -1.5998
 6737SOL     OW31672   0.340   0.771  10.584 -0.3758  0.0230  0.0395
 6737SOL    HW131673   0.294   0.690  10.562 -0.9614  0.4417 -0.3011
 6737SOL    HW231674   0.425   0.732  10.604  0.0308  1.1470  0.5224
 6738SOL     OW31675   0.044   4.649   8.635 -0.4241 -0.2884 -0.2114
 6738SOL    HW131676   0.113   4.584   8.645 -0.3999 -0.0998  0.8605
 6738SOL    HW231677   4.689   4.597   8.616 -0.3463 -0.8159  0.9622
 6739SOL     OW31678   2.097   0.835   4.301 -0.5143 -0.2368  0.0375
 6739SOL    HW131679   2.028   0.900   4.288  0.2878  0.3861 -1.0929
 6739SOL    HW231680   2.147   0.854   4.381 -0.3221  1.7532 -0.5560
 6740SOL     OW31681   0.591   1.889  10.957 -0.0860 -0.1831 -0.1918
 6740SOL    HW131682   0.538   1.817  10.923 -1.2133  0.3175  0.5429
 6740SOL    HW231683   0.658   1.886  10.888  1.5186 -0.9712  1.4181
 6741SOL     OW31684   1.650   2.699   4.844 -0.3381 -0.1140  0.3239
 6741SOL    HW131685   1.657   2.726   4.753  1.1188  2.4587  1.1687
 6741SOL    HW231686   1.594   2.622   4.838 -1.6166  0.9544 -1.3913
 6742SOL     OW31687   3.166   3.823  11.103  0.1154  0.2565 -0.1452
 6742SOL    HW131688   3.227   3.813  11.031 -2.1031  4.0450 -2.5665
 6742SOL    HW231689   3.138   3.914  11.102  2.5451  1.0041  0.2732
 6743SOL     OW31690   3.515   3.608   1.245 -1.0910 -0.2792  0.2023
 6743SOL    HW131691   3.597   3.588   1.199 -0.2641 -0.9070  1.9341
 6743SOL    HW231692   3.452   3.633   1.178 -0.9276  0.2181  0.2298
 6744SOL     OW31693   3.866   2.653   4.264 -0.1683 -0.1560 -0.4532
 6744SOL    HW131694   3.915   2.672   4.345  0.4791  0.0034 -0.8793
 6744SOL    HW231695   3.920   2.581   4.230 -0.2879 -0.2576 -0.4246
 6745SOL     OW31696   2.130   0.107   6.519  0.0903  0.0484 -0.0122
 6745SOL    HW131697   2.068   0.170   6.483  0.0466  0.6630  1.1380
 6745SOL    HW231698   2.165   0.067   6.439  1.7299  0.1872  0.6360
 6746SOL     OW31699   3.574   4.131   7.129  0.1422  0.0143 -0.2604
 6746SOL    HW131700   3.518   4.137   7.051 -0.1371 -1.2936 -0.1502
 6746SOL    HW231701   3.523   4.106   7.206 -0.7578  2.2330 -0.1312
 6747SOL     OW31702   2.015   0.267  16.100 -0.3886  0.5307 -0.2254
 6747SOL    HW131703   1.964   0.332  16.052 -1.8523  0.3229  1.0281
 6747SOL    HW231704   1.974   0.293  16.183  0.2856  0.4529  0.1324
 6748SOL     OW31705   2.483   0.166  12.918 -0.0108  0.1374 -0.1007
 6748SOL    HW131706   2.571   0.128  12.915 -0.4836 -1.0046  0.4158
 6748SOL    HW231707   2.483   0.217  12.837 -3.8483  0.2628 -0.0174
 6749SOL     OW31708   1.496   1.735  12.848  0.1751 -0.5591  0.4013
 6749SOL    HW131709   1.528   1.819  12.814 -3.3125  0.3444 -0.5630
 6749SOL    HW231710   1.408   1.753  12.882  0.0065 -1.1042  0.2414
 6750SOL     OW31711   0.359   2.187  12.066 -0.4782 -0.1330 -0.1893
 6750SOL    HW131712   0.415   2.213  11.993 -1.2904  2.2365  0.0496
 6750SOL    HW231713   0.335   2.270  12.106 -1.5486  0.0247 -1.1649
 6751SOL     OW31714   0.787   2.962   2.308  0.2536 -0.2196  0.1758
 6751SOL    HW131715   0.692   2.953   2.315  0.0615  0.5980 -1.3387
 6751SOL    HW231716   0.784   3.036   2.246 -1.6539 -0.9717 -0.6262
 6752SOL     OW31717   3.046   3.530   4.334 -0.3041 -0.2257 -0.1067
 6752SOL    HW131718   3.039   3.439   4.307  0.1466 -0.2366 -0.1833
 6752SOL    HW231719   2.973   3.572   4.286 -0.3776  1.0230  1.1029
 6753SOL     OW31720   1.204   0.670   4.245 -0.0198 -0.3927  0.1595
 6753SOL    HW131721   1.192   0.763   4.225 -0.0701 -0.2026  1.0785
 6753SOL    HW231722   1.132   0.663   4.308  0.9779 -0.9860  1.2188
 6754SOL     OW31723   3.672   2.944  13.649 -0.4714 -0.1702  0.4737
 6754SOL    HW131724   3.746   3.000  13.627 -0.2441 -1.1369 -1.2419
 6754SOL    HW231725   3.614   2.977  13.580  0.4409  0.4252  0.0018
 6755SOL     OW31726   2.218   3.247   4.327  0.0121  0.2474 -0.7772
 6755SOL    HW131727   2.306   3.227   4.294  0.3079 -0.6153  0.5098
 6755SOL    HW231728   2.159   3.211   4.261 -0.4029 -0.7007  0.0921
 6756SOL     OW31729   1.078   0.048  10.905 -0.2946  0.1087  0.2039
 6756SOL    HW131730   1.156   0.100  10.923  0.4753 -1.4280  1.2744
 6756SOL    HW231731   1.074   0.075  10.813 -3.7411  0.9907  0.6024
 6757SOL     OW31732   1.254   4.211   7.046  0.3102  0.1418 -0.3378
 6757SOL    HW131733   1.195   4.285   7.064 -0.7669 -0.5878 -0.8536
 6757SOL    HW231734   1.282   4.229   6.956 -0.1251 -3.7039 -1.2269
 6758SOL     OW31735   1.839   1.899  10.840 -0.1676 -0.1527 -0.0509
 6758SOL    HW131736   1.901   1.971  10.845  0.1898 -0.6168  2.0187
 6758SOL    HW231737   1.889   1.819  10.826 -2.1405 -0.8356 -3.2288
 6759SOL     OW31738   2.692   4.457   7.883  0.2218 -0.3937  0.2008
 6759SOL    HW131739   2.621   4.394   7.890 -0.8696  0.7256 -0.9158
 6759SOL    HW231740   2.714   4.460   7.976 -2.3732 -2.6423  0.8982
 6760SOL     OW31741   1.396   0.516  10.801 -0.4851 -0.0963  0.0107
 6760SOL    HW131742   1.439   0.438  10.836 -1.7685 -0.9859 -0.3544
 6760SOL    HW231743   1.464   0.582  10.792  2.5724 -3.2139  0.2165
 6761SOL     OW31744   3.882   4.545   7.909  0.0829 -0.0307  0.0122
 6761SOL    HW131745   3.846   4.627   7.943  0.6559 -0.8164  2.4877
 6761SOL    HW231746   3.824   4.486   7.956  1.9763  1.5346  4.2702
 6762SOL     OW31747   1.634   1.320  14.714  0.4858 -0.4230  0.0920
 6762SOL    HW131748   1.692   1.312  14.789 -0.2620  1.6871  0.8812
 6762SOL    HW231749   1.650   1.412  14.692  0.7194 -0.8212 -1.4437
 6763SOL     OW31750   3.068   4.452   7.930  0.0145  0.0817  0.6694
 6763SOL    HW131751   3.149   4.452   7.981  1.7419 -0.1254 -2.1052
 6763SOL    HW231752   3.098   4.386   7.867  0.0147  0.3255  0.4149
 6764SOL     OW31753   3.375   0.224   3.253  0.2371 -0.9102  0.5992
 6764SOL    HW131754   3.343   0.258   3.336  0.4994 -0.1563  0.3896
 6764SOL    HW231755   3.408   0.139   3.283  0.0188 -1.3460 -0.3938
 6765SOL     OW31756   4.316   0.761   5.266  0.2624 -0.3265  0.4373
 6765SOL    HW131757   4.361   0.683   5.298  0.6823 -0.0259  0.5801
 6765SOL    HW231758   4.383   0.823   5.236 -0.8135  0.3283 -0.6124
 6766SOL     OW31759   2.635   2.392   7.731  0.6916 -0.0469 -0.0393
 6766SOL    HW131760   2.618   2.443   7.651 -1.3476  1.6016  1.4464
 6766SOL    HW231761   2.567   2.325   7.726 -1.7163  2.2263  2.2203
 6767SOL     OW31762   1.815   3.081  10.536 -0.7238  0.2616  0.4263
 6767SOL    HW131763   1.743   3.041  10.585  0.9694 -0.1825  2.5330
 6767SOL    HW231764   1.780   3.106  10.451  2.7842 -1.3030 -1.5002
 6768SOL     OW31765   3.634   1.645  14.558  0.5559 -0.1372  0.0040
 6768SOL    HW131766   3.692   1.569  14.556  1.9428  0.9687 -1.5143
 6768SOL    HW231767   3.549   1.605  14.538 -0.7372  1.3498  2.4278
 6769SOL     OW31768   1.658   4.067   7.227 -0.4523  0.0484  0.6500
 6769SOL    HW131769   1.698   4.096   7.309 -1.7440 -2.8411  2.3067
 6769SOL    HW231770   1.644   3.973   7.241 -0.9411  0.0281  0.0052
 6770SOL     OW31771   3.540   2.378   8.600 -0.0061  0.8488  0.3419
 6770SOL    HW131772   3.545   2.313   8.529 -2.0134  2.0512 -0.8893
 6770SOL    HW231773   3.518   2.456   8.549  0.7973  1.3614  0.7925
 6771SOL     OW31774   0.571   4.618   2.367  0.1803 -0.8189  0.4081
 6771SOL    HW131775   0.590   4.594   2.457  0.7368 -1.0142  0.2374
 6771SOL    HW231776   0.619   4.552   2.317 -1.5930  0.3945 -2.9350
 6772SOL     OW31777   4.458   2.810   5.060 -0.3040  0.2198  0.2602
 6772SOL    HW131778   4.410   2.853   4.989 -0.3813  1.0258  0.8007
 6772SOL    HW231779   4.453   2.717   5.038  1.2919  0.4563 -1.0985
 6773SOL     OW31780   2.959   1.313   7.334 -1.1963 -0.4356  0.2494
 6773SOL    HW131781   2.962   1.310   7.430 -1.4031  1.4837  0.3061
 6773SOL    HW231782   2.973   1.220   7.314 -1.2277  0.0422 -1.9556
 6774SOL     OW31783   2.828   1.081  13.505 -1.0159  0.0106 -0.1712
 6774SOL    HW131784   2.897   1.031  13.461  1.6330  1.6681  2.1028
 6774SOL    HW231785   2.750   1.055  13.456  0.0546 -0.9887 -1.3530
 6775SOL     OW31786   4.505   2.191  10.164  0.2249 -0.1714 -0.8029
 6775SOL    HW131787   4.492   2.137  10.242  0.6518  1.0229  0.1056
 6775SOL    HW231788   4.417   2.203  10.131  0.3565  4.4056  0.5716
 6776SOL     OW31789   4.170   1.196  16.340  0.4250  0.1869 -0.0410
 6776SOL    HW131790   4.115   1.147  16.278 -1.6078  0.3923  1.5967
 6776SOL    HW231791   4.128   1.166  16.421  1.1100 -0.9515 -0.1059
 6777SOL     OW31792   1.005   0.282   8.771  0.1838  0.3391  0.0023
 6777SOL    HW131793   1.023   0.316   8.859 -0.6041  0.3614  0.1518
 6777SOL    HW231794   0.915   0.250   8.780 -0.9451  3.4004 -0.7315
 6778SOL     OW31795   0.503   3.135   9.471  0.1989  0.8704 -0.3007
 6778SOL    HW131796   0.542   3.117   9.557 -1.9996 -1.1466  0.2610
 6778SOL    HW231797   0.550   3.076   9.412 -1.9965 -0.5883 -0.5729
 6779SOL     OW31798   0.703   0.521   2.399  0.1169 -0.0722 -0.6237
 6779SOL    HW131799   0.660   0.498   2.481  0.8396  0.4879 -0.0866
 6779SOL    HW231800   0.786   0.479   2.422  0.9240  1.6836 -0.2527
 6780SOL     OW31801   3.680   0.330   6.301  0.4756 -0.0941  0.0840
 6780SOL    HW131802   3.688   0.237   6.321  1.4324 -0.2816 -1.2134
 6780SOL    HW231803   3.602   0.347   6.354 -1.3259 -1.6925 -2.0695
 6781SOL     OW31804   1.240   2.609   2.366  0.3631  0.7910 -0.2534
 6781SOL    HW131805   1.256   2.555   2.289 -1.4488 -2.1753  1.4781
 6781SOL    HW231806   1.275   2.692   2.331 -0.1017  1.5492  1.0834
 6782SOL     OW31807   3.840   3.231   9.688 -0.2161  0.0162 -0.1436
 6782SOL    HW131808   3.912   3.203   9.744 -0.1087  0.5710 -0.0062
 6782SOL    HW231809   3.885   3.223   9.604 -0.8137 -0.0509 -0.4568
 6783SOL     OW31810   1.767   1.902  15.641 -0.3833  0.1743  0.0206
 6783SOL    HW131811   1.827   1.828  15.629 -2.6152 -1.7240  0.6511
 6783SOL    HW231812   1.727   1.896  15.554  0.9879  1.9942 -0.7593
 6784SOL     OW31813   3.263   2.897   6.925  0.5184 -0.3875  0.2938
 6784SOL    HW131814   3.327   2.829   6.906  1.7542  1.2208 -1.3053
 6784SOL    HW231815   3.221   2.867   7.006  0.4842 -0.2028  0.3457
 6785SOL     OW31816   1.185   3.790  14.165  0.5602  0.4880 -0.0169
 6785SOL    HW131817   1.130   3.819  14.237 -0.2254 -0.1721 -0.3561
 6785SOL    HW231818   1.172   3.695  14.174 -0.3256  0.6351  0.1674
 6786SOL     OW31819   2.697   2.875   4.040 -0.3182 -0.2813  0.2381
 6786SOL    HW131820   2.687   2.846   4.130 -2.6869 -2.4442 -0.7276
 6786SOL    HW231821   2.744   2.958   4.049  0.2678 -0.6869  0.8652
 6787SOL     OW31822   3.471   3.767   5.578 -0.5201  0.5891 -0.2743
 6787SOL    HW131823   3.436   3.825   5.510  1.4417 -0.3031 -2.0820
 6787SOL    HW231824   3.475   3.681   5.536  0.5583 -0.5842  2.2654
 6788SOL     OW31825   1.943   4.369   8.801 -0.1843  0.7849  0.0679
 6788SOL    HW131826   1.950   4.358   8.896 -1.0540  0.3497  0.0790
 6788SOL    HW231827   1.889   4.293   8.782  1.2581  0.0740 -1.1198
 6789SOL     OW31828   1.385   1.844   5.897  0.2134  0.4183 -0.2396
 6789SOL    HW131829   1.294   1.830   5.871  0.0774  1.2143 -0.1907
 6789SOL    HW231830   1.415   1.753   5.890 -0.5872  0.1950 -0.7088
 6790SOL     OW31831   4.137   1.026   4.234 -0.3679  0.1644  0.1244
 6790SOL    HW131832   4.110   0.976   4.157 -2.3113 -0.2963  1.0981
 6790SOL    HW231833   4.083   1.104   4.227  0.3515  0.4536 -2.2657
 6791SOL     OW31834   3.644   1.642   4.728 -0.2119 -0.3064  0.2335
 6791SOL    HW131835   3.645   1.734   4.700 -0.4716 -0.3685  0.0285
 6791SOL    HW231836   3.571   1.612   4.675 -0.0917  0.0220 -0.1236
 6792SOL     OW31837   0.962   3.285   5.976 -0.0337 -0.3820  0.7387
 6792SOL    HW131838   1.011   3.367   5.977 -0.3510 -0.1361 -2.0330
 6792SOL    HW231839   0.974   3.260   6.067 -0.0876 -0.5619  0.6954
 6793SOL     OW31840   1.570   1.028   0.867 -0.1945 -0.1088  0.0550
 6793SOL    HW131841   1.613   1.113   0.856 -4.6457  2.2490  0.8646
 6793SOL    HW231842   1.505   1.044   0.935  2.5967  0.4509  2.5844
 6794SOL     OW31843   0.385   0.909   6.972  0.4947  0.1218  0.1957
 6794SOL    HW131844   0.422   0.891   7.059  0.2567  2.9544  0.8746
 6794SOL    HW231845   0.318   0.974   6.996 -1.0554 -1.6967  0.8311
 6795SOL     OW31846   3.339   2.118   8.755 -0.0683  0.4262  0.2427
 6795SOL    HW131847   3.326   2.205   8.791  1.5165  0.8313 -0.1666
 6795SOL    HW231848   3.423   2.120   8.709 -0.0355  0.1333  0.2873
 6796SOL     OW31849   2.842   0.205   2.023  0.2693 -0.2645 -0.3917
 6796SOL    HW131850   2.911   0.152   1.982  0.6387 -0.8525  1.0125
 6796SOL    HW231851   2.865   0.291   1.986 -5.0498  1.1176 -0.5010
 6797SOL     OW31852   0.160   1.304   2.631  0.2436  0.1108  0.1229
 6797SOL    HW131853   0.102   1.351   2.570 -0.1338  0.3996  0.7030
 6797SOL    HW231854   0.145   1.213   2.606 -0.2265 -0.4512  2.4539
 6798SOL     OW31855   0.889   2.504   3.213 -0.0728 -0.0367  0.2106
 6798SOL    HW131856   0.860   2.413   3.218 -1.1763  0.2452 -0.8838
 6798SOL    HW231857   0.955   2.503   3.282  0.5354 -1.7568 -0.4100
 6799SOL     OW31858   3.463   3.892  15.303 -0.5978  0.0380 -0.3635
 6799SOL    HW131859   3.511   3.960  15.350 -0.5006  0.1659 -0.6485
 6799SOL    HW231860   3.535   3.857  15.250 -0.4565  0.7435 -0.6285
 6800SOL     OW31861   0.861   1.147  15.421  0.1227 -0.5521 -0.4410
 6800SOL    HW131862   0.843   1.132  15.328  1.4386  0.1041 -0.8055
 6800SOL    HW231863   0.808   1.084  15.469  0.4132  1.0867  1.9981
 6801SOL     OW31864   0.264   3.372  17.182  0.1470 -0.3441  0.3031
 6801SOL    HW131865   0.357   3.352  17.164  0.1015 -1.0847  0.8898
 6801SOL    HW231866   0.248   3.417  17.099  2.8869 -0.2861 -0.2197
 6802SOL     OW31867   3.560   1.891   2.850  0.0354 -0.0874  0.4944
 6802SOL    HW131868   3.634   1.865   2.905  0.4915  0.5726  0.1919
 6802SOL    HW231869   3.603   1.879   2.766  0.5525  0.3236  0.7000
 6803SOL     OW31870   3.659   1.119   0.593  0.0972  0.5084 -0.4983
 6803SOL    HW131871   3.683   1.206   0.563  1.9930 -0.6360 -2.2828
 6803SOL    HW231872   3.630   1.129   0.684 -1.4394  0.4063 -0.9784
 6804SOL     OW31873   4.238   1.091   5.977 -0.2728 -0.0086  0.2788
 6804SOL    HW131874   4.252   1.184   5.995  1.2621  0.0591 -1.3027
 6804SOL    HW231875   4.302   1.068   5.910  1.8344  2.7468  1.3510
 6805SOL     OW31876   3.416   1.829   5.811 -0.3376 -0.2431  0.0168
 6805SOL    HW131877   3.438   1.763   5.745  0.7031 -2.7870  2.8836
 6805SOL    HW231878   3.412   1.908   5.758  0.3291  2.1650  3.5529
 6806SOL     OW31879   2.203   0.811   1.979 -0.4759  0.1361  0.1881
 6806SOL    HW131880   2.154   0.740   1.936  0.9961 -1.8907  1.8398
 6806SOL    HW231881   2.130   0.869   2.000 -0.2942  0.7667 -0.9108
 6807SOL     OW31882   1.025   4.515   9.411  0.1226 -0.1544 -0.4018
 6807SOL    HW131883   1.081   4.586   9.381  0.5815  0.1592  1.1967
 6807SOL    HW231884   0.970   4.514   9.333 -0.9759  0.4342  0.3652
 6808SOL     OW31885   0.718   4.390   9.758 -0.2922  0.1768 -0.4835
 6808SOL    HW131886   0.798   4.419   9.801 -1.9267  1.8074  1.4527
 6808SOL    HW231887   0.647   4.443   9.794 -0.4545  0.7027 -1.6140
 6809SOL     OW31888   2.812   4.416   3.269  0.0892  0.0502 -0.0784
 6809SOL    HW131889   2.739   4.465   3.232  0.6066  0.1854 -0.9164
 6809SOL    HW231890   2.872   4.426   3.196  0.6678 -2.6737  0.0147
 6810SOL     OW31891   1.168   1.182   4.930 -0.1895 -0.0010 -0.5906
 6810SOL    HW131892   1.166   1.277   4.934 -0.1921 -0.0561  0.6282
 6810SOL    HW231893   1.140   1.180   4.839 -2.9238 -0.5789  0.2692
 6811SOL     OW31894   1.577   3.859   1.893 -0.0941  0.4323 -0.3477
 6811SOL    HW131895   1.643   3.927   1.882 -0.0030  0.3816 -0.1135
 6811SOL    HW231896   1.495   3.907   1.884  0.8222  1.6503 -2.0789
 6812SOL     OW31897   1.932   0.314   4.800  0.0796 -0.3446 -0.2686
 6812SOL    HW131898   1.872   0.384   4.774  1.7805  1.5874  1.0291
 6812SOL    HW231899   2.001   0.380   4.809  0.7970 -1.4258  2.0289
 6813SOL     OW31900   0.767   2.906   4.975  0.2120 -0.1311  0.0540
 6813SOL    HW131901   0.717   2.895   4.895  0.4659 -0.7995 -0.0145
 6813SOL    HW231902   0.836   2.953   4.931 -0.9676  0.3349 -1.2843
 6814SOL     OW31903   1.056   4.340  10.598 -0.7093 -0.0461 -0.0986
 6814SOL    HW131904   1.052   4.372  10.688 -0.4857 -0.0974 -0.0717
 6814SOL    HW231905   1.150   4.327  10.590 -0.6872  0.9108 -1.3313
 6815SOL     OW31906   0.093   0.833   9.306 -0.4489 -0.0828  0.1980
 6815SOL    HW131907   0.173   0.782   9.316 -0.4818 -0.0316  0.6955
 6815SOL    HW231908   0.071   0.819   9.398 -0.6059  1.0994  0.3457
 6816SOL     OW31909   3.588   1.325  12.603  0.1831 -0.0185 -0.0702
 6816SOL    HW131910   3.597   1.233  12.630 -2.0752 -1.0331 -2.7233
 6816SOL    HW231911   3.507   1.341  12.652  0.5014 -0.8637  0.7282
 6817SOL     OW31912   4.463   1.722   3.045  0.1420 -0.3236 -0.3706
 6817SOL    HW131913   4.532   1.723   3.111  0.2582 -0.9703 -0.4850
 6817SOL    HW231914   4.431   1.633   3.057  1.3028 -0.6263  0.4874
 6818SOL     OW31915   3.054   4.656   4.593  0.7603 -0.2451 -0.2447
 6818SOL    HW131916   2.990   4.594   4.627  1.1295  0.5583  1.9491
 6818SOL    HW231917   3.007   4.700   4.522 -1.0615 -3.0333 -0.7590
 6819SOL     OW31918   1.699   2.071   8.299 -0.1122  0.2306  0.1483
 6819SOL    HW131919   1.683   2.144   8.238  1.3659 -0.6129 -1.2452
 6819SOL    HW231920   1.758   2.018   8.247 -2.5377 -1.9636 -0.3727
 6820SOL     OW31921   2.840   0.743   0.242  0.3309 -0.1425 -0.0295
 6820SOL    HW131922   2.884   0.828   0.251  1.8521 -0.8529 -0.7464
 6820SOL    HW231923   2.774   0.769   0.178 -0.5158  1.0492  1.3268
 6821SOL     OW31924   2.978   3.952   4.285 -0.2612  0.0067  0.0929
 6821SOL    HW131925   3.024   3.896   4.223 -1.1204  2.0141 -2.3419
 6821SOL    HW231926   2.904   3.990   4.237 -0.7948  0.3060  1.1431
 6822SOL     OW31927   1.740   3.908   4.188  0.0418 -0.0823 -0.1051
 6822SOL    HW131928   1.674   3.902   4.257 -0.3270  0.5710 -0.3957
 6822SOL    HW231929   1.753   4.003   4.187  0.5218 -0.1488 -0.1170
 6823SOL     OW31930   1.903   0.497  15.978 -0.7089  0.4269 -0.1937
 6823SOL    HW131931   1.823   0.525  15.934 -0.9554  1.8312  1.1646
 6823SOL    HW231932   1.953   0.578  15.977 -0.0774  0.0527  3.4368
 6824SOL     OW31933   2.536   2.208   9.924  0.0551  0.0178  0.2615
 6824SOL    HW131934   2.557   2.189   9.832 -1.0662 -0.7940  0.1708
 6824SOL    HW231935   2.471   2.139   9.939  0.3953 -0.6888 -1.5416
 6825SOL     OW31936   0.887   4.589   5.605 -0.0361 -0.4200 -0.8881
 6825SOL    HW131937   0.864   4.566   5.515 -1.5469 -1.0197 -0.3394
 6825SOL    HW231938   0.953   4.659   5.607 -0.6178  0.0824  0.4171
 6826SOL     OW31939   4.591   3.171   2.584 -0.3542 -0.7244  0.2837
 6826SOL    HW131940   4.564   3.134   2.500 -2.1418  3.0227 -0.8106
 6826SOL    HW231941   4.548   3.257   2.581  0.2745 -0.3341  2.4610
 6827SOL     OW31942   3.881   1.432   6.868  0.5776 -0.6363  0.2785
 6827SOL    HW131943   3.859   1.470   6.953  1.1635 -0.1171  0.1977
 6827SOL    HW231944   3.798   1.387   6.850  0.2940  0.1052 -0.2548
 6828SOL     OW31945   0.994   2.758  17.105  0.2740 -0.0688 -0.6520
 6828SOL    HW131946   0.971   2.790  17.017  0.0862  2.4355  0.2881
 6828SOL    HW231947   0.949   2.830  17.150  1.4961 -2.2023  3.9048
 6829SOL     OW31948   0.117   2.458   7.491  1.0098 -0.1518  0.1690
 6829SOL    HW131949   0.201   2.502   7.503  1.4252 -1.0725  0.5926
 6829SOL    HW231950   0.134   2.407   7.412  1.4919  1.1848 -0.5977
 6830SOL     OW31951   4.629   2.708   7.354 -0.0407  0.7612 -0.2261
 6830SOL    HW131952   4.586   2.677   7.433 -1.1462  2.6914 -0.0706
 6830SOL    HW231953   4.691   2.642   7.322 -0.5721 -0.2725  0.8782
 6831SOL     OW31954   1.119   1.550   4.204  0.1484  0.3213 -0.4296
 6831SOL    HW131955   1.191   1.567   4.143 -1.8683 -0.7984 -3.1620
 6831SOL    HW231956   1.136   1.614   4.272  1.9991 -2.6506  1.9025
 6832SOL     OW31957   1.042   1.549   2.992  0.1672 -0.2136  0.6420
 6832SOL    HW131958   1.119   1.522   2.942 -0.6751 -0.2220 -0.6637
 6832SOL    HW231959   1.063   1.528   3.083  0.0702  2.7558  1.3730
 6833SOL     OW31960   0.637   4.171   8.839  0.0104 -0.1012 -0.0545
 6833SOL    HW131961   0.624   4.112   8.765  0.9595  1.4579 -1.4677
 6833SOL    HW231962   0.685   4.246   8.804  0.6642 -0.3966  0.2071
 6834SOL     OW31963   2.430   0.708   6.379  0.4224  0.0769 -0.0606
 6834SOL    HW131964   2.497   0.741   6.319  0.0725  0.2304 -0.3639
 6834SOL    HW231965   2.490   0.654   6.430 -1.0019  0.0235  1.5381
 6835SOL     OW31966   3.763   0.251   7.809  0.5332 -0.2584 -0.2861
 6835SOL    HW131967   3.721   0.236   7.893 -0.5121 -0.0688 -0.7687
 6835SOL    HW231968   3.764   0.163   7.769  2.6836  0.1922 -1.1818
 6836SOL     OW31969   3.098   0.728   5.250  0.4781  0.1855 -0.4442
 6836SOL    HW131970   3.011   0.766   5.239  1.9691  2.9945 -2.3433
 6836SOL    HW231971   3.106   0.714   5.344  0.3065 -1.6141 -0.6850
 6837SOL     OW31972   2.113   4.520   6.440 -0.0978 -0.2900  0.1492
 6837SOL    HW131973   2.203   4.510   6.469 -0.5230  0.8143  1.8319
 6837SOL    HW231974   2.120   4.592   6.377 -0.7500 -0.4971 -0.1578
 6838SOL     OW31975   0.364   3.501   1.381  0.6445  0.6416  0.1661
 6838SOL    HW131976   0.447   3.521   1.425  2.0209 -1.0069 -1.6913
 6838SOL    HW231977   0.392   3.530   1.294 -3.6168  1.2834 -0.9562
 6839SOL     OW31978   0.493   3.726   0.703 -0.5245  0.9619 -0.6231
 6839SOL    HW131979   0.512   3.638   0.670  2.3030  1.4427 -0.2553
 6839SOL    HW231980   0.404   3.735   0.668  0.2113  1.5399 -2.3231
 6840SOL     OW31981   3.556   0.847   8.197 -0.3090  0.6705  0.1702
 6840SOL    HW131982   3.598   0.773   8.241 -0.0183  0.6986 -0.0628
 6840SOL    HW231983   3.567   0.922   8.255 -2.4575  0.2920  1.0655
 6841SOL     OW31984   4.619   4.487   8.996  0.1937 -0.1573 -0.1703
 6841SOL    HW131985   4.689   4.540   8.958 -0.9132 -0.0521 -2.0644
 6841SOL    HW231986   4.568   4.563   9.023 -0.5181  0.1419 -2.4048
 6842SOL     OW31987   4.439   2.128  13.684 -0.1637 -0.5563 -0.2717
 6842SOL    HW131988   4.385   2.131  13.763  0.5906  2.2395  0.1278
 6842SOL    HW231989   4.403   2.052  13.638 -0.9306 -0.9739  0.9942
 6843SOL     OW31990   2.799   2.924  16.233  0.8847 -0.3005 -0.1504
 6843SOL    HW131991   2.864   2.917  16.302  0.4372  2.3641  0.5217
 6843SOL    HW231992   2.842   2.970  16.161  0.8999 -1.1754 -0.7015
 6844SOL     OW31993   2.748   3.876   3.140  0.1033 -0.0309  0.7026
 6844SOL    HW131994   2.772   3.963   3.107 -0.2130  0.1299  0.8972
 6844SOL    HW231995   2.833   3.852   3.177  0.2958  0.7706  0.7882
 6845SOL     OW31996   0.013   1.779   3.814 -0.3887 -0.4336 -0.3501
 6845SOL    HW131997   4.653   1.735   3.798 -1.4020  0.3523  2.7764
 6845SOL    HW231998   0.061   1.698   3.827 -0.7400 -0.4619  0.8434
 6846SOL     OW31999   3.977   1.392   4.062 -0.4059  0.3071  0.2590
 6846SOL    HW132000   3.943   1.477   4.033 -3.5586 -1.3557 -0.8091
 6846SOL    HW232001   3.908   1.357   4.117 -0.9630 -0.0464 -0.6634
 6847SOL     OW32002   4.527   0.127   3.112  0.0353  0.0882 -0.4776
 6847SOL    HW132003   4.582   0.090   3.044 -1.7365 -1.6645 -0.9495
 6847SOL    HW232004   4.443   0.136   3.068 -1.2422 -0.5990  1.7854
 6848SOL     OW32005   3.521   0.362   6.765 -0.3075  0.2723  0.4649
 6848SOL    HW132006   3.498   0.333   6.677  1.1318  0.7384 -0.0658
 6848SOL    HW232007   3.578   0.438   6.750 -0.0033 -0.1093 -0.3400
 6849SOL     OW32008   4.614   3.659  10.393 -0.7453 -0.5951  0.1841
 6849SOL    HW132009   4.613   3.563  10.388 -0.5113 -0.6388  1.0164
 6849SOL    HW232010   4.634   3.679  10.484  2.2878  0.4009 -0.7076
 6850SOL     OW32011   2.876   1.002   7.915  0.2565 -0.1574 -0.2200
 6850SOL    HW132012   2.819   1.005   7.991  0.4688 -1.5732  0.0023
 6850SOL    HW232013   2.827   1.061   7.858 -1.0114 -1.3186 -0.3410
 6851SOL     OW32014   3.598   0.288   4.930 -0.4535  0.0794  0.1934
 6851SOL    HW132015   3.674   0.300   4.987  0.4105  2.1043 -1.3659
 6851SOL    HW232016   3.590   0.376   4.891 -0.8362 -0.5401 -1.1220
 6852SOL     OW32017   2.327   2.030  13.938  0.5092  0.5521  0.0476
 6852SOL    HW132018   2.365   1.964  13.995 -0.4337  0.5885  0.7091
 6852SOL    HW232019   2.412   2.045  13.897  1.2913 -0.6798  1.2642
 6853SOL     OW32020   4.123   3.793   5.473  0.2757 -0.6011 -0.8689
 6853SOL    HW132021   4.036   3.831   5.459  0.2160  0.4113  2.3018
 6853SOL    HW232022   4.096   3.704   5.493  2.0532 -0.9270  0.0555
 6854SOL     OW32023   4.318   0.391   4.513 -0.2436  0.0726 -0.2862
 6854SOL    HW132024   4.350   0.353   4.595  1.3582  1.1244 -0.4288
 6854SOL    HW232025   4.345   0.323   4.451  0.1689  0.1970 -0.2451
 6855SOL     OW32026   1.598   2.485   5.874  0.2426 -0.5811  0.2429
 6855SOL    HW132027   1.672   2.438   5.835  0.6355 -1.0909  1.5749
 6855SOL    HW232028   1.552   2.537   5.809  1.1114  0.3457  0.3807
 6856SOL     OW32029   3.039   3.753  17.143  0.6109  0.5206 -0.1725
 6856SOL    HW132030   3.052   3.823  17.080  4.5119  0.3102  0.3846
 6856SOL    HW232031   3.107   3.773  17.208  0.1340  3.0906 -0.4463
 6857SOL     OW32032   2.538   2.467  17.471 -0.1733  0.3117  0.4095
 6857SOL    HW132033   2.552   2.409  17.396  0.4650  0.2033  0.6062
 6857SOL    HW232034   2.623   2.503  17.499 -0.5570 -0.5250  2.6318
 6858SOL     OW32035   4.363   0.656   8.547 -0.1612  0.4279 -0.0388
 6858SOL    HW132036   4.385   0.568   8.576 -1.2801  0.1558 -0.0240
 6858SOL    HW232037   4.379   0.707   8.627  3.9111 -2.4031  0.9599
 6859SOL     OW32038   3.271   0.579   1.521 -0.3979 -0.5511  0.1615
 6859SOL    HW132039   3.362   0.562   1.497 -0.2180  0.3141  0.2334
 6859SOL    HW232040   3.241   0.645   1.459  1.2328 -0.2352 -0.3018
 6860SOL     OW32041   3.895   1.744   0.861 -0.2191 -0.0368  0.3745
 6860SOL    HW132042   3.910   1.653   0.885  0.5331  0.1826  0.7396
 6860SOL    HW232043   3.987   1.764   0.846  0.1419 -1.1993  1.0741
 6861SOL     OW32044   0.426   2.537   4.547 -0.3720  0.2644 -0.0157
 6861SOL    HW132045   0.378   2.467   4.591  1.5023  0.0491  1.6861
 6861SOL    HW232046   0.419   2.496   4.461 -4.7131  0.5193  0.2160
 6862SOL     OW32047   3.401   0.860  12.595 -0.2294  0.7661  0.0484
 6862SOL    HW132048   3.473   0.923  12.595  1.2030 -0.8585  0.8668
 6862SOL    HW232049   3.437   0.782  12.551 -0.9411 -0.2011  1.2053
 6863SOL     OW32050   1.331   3.932   7.702 -0.0829 -0.4960 -0.7834
 6863SOL    HW132051   1.415   3.926   7.747  0.2249 -0.4701 -1.3622
 6863SOL    HW232052   1.336   3.862   7.636  1.7452 -0.3927 -0.7520
 6864SOL     OW32053   0.038   4.493   8.053 -0.1657 -0.0939  0.2207
 6864SOL    HW132054   4.714   4.576   8.060  1.3358  0.8793 -0.9373
 6864SOL    HW232055   4.688   4.433   8.042 -0.5273  1.1358 -4.1564
 6865SOL     OW32056   2.089   2.944   8.146  0.2933 -0.7267 -0.0137
 6865SOL    HW132057   2.068   2.868   8.201 -1.9740 -0.4266 -0.4734
 6865SOL    HW232058   2.012   2.991   8.178 -0.5396 -1.3215 -1.0991
 6866SOL     OW32059   1.522   0.820   2.828  0.1238 -0.0093  0.3698
 6866SOL    HW132060   1.450   0.758   2.841  1.0467 -1.2646 -0.5424
 6866SOL    HW232061   1.496   0.869   2.750 -0.6794  0.5781  1.0018
 6867SOL     OW32062   2.468   2.409   5.494  0.1416  0.0350  0.8223
 6867SOL    HW132063   2.511   2.342   5.547 -0.8289 -3.0506 -2.2778
 6867SOL    HW232064   2.508   2.487   5.533  0.3420 -0.3811  1.4460
 6868SOL     OW32065   1.139   1.820  17.461  0.3656  0.0385 -0.9761
 6868SOL    HW132066   1.075   1.848  17.396  2.4912  0.8915 -2.6899
 6868SOL    HW232067   1.089   1.841  17.540 -1.8306 -0.0870 -2.3314
 6869SOL     OW32068   4.170   1.135  17.695  0.1613 -0.0481 -0.1992
 6869SOL    HW132069   4.224   1.121   0.075 -2.3852  1.8639  1.9135
 6869SOL    HW232070   4.090   1.167   0.039 -0.6690 -0.1716 -1.6960
 6870SOL     OW32071   3.009   3.125   4.392 -0.4142 -0.2982 -0.1813
 6870SOL    HW132072   3.086   3.067   4.396 -0.6158 -0.5466  0.1089
 6870SOL    HW232073   3.023   3.171   4.309 -2.2260 -1.8265 -1.3543
 6871SOL     OW32074   4.264   4.042   4.163  0.5087 -0.1722 -0.2863
 6871SOL    HW132075   4.351   4.072   4.137 -0.5837  2.3222 -0.9809
 6871SOL    HW232076   4.221   4.127   4.174 -0.7399 -0.8658  0.2118
 6872SOL     OW32077   2.488   4.328   6.523  0.0036 -0.7871  0.0305
 6872SOL    HW132078   2.432   4.406   6.524  0.1274 -0.6784 -2.2661
 6872SOL    HW232079   2.566   4.376   6.550  0.1927 -0.2435 -1.5267
 6873SOL     OW32080   1.023   3.971   2.615  1.0944 -0.3088  0.4430
 6873SOL    HW132081   0.937   4.000   2.646  0.4265 -0.3721 -1.3521
 6873SOL    HW232082   1.076   4.048   2.636 -0.5225  0.7953  0.5205
 6874SOL     OW32083   3.934   3.387  13.855 -0.0647 -0.0422 -0.2043
 6874SOL    HW132084   3.914   3.481  13.852 -2.1048 -0.5318 -2.0533
 6874SOL    HW232085   3.856   3.355  13.810 -1.0901  0.0964  1.4849
 6875SOL     OW32086   0.786   2.729   7.949 -0.7559  0.0618 -0.0904
 6875SOL    HW132087   0.876   2.700   7.932 -0.5763 -0.5664  1.9983
 6875SOL    HW232088   0.738   2.689   7.877  0.9270 -1.6138 -0.2921
 6876SOL     OW32089   1.677   1.976   2.715  0.4781 -0.3015  0.7228
 6876SOL    HW132090   1.692   1.920   2.639 -0.5508 -0.8858  0.9648
 6876SOL    HW232091   1.595   2.015   2.685  1.1593  0.7155  0.1480
 6877SOL     OW32092   1.902   4.578   8.487 -0.0265 -0.6204 -0.6327
 6877SOL    HW132093   1.977   4.537   8.530  0.1619  0.4669  0.0864
 6877SOL    HW232094   1.935   4.649   8.433  0.4179  0.7838  1.4715
 6878SOL     OW32095   2.647   0.429  16.843  0.0282  0.1173 -0.4658
 6878SOL    HW132096   2.627   0.463  16.755  0.6341 -1.1402 -1.1003
 6878SOL    HW232097   2.736   0.397  16.825  0.9634  2.3326  0.2345
 6879SOL     OW32098   4.221   3.937   6.075 -0.3761 -0.5390 -0.4475
 6879SOL    HW132099   4.154   4.000   6.102  1.4053 -0.0156  2.8418
 6879SOL    HW232100   4.296   3.971   6.124 -0.8554 -2.2746  1.5101
 6880SOL     OW32101   3.444   0.796   6.468  0.0085  0.5635 -0.7498
 6880SOL    HW132102   3.444   0.891   6.482  2.9070  0.9241 -3.0622
 6880SOL    HW232103   3.393   0.784   6.548 -0.0250  0.5705 -0.7703
 6881SOL     OW32104   3.506   1.208   8.015  0.1359  0.4683  0.3927
 6881SOL    HW132105   3.468   1.288   7.979  0.3426 -0.4141 -1.7610
 6881SOL    HW232106   3.427   1.155   8.022 -0.7818  1.8606  0.4872
 6882SOL     OW32107   1.419   0.114   6.173 -0.1937 -0.0236 -0.1789
 6882SOL    HW132108   1.396   0.167   6.249 -0.5462  0.8966 -0.9199
 6882SOL    HW232109   1.364   0.036   6.163 -0.2537 -0.4564  3.5832
 6883SOL     OW32110   2.862   3.914   7.385  0.0747 -0.3950  0.1043
 6883SOL    HW132111   2.775   3.949   7.408  0.3224 -0.9773  1.9042
 6883SOL    HW232112   2.857   3.907   7.290  1.0189 -0.5667  0.0670
 6884SOL     OW32113   1.535   0.670   8.140  0.1920  0.2674  0.2303
 6884SOL    HW132114   1.442   0.648   8.143  0.4230 -0.8281 -0.8235
 6884SOL    HW232115   1.536   0.763   8.116 -0.8447  1.1381  3.5219
 6885SOL     OW32116   0.746   1.769   4.923  0.5437  0.0206  0.0217
 6885SOL    HW132117   0.656   1.781   4.954  0.7917 -1.1018  1.1756
 6885SOL    HW232118   0.767   1.861   4.937 -1.3346  0.3134  0.9308
 6886SOL     OW32119   4.371   3.640   2.470 -0.3224 -0.5166 -0.1743
 6886SOL    HW132120   4.383   3.718   2.525  1.0611 -1.8537  1.4326
 6886SOL    HW232121   4.312   3.670   2.401 -0.2730  1.3758  0.5956
 6887SOL     OW32122   4.239   0.760   7.790 -0.3730  0.4793 -0.4368
 6887SOL    HW132123   4.238   0.789   7.882  3.3317  0.7601 -0.4537
 6887SOL    HW232124   4.164   0.702   7.800  0.8010 -0.7790  1.0350
 6888SOL     OW32125   2.697   0.105  12.677  0.5100 -0.6346  0.1941
 6888SOL    HW132126   2.713   0.196  12.701 -0.2945  0.0343 -1.7784
 6888SOL    HW232127   2.721   0.070  12.763  1.9591  0.3490  0.1799
 6889SOL     OW32128   4.397   2.324   8.002  0.0245  0.2548 -1.0549
 6889SOL    HW132129   4.373   2.334   8.095  0.9964 -2.2722 -0.5473
 6889SOL    HW232130   4.335   2.375   7.950  0.1224  1.5047  0.0258
 6890SOL     OW32131   2.100   0.504  17.361 -0.1191 -0.0827 -0.2926
 6890SOL    HW132132   2.020   0.552  17.341 -0.9263 -0.4311  2.1704
 6890SOL    HW232133   2.105   0.427  17.303 -0.0591 -0.0884 -0.2800
 6891SOL     OW32134   2.941   1.137  16.419  0.5710 -0.4696  0.1598
 6891SOL    HW132135   2.964   1.172  16.505  2.1791  0.2190 -0.5680
 6891SOL    HW232136   3.013   1.163  16.362 -0.1857 -0.2493 -0.6943
 6892SOL     OW32137   4.647   0.515   8.643  0.3370  0.3253 -0.4828
 6892SOL    HW132138   0.009   0.521   8.602  0.1109 -1.7401 -1.2202
 6892SOL    HW232139   4.658   0.575   8.718  1.2581 -1.2882  0.6655
 6893SOL     OW32140   0.911   4.580   8.496 -0.3365  0.3223  0.0471
 6893SOL    HW132141   0.823   4.562   8.462 -0.9331  0.5763  1.4626
 6893SOL    HW232142   0.912   4.669   8.460 -0.6573  1.6260  3.2341
 6894SOL     OW32143   2.849   2.534   2.211  0.7338  0.5470 -0.2875
 6894SOL    HW132144   2.900   2.500   2.137 -0.4888 -1.3135 -0.2744
 6894SOL    HW232145   2.787   2.461   2.218  1.5916 -0.1211  0.3049
 6895SOL     OW32146   2.618   2.752   8.814 -0.1965 -0.5732  0.3087
 6895SOL    HW132147   2.549   2.818   8.809  0.3862  0.0808  1.0329
 6895SOL    HW232148   2.567   2.682   8.773 -0.5955  0.6125 -1.2452
 6896SOL     OW32149   0.629   1.785   2.687 -0.4693  0.2825 -0.0881
 6896SOL    HW132150   0.696   1.722   2.713  1.0506  2.1370  0.4946
 6896SOL    HW232151   0.603   1.736   2.609  0.6947  0.0938 -0.3489
 6897SOL     OW32152   2.004   4.570   5.132  0.1901  0.1058  0.4065
 6897SOL    HW132153   1.933   4.574   5.068  0.4500 -0.6663  0.0662
 6897SOL    HW232154   2.065   4.546   5.063  2.5215  1.7825  1.9051
 6898SOL     OW32155   0.536   1.120   5.554 -0.1200 -0.0208 -0.4438
 6898SOL    HW132156   0.451   1.151   5.521  0.3697 -0.7589 -2.4101
 6898SOL    HW232157   0.503   1.105   5.643  0.5075  2.6904  0.2240
 6899SOL     OW32158   0.438   4.178  13.440 -0.1140 -0.3249 -0.3230
 6899SOL    HW132159   0.466   4.126  13.516  1.4342  1.1470  0.1199
 6899SOL    HW232160   0.401   4.114  13.380  1.6884  2.0046 -3.8810
 6900SOL     OW32161   3.809   1.784   9.469  0.1983 -0.0523 -0.1801
 6900SOL    HW132162   3.880   1.810   9.410 -1.9606  2.9225 -1.4794
 6900SOL    HW232163   3.745   1.846   9.433  0.4886  0.4481  0.1573
 6901SOL     OW32164   4.171   3.439   1.085 -0.1119  0.8185  0.4684
 6901SOL    HW132165   4.177   3.437   1.180 -0.2998 -1.4071  0.4393
 6901SOL    HW232166   4.116   3.361   1.076  0.7067  0.3071 -0.2176
 6902SOL     OW32167   4.578   4.699   3.317 -0.4712 -0.2490 -0.3291
 6902SOL    HW132168   4.559   0.034   3.244 -1.8291  0.3720  0.5266
 6902SOL    HW232169   4.671   4.679   3.308  0.0527  1.4849  1.2618
 6903SOL     OW32170   3.982   4.339   7.535  0.3053 -0.0748  0.2132
 6903SOL    HW132171   4.000   4.261   7.586  0.2428 -0.1445  0.1286
 6903SOL    HW232172   3.915   4.313   7.472 -0.8959  1.1217  1.0160
 6904SOL     OW32173   1.351   3.278  15.950 -0.2738  0.1652 -0.4572
 6904SOL    HW132174   1.338   3.256  16.042  1.2911 -0.5276 -0.4019
 6904SOL    HW232175   1.388   3.365  15.959  2.3350 -1.0660  0.8576
 6905SOL     OW32176   3.759   1.737   1.292  0.5338 -0.0940  0.0846
 6905SOL    HW132177   3.736   1.830   1.294 -1.4717 -0.5880 -0.0492
 6905SOL    HW232178   3.707   1.701   1.220  1.1491 -0.0945 -0.3582
 6906SOL     OW32179   2.297   0.563  10.918  0.1898  0.0200  0.0217
 6906SOL    HW132180   2.227   0.627  10.904 -0.2209  0.0042  1.9667
 6906SOL    HW232181   2.301   0.541  10.825 -0.2100 -2.4981  0.5996
 6907SOL     OW32182   3.853   3.035   2.583 -0.7276 -0.5108  0.4143
 6907SOL    HW132183   3.761   3.049   2.560 -0.2258  2.2906  0.1055
 6907SOL    HW232184   3.838   3.003   2.672  0.3610  1.9052  1.4608
 6908SOL     OW32185   0.561   2.757   6.765 -0.0871 -0.0875  0.6893
 6908SOL    HW132186   0.600   2.829   6.814  0.7725  0.1026 -0.2875
 6908SOL    HW232187   0.625   2.687   6.779  0.5384  0.4550  0.5145
 6909SOL     OW32188   2.427   2.431   3.148 -0.0593 -0.0521  0.2392
 6909SOL    HW132189   2.342   2.464   3.176 -0.3399 -0.3530 -0.2679
 6909SOL    HW232190   2.403   2.349   3.107 -1.3235  1.3107 -1.7628
 6910SOL     OW32191   1.161   4.250   9.816 -0.1281 -0.1310  0.3497
 6910SOL    HW132192   1.142   4.317   9.751 -0.0748 -1.9705 -1.5712
 6910SOL    HW232193   1.187   4.316   9.881 -0.7029 -0.9904  1.4469
 6911SOL     OW32194   4.361   2.724   0.343 -0.6406 -0.2594 -0.2366
 6911SOL    HW132195   4.385   2.732   0.435  0.6566 -2.8706 -0.3670
 6911SOL    HW232196   4.274   2.763   0.331 -1.0079 -0.2378  2.6687
 6912SOL     OW32197   3.110   2.249  16.165 -0.7525  0.4916  0.0605
 6912SOL    HW132198   3.014   2.257  16.160 -0.6595  2.1882  0.8600
 6912SOL    HW232199   3.132   2.312  16.096  1.4735 -0.1180  0.2253
 6913SOL     OW32200   3.984   4.621   5.460 -0.2417  0.1317  0.0685
 6913SOL    HW132201   4.031   4.600   5.541 -0.7810 -1.5167 -0.0342
 6913SOL    HW232202   3.953   4.534   5.435  1.3967 -1.2054  2.7046
 6914SOL     OW32203   1.888   0.099  14.180  0.0884  0.5681 -0.6433
 6914SOL    HW132204   1.895   0.089  14.275 -0.4946  0.8877 -0.5608
 6914SOL    HW232205   1.973   0.133  14.153 -0.6225  1.7125 -1.4396
 6915SOL     OW32206   3.819   2.630   1.329 -0.5137  0.0326  0.2068
 6915SOL    HW132207   3.885   2.696   1.304 -0.7353 -0.2756 -1.2034
 6915SOL    HW232208   3.775   2.611   1.246 -1.7918  0.0753  0.8875
 6916SOL     OW32209   3.254   0.422   8.785 -0.3043  0.1191 -1.3471
 6916SOL    HW132210   3.178   0.427   8.728 -0.6006 -0.6671 -1.0124
 6916SOL    HW232211   3.283   0.334   8.763 -0.7340  0.1089 -1.8604
 6917SOL     OW32212   4.512   4.218   4.844  0.3486  0.0248 -0.1891
 6917SOL    HW132213   4.569   4.273   4.790  0.8344 -1.7276 -1.4264
 6917SOL    HW232214   4.493   4.140   4.794  0.6742  0.9563 -1.7516
 6918SOL     OW32215   0.573   0.488   4.040 -0.3376 -0.4279  0.6779
 6918SOL    HW132216   0.543   0.402   4.072 -0.0650 -1.0271 -0.6640
 6918SOL    HW232217   0.488   0.524   4.016 -0.0478  0.9920  1.8524
 6919SOL     OW32218   3.071   2.495   9.169 -0.0392 -0.0943  0.1769
 6919SOL    HW132219   2.977   2.483   9.158  0.5293 -3.8075 -0.9130
 6919SOL    HW232220   3.078   2.518   9.262  0.9403  2.3560 -0.5059
 6920SOL     OW32221   2.480   3.756   4.263 -0.2036 -0.0431  0.6693
 6920SOL    HW132222   2.392   3.731   4.236  0.6573 -1.2797 -0.9449
 6920SOL    HW232223   2.468   3.760   4.358  2.2886 -0.3979  0.9858
 6921SOL     OW32224   4.265   0.101  10.120  0.5291 -0.0031  0.0794
 6921SOL    HW132225   4.176   0.130  10.144  0.8463  0.6430  0.4890
 6921SOL    HW232226   4.272   0.043  10.196  0.3918  1.0661  0.9108
 6922SOL     OW32227   2.614   3.958   8.988 -0.0202 -0.3400  0.4047
 6922SOL    HW132228   2.559   4.034   9.006 -0.2297 -0.8645  1.9377
 6922SOL    HW232229   2.548   3.893   8.967  1.1076 -1.3799  0.0626
 6923SOL     OW32230   4.501   3.477   8.384 -0.3211  0.5535 -0.2500
 6923SOL    HW132231   4.512   3.396   8.433  1.0316  0.1275 -1.2563
 6923SOL    HW232232   4.541   3.448   8.302  0.5831  0.1188  0.3568
 6924SOL     OW32233   3.177   4.336   9.726 -0.5751  0.0479 -0.7981
 6924SOL    HW132234   3.232   4.272   9.681 -0.0456  1.1721 -1.7542
 6924SOL    HW232235   3.205   4.309   9.814  0.1540 -2.3552 -1.7615
 6925SOL     OW32236   3.358   0.112   4.526 -0.2796 -0.4536 -0.4550
 6925SOL    HW132237   3.384   0.129   4.617 -1.9956 -1.0893  0.1646
 6925SOL    HW232238   3.335   0.019   4.524 -0.6521 -0.3959  1.5430
 6926SOL     OW32239   0.793   3.834   8.155 -0.0370  0.2103 -0.3892
 6926SOL    HW132240   0.797   3.743   8.126 -1.0753  0.4325 -1.2356
 6926SOL    HW232241   0.705   3.836   8.192  1.1930 -1.0309  2.5968
 6927SOL     OW32242   0.109   2.069  11.543  1.0203  0.4364  0.4853
 6927SOL    HW132243   0.063   2.087  11.624  0.9987  0.0110  0.5688
 6927SOL    HW232244   0.130   2.155  11.508 -0.5824  0.9111  0.6984
 6928SOL     OW32245   4.110   3.561  17.496 -0.4052 -0.0807 -0.0130
 6928SOL    HW132246   4.030   3.508  17.497  0.2054 -0.9790  0.7944
 6928SOL    HW232247   4.177   3.502  17.461 -2.1936 -1.8457 -0.4725
 6929SOL     OW32248   1.826   0.440  17.369 -0.0264 -0.3753  0.3069
 6929SOL    HW132249   1.780   0.389  17.436 -1.0386  0.0659 -0.0467
 6929SOL    HW232250   1.838   0.529  17.403 -0.4976 -0.3543  0.4239
 6930SOL     OW32251   1.422   0.883   8.506  0.0652 -0.4841 -0.1335
 6930SOL    HW132252   1.336   0.877   8.465 -0.7603 -0.5691  1.5967
 6930SOL    HW232253   1.398   0.914   8.594 -2.9538  0.2949 -1.2499
 6931SOL     OW32254   3.358   1.590  12.249  0.2640  0.3250  0.4207
 6931SOL    HW132255   3.380   1.683  12.256 -2.7839  1.3060 -2.8358
 6931SOL    HW232256   3.443   1.549  12.236  1.8265  2.9729  2.3149
 6932SOL     OW32257   0.611   1.154   9.409 -0.3620 -0.5309  0.3893
 6932SOL    HW132258   0.614   1.193   9.496  1.7865 -0.1349  0.1277
 6932SOL    HW232259   0.557   1.221   9.366 -2.1355  0.0125  3.4403
 6933SOL     OW32260   1.324   4.449  12.615 -0.2430  0.0222 -0.4173
 6933SOL    HW132261   1.326   4.375  12.676  3.2469 -0.0951 -0.7123
 6933SOL    HW232262   1.326   4.400  12.533  1.8563  0.9045 -0.8840
 6934SOL     OW32263   4.248   3.807   6.547 -0.3672  0.4383 -0.4428
 6934SOL    HW132264   4.162   3.765   6.555  0.9058 -1.5125  3.4332
 6934SOL    HW232265   4.282   3.784   6.634 -1.5997  2.1844  0.5012
 6935SOL     OW32266   4.471   0.628  15.580  0.0375  0.3564  0.2039
 6935SOL    HW132267   4.401   0.612  15.516  0.5100 -1.7190  0.1835
 6935SOL    HW232268   4.432   0.692  15.639  1.5668  1.3882  0.0914
 6936SOL     OW32269   0.898   0.977   7.639 -0.9794 -0.0990  0.1512
 6936SOL    HW132270   0.924   0.901   7.588  0.3869  0.0138  0.6708
 6936SOL    HW232271   0.965   1.042   7.617 -0.2497 -1.1504 -0.6687
 6937SOL     OW32272   2.015   3.952   0.867 -0.2706  0.3623 -0.1517
 6937SOL    HW132273   1.957   4.015   0.909 -0.0640  0.0863  0.5517
 6937SOL    HW232274   2.072   4.007   0.813  1.3168 -1.3529 -0.2351
 6938SOL     OW32275   4.199   0.948   7.158  0.0935 -0.1385 -0.1172
 6938SOL    HW132276   4.282   0.902   7.146 -0.3109 -0.2810 -2.3657
 6938SOL    HW232277   4.153   0.882   7.210 -1.1339  1.6109  1.0218
 6939SOL     OW32278   2.576   0.170  15.812  0.1300  0.0157  0.2665
 6939SOL    HW132279   2.615   0.190  15.726  1.5638  1.4772  1.2437
 6939SOL    HW232280   2.657   0.161  15.862  0.7160  0.9453 -0.5153
 6940SOL     OW32281   1.949   3.698   7.736  0.9576  0.5321 -0.3485
 6940SOL    HW132282   1.982   3.775   7.690 -1.4875  1.0064 -1.3373
 6940SOL    HW232283   2.013   3.632   7.710  1.9003  1.7250 -1.0173
 6941SOL     OW32284   2.741   0.576  14.554 -0.2847  0.0120 -0.5141
 6941SOL    HW132285   2.675   0.637  14.588 -1.6033 -1.1916 -0.8601
 6941SOL    HW232286   2.812   0.637  14.534  0.0745  0.7436  2.9262
 6942SOL     OW32287   3.547   1.673   3.556  0.0145  0.3054 -0.0267
 6942SOL    HW132288   3.573   1.701   3.643  0.6152  1.1958 -0.4881
 6942SOL    HW232289   3.515   1.749   3.506  0.9287  1.5178  1.2328
 6943SOL     OW32290   0.944   1.882  15.364 -0.0883 -0.1879 -0.4022
 6943SOL    HW132291   0.918   1.955  15.421 -1.0062 -0.1537 -0.8717
 6943SOL    HW232292   1.018   1.847  15.413 -1.0240 -1.6302 -0.0199
 6944SOL     OW32293   1.698   2.851  13.762 -0.1360  0.3981  0.0253
 6944SOL    HW132294   1.737   2.867  13.676  1.2519 -1.7111  0.2604
 6944SOL    HW232295   1.636   2.924  13.761 -1.1345 -0.4515 -0.0712
 6945SOL     OW32296   3.311   3.951   1.349  0.3499 -0.3759  0.0501
 6945SOL    HW132297   3.387   4.003   1.322  0.1001 -0.0172  0.0440
 6945SOL    HW232298   3.246   3.988   1.290  0.5467 -2.0642 -1.2486
 6946SOL     OW32299   3.976   3.405   8.456 -0.0132 -0.5338 -0.1670
 6946SOL    HW132300   4.008   3.480   8.506 -0.1081 -2.0690  2.1458
 6946SOL    HW232301   3.996   3.340   8.523  4.1187  1.5080  0.5829
 6947SOL     OW32302   0.655   0.249   5.927  0.6237  0.2638 -0.3755
 6947SOL    HW132303   0.609   0.179   5.880  1.6084 -1.1497  0.7382
 6947SOL    HW232304   0.675   0.307   5.854  0.0200 -0.0022 -0.7545
 6948SOL     OW32305   3.443   4.355   6.783  0.1185  0.3189  1.0586
 6948SOL    HW132306   3.411   4.380   6.696 -1.0288 -2.5467  0.6624
 6948SOL    HW232307   3.537   4.370   6.779  0.1196  0.0949  0.3048
 6949SOL     OW32308   2.921   0.041   8.123 -0.2670  0.5909  0.3152
 6949SOL    HW132309   2.881   0.128   8.126 -0.9097  0.2707  0.9592
 6949SOL    HW232310   2.935   0.043   8.029 -0.9032  3.0834  0.2824
 6950SOL     OW32311   4.479   0.628   6.311 -0.7404  0.2928  0.2913
 6950SOL    HW132312   4.388   0.629   6.282 -0.4110 -4.7577 -0.8205
 6950SOL    HW232313   4.511   0.718   6.300  2.5037 -0.8493  0.2663
 6951SOL     OW32314   1.859   0.212  15.083  0.4148 -0.0420  0.0477
 6951SOL    HW132315   1.798   0.172  15.145  1.2971 -1.9247 -0.2907
 6951SOL    HW232316   1.826   0.167  15.005  1.2132 -0.9943  0.2605
 6952SOL     OW32317   3.463   3.935   7.334  0.7948 -0.4740  0.4625
 6952SOL    HW132318   3.506   3.916   7.418 -1.3850  2.3592  2.2315
 6952SOL    HW232319   3.485   3.856   7.286 -0.2237 -1.1885  1.1819
 6953SOL     OW32320   1.576   4.224  12.088  0.0998  0.0920 -0.1903
 6953SOL    HW132321   1.626   4.264  12.160 -1.9032  2.0677  0.1029
 6953SOL    HW232322   1.489   4.228  12.129  0.2833 -0.2435  0.2438
 6954SOL     OW32323   3.669   2.435   2.711  0.2028  0.0695 -0.4465
 6954SOL    HW132324   3.731   2.470   2.647  0.9018 -1.8005 -0.8223
 6954SOL    HW232325   3.613   2.374   2.662  0.0098 -0.6547  0.6653
 6955SOL     OW32326   4.369   4.412   8.079 -0.4656 -0.1805 -0.2475
 6955SOL    HW132327   4.407   4.336   8.034 -0.8279 -0.4637 -0.0703
 6955SOL    HW232328   4.333   4.458   8.004 -0.9764  1.6383  1.1091
 6956SOL     OW32329   1.418   0.881   4.879  0.1468  0.2803  0.4371
 6956SOL    HW132330   1.387   0.920   4.961 -1.2698 -0.4561  0.2479
 6956SOL    HW232331   1.444   0.949   4.817 -0.3482  0.6993  0.6846
 6957SOL     OW32332   4.671   3.741   2.899 -0.2466  0.0383 -0.5773
 6957SOL    HW132333   4.593   3.744   2.954  0.3130 -1.6466  0.2893
 6957SOL    HW232334   4.638   3.738   2.809 -1.8936 -0.2714  0.0380
 6958SOL     OW32335   0.561   0.128   2.099  0.2300  0.1837  0.1287
 6958SOL    HW132336   0.547   0.118   2.193  0.9178  2.1818  0.4363
 6958SOL    HW232337   0.482   0.175   2.071 -0.7048 -1.9473 -0.8441
 6959SOL     OW32338   3.774   1.797  13.902 -0.3633 -0.2322 -0.1900
 6959SOL    HW132339   3.868   1.813  13.896 -0.6312  1.4197  0.0493
 6959SOL    HW232340   3.745   1.772  13.814  0.0548 -1.6632  0.0725
 6960SOL     OW32341   0.014   0.731  15.049 -0.1288  0.3211 -0.0117
 6960SOL    HW132342   0.082   0.671  15.079  1.0913  1.4827 -0.4153
 6960SOL    HW232343   4.657   0.681  15.058  0.4815 -0.3159  1.7814
 6961SOL     OW32344   1.083   2.736  15.825  0.0109  0.4902 -0.0368
 6961SOL    HW132345   1.152   2.709  15.765 -0.6304 -1.4037  0.0793
 6961SOL    HW232346   1.099   2.693  15.909 -0.2536  1.1417  0.3500
 6962SOL     OW32347   4.532   4.078   5.068 -0.1016 -0.2703  0.1016
 6962SOL    HW132348   4.464   4.011   5.062 -0.5496  0.2446 -0.5384
 6962SOL    HW232349   4.524   4.124   4.984 -0.8325  0.2146  0.4447
 6963SOL     OW32350   2.614   0.245  10.835  0.0872  0.3158 -0.8687
 6963SOL    HW132351   2.656   0.324  10.867  1.4346 -1.1071  0.8482
 6963SOL    HW232352   2.690   0.200  10.799  1.9194  1.0495  2.1007
 6964SOL     OW32353   3.764   0.267   7.158 -0.3190 -0.1150  0.2859
 6964SOL    HW132354   3.728   0.340   7.208 -0.9093  0.7248 -1.4056
 6964SOL    HW232355   3.709   0.256   7.081 -0.7971 -0.6888  0.7047
 6965SOL     OW32356   1.927   4.578  15.489  0.5670 -0.0547 -0.3288
 6965SOL    HW132357   1.987   4.513  15.524 -0.5775 -0.7159  0.3803
 6965SOL    HW232358   1.999   4.632  15.455  0.8969  0.0183  0.4994
 6966SOL     OW32359   0.984   1.674   8.846  0.3969 -0.0258 -0.1559
 6966SOL    HW132360   0.913   1.719   8.800 -0.3639 -1.1696 -0.0880
 6966SOL    HW232361   1.060   1.720   8.809 -0.7962  1.9289 -0.1700
 6967SOL     OW32362   0.060   4.412   5.328 -0.5231  0.0951 -0.0567
 6967SOL    HW132363   0.054   4.344   5.261  1.5215  0.0231 -0.1714
 6967SOL    HW232364   0.109   4.364   5.394 -1.8355 -0.2973  0.6169
 6968SOL     OW32365   0.789   0.369   8.988  0.0306  0.0717  0.6222
 6968SOL    HW132366   0.882   0.384   9.005  0.1985  0.4746 -0.6477
 6968SOL    HW232367   0.785   0.323   8.904  1.5281  1.2940 -0.1230
 6969SOL     OW32368   0.965   0.900  13.938  0.1197  0.2127  0.9062
 6969SOL    HW132369   1.005   0.973  13.985  2.3628  0.1012 -0.8654
 6969SOL    HW232370   1.026   0.835  13.974  2.3024  1.7471 -0.0596
 6970SOL     OW32371   1.715   3.002   3.285 -0.3559  0.4094  0.5224
 6970SOL    HW132372   1.659   3.074   3.255 -0.2883 -0.4029 -1.5212
 6970SOL    HW232373   1.800   3.046   3.289 -1.0137  1.4878  3.0542
 6971SOL     OW32374   1.671   2.412   1.601 -0.1363  0.5804  0.1417
 6971SOL    HW132375   1.619   2.475   1.552 -1.0303 -0.4868 -0.2778
 6971SOL    HW232376   1.663   2.441   1.692  1.0419 -2.4572  1.2154
 6972SOL     OW32377   0.061   4.538   2.599  0.3405  0.1995  0.2796
 6972SOL    HW132378   0.023   4.585   2.524  0.9410  0.1616 -0.0491
 6972SOL    HW232379   0.134   4.597   2.618  0.3205  0.0100  0.9479
 6973SOL     OW32380   0.984   3.882   5.653  1.0019 -0.6715 -0.3062
 6973SOL    HW132381   1.029   3.967   5.658  3.9175 -2.2412 -0.4758
 6973SOL    HW232382   0.890   3.901   5.648  0.8467 -0.4621  3.1440
 6974SOL     OW32383   3.776   2.478   6.314  0.2220  0.1028  0.4047
 6974SOL    HW132384   3.788   2.414   6.244  0.6364 -1.2648  1.7389
 6974SOL    HW232385   3.868   2.475   6.339 -0.0744 -0.6303  1.3798
 6975SOL     OW32386   3.668   4.489   4.834 -0.0733  0.3971 -0.3567
 6975SOL    HW132387   3.693   4.571   4.877 -0.5268  0.6049 -0.4868
 6975SOL    HW232388   3.627   4.441   4.905 -1.1558  0.1625 -1.1408
 6976SOL     OW32389   0.457   1.234   3.410 -0.0366  0.2686 -0.1254
 6976SOL    HW132390   0.472   1.328   3.421  0.2248  0.0438  1.5278
 6976SOL    HW232391   0.503   1.199   3.334  1.3189 -0.8936  1.2159
 6977SOL     OW32392   0.288   1.353   8.223 -0.1716 -0.4313  0.1544
 6977SOL    HW132393   0.337   1.355   8.141 -0.3300 -0.4353  0.0602
 6977SOL    HW232394   0.225   1.426   8.219  1.5605  1.1098  1.0891
 6978SOL     OW32395   2.751   1.131   9.501  0.0985  0.3015  0.3250
 6978SOL    HW132396   2.768   1.038   9.486 -1.1383  0.0970  0.1884
 6978SOL    HW232397   2.694   1.128   9.578 -0.6916 -0.7706 -0.2898
 6979SOL     OW32398   0.540   1.807   0.859 -0.1542  0.1213  0.3296
 6979SOL    HW132399   0.555   1.840   0.771  0.1671 -0.3095  0.2243
 6979SOL    HW232400   0.586   1.870   0.914  0.6337 -0.9580  0.9023
 6980SOL     OW32401   0.474   3.835   9.995 -0.4112 -0.4920 -0.6968
 6980SOL    HW132402   0.559   3.865   9.962 -0.2553 -0.3036 -0.1185
 6980SOL    HW232403   0.455   3.751   9.953 -2.4514 -0.3493 -0.0524
 6981SOL     OW32404   2.895   4.495   8.135  0.5005 -0.0035 -0.2139
 6981SOL    HW132405   2.908   4.590   8.130 -0.2474  0.0971 -0.2063
 6981SOL    HW232406   2.931   4.479   8.048  0.9332 -0.3034  0.0203
 6982SOL     OW32407   2.799   4.509   4.305 -0.6447  0.1474 -0.2160
 6982SOL    HW132408   2.807   4.446   4.376 -1.8976 -0.2803 -0.4500
 6982SOL    HW232409   2.816   4.595   4.344  2.0195 -0.5142  0.0282
 6983SOL     OW32410   1.720   2.689   6.069 -0.2885 -0.0094  0.1341
 6983SOL    HW132411   1.751   2.641   5.992  1.6239 -0.2795  1.0453
 6983SOL    HW232412   1.778   2.763   6.052 -1.1275  0.8262  0.9507
 6984SOL     OW32413   4.372   0.511  12.765 -0.5493  0.1815 -0.1148
 6984SOL    HW132414   4.395   0.603  12.759  0.7250 -0.0847  0.7599
 6984SOL    HW232415   4.428   0.481  12.693 -2.0888 -0.7754 -0.9163
 6985SOL     OW32416   4.183   1.189   7.678 -0.4649  0.1881 -0.1645
 6985SOL    HW132417   4.248   1.149   7.620 -1.0067 -1.4472  0.3751
 6985SOL    HW232418   4.111   1.138   7.643  1.9754 -3.8202  0.6597
 6986SOL     OW32419   2.791   0.119   8.718 -0.6716  0.3848 -0.3796
 6986SOL    HW132420   2.843   0.045   8.687  1.7784  0.4878  3.4821
 6986SOL    HW232421   2.706   0.108   8.675 -0.6656  0.8599 -0.5145
 6987SOL     OW32422   1.512   2.373   5.489 -0.1221 -0.2252  0.6228
 6987SOL    HW132423   1.529   2.459   5.529  1.5033 -0.3978  0.3019
 6987SOL    HW232424   1.545   2.395   5.402  1.3084 -0.2534  1.1520
 6988SOL     OW32425   1.101   4.208   8.437  0.0011  0.4842 -0.2071
 6988SOL    HW132426   1.181   4.249   8.402  0.5259  0.9046  1.4352
 6988SOL    HW232427   1.078   4.142   8.373  1.5723 -0.9604  0.7111
 6989SOL     OW32428   0.810   3.114   9.041  0.7425 -0.1082 -0.1846
 6989SOL    HW132429   0.745   3.150   9.102  0.2600 -2.4620  0.6829
 6989SOL    HW232430   0.831   3.197   8.997 -2.4107  1.5761  1.4355
 6990SOL     OW32431   0.383   2.816   2.425  0.2326 -0.3180  0.8522
 6990SOL    HW132432   0.301   2.772   2.404  0.8277 -0.8226 -0.4312
 6990SOL    HW232433   0.443   2.784   2.358 -0.8509 -2.0215  0.7182
 6991SOL     OW32434   0.822   0.038   2.035  0.0574 -0.5117 -0.4459
 6991SOL    HW132435   0.831   0.066   1.944 -2.2923  2.4936  0.2547
 6991SOL    HW232436   0.737   0.074   2.060  1.5915  2.1983  0.9035
 6992SOL     OW32437   1.860   0.976   4.292 -0.4785 -0.0546  0.1502
 6992SOL    HW132438   1.833   0.902   4.238  1.2547 -1.4146  1.1614
 6992SOL    HW232439   1.807   0.965   4.370  0.4238  2.1629  1.0952
 6993SOL     OW32440   2.668   2.335   9.475 -0.1071  0.2761  0.4436
 6993SOL    HW132441   2.661   2.275   9.550 -2.7702  1.0017  0.7618
 6993SOL    HW232442   2.638   2.419   9.510  0.4757  0.0724  1.4368
 6994SOL     OW32443   3.333   2.138   3.786 -0.2717  0.5326  0.1639
 6994SOL    HW132444   3.253   2.141   3.839 -0.6262 -0.7619 -0.3086
 6994SOL    HW232445   3.305   2.086   3.711  1.7801 -0.0393 -0.2094
 6995SOL     OW32446   2.140   3.252   4.933  0.0405  0.0066  0.3053
 6995SOL    HW132447   2.169   3.292   5.015  0.4037 -1.0860  0.7055
 6995SOL    HW232448   2.081   3.314   4.891 -0.2699 -0.4492  0.0629
 6996SOL     OW32449   1.202   3.223   2.442  0.2426 -1.0387  0.4563
 6996SOL    HW132450   1.282   3.173   2.427  1.9788  1.8651 -0.1318
 6996SOL    HW232451   1.173   3.202   2.531 -1.4400 -2.0005 -0.3287
 6997SOL     OW32452   4.182   3.871   8.132 -0.1765 -0.0930  0.0096
 6997SOL    HW132453   4.218   3.798   8.181 -0.7544  0.9970  2.0694
 6997SOL    HW232454   4.128   3.922   8.192  1.2565  4.6757 -2.6442
 6998SOL     OW32455   0.090   1.623   9.798 -0.5410 -0.0983  0.2444
 6998SOL    HW132456   0.136   1.643   9.879 -0.7659 -1.4187  0.6957
 6998SOL    HW232457   0.071   1.534   9.829  1.9670 -1.1770 -1.2540
 6999SOL     OW32458   3.078   3.386  10.527 -0.0870 -0.0380 -0.5999
 6999SOL    HW132459   3.076   3.316  10.461 -0.3008 -0.1228 -0.5045
 6999SOL    HW232460   3.124   3.332  10.593 -0.7852  0.3111  0.1697
 7000SOL     OW32461   4.567   3.558  14.475  0.0879  1.1691 -0.4582
 7000SOL    HW132462   4.633   3.598  14.532 -2.1445  2.0655  1.4794
 7000SOL    HW232463   4.497   3.535  14.536 -0.2855  1.6984 -0.6917
 7001SOL     OW32464   0.475   0.346   6.984  0.5649 -0.6573 -0.4294
 7001SOL    HW132465   0.505   0.273   7.040 -0.6227 -0.2597  0.7225
 7001SOL    HW232466   0.382   0.327   6.990  0.3017  0.9916  0.7103
 7002SOL     OW32467   3.459   2.676   7.941 -0.7043 -0.4889 -0.2094
 7002SOL    HW132468   3.517   2.735   7.988  0.0176 -1.3192 -0.0555
 7002SOL    HW232469   3.417   2.631   8.015 -1.7763  0.4368 -0.2549
 7003SOL     OW32470   3.276   4.066  13.306  0.5490 -0.1567 -0.1021
 7003SOL    HW132471   3.331   4.068  13.228 -0.4915 -1.5622 -0.8819
 7003SOL    HW232472   3.347   4.054  13.369  0.5639  2.1116  0.3362
 7004SOL     OW32473   1.438   1.684  13.772  0.9774 -0.6078  0.0089
 7004SOL    HW132474   1.419   1.593  13.751  0.6141 -0.7235  0.8583
 7004SOL    HW232475   1.390   1.699  13.853  1.2502 -0.8632  0.2164
 7005SOL     OW32476   0.697   3.458   7.848  0.0644 -0.1888  0.5414
 7005SOL    HW132477   0.666   3.548   7.846  3.8344  1.1246  1.7042
 7005SOL    HW232478   0.616   3.417   7.881 -0.4828  0.1574 -0.3869
 7006SOL     OW32479   3.413   2.053   7.889 -0.0246 -0.1960  0.0239
 7006SOL    HW132480   3.346   1.987   7.907  1.1756 -1.2689  0.4987
 7006SOL    HW232481   3.356   2.130   7.880 -0.2359 -0.3328  0.2144
 7007SOL     OW32482   0.829   0.025   8.297  0.5775 -0.7935 -0.0235
 7007SOL    HW132483   0.839   0.110   8.254  1.9058 -0.4395  0.9621
 7007SOL    HW232484   0.737   0.008   8.282  0.6350 -0.9546 -0.1892
 7008SOL     OW32485   4.204   1.908   2.702 -0.1942 -0.1082  0.3760
 7008SOL    HW132486   4.252   1.920   2.784 -0.5865  0.4742  0.5135
 7008SOL    HW232487   4.159   1.825   2.718 -0.1092 -0.4025 -0.9301
 7009SOL     OW32488   3.986   2.647   3.020 -0.0211 -0.7251 -0.3605
 7009SOL    HW132489   3.894   2.619   3.011 -1.1839  2.5788  1.1664
 7009SOL    HW232490   4.018   2.647   2.930  1.8835  1.9897  0.3184
 7010SOL     OW32491   3.618   1.641   7.634  0.9234 -0.6920 -0.4873
 7010SOL    HW132492   3.611   1.719   7.689  0.0052 -1.3316  0.3108
 7010SOL    HW232493   3.688   1.659   7.572  1.0190 -0.4242 -0.3017
 7011SOL     OW32494   0.048   2.914   0.675 -0.0057  0.7449 -0.1329
 7011SOL    HW132495   4.720   2.907   0.755  0.1827 -2.3027 -0.2913
 7011SOL    HW232496   0.116   2.848   0.691  0.1979  0.5560 -1.7962
 7012SOL     OW32497   0.527   0.178   6.754 -0.3649  0.0434 -0.3419
 7012SOL    HW132498   0.498   0.220   6.835  0.7338 -0.5030  0.3472
 7012SOL    HW232499   0.486   0.246   6.702  0.1658  0.7578  0.1798
 7013SOL     OW32500   3.706   1.159   7.054  0.5659 -0.7280 -0.5784
 7013SOL    HW132501   3.698   1.192   6.965 -0.6760 -2.3935 -1.0873
 7013SOL    HW232502   3.799   1.167   7.073  1.0121 -0.2887 -2.9505
 7014SOL     OW32503   3.730   0.682   2.825  0.2176 -0.3741 -0.6260
 7014SOL    HW132504   3.772   0.604   2.787  0.7586 -0.0914 -0.6104
 7014SOL    HW232505   3.809   0.732   2.849  1.0470 -1.8005 -0.3543
 7015SOL     OW32506   4.131   2.646  10.196  0.0759  0.2720 -0.4973
 7015SOL    HW132507   4.131   2.619  10.287  0.6907  1.9222 -0.0130
 7015SOL    HW232508   4.093   2.564  10.164  1.1606  0.2479 -1.7115
 7016SOL     OW32509   2.065   0.557  14.312  0.4521  0.3101  0.3335
 7016SOL    HW132510   2.078   0.613  14.236 -0.0192  0.5710  0.4445
 7016SOL    HW232511   1.981   0.520  14.285  1.1775 -0.4451 -0.8531
 7017SOL     OW32512   4.091   0.630   4.304  0.2433  0.3638  0.4658
 7017SOL    HW132513   4.149   0.610   4.230  3.3262  1.4322  2.6145
 7017SOL    HW232514   4.123   0.584   4.382 -0.8016 -0.7080  0.2677
 7018SOL     OW32515   3.196   4.366   2.836  0.4025 -0.5055  0.1313
 7018SOL    HW132516   3.184   4.279   2.872 -2.5466 -1.1516 -2.4209
 7018SOL    HW232517   3.261   4.348   2.768 -0.0882 -0.6761 -0.2934
 7019SOL     OW32518   1.772   1.060   0.596 -0.1879 -0.1739 -0.1590
 7019SOL    HW132519   1.780   1.119   0.521 -2.6978  3.9140  2.8186
 7019SOL    HW232520   1.691   1.094   0.634  1.6817  0.5403  3.1809
 7020SOL     OW32521   3.328   2.959   9.493  0.2572 -0.1168 -1.4073
 7020SOL    HW132522   3.246   3.001   9.518 -0.2154 -2.0723  0.3855
 7020SOL    HW232523   3.332   2.877   9.543 -1.6065  1.6688  1.6486
 7021SOL     OW32524   3.224   1.162   7.267 -0.2695 -0.5964 -0.2779
 7021SOL    HW132525   3.245   1.165   7.173  0.6604 -1.4023 -0.0872
 7021SOL    HW232526   3.247   1.250   7.297 -0.2837  0.0691 -2.1862
 7022SOL     OW32527   2.446   3.925   4.768  0.1081 -0.5076 -0.9220
 7022SOL    HW132528   2.437   4.003   4.823  0.8876  0.9645 -2.8880
 7022SOL    HW232529   2.463   3.856   4.832  2.2312  2.6481  1.9015
 7023SOL     OW32530   2.409   4.629   1.810 -1.0881 -0.3127 -0.1555
 7023SOL    HW132531   2.338   4.662   1.866 -2.7199  0.5026 -2.7281
 7023SOL    HW232532   2.368   4.653   1.727 -1.0002  0.5783  0.0555
 7024SOL     OW32533   3.475   1.529   6.670  0.2558 -0.2213  0.1305
 7024SOL    HW132534   3.446   1.596   6.608 -1.1922 -1.3566 -0.4137
 7024SOL    HW232535   3.555   1.569   6.705  0.3630 -0.3458  0.0276
 7025SOL     OW32536   2.323   4.034   7.527 -0.3575 -0.3967 -0.5418
 7025SOL    HW132537   2.337   4.119   7.485  0.7148 -0.7725 -0.9565
 7025SOL    HW232538   2.391   4.041   7.595  0.5524  1.4083 -1.6405
 7026SOL     OW32539   3.559   1.821   2.156 -0.0296  0.0964 -0.7662
 7026SOL    HW132540   3.537   1.828   2.063  0.5939  2.1430 -0.7510
 7026SOL    HW232541   3.603   1.904   2.170  1.5477 -0.7732 -0.6093
 7027SOL     OW32542   0.469   1.800   4.998 -0.3304  0.3905  0.4720
 7027SOL    HW132543   0.408   1.740   4.955  0.3865  1.8891 -2.6242
 7027SOL    HW232544   0.436   1.882   4.962 -0.7901  0.5976  1.3730
 7028SOL     OW32545   0.534   2.138   4.492 -0.2030 -0.1959 -0.3144
 7028SOL    HW132546   0.444   2.170   4.504  0.7239  1.5507  2.0369
 7028SOL    HW232547   0.560   2.131   4.584 -3.3465 -0.4848  0.5471
 7029SOL     OW32548   1.588   0.936  12.002 -0.0406  0.0867  0.6988
 7029SOL    HW132549   1.570   1.025  12.031 -0.2008  0.1271  0.4681
 7029SOL    HW232550   1.584   0.892  12.088 -2.1644 -0.4937  0.3029
 7030SOL     OW32551   3.379   1.572  12.544  0.4663  0.1130 -0.0156
 7030SOL    HW132552   3.370   1.577  12.449 -0.9081  1.8288  0.1994
 7030SOL    HW232553   3.404   1.664  12.551 -1.4241  0.5360  1.3332
 7031SOL     OW32554   2.395   2.793   7.739 -0.0070 -0.4354  0.0069
 7031SOL    HW132555   2.431   2.782   7.828  1.7955  0.7896 -0.5485
 7031SOL    HW232556   2.308   2.771   7.771 -0.5362  2.0925  0.3254
 7032SOL     OW32557   1.611   1.517  13.939 -0.2360 -0.5051  0.4697
 7032SOL    HW132558   1.608   1.583  13.870 -1.2389 -0.0675  0.9324
 7032SOL    HW232559   1.698   1.523  13.977 -0.3833  1.4232  0.5079
 7033SOL     OW32560   1.294   3.001   6.535 -0.4662  0.3466  0.0449
 7033SOL    HW132561   1.224   3.011   6.599  0.9006 -0.4933  1.6496
 7033SOL    HW232562   1.283   2.908   6.519 -0.8609  0.0630  1.9589
 7034SOL     OW32563   3.306   0.008   5.481  0.9046 -0.0078 -0.2237
 7034SOL    HW132564   3.250   0.075   5.440 -0.2258 -1.4353 -1.0062
 7034SOL    HW232565   3.393   0.049   5.479  0.4957  0.8428 -0.8674
 7035SOL     OW32566   2.761   1.865   5.252 -0.2476  0.8296 -0.0442
 7035SOL    HW132567   2.733   1.830   5.167  1.2917  1.1847 -0.6979
 7035SOL    HW232568   2.677   1.899   5.282  0.1386  0.8786  0.9971
 7036SOL     OW32569   1.328   1.023   8.745  0.2277  0.4345 -0.0664
 7036SOL    HW132570   1.389   1.082   8.789  0.8786 -0.4867  0.2598
 7036SOL    HW232571   1.276   0.981   8.814 -0.8464 -0.9284 -1.7212
 7037SOL     OW32572   3.606   3.789   4.099 -0.6040 -0.1001 -0.3964
 7037SOL    HW132573   3.659   3.801   4.177  1.9287  1.1345 -2.3056
 7037SOL    HW232574   3.655   3.718   4.059  1.0885  0.1291  1.2931
 7038SOL     OW32575   2.568   3.048   7.903  0.3206 -0.6576 -0.1803
 7038SOL    HW132576   2.643   2.998   7.934  0.1029 -0.4620  0.6400
 7038SOL    HW232577   2.496   3.000   7.945  0.3193  0.1975  0.7909
 7039SOL     OW32578   0.427   0.354  12.966  0.3157  0.0040 -0.1178
 7039SOL    HW132579   0.486   0.279  12.974  2.6141  1.6284 -1.8086
 7039SOL    HW232580   0.347   0.337  13.015 -0.7629  3.9735 -0.5013
 7040SOL     OW32581   3.933   2.805   2.427  0.1571 -0.7482  0.7958
 7040SOL    HW132582   3.932   2.889   2.471  3.0643  0.5098 -1.5594
 7040SOL    HW232583   3.856   2.808   2.370  1.2162 -2.1918 -0.7403
 7041SOL     OW32584   2.679   0.745   9.571  0.0185 -0.8023  0.6408
 7041SOL    HW132585   2.721   0.752   9.657  0.3593 -0.5966  0.4601
 7041SOL    HW232586   2.738   0.798   9.517 -1.3415  2.7556  2.6308
 7042SOL     OW32587   1.842   2.385   5.262  0.0744 -0.5785  0.6488
 7042SOL    HW132588   1.901   2.338   5.202 -0.7346  0.0549 -0.6627
 7042SOL    HW232589   1.860   2.344   5.346  1.5986 -0.9608  0.1311
 7043SOL     OW32590   1.681   3.914   5.237  0.3684  0.0296  0.5388
 7043SOL    HW132591   1.748   3.849   5.216  0.2082 -0.4039  1.3512
 7043SOL    HW232592   1.721   3.965   5.307 -0.2651 -1.3120  1.8814
 7044SOL     OW32593   1.958   3.055   3.432  0.5277 -0.2410  0.5006
 7044SOL    HW132594   2.018   3.130   3.435 -0.0686  0.2684 -0.0235
 7044SOL    HW232595   1.991   3.001   3.503  0.4338 -2.6836 -1.3009
 7045SOL     OW32596   4.385   1.130   9.133  0.2398  0.2115  0.0015
 7045SOL    HW132597   4.331   1.208   9.135 -0.4068 -0.2172 -0.8189
 7045SOL    HW232598   4.412   1.127   9.225  0.0686  0.2287  0.0523
 7046SOL     OW32599   1.808   0.859   9.519  0.6902  0.1586 -0.6439
 7046SOL    HW132600   1.772   0.925   9.459  1.2682 -0.1722 -1.3597
 7046SOL    HW232601   1.764   0.863   9.604  1.9624  2.7226 -0.0974
 7047SOL     OW32602   3.722   2.160   0.047  0.4569 -0.0672 -0.2114
 7047SOL    HW132603   3.782   2.089   0.024 -0.7693 -1.2494  0.2163
 7047SOL    HW232604   3.640   2.123   0.014 -0.0252  1.5394 -0.7708
 7048SOL     OW32605   3.606   2.240   7.130 -0.0286  0.1046  0.2316
 7048SOL    HW132606   3.649   2.239   7.215  0.0660 -0.8060  0.1697
 7048SOL    HW232607   3.561   2.324   7.143 -1.8867 -0.7452 -0.7763
 7049SOL     OW32608   1.233   2.016   1.698  0.4621  0.2175 -0.5055
 7049SOL    HW132609   1.283   2.096   1.713  0.8762 -0.0225 -0.6166
 7049SOL    HW232610   1.175   2.020   1.775  1.3286 -0.1773  0.1668
 7050SOL     OW32611   0.185   4.673   9.980  0.2412 -1.0205 -0.3301
 7050SOL    HW132612   0.105   4.714  10.014 -0.1582 -1.3379 -0.8712
 7050SOL    HW232613   0.159   4.586  10.011 -0.9223 -0.0445  1.5016
 7051SOL     OW32614   2.330   0.711   5.483  0.1394 -0.2321  0.7032
 7051SOL    HW132615   2.250   0.694   5.533 -2.1214  0.3625 -2.6954
 7051SOL    HW232616   2.286   0.725   5.399  0.5026  0.5442  0.6368
 7052SOL     OW32617   3.440   2.165   4.486 -0.1498  0.7608 -0.6144
 7052SOL    HW132618   3.443   2.198   4.396 -0.8416  1.9062 -0.2283
 7052SOL    HW232619   3.452   2.071   4.474 -1.3711  0.4162  0.8743
 7053SOL     OW32620   2.589   3.346   5.183 -0.6218 -0.2197  0.7129
 7053SOL    HW132621   2.536   3.426   5.185  0.6034  0.5841  1.0302
 7053SOL    HW232622   2.522   3.277   5.184  0.5283 -1.3541 -1.2420
 7054SOL     OW32623   0.579   2.872   5.204 -0.3416  0.0993 -0.3507
 7054SOL    HW132624   0.640   2.826   5.147 -1.5008 -2.2504  0.3129
 7054SOL    HW232625   0.587   2.964   5.180 -0.7596 -0.2333 -1.8210
 7055SOL     OW32626   3.854   1.074   2.615 -0.2887 -0.5857 -0.2234
 7055SOL    HW132627   3.883   1.155   2.574  1.2928 -0.5122  1.0306
 7055SOL    HW232628   3.894   1.007   2.560  1.4796  1.6706 -1.6546
 7056SOL     OW32629   4.255   2.364  17.589  0.3246 -0.3216  0.1385
 7056SOL    HW132630   4.224   2.274  17.575 -1.4231  0.4727 -1.1622
 7056SOL    HW232631   4.301   2.384  17.508  0.9576  1.9197  1.0438
 7057SOL     OW32632   0.355   0.652   7.640 -0.8714  0.0958 -0.1761
 7057SOL    HW132633   0.429   0.711   7.654 -0.4607  0.0061 -1.9088
 7057SOL    HW232634   0.375   0.614   7.554  1.0752 -1.3850  0.9343
 7058SOL     OW32635   3.943   3.775   3.233 -0.5459  0.1116  0.0869
 7058SOL    HW132636   3.996   3.721   3.174 -0.6823  0.0946 -0.0209
 7058SOL    HW232637   3.995   3.772   3.313 -0.5280  1.3485  0.1198
 7059SOL     OW32638   4.559   4.687  10.295  0.0495  0.4138  0.3283
 7059SOL    HW132639   4.476   4.672  10.341 -0.1930  1.1217  0.1102
 7059SOL    HW232640   4.632   4.643  10.340  0.0583  0.8995  0.7841
 7060SOL     OW32641   1.709   4.062   1.773 -0.6771  0.1866  0.0534
 7060SOL    HW132642   1.730   4.126   1.841 -0.8832 -1.4641  1.6739
 7060SOL    HW232643   1.778   4.066   1.707  0.2697  2.0070  1.1590
 7061SOL     OW32644   0.055   0.315   6.767  0.1931  0.0971 -0.4111
 7061SOL    HW132645   0.063   0.237   6.711  1.2354 -1.4652  1.9053
 7061SOL    HW232646   4.684   0.317   6.773  0.2190  1.7505 -0.4939
 7062SOL     OW32647   2.486   3.070  12.465  0.2167 -0.7056 -0.1013
 7062SOL    HW132648   2.504   2.996  12.523  0.5058 -0.6002 -0.0592
 7062SOL    HW232649   2.528   3.137  12.518  1.4125 -0.8668 -0.8586
 7063SOL     OW32650   0.305   3.035   6.522  0.1936  0.7240  0.3237
 7063SOL    HW132651   0.319   3.116   6.474  0.0223  0.3651 -0.3299
 7063SOL    HW232652   0.260   3.065   6.601  0.7986  2.8624 -0.1548
 7064SOL     OW32653   2.298   4.677   1.558  0.1962 -0.3514  0.1711
 7064SOL    HW132654   2.340   0.035   1.531  0.4482 -0.3947  0.4286
 7064SOL    HW232655   2.211   4.677   1.518  0.1348 -0.6712  0.3074
 7065SOL     OW32656   4.008   1.926   9.224  1.0787 -0.7414 -0.5536
 7065SOL    HW132657   4.062   1.954   9.150  0.8237  2.3260  0.4164
 7065SOL    HW232658   3.955   2.005   9.234  0.6418 -1.1654  0.5299
 7066SOL     OW32659   3.481   3.368   5.983 -0.5815 -0.0916 -0.2587
 7066SOL    HW132660   3.458   3.383   5.891  1.3260  1.5612 -0.4526
 7066SOL    HW232661   3.420   3.300   6.011 -0.6531 -0.8058 -2.1210
 7067SOL     OW32662   1.791   2.505   7.312  0.0425 -0.1571  0.0931
 7067SOL    HW132663   1.790   2.434   7.248 -0.4473 -1.4706  1.5566
 7067SOL    HW232664   1.697   2.521   7.319  0.1610  0.3568  0.5574
 7068SOL     OW32665   0.343   0.243   1.953 -0.1508  0.0880  0.2629
 7068SOL    HW132666   0.261   0.224   1.908  0.6210  0.4890 -1.3069
 7068SOL    HW232667   0.389   0.293   1.886  2.5989 -0.3777  1.7917
 7069SOL     OW32668   3.874   2.672   7.162 -0.2865 -0.5200  0.0441
 7069SOL    HW132669   3.868   2.765   7.140  2.5724  0.0531  1.6498
 7069SOL    HW232670   3.910   2.676   7.250 -1.8237 -3.0196  0.7774
 7070SOL     OW32671   3.817   0.668  13.776  0.1032  0.5907  0.0342
 7070SOL    HW132672   3.906   0.666  13.813 -1.1044 -1.6705  2.7711
 7070SOL    HW232673   3.816   0.763  13.763 -1.3372  0.4354 -0.9622
 7071SOL     OW32674   4.163   3.129   6.190  0.8004  0.0928  0.5658
 7071SOL    HW132675   4.083   3.134   6.242  0.0646  2.4264 -0.8177
 7071SOL    HW232676   4.143   3.193   6.121  0.8271 -1.5210 -0.9251
 7072SOL     OW32677   0.674   3.518   7.457 -0.3697 -0.2469  0.0265
 7072SOL    HW132678   0.597   3.515   7.513 -0.8586  0.3577 -0.6072
 7072SOL    HW232679   0.715   3.593   7.500  0.8185  1.3796 -3.8863
 7073SOL     OW32680   3.240   3.654   3.687 -0.5810  0.5103 -0.0909
 7073SOL    HW132681   3.243   3.612   3.773  2.1935 -1.6951 -1.2386
 7073SOL    HW232682   3.280   3.591   3.626  0.7701  1.8435 -0.5916
 7074SOL     OW32683   2.732   3.739   8.898 -0.3115 -0.3256  0.4181
 7074SOL    HW132684   2.701   3.809   8.956 -1.7397 -0.2078 -0.4586
 7074SOL    HW232685   2.670   3.670   8.922  0.5761 -1.1612  0.2727
 7075SOL     OW32686   1.747   0.315  13.414  0.2265  0.4567  0.4567
 7075SOL    HW132687   1.827   0.366  13.402  0.7568 -0.3343  0.6884
 7075SOL    HW232688   1.700   0.384  13.462 -3.1833 -1.2108 -0.5366
 7076SOL     OW32689   3.451   3.649  11.354 -0.5425 -0.2296 -0.6496
 7076SOL    HW132690   3.462   3.556  11.372  0.5492 -0.3359 -1.8344
 7076SOL    HW232691   3.365   3.657  11.395 -1.9034 -0.6051 -3.4543
 7077SOL     OW32692   1.138   0.643   8.907 -0.1708 -0.1444  0.6552
 7077SOL    HW132693   1.175   0.631   8.820 -3.0913 -2.3550 -0.2761
 7077SOL    HW232694   1.069   0.708   8.892  0.4552 -0.0278 -1.7033
 7078SOL     OW32695   1.740   1.445  16.531 -0.7261 -0.7400  0.1202
 7078SOL    HW132696   1.777   1.454  16.618 -0.3093  0.3469 -0.1655
 7078SOL    HW232697   1.684   1.522  16.543  0.2427  0.2683 -1.7929
 7079SOL     OW32698   3.213   0.436  11.231 -0.0298  0.6227 -0.1888
 7079SOL    HW132699   3.288   0.400  11.280 -0.3025 -0.3691 -0.5093
 7079SOL    HW232700   3.140   0.376  11.246 -0.4343  1.8856  2.7873
 7080SOL     OW32701   1.493   1.049  10.856  0.4391  0.4824  0.0600
 7080SOL    HW132702   1.493   1.129  10.909  0.3536  1.3912 -1.2800
 7080SOL    HW232703   1.419   1.056  10.795 -0.8494 -0.6083  1.5044
 7081SOL     OW32704   4.162   2.003   7.353 -0.3878  0.6232  0.6138
 7081SOL    HW132705   4.106   2.005   7.430 -0.5921  0.3402  0.4727
 7081SOL    HW232706   4.134   2.085   7.312 -0.6876 -0.3346 -1.1126
 7082SOL     OW32707   0.678   3.011   0.302 -0.9604 -0.1895 -0.1614
 7082SOL    HW132708   0.665   2.942   0.237 -2.9223  0.3462 -0.3085
 7082SOL    HW232709   0.593   3.054   0.303 -0.7589  0.2101 -0.0316
 7083SOL     OW32710   1.863   1.207   5.370 -0.1222  0.0370  0.2116
 7083SOL    HW132711   1.935   1.266   5.394  0.0914  0.0197 -0.3841
 7083SOL    HW232712   1.836   1.235   5.282 -1.0185 -3.0273 -0.4940
 7084SOL     OW32713   2.781   0.912   3.524 -0.3139  0.2900 -0.5186
 7084SOL    HW132714   2.759   0.956   3.442 -1.3759  0.7951  0.0442
 7084SOL    HW232715   2.712   0.930   3.587 -0.6319 -0.6536 -0.6000
 7085SOL     OW32716   2.391   0.210   1.461 -0.0023  0.2237 -0.0257
 7085SOL    HW132717   2.440   0.292   1.449  0.0340  0.5407  2.3457
 7085SOL    HW232718   2.319   0.232   1.403 -1.1711  2.7782  2.4247
 7086SOL     OW32719   4.219   0.775  10.829 -0.2374  0.0061  0.1485
 7086SOL    HW132720   4.181   0.691  10.807 -0.9166  0.5621 -0.8215
 7086SOL    HW232721   4.152   0.799  10.892  0.1232  1.9631 -0.1796
 7087SOL     OW32722   2.054   4.610  13.968 -0.3608  0.2298  0.0495
 7087SOL    HW132723   1.980   4.668  13.986  0.6066  1.2093  0.8057
 7087SOL    HW232724   2.090   4.645  13.886  4.3929 -2.8242  0.8272
 7088SOL     OW32725   2.551   2.919   5.643 -0.0283 -0.1915 -0.2011
 7088SOL    HW132726   2.573   3.011   5.659 -1.8840  0.2972 -0.4253
 7088SOL    HW232727   2.617   2.905   5.576 -1.0561 -1.0897 -1.0235
 7089SOL     OW32728   3.087   2.085  14.511  0.5237 -0.3004  0.4334
 7089SOL    HW132729   3.099   1.990  14.521 -0.5507 -0.3871  0.9376
 7089SOL    HW232730   3.002   2.085  14.555 -0.1381  0.2441 -0.8737
 7090SOL     OW32731   1.045   3.903   2.243 -0.6174 -0.5819  0.1128
 7090SOL    HW132732   0.987   3.834   2.210 -0.0074 -1.2378  0.4204
 7090SOL    HW232733   0.994   3.936   2.317 -1.7986  0.5561 -1.2110
 7091SOL     OW32734   0.905   1.899   8.236 -0.0104 -0.0228 -0.3668
 7091SOL    HW132735   0.858   1.871   8.314 -0.0886 -0.7187 -0.6567
 7091SOL    HW232736   0.966   1.969   8.262 -1.7114  2.0544 -1.9808
 7092SOL     OW32737   3.262   0.863   1.369 -0.0642 -0.0434  0.4287
 7092SOL    HW132738   3.278   0.911   1.287  0.2244  0.7194  0.9320
 7092SOL    HW232739   3.166   0.863   1.364 -0.1202 -1.6999  1.6556
 7093SOL     OW32740   0.652   3.386  17.321  0.5725 -0.2542 -0.5434
 7093SOL    HW132741   0.578   3.369  17.380 -0.9332  2.7217 -1.5420
 7093SOL    HW232742   0.721   3.363  17.382 -1.4106 -2.5760  0.8044
 7094SOL     OW32743   0.740   3.167   7.368 -0.2136 -0.2475 -0.1070
 7094SOL    HW132744   0.702   3.185   7.454  0.9603 -0.7337  0.5160
 7094SOL    HW232745   0.770   3.077   7.378 -1.8932 -0.5551  2.0080
 7095SOL     OW32746   0.558   3.765  10.252  1.0414 -0.3858  0.1901
 7095SOL    HW132747   0.503   3.816  10.311 -1.1509 -0.8156 -1.5098
 7095SOL    HW232748   0.521   3.786  10.167  0.0304  1.0456  0.9966
 7096SOL     OW32749   3.995   4.234   6.889  0.5078  0.7793  0.7946
 7096SOL    HW132750   3.940   4.260   6.963 -1.0553 -0.5639  0.1214
 7096SOL    HW232751   3.971   4.293   6.817  0.2649  0.1243  0.3426
 7097SOL     OW32752   4.435   3.465   2.860  0.7136 -0.2175 -0.3935
 7097SOL    HW132753   4.509   3.496   2.809  1.1103 -0.1064  0.2402
 7097SOL    HW232754   4.467   3.486   2.948  2.6028 -0.8212 -0.9253
 7098SOL     OW32755   1.722   0.332  16.852  0.1753  0.1097  0.0020
 7098SOL    HW132756   1.802   0.338  16.905 -0.3733 -0.4221  0.8993
 7098SOL    HW232757   1.690   0.246  16.879  0.7775 -0.0672  0.1604
 7099SOL     OW32758   1.794   2.617   2.626  0.3174 -0.3242  0.5300
 7099SOL    HW132759   1.871   2.560   2.631 -0.3825 -1.2595  0.6952
 7099SOL    HW232760   1.754   2.616   2.713  0.7850 -0.4156  0.7405
 7100SOL     OW32761   0.470   3.566   5.672  0.2937  0.5032 -0.2928
 7100SOL    HW132762   0.482   3.601   5.760 -3.2080  0.8385  0.0527
 7100SOL    HW232763   0.454   3.472   5.688 -1.2556  0.9528  0.8170
 7101SOL     OW32764   1.250   3.025   3.188  0.1565 -0.2071 -0.0001
 7101SOL    HW132765   1.184   2.973   3.234  0.4991 -0.7793 -0.1561
 7101SOL    HW232766   1.235   2.995   3.098 -0.1864  0.5466 -0.2002
 7102SOL     OW32767   2.075   1.106   8.859 -0.6593 -0.3528 -0.3876
 7102SOL    HW132768   2.124   1.062   8.791 -0.2111 -0.7990  0.2335
 7102SOL    HW232769   2.112   1.077   8.942 -3.0595 -0.9170  0.4828
 7103SOL     OW32770   2.225   3.207   2.454 -0.4635  0.0129  0.4348
 7103SOL    HW132771   2.273   3.164   2.384 -0.6016 -3.0089  2.1815
 7103SOL    HW232772   2.264   3.294   2.455  1.6723 -0.9329 -0.4857
 7104SOL     OW32773   3.886   1.190   8.878  0.9209  0.1696  0.2742
 7104SOL    HW132774   3.973   1.155   8.861  1.6843  1.5273  1.4257
 7104SOL    HW232775   3.828   1.144   8.818 -1.0651  4.0930 -0.8476
 7105SOL     OW32776   3.553   0.676  12.477  0.1013 -0.2736 -0.0619
 7105SOL    HW132777   3.642   0.688  12.509 -0.1940  1.3219  0.1591
 7105SOL    HW232778   3.541   0.581  12.477 -1.9069 -0.0164  0.9378
 7106SOL     OW32779   1.657   1.505   0.951  0.6409  0.0621 -0.2589
 7106SOL    HW132780   1.656   1.493   1.046 -0.0094  2.0720 -0.0241
 7106SOL    HW232781   1.727   1.568   0.934  1.0952 -0.2919  0.2760
 7107SOL     OW32782   0.820   2.933   7.548 -0.3259  0.0651  0.4672
 7107SOL    HW132783   0.846   2.990   7.620  0.4146  0.4386 -0.0964
 7107SOL    HW232784   0.893   2.871   7.548 -1.2701 -1.0439 -1.9896
 7108SOL     OW32785   2.528   2.422   6.951  0.4274 -0.7198  0.4201
 7108SOL    HW132786   2.515   2.498   7.007 -1.3179 -1.0916  0.5270
 7108SOL    HW232787   2.508   2.462   6.866 -1.4647  1.6648  1.9971
 7109SOL     OW32788   4.539   3.072   1.264 -0.5000 -0.2025  0.8745
 7109SOL    HW132789   4.568   3.142   1.323  1.6985 -1.2114  1.0216
 7109SOL    HW232790   4.521   3.124   1.186  1.5755  1.1536  1.2932
 7110SOL     OW32791   0.027   1.370   4.053 -0.2200  0.7010 -0.4458
 7110SOL    HW132792   0.012   1.308   4.124 -3.0439 -0.0990 -1.7170
 7110SOL    HW232793   0.041   1.453   4.099 -2.4212  0.2509  1.0216
 7111SOL     OW32794   4.688   2.753   6.986 -0.1029 -0.9061  0.1965
 7111SOL    HW132795   4.630   2.774   7.059 -0.4940  1.4600 -0.7795
 7111SOL    HW232796   0.022   2.829   6.979 -0.2751 -0.9637 -1.9947
 7112SOL     OW32797   0.580   2.682  11.251 -0.1296 -0.1530  0.6730
 7112SOL    HW132798   0.628   2.603  11.226  0.6380  0.8432 -0.9869
 7112SOL    HW232799   0.495   2.644  11.271 -0.9785  1.3585 -0.0350
 7113SOL     OW32800   3.177   3.832  15.253 -0.2430  0.4145  0.7454
 7113SOL    HW132801   3.263   3.871  15.237 -1.5136  2.6802 -0.5929
 7113SOL    HW232802   3.200   3.741  15.235 -2.5266 -0.0899  0.3969
 7114SOL     OW32803   0.303   3.753   7.355 -0.9403  0.2972 -0.4458
 7114SOL    HW132804   0.331   3.763   7.446  1.4496  0.7642 -1.2210
 7114SOL    HW232805   0.221   3.801   7.346 -0.5079  1.0380 -0.4725
 7115SOL     OW32806   1.502   2.639   8.369 -0.1262 -0.2106  0.1779
 7115SOL    HW132807   1.474   2.602   8.452  0.2627 -0.0147  0.3971
 7115SOL    HW232808   1.421   2.681   8.340 -0.4775 -0.8633  0.2123
 7116SOL     OW32809   0.715   3.538  10.215 -0.6148  0.3581 -0.1156
 7116SOL    HW132810   0.650   3.608  10.209 -0.3827  0.5921  0.0915
 7116SOL    HW232811   0.729   3.551  10.309  0.6581  0.6321 -0.3443
 7117SOL     OW32812   1.031   1.620  10.146 -0.1136 -0.5602 -0.0325
 7117SOL    HW132813   1.031   1.600  10.053  3.5150  0.0755 -0.1421
 7117SOL    HW232814   0.965   1.690  10.145  0.6624  0.1895  0.8823
 7118SOL     OW32815   3.660   2.874   6.662  0.0923 -0.2189 -0.2074
 7118SOL    HW132816   3.673   2.854   6.754 -2.5778 -3.7177 -0.5855
 7118SOL    HW232817   3.729   2.940   6.652  0.0839 -0.4266 -1.7404
 7119SOL     OW32818   1.336   3.530   2.295 -0.3873  0.0786 -0.0789
 7119SOL    HW132819   1.310   3.622   2.303 -0.5276  0.2167 -2.0048
 7119SOL    HW232820   1.353   3.503   2.385  1.3392  1.0631 -0.1033
 7120SOL     OW32821   0.415   0.189   7.441 -0.3228 -0.1945 -0.5670
 7120SOL    HW132822   0.459   0.248   7.379  2.5746 -0.4878  1.2085
 7120SOL    HW232823   0.354   0.147   7.380 -2.1802  1.2791  0.2749
 7121SOL     OW32824   3.292   2.216  16.884  0.3190 -0.0549 -0.3243
 7121SOL    HW132825   3.301   2.235  16.977  1.5882 -1.3155 -0.1966
 7121SOL    HW232826   3.372   2.254  16.850 -0.0188 -1.8902 -3.2408
 7122SOL     OW32827   0.003   4.483  12.493 -0.0800 -0.0673  0.0020
 7122SOL    HW132828   4.671   4.497  12.417 -0.4558 -3.3013 -0.3408
 7122SOL    HW232829   4.711   4.557  12.552 -1.5004 -1.0319  0.8617
 7123SOL     OW32830   4.569   1.200   0.277  0.3000  0.3095  0.3604
 7123SOL    HW132831   4.553   1.268   0.342 -0.7462  1.0621 -0.6926
 7123SOL    HW232832   4.610   1.254   0.209 -1.0017 -0.3115 -0.9195
 7124SOL     OW32833   2.477   3.621   2.853  0.7855 -0.3941 -0.5878
 7124SOL    HW132834   2.561   3.583   2.828  1.5422  1.8937 -1.5537
 7124SOL    HW232835   2.437   3.564   2.919  2.2047  1.6273  2.0298
 7125SOL     OW32836   2.224   1.069   8.329  0.3126  0.6493 -0.0336
 7125SOL    HW132837   2.209   0.986   8.283 -0.1994  0.6645  0.1026
 7125SOL    HW232838   2.289   1.117   8.278 -0.0043  1.6170  0.4620
 7126SOL     OW32839   3.810   2.717   7.500  0.2399  0.3121  0.1479
 7126SOL    HW132840   3.816   2.634   7.548  0.6268 -0.7724 -1.7771
 7126SOL    HW232841   3.904   2.731   7.503  0.2958  0.1203 -0.5653
 7127SOL     OW32842   3.584   4.478   7.038  0.0684 -0.7531  0.5903
 7127SOL    HW132843   3.494   4.500   7.014 -0.4329 -2.0699  1.2604
 7127SOL    HW232844   3.623   4.461   6.952 -0.0556  1.3444  0.1268
 7128SOL     OW32845   4.678   2.333   5.804 -0.5295  0.0909  0.2253
 7128SOL    HW132846   0.028   2.293   5.849  0.0457  1.0770  0.1718
 7128SOL    HW232847   4.709   2.424   5.808  0.3306 -0.0345 -3.5397
 7129SOL     OW32848   3.216   3.081   6.240  0.1939 -0.2967 -0.2494
 7129SOL    HW132849   3.230   3.171   6.209  0.3694 -0.1555  0.2320
 7129SOL    HW232850   3.177   3.043   6.161 -1.0116  0.9416 -0.2387
 7130SOL     OW32851   3.905   0.364   6.142 -0.0739  0.4280  0.1432
 7130SOL    HW132852   3.933   0.273   6.135 -0.0226  0.5037 -0.6910
 7130SOL    HW232853   3.840   0.357   6.211  0.2348  0.2476  0.4150
 7131SOL     OW32854   0.200   4.052  14.110  0.9586 -0.7679 -0.0268
 7131SOL    HW132855   0.183   3.967  14.151 -1.1005 -2.1906 -3.8700
 7131SOL    HW232856   0.141   4.050  14.034 -0.7833 -0.2890  1.3170
 7132SOL     OW32857   2.906   1.654   4.889 -0.0418 -0.2923  0.4470
 7132SOL    HW132858   2.895   1.598   4.812 -0.5566  1.2317 -0.5995
 7132SOL    HW232859   2.936   1.733   4.844 -1.3121  1.4084  2.6098
 7133SOL     OW32860   3.507   1.148   7.695 -0.3107 -0.8143  0.3551
 7133SOL    HW132861   3.427   1.200   7.686 -0.8200 -0.6613  5.8562
 7133SOL    HW232862   3.564   1.224   7.708  1.0727 -1.4842 -1.6298
 7134SOL     OW32863   3.234   4.196   7.486 -0.1789  0.6950  0.2486
 7134SOL    HW132864   3.315   4.235   7.455 -0.7287  1.4224 -0.2729
 7134SOL    HW232865   3.223   4.238   7.571  1.7577  1.2116  0.2475
 7135SOL     OW32866   0.795   0.242   7.162 -0.3727 -0.4545  0.0683
 7135SOL    HW132867   0.829   0.155   7.144 -0.2181  0.2132 -2.8811
 7135SOL    HW232868   0.874   0.293   7.147 -0.3427  0.0459  1.9605
 7136SOL     OW32869   4.504   2.024   9.263 -0.1826  0.3429  0.6232
 7136SOL    HW132870   4.588   2.030   9.219 -0.1749 -1.5654  0.3959
 7136SOL    HW232871   4.473   2.112   9.241 -1.8210 -1.3270 -3.6666
 7137SOL     OW32872   0.048   3.884   9.745  0.6391 -0.4058  0.1400
 7137SOL    HW132873   4.713   3.957   9.767  0.6263  0.0904 -1.5507
 7137SOL    HW232874   0.085   3.909   9.661 -1.4658 -0.6734 -0.8699
 7138SOL     OW32875   3.900   1.091   5.969 -0.2096  0.1124  0.5623
 7138SOL    HW132876   3.885   1.049   6.054 -2.1284 -0.7989 -0.2204
 7138SOL    HW232877   3.981   1.141   5.977 -1.0088  1.7685 -1.6685
 7139SOL     OW32878   3.899   3.150   8.919 -0.7298 -0.0963 -0.1532
 7139SOL    HW132879   3.939   3.163   9.006 -1.4254  1.2148 -0.0215
 7139SOL    HW232880   3.868   3.061   8.938 -0.8844  0.0528  0.2979
 7140SOL     OW32881   0.760   0.263   6.183  0.5372  0.1879  0.1484
 7140SOL    HW132882   0.714   0.255   6.099 -1.5036  1.4583  1.1363
 7140SOL    HW232883   0.702   0.206   6.234  2.3767 -1.2681  0.5885
 7141SOL     OW32884   3.297   0.433  11.834  0.5260  0.6472  0.4637
 7141SOL    HW132885   3.204   0.454  11.821  0.7968  1.6200  0.0762
 7141SOL    HW232886   3.309   0.353  11.783  0.6022  0.0357  1.4317
 7142SOL     OW32887   0.316   1.696   0.709 -0.1756  0.1805 -0.2013
 7142SOL    HW132888   0.374   1.693   0.785 -3.5785 -1.2957  2.3210
 7142SOL    HW232889   0.245   1.635   0.728  0.4261  0.0628  1.6722
 7143SOL     OW32890   2.202   0.963  11.561  0.0704  0.1694  0.0828
 7143SOL    HW132891   2.223   0.869  11.556  0.2009  0.2355 -0.5828
 7143SOL    HW232892   2.229   0.996  11.647  1.1814  1.6121 -0.8289
 7144SOL     OW32893   4.450   4.688   0.824  0.0656 -0.1692 -0.5708
 7144SOL    HW132894   4.514   4.708   0.892 -0.6988 -1.6319  0.5701
 7144SOL    HW232895   4.507   4.676   0.749 -2.3399 -2.7078 -2.0141
 7145SOL     OW32896   3.078   3.693   6.850  0.0940  0.3092  0.0631
 7145SOL    HW132897   3.034   3.709   6.766  0.2268 -1.9383 -0.4568
 7145SOL    HW232898   3.106   3.604   6.828  1.3584  1.1635 -1.7472
 7146SOL     OW32899   1.560   2.620   1.454  0.2688  0.0178 -0.0106
 7146SOL    HW132900   1.499   2.694   1.458 -0.0691 -0.2681  0.1409
 7146SOL    HW232901   1.558   2.579   1.367 -0.5921 -0.5724  0.2886
 7147SOL     OW32902   4.193   2.240   6.842  0.3030 -0.2129  0.3598
 7147SOL    HW132903   4.194   2.199   6.928  1.6359 -2.3110 -0.6601
 7147SOL    HW232904   4.107   2.280   6.832  0.1588 -0.2059  1.6407
 7148SOL     OW32905   0.766   2.154  16.799 -0.1425 -0.0055  0.2014
 7148SOL    HW132906   0.844   2.101  16.784  0.6635  1.7565 -1.6890
 7148SOL    HW232907   0.808   2.239  16.813 -0.1681 -0.2566  1.8056
 7149SOL     OW32908   2.916   0.738   9.186  0.0007 -0.0302 -0.0415
 7149SOL    HW132909   2.865   0.672   9.140 -2.5518  0.4037  2.1611
 7149SOL    HW232910   3.008   0.716   9.169 -0.1634 -0.0597 -0.9179
 7150SOL     OW32911   0.661   2.749   6.025  0.5611  0.1757  0.2246
 7150SOL    HW132912   0.573   2.768   6.056  0.3550 -1.3304  0.5586
 7150SOL    HW232913   0.671   2.655   6.032  1.7788  0.3002  0.1532
 7151SOL     OW32914   0.466   2.223   7.382  0.0527  0.1027  0.0169
 7151SOL    HW132915   0.532   2.191   7.444  1.7431  1.2639 -1.2078
 7151SOL    HW232916   0.398   2.175   7.430 -0.8180 -0.3881 -1.7090
 7152SOL     OW32917   4.583   0.255  13.053  0.5334  0.2780 -0.4663
 7152SOL    HW132918   4.640   0.285  13.123 -0.8505  1.2539  0.2303
 7152SOL    HW232919   4.552   0.176  13.098  1.1963 -0.1210 -0.7079
 7153SOL     OW32920   2.399   4.126   2.988  0.0123  0.4978 -0.1560
 7153SOL    HW132921   2.447   4.090   2.913 -1.7823  0.4990 -1.2894
 7153SOL    HW232922   2.451   4.100   3.064  1.0656  1.7887 -0.4269
 7154SOL     OW32923   4.494   1.220  12.413 -0.2048 -0.7500 -0.0714
 7154SOL    HW132924   4.555   1.294  12.419  0.3362 -0.9756 -2.3904
 7154SOL    HW232925   4.477   1.229  12.319 -3.8005 -1.9051  0.4714
 7155SOL     OW32926   1.467   3.607   4.751 -0.2726 -0.0584  0.4912
 7155SOL    HW132927   1.512   3.640   4.673 -0.8441  3.5897  1.7134
 7155SOL    HW232928   1.485   3.666   4.824 -0.8157  0.3327  0.3067
 7156SOL     OW32929   2.273   0.892   3.593 -0.6126  0.8125  0.1456
 7156SOL    HW132930   2.305   0.825   3.654 -0.2678  2.2382  1.5290
 7156SOL    HW232931   2.247   0.830   3.525 -0.5049  2.4244 -1.3383
 7157SOL     OW32932   0.252   0.058   2.607  0.3547  0.1381  0.2990
 7157SOL    HW132933   0.299   0.039   2.688 -3.6740 -1.5241  2.2356
 7157SOL    HW232934   0.267   0.153   2.613 -1.4478  0.4173  0.1635
 7158SOL     OW32935   0.602   2.844   2.675 -0.0729 -0.6122  0.2332
 7158SOL    HW132936   0.577   2.789   2.601 -1.5271  1.3672 -0.7374
 7158SOL    HW232937   0.572   2.800   2.755  0.0437 -2.2531 -0.6474
 7159SOL     OW32938   2.609   1.998   7.922  0.3202  0.1374 -0.4775
 7159SOL    HW132939   2.552   2.021   7.849  1.4923  2.1188 -0.7744
 7159SOL    HW232940   2.613   2.085   7.961  1.9635  0.1738 -0.7313
 7160SOL     OW32941   0.025   0.743   5.774  0.0978  0.0106  0.6280
 7160SOL    HW132942   0.117   0.758   5.798  0.1749  0.1574  0.2520
 7160SOL    HW232943   0.039   0.660   5.728 -1.1538  0.9004 -1.3550
 7161SOL     OW32944   1.287   3.811   2.562  0.0999 -0.0441  0.4508
 7161SOL    HW132945   1.249   3.816   2.475 -0.7568 -1.8626  0.7028
 7161SOL    HW232946   1.226   3.868   2.610  1.5585  2.4231 -0.6364
 7162SOL     OW32947   0.098   3.008  11.087  0.2545  0.6195  0.2484
 7162SOL    HW132948   0.094   2.949  11.162  2.6110 -1.2479 -1.0686
 7162SOL    HW232949   0.190   3.009  11.058 -0.3743  0.5404 -1.7723
 7163SOL     OW32950   4.433   2.594   1.077  0.2612  0.2213 -0.0567
 7163SOL    HW132951   4.393   2.508   1.083 -2.7144  1.7428  1.5044
 7163SOL    HW232952   4.394   2.638   1.152 -0.4544 -0.4727 -0.0228
 7164SOL     OW32953   0.504   4.337  11.266 -0.2047 -0.1756 -0.3217
 7164SOL    HW132954   0.432   4.398  11.251 -1.2590 -1.0936  1.0105
 7164SOL    HW232955   0.489   4.306  11.356 -0.8285  0.4887 -0.1971
 7165SOL     OW32956   3.626   3.799   0.599  0.5076 -0.4105  0.1553
 7165SOL    HW132957   3.615   3.890   0.572  3.1359 -0.1553 -0.0347
 7165SOL    HW232958   3.538   3.760   0.596  0.3567  0.0015 -0.6660
 7166SOL     OW32959   3.175   4.383   0.680  0.9210 -0.1685 -0.1036
 7166SOL    HW132960   3.229   4.366   0.757  0.4395  1.6761  0.6338
 7166SOL    HW232961   3.208   4.309   0.629  0.1512 -1.3018  1.0531
 7167SOL     OW32962   1.283   0.976   5.781 -0.0167 -0.2813 -0.4833
 7167SOL    HW132963   1.238   1.024   5.851  0.1730  2.1465 -2.0563
 7167SOL    HW232964   1.281   0.885   5.811  1.1799  0.2109  1.0956
 7168SOL     OW32965   4.229   0.472   8.090 -0.6105  0.1633 -0.0503
 7168SOL    HW132966   4.277   0.536   8.142 -1.1330 -0.0731  0.7182
 7168SOL    HW232967   4.290   0.472   8.016  0.9784  0.2354  1.2651
 7169SOL     OW32968   4.199   0.561   2.590 -0.3539 -0.6583  0.0412
 7169SOL    HW132969   4.214   0.468   2.578 -2.8970 -0.6492 -3.2189
 7169SOL    HW232970   4.104   0.560   2.578 -0.4610  0.6162  0.7515
 7170SOL     OW32971   3.890   3.846   6.933  0.0114 -0.2584 -0.1882
 7170SOL    HW132972   3.836   3.872   7.007 -0.8110 -0.4361 -0.7205
 7170SOL    HW232973   3.865   3.753   6.939  0.3444 -0.1877  2.4031
 7171SOL     OW32974   4.194   0.673   6.248 -0.3443  0.4891 -0.0604
 7171SOL    HW132975   4.161   0.685   6.158  0.4151  1.4129 -0.2125
 7171SOL    HW232976   4.205   0.763   6.276  1.9710 -0.3793  1.7637
 7172SOL     OW32977   1.961   0.155   2.067  0.1245 -0.3373  0.3839
 7172SOL    HW132978   2.030   0.147   2.132 -0.6696 -2.2294  0.9904
 7172SOL    HW232979   1.981   0.240   2.026 -1.8516  0.2740  0.6925
 7173SOL     OW32980   0.991   0.994   5.400  0.3957 -0.2193 -0.0414
 7173SOL    HW132981   1.069   0.959   5.442  0.9464 -0.9256 -1.6659
 7173SOL    HW232982   1.028   1.039   5.325  0.2947 -0.3264 -0.1571
 7174SOL     OW32983   4.520   0.179   6.472  0.1942  0.0128  0.3135
 7174SOL    HW132984   4.566   0.099   6.449  1.7143  0.9779  0.0023
 7174SOL    HW232985   4.433   0.164   6.434  1.2504 -2.4230 -1.1221
 7175SOL     OW32986   3.656   0.208   3.634 -0.5750  0.5367 -0.4163
 7175SOL    HW132987   3.685   0.274   3.571 -2.0912 -0.0265 -1.7070
 7175SOL    HW232988   3.571   0.245   3.655 -1.0562  0.1113 -1.6548
 7176SOL     OW32989   0.129   1.363   5.650  0.4320 -0.8366  0.2373
 7176SOL    HW132990   0.054   1.316   5.687 -0.4318  0.0083 -0.4227
 7176SOL    HW232991   0.131   1.330   5.560  0.3180 -2.1573  0.7268
 7177SOL     OW32992   3.806   3.932   5.624  0.0027 -0.1254 -0.5882
 7177SOL    HW132993   3.735   3.993   5.604  1.7640  1.7706 -0.9443
 7177SOL    HW232994   3.864   3.991   5.672 -1.5648 -0.0479  1.2304
 7178SOL     OW32995   1.116   1.579   0.694 -0.0180 -0.2346 -0.2715
 7178SOL    HW132996   1.158   1.582   0.608  0.6268  0.8725  0.0697
 7178SOL    HW232997   1.183   1.631   0.740 -0.8609  1.9742 -1.5234
 7179SOL     OW32998   2.329   3.258   7.881  0.0590 -0.4559  0.1101
 7179SOL    HW132999   2.338   3.200   7.805  2.3014 -0.0498  0.0664
 7179SOL    HW233000   2.344   3.192   7.949 -0.7430  0.0382  0.7763
 7180SOL     OW33001   1.780   4.241   1.978  0.3834  0.0210 -0.1985
 7180SOL    HW133002   1.780   4.201   2.065 -1.1143 -2.2701 -1.2413
 7180SOL    HW233003   1.857   4.298   1.982 -1.2759  2.3537 -1.3330
 7181SOL     OW33004   1.385   3.976  15.859  0.4009  0.1052 -0.2123
 7181SOL    HW133005   1.359   4.067  15.851 -1.7381 -0.2944  2.1702
 7181SOL    HW233006   1.422   3.976  15.947  1.0551  0.8920 -0.4890
 7182SOL     OW33007   0.363   3.723   4.039 -0.0759 -0.1115  0.2830
 7182SOL    HW133008   0.271   3.701   4.052 -0.1617 -0.4055 -0.9082
 7182SOL    HW233009   0.373   3.771   4.122  0.6318 -1.9386  1.2616
 7183SOL     OW33010   4.374   3.172  17.654  0.4331 -0.3302 -0.9574
 7183SOL    HW133011   4.447   3.134   0.006 -0.9716 -1.3407  0.3475
 7183SOL    HW233012   4.364   3.250   0.011 -1.8115 -1.1618 -0.1718
 7184SOL     OW33013   1.239   0.308  12.432  0.3090 -0.7216  0.3026
 7184SOL    HW133014   1.282   0.266  12.506  0.4935 -0.4746  0.3343
 7184SOL    HW233015   1.283   0.392  12.447  2.6331 -2.1846  1.6554
 7185SOL     OW33016   0.869   0.105   2.782  0.1383 -0.1386  0.2564
 7185SOL    HW133017   0.909   0.096   2.869  0.2491  2.3469  0.4623
 7185SOL    HW233018   0.940   0.071   2.727  0.2127  1.8039 -0.8394
 7186SOL     OW33019   3.449   4.649   0.423 -0.2699  0.1698  0.3228
 7186SOL    HW133020   3.473   4.613   0.338 -2.4119  0.0843 -0.2283
 7186SOL    HW233021   3.504   0.003   0.414 -0.1822  0.1178  0.4079
 7187SOL     OW33022   0.835   3.681   5.851 -0.1799  0.2200  0.2145
 7187SOL    HW133023   0.907   3.621   5.831  0.1061  1.4030 -2.2790
 7187SOL    HW233024   0.774   3.651   5.785  1.5824 -0.5517 -1.0688
 7188SOL     OW33025   2.769   3.489   2.467  0.2423  0.0310 -0.8965
 7188SOL    HW133026   2.842   3.430   2.485 -0.5608 -0.6980  0.0650
 7188SOL    HW233027   2.694   3.431   2.449 -0.0048  0.3241 -0.8005
 7189SOL     OW33028   2.203   4.540   0.053  0.0911  0.1138  0.6384
 7189SOL    HW133029   2.280   4.590   0.081 -0.9150  1.2575  1.3879
 7189SOL    HW233030   2.198   4.474   0.122 -0.8174  0.2080  0.6629
 7190SOL     OW33031   4.704   0.694   7.947  0.2583 -0.3085 -0.3545
 7190SOL    HW133032   4.623   0.745   7.954  0.4089 -0.1847  0.5734
 7190SOL    HW233033   0.009   0.725   7.862 -1.4519  2.1060 -0.0688
 7191SOL     OW33034   4.023   4.564   0.843  0.6811 -0.2399  0.2636
 7191SOL    HW133035   4.027   4.604   0.930  0.4306  1.0045 -0.2922
 7191SOL    HW233036   4.101   4.509   0.840  0.3513 -0.7631  1.0495
 7192SOL     OW33037   0.480   2.308   0.816  0.3510  0.0152  0.6283
 7192SOL    HW133038   0.521   2.275   0.896  0.0629  0.7128  1.0676
 7192SOL    HW233039   0.505   2.244   0.750  1.5681 -0.1384  1.2434
 7193SOL     OW33040   2.389   1.787   6.721  0.0771  0.0916  0.3911
 7193SOL    HW133041   2.380   1.876   6.754 -0.7266  0.0451  0.2824
 7193SOL    HW233042   2.332   1.784   6.645 -2.5153  0.6399  2.3115
 7194SOL     OW33043   3.186   2.083  16.354  0.4765  0.3508  0.0377
 7194SOL    HW133044   3.172   2.117  16.265  1.0588  1.0470  0.2119
 7194SOL    HW233045   3.155   2.152  16.411 -0.1055  0.6712 -0.6697
 7195SOL     OW33046   3.393   4.718   6.768  0.1573 -0.1127  0.7463
 7195SOL    HW133047   3.463   0.032   6.716  1.6624 -2.1981  1.2773
 7195SOL    HW233048   3.368   0.058   6.835 -0.6358 -0.9108  1.2186
 7196SOL     OW33049   0.996   4.100   8.004  0.4339  0.1678 -0.0648
 7196SOL    HW133050   0.985   4.103   7.909 -1.8723 -1.4735  0.1422
 7196SOL    HW233051   1.073   4.043   7.993  0.4601  0.2559 -0.3305
 7197SOL     OW33052   4.270   4.297   9.397 -0.4232  0.0242 -0.6452
 7197SOL    HW133053   4.274   4.358   9.324  0.0660 -1.0690 -1.5143
 7197SOL    HW233054   4.336   4.331   9.457  1.3617 -2.8108 -1.0546
 7198SOL     OW33055   2.389   1.883   7.518  0.2167  0.1387 -0.1773
 7198SOL    HW133056   2.384   1.950   7.450 -2.8419 -0.0367 -0.0857
 7198SOL    HW233057   2.313   1.835   7.485 -0.9052  1.3553  0.6567
 7199SOL     OW33058   0.336   1.926  16.735 -0.0773  0.4839 -0.0156
 7199SOL    HW133059   0.403   1.983  16.772  0.1062  1.2193 -1.4649
 7199SOL    HW233060   0.340   1.848  16.789  3.4063  0.2666 -0.6176
 7200SOL     OW33061   1.336   1.667  12.576  0.3877 -0.8348 -0.4535
 7200SOL    HW133062   1.394   1.713  12.637 -0.6718  0.7134 -0.5907
 7200SOL    HW233063   1.314   1.739  12.516 -0.1365  0.3537  1.1876
 7201SOL     OW33064   1.509   0.563   7.265  0.3424 -0.1007 -0.1223
 7201SOL    HW133065   1.592   0.518   7.247  0.8582 -0.1320  2.2345
 7201SOL    HW233066   1.532   0.601   7.350  0.3480 -0.0142 -0.1633
 7202SOL     OW33067   3.556   3.148  12.309  0.1900 -0.2702 -0.0282
 7202SOL    HW133068   3.625   3.082  12.301  1.9330  1.4506  0.9076
 7202SOL    HW233069   3.591   3.231  12.342 -1.8433  0.4380  0.3918
 7203SOL     OW33070   0.222   1.703   6.831  0.7416  0.3987 -0.1897
 7203SOL    HW133071   0.266   1.628   6.791 -1.7603 -1.5880  0.7291
 7203SOL    HW233072   0.137   1.662   6.814  1.4481 -1.0368 -0.3289
 7204SOL     OW33073   2.408   0.605  16.901 -0.3011 -0.1656  0.2136
 7204SOL    HW133074   2.463   0.527  16.893 -0.3533  0.1057 -2.7009
 7204SOL    HW233075   2.388   0.612  16.995 -1.3485 -0.4523  0.0050
 7205SOL     OW33076   2.336   4.269   5.251  0.5420  0.0510  0.7179
 7205SOL    HW133077   2.319   4.210   5.177  3.2506  0.3452 -0.1171
 7205SOL    HW233078   2.250   4.312   5.256  0.9873  1.0958 -0.7341
 7206SOL     OW33079   1.766   1.554   5.863 -0.2744 -0.1640  0.4665
 7206SOL    HW133080   1.759   1.563   5.958  0.2821  2.2410  0.2699
 7206SOL    HW233081   1.687   1.503   5.844 -0.3040 -1.1463  3.1649
 7207SOL     OW33082   1.543   1.509   0.547 -0.3532 -0.0919 -0.4574
 7207SOL    HW133083   1.512   1.472   0.465  2.6642 -1.1986 -1.0992
 7207SOL    HW233084   1.544   1.603   0.530  2.0333 -0.4090 -2.0430
 7208SOL     OW33085   0.682   4.394   2.250 -0.0007 -0.6378  0.0367
 7208SOL    HW133086   0.769   4.430   2.230 -0.3205 -0.2711 -0.7085
 7208SOL    HW233087   0.703   4.308   2.287 -0.0283 -1.1191 -1.0771
 7209SOL     OW33088   2.389   4.114   8.259  0.1493 -0.2280  0.4167
 7209SOL    HW133089   2.321   4.063   8.215  1.5914 -1.7572 -0.0622
 7209SOL    HW233090   2.465   4.063   8.229 -0.3834 -1.4658  1.1442
 7210SOL     OW33091   3.403   4.247   6.341  0.1517  0.1703 -0.4024
 7210SOL    HW133092   3.351   4.222   6.417  1.4012 -1.6167 -0.1495
 7210SOL    HW233093   3.350   4.217   6.268  0.0211 -1.2099  0.2756
 7211SOL     OW33094   1.460   3.587   7.837  0.3309  0.1091  0.6421
 7211SOL    HW133095   1.504   3.648   7.778 -1.3892 -0.1973 -0.9514
 7211SOL    HW233096   1.499   3.613   7.921  1.5535  0.5729 -0.0770
 7212SOL     OW33097   3.320   3.405   7.301  0.3325 -0.5420  0.0567
 7212SOL    HW133098   3.312   3.316   7.266 -2.3597  0.0146 -0.7595
 7212SOL    HW233099   3.398   3.400   7.355  1.2554 -1.2292 -1.3456
 7213SOL     OW33100   0.709   4.495  10.362 -0.7242 -0.0057 -0.4272
 7213SOL    HW133101   0.805   4.503  10.365 -0.8512  1.2332  0.4512
 7213SOL    HW233102   0.676   4.583  10.380  1.8932  1.2097 -1.4760
 7214SOL     OW33103   2.963   3.631   6.116  0.4725  0.0965 -0.1691
 7214SOL    HW133104   3.048   3.675   6.110 -0.5481  1.7677 -2.2979
 7214SOL    HW233105   2.978   3.585   6.199 -1.2128  0.7529  0.5083
 7215SOL     OW33106   2.934   4.242   7.318  0.3904 -0.0958  0.2166
 7215SOL    HW133107   2.987   4.171   7.281 -0.6337 -0.9301  0.3515
 7215SOL    HW233108   2.863   4.194   7.361  2.3881 -1.4036  2.0820
 7216SOL     OW33109   1.122   0.056  17.275 -0.0911  0.2357  0.1069
 7216SOL    HW133110   1.098   0.031  17.364 -0.8024 -0.0663 -0.1623
 7216SOL    HW233111   1.206   0.099  17.290  0.1884 -0.0716 -0.5628
 7217SOL     OW33112   0.091   4.515   4.071 -0.2625 -0.0006 -0.3137
 7217SOL    HW133113   0.081   4.424   4.041  0.9016 -0.3402  0.3387
 7217SOL    HW233114   0.174   4.504   4.116  0.7502  0.4338 -2.0832
 7218SOL     OW33115   1.312   1.620   4.034 -0.1345 -0.2985  0.2319
 7218SOL    HW133116   1.371   1.546   4.017  0.3317 -0.1962  1.4222
 7218SOL    HW233117   1.316   1.677   3.957  0.3677 -0.2208  0.3161
 7219SOL     OW33118   2.282   0.414   5.390 -0.4055  0.5044  0.0723
 7219SOL    HW133119   2.306   0.502   5.419 -0.9153  0.5375  0.3824
 7219SOL    HW233120   2.196   0.442   5.359  0.2650  1.4929 -0.9032
 7220SOL     OW33121   1.737   2.179   3.920  0.6427  0.6173 -0.0726
 7220SOL    HW133122   1.740   2.253   3.982  0.4690  1.2767 -0.8542
 7220SOL    HW233123   1.679   2.208   3.850 -0.2102 -0.5264  0.1678
 7221SOL     OW33124   0.560   3.784   4.359  0.0288  0.2754 -0.4302
 7221SOL    HW133125   0.512   3.733   4.425  0.1687  0.6606 -0.0307
 7221SOL    HW233126   0.630   3.724   4.331 -0.1974  0.5208 -1.5111
 7222SOL     OW33127   3.416   0.345   1.335 -0.0828  0.5687 -0.2748
 7222SOL    HW133128   3.403   0.334   1.429  0.0737 -1.0847 -0.4443
 7222SOL    HW233129   3.355   0.283   1.296 -1.6978  1.4912  0.7773
 7223SOL     OW33130   4.001   3.552   3.671 -0.0299  0.0355  0.3448
 7223SOL    HW133131   4.073   3.498   3.705 -0.0704  0.2153  0.7156
 7223SOL    HW233132   3.946   3.484   3.632  0.2614 -1.6822  2.8507
 7224SOL     OW33133   0.779   1.120   3.810 -0.0220 -0.3197  0.1918
 7224SOL    HW133134   0.821   1.062   3.747 -0.4810 -0.4337 -0.0092
 7224SOL    HW233135   0.729   1.059   3.864  1.1437 -3.1486 -1.8997
 7225SOL     OW33136   1.320   1.842   3.191  1.2410  0.8383 -0.1279
 7225SOL    HW133137   1.349   1.933   3.180 -1.3333  1.4703 -1.6050
 7225SOL    HW233138   1.318   1.806   3.103 -0.8625 -0.4332  0.4255
 7226SOL     OW33139   0.825   4.543   4.896 -0.0504 -0.3537  1.0307
 7226SOL    HW133140   0.912   4.509   4.920 -0.0811 -0.2835  1.2458
 7226SOL    HW233141   0.816   4.601   4.972 -0.3367 -1.2286  1.6777
 7227SOL     OW33142   0.557   3.024  10.381  0.1081  0.6078  0.3771
 7227SOL    HW133143   0.617   3.099  10.382  3.0917 -1.8129  0.5983
 7227SOL    HW233144   0.474   3.066  10.361  0.0982  1.0650  1.3688
 7228SOL     OW33145   0.786   1.447   3.353  0.8722 -0.0126 -0.1771
 7228SOL    HW133146   0.839   1.375   3.388 -1.8402 -1.6349  0.6523
 7228SOL    HW233147   0.771   1.420   3.262  2.5341  0.2840 -0.5230
 7229SOL     OW33148   0.385   2.225   5.783 -0.4044  0.0451 -0.0327
 7229SOL    HW133149   0.470   2.198   5.748  1.2566  2.3110  2.2316
 7229SOL    HW233150   0.415   2.282   5.854 -3.1207 -1.4303  2.3267
 7230SOL     OW33151   3.625   1.523   2.595  0.2490 -0.3920  0.1602
 7230SOL    HW133152   3.672   1.568   2.525  0.5845 -0.7484  0.1603
 7230SOL    HW233153   3.577   1.593   2.640  0.2828 -1.0686  1.2471
 7231SOL     OW33154   3.583   0.828   6.148 -0.2775  0.3873  0.2922
 7231SOL    HW133155   3.664   0.811   6.100  0.0150 -2.7079  1.9129
 7231SOL    HW233156   3.518   0.795   6.086 -0.4613 -1.1448  1.2998
 7232SOL     OW33157   1.209   0.559   6.749 -0.8634  0.0914 -0.5794
 7232SOL    HW133158   1.210   0.652   6.771 -1.6580  0.3198 -1.4677
 7232SOL    HW233159   1.119   0.535   6.724 -1.1504 -0.9439  1.5158
 7233SOL     OW33160   1.325   0.034   2.885 -0.3568 -0.7717  0.6556
 7233SOL    HW133161   1.340   4.694   2.816 -0.6464  0.4345 -0.5309
 7233SOL    HW233162   1.370   0.111   2.849 -2.8213 -0.4721 -1.7739
 7234SOL     OW33163   4.216   0.950  12.627  0.3636  0.2031  0.2075
 7234SOL    HW133164   4.308   0.974  12.612  0.7136 -1.5554 -0.4681
 7234SOL    HW233165   4.174   0.999  12.556  0.8969 -0.9651 -0.9261
 7235SOL     OW33166   2.337   3.590  12.681  0.0989 -0.1985 -0.1430
 7235SOL    HW133167   2.371   3.520  12.625 -0.6211  0.3071 -1.2237
 7235SOL    HW233168   2.343   3.557  12.770 -2.9047  0.6308  0.3389
 7236SOL     OW33169   2.352   0.680   7.958 -0.4694  0.0939 -0.3335
 7236SOL    HW133170   2.282   0.617   7.942 -0.9835  0.3950  0.7210
 7236SOL    HW233171   2.392   0.701   7.874  1.4799  0.8552  0.7721
 7237SOL     OW33172   0.212   4.497   7.699  0.1121  0.1102  0.1517
 7237SOL    HW133173   0.226   4.455   7.784 -0.9462 -1.4524 -0.4513
 7237SOL    HW233174   0.298   4.503   7.656  1.1989  0.5975  2.3686
 7238SOL     OW33175   2.634   2.523   7.414  0.3337  0.8109  0.6937
 7238SOL    HW133176   2.576   2.595   7.437 -1.8238 -0.4210 -0.9247
 7238SOL    HW233177   2.636   2.528   7.319 -0.8874 -1.9578  0.5304
 7239SOL     OW33178   1.803   1.020  15.185  0.0212  0.2128  0.2596
 7239SOL    HW133179   1.741   0.972  15.240 -0.8408 -0.3506 -1.2011
 7239SOL    HW233180   1.838   1.089  15.242  1.2632 -0.1845 -0.0222
 7240SOL     OW33181   2.150   0.532   7.841  0.5340 -0.5466 -0.1366
 7240SOL    HW133182   2.119   0.623   7.843  2.0779 -0.0200 -0.1113
 7240SOL    HW233183   2.100   0.479   7.903 -0.1299  1.9348  1.4530
 7241SOL     OW33184   1.321   1.819   3.824 -0.0547  0.5908 -0.1708
 7241SOL    HW133185   1.373   1.808   3.744  1.7315  0.2245  1.0448
 7241SOL    HW233186   1.234   1.818   3.783 -1.4552  0.3041  2.7942
 7242SOL     OW33187   1.444   2.995   9.886 -0.2552  0.4477  0.0227
 7242SOL    HW133188   1.395   3.022   9.963 -0.6195  1.1508 -0.4493
 7242SOL    HW233189   1.478   2.911   9.916 -1.3870  0.1840  0.5511
 7243SOL     OW33190   1.603   1.555  11.031  0.2525  0.0523  0.4625
 7243SOL    HW133191   1.652   1.521  11.106 -0.4316  0.1615  0.9654
 7243SOL    HW233192   1.655   1.632  11.009 -1.2004  1.5362  2.1736
 7244SOL     OW33193   0.648   3.858   0.539  0.1657  0.0112  0.4499
 7244SOL    HW133194   0.707   3.788   0.512  0.0926 -0.4781  1.5720
 7244SOL    HW233195   0.608   3.827   0.620 -0.1762 -1.3046 -0.2359
 7245SOL     OW33196   0.390   2.109   3.298 -0.4380 -0.0819  0.5590
 7245SOL    HW133197   0.306   2.073   3.329 -1.0472 -0.2107 -1.2138
 7245SOL    HW233198   0.395   2.090   3.204  0.4917  0.4242  0.5044
 7246SOL     OW33199   0.870   0.354   0.851 -0.1811 -0.4603 -0.7343
 7246SOL    HW133200   0.803   0.362   0.919  0.2946  0.8482 -0.4328
 7246SOL    HW233201   0.857   0.443   0.819 -1.7049 -0.3655  0.1381
 7247SOL     OW33202   3.717   3.587   3.939 -0.2869 -0.5225 -0.2247
 7247SOL    HW133203   3.786   3.521   3.944 -0.2115 -0.2823  2.4024
 7247SOL    HW233204   3.660   3.530   3.888 -0.4447  1.6872 -2.5048
 7248SOL     OW33205   2.482   1.957   5.989 -0.2670 -0.0869 -0.5140
 7248SOL    HW133206   2.462   2.023   5.922 -0.0880 -1.3243 -1.7775
 7248SOL    HW233207   2.519   1.887   5.935  1.5499  0.6064 -0.1667
 7249SOL     OW33208   3.975   2.941   2.005  0.2685  0.3381 -0.3785
 7249SOL    HW133209   4.015   2.855   1.994 -1.1289 -0.4520  0.5773
 7249SOL    HW233210   4.052   2.985   2.041  0.4520 -0.0760 -0.2580
 7250SOL     OW33211   3.850   4.632  15.621 -0.0447 -0.2826 -0.1675
 7250SOL    HW133212   3.773   4.687  15.632  0.7352  0.7998 -0.1645
 7250SOL    HW233213   3.847   4.590  15.707 -1.8191  1.0814  0.4267
 7251SOL     OW33214   2.389   4.610   4.021  0.0243  0.0542 -0.6739
 7251SOL    HW133215   2.297   4.632   4.030  0.0769  0.1729 -0.4296
 7251SOL    HW233216   2.427   4.671   3.958 -1.3412  1.2747 -0.2894
 7252SOL     OW33217   0.686   2.253   9.140 -0.2762  0.6964 -0.2874
 7252SOL    HW133218   0.742   2.313   9.189  0.3669 -0.8900  0.9209
 7252SOL    HW233219   0.616   2.316   9.127 -0.9942 -0.1066 -0.3063
 7253SOL     OW33220   3.850   2.612   6.644  0.2142 -0.5524  0.1775
 7253SOL    HW133221   3.824   2.687   6.698 -0.9945  0.2998 -1.6008
 7253SOL    HW233222   3.812   2.633   6.559  2.9866 -0.2213 -0.9894
 7254SOL     OW33223   0.317   0.190  12.186  0.0638  0.5521  0.2479
 7254SOL    HW133224   0.400   0.143  12.198 -1.3253 -2.3851 -1.6165
 7254SOL    HW233225   0.271   0.106  12.192  0.0884  0.6989  2.4289
 7255SOL     OW33226   0.835   0.678   0.968 -0.2827  0.0183  0.0967
 7255SOL    HW133227   0.775   0.751   0.985 -1.1573 -0.5156 -0.6510
 7255SOL    HW233228   0.822   0.662   0.874 -0.8571  1.7787 -0.1301
 7256SOL     OW33229   0.560   1.953  13.351  0.9012  0.5332 -0.2421
 7256SOL    HW133230   0.538   1.970  13.259 -0.5289  1.0649  0.2087
 7256SOL    HW233231   0.532   1.864  13.370  0.1701  0.9261  0.5108
 7257SOL     OW33232   1.150   0.898   4.829  0.2027  0.2477 -0.3443
 7257SOL    HW133233   1.149   0.994   4.829  0.8644  0.2589 -1.6239
 7257SOL    HW233234   1.237   0.880   4.863  0.7531  0.1974 -1.7825
 7258SOL     OW33235   1.545   2.542  14.493 -0.5058 -0.1425  0.1129
 7258SOL    HW133236   1.601   2.510  14.564 -0.0709  2.4007  0.9100
 7258SOL    HW233237   1.456   2.514  14.515 -0.2735 -0.3920  0.7226
 7259SOL     OW33238   0.701   3.994   7.718  0.2619 -0.2154  0.1484
 7259SOL    HW133239   0.676   3.924   7.658  1.3304 -0.8512  0.4381
 7259SOL    HW233240   0.635   3.978   7.785 -0.5284  1.1696 -0.2907
 7260SOL     OW33241   0.537   3.262   6.748  0.3560 -0.1370  0.7551
 7260SOL    HW133242   0.511   3.243   6.838 -1.3447  1.7183  0.6667
 7260SOL    HW233243   0.632   3.255   6.747  0.3307 -0.3513  0.0252
 7261SOL     OW33244   1.842   1.568   5.318  0.3891  0.0442  0.2266
 7261SOL    HW133245   1.852   1.650   5.366 -0.3669 -0.1140  0.6470
 7261SOL    HW233246   1.757   1.546   5.355  0.6797 -1.9928 -0.3481
 7262SOL     OW33247   4.474   3.476  14.210  0.3046  0.2348  0.0977
 7262SOL    HW133248   4.561   3.441  14.191  1.5454  3.3603  0.0174
 7262SOL    HW233249   4.499   3.537  14.279 -1.1527  1.7089 -0.6870
 7263SOL     OW33250   4.502   1.299  14.029  0.5975  0.0860  0.2207
 7263SOL    HW133251   4.414   1.275  14.060  0.7963 -0.0528  0.6796
 7263SOL    HW233252   4.514   1.386  14.067  1.3787 -0.3582  0.9971
 7264SOL     OW33253   1.594   0.012   8.451  0.2820 -0.4593  0.7802
 7264SOL    HW133254   1.518   4.695   8.409  0.0805 -0.4890  1.1741
 7264SOL    HW233255   1.594   4.690   8.535  0.3089  0.8654  1.5093
 7265SOL     OW33256   3.224   3.237  17.307 -0.5163 -0.0392  0.1271
 7265SOL    HW133257   3.172   3.175  17.359 -1.2130  0.5488  0.1456
 7265SOL    HW233258   3.312   3.212  17.334 -0.1305  0.1039 -1.0315
 7266SOL     OW33259   0.594   1.514   0.904  0.1721 -0.7201  0.3797
 7266SOL    HW133260   0.600   1.609   0.889 -1.5500 -0.8869 -1.3940
 7266SOL    HW233261   0.665   1.491   0.844 -0.7224  1.1764 -1.4054
 7267SOL     OW33262   1.936   2.725   3.874 -0.1852 -0.6531  0.6123
 7267SOL    HW133263   1.867   2.773   3.828  0.1167 -0.9876 -0.1813
 7267SOL    HW233264   1.959   2.659   3.808 -1.4393 -0.9395  0.4631
 7268SOL     OW33265   1.138   0.039   8.488  0.1893  0.3081 -0.0703
 7268SOL    HW133266   1.160   0.132   8.497 -0.2384  0.4898 -0.8739
 7268SOL    HW233267   1.119   0.009   8.577 -0.1281  0.2844 -0.1465
 7269SOL     OW33268   3.294   0.490   5.929 -0.0347  0.6017  0.1089
 7269SOL    HW133269   3.363   0.441   5.885  0.1888 -1.2086  2.4613
 7269SOL    HW233270   3.216   0.464   5.879 -0.8550  0.9879  1.1860
 7270SOL     OW33271   3.156   0.361   5.720  0.1141  0.0124  0.4729
 7270SOL    HW133272   3.084   0.321   5.769 -0.2431  1.3367  1.0333
 7270SOL    HW233273   3.201   0.281   5.694 -0.7212 -0.4626  0.4954
 7271SOL     OW33274   3.021   3.384   3.454 -0.6687  0.3082 -0.1082
 7271SOL    HW133275   2.989   3.385   3.363  0.6755 -1.3410 -0.5972
 7271SOL    HW233276   3.000   3.474   3.476  1.6025  1.0651 -1.0476
 7272SOL     OW33277   2.940   1.704   8.437  0.0126 -0.4396  0.0906
 7272SOL    HW133278   2.935   1.786   8.388  0.2410  0.2536  1.2401
 7272SOL    HW233279   2.990   1.654   8.372  0.1985  0.6970 -0.6490
 7273SOL     OW33280   1.228   4.405   9.086  0.1618 -0.1634  0.0511
 7273SOL    HW133281   1.287   4.338   9.119 -0.9140 -1.7942 -1.3681
 7273SOL    HW233282   1.148   4.353   9.087  0.2072 -0.1722  2.0019
 7274SOL     OW33283   3.983   2.411   9.179 -0.2535  0.2382 -0.0897
 7274SOL    HW133284   3.994   2.481   9.115 -1.0166 -2.5207 -3.2381
 7274SOL    HW233285   4.074   2.384   9.189 -0.8485 -2.4209 -1.7219
 7275SOL     OW33286   3.403   1.109   5.661 -0.0972 -0.7089 -0.3211
 7275SOL    HW133287   3.346   1.159   5.720 -0.3197 -1.3567  0.0194
 7275SOL    HW233288   3.482   1.161   5.679 -0.4865 -0.1225 -0.2843
 7276SOL     OW33289   3.600   1.421   6.432  0.1942  0.2307  0.6342
 7276SOL    HW133290   3.533   1.404   6.365  0.1922 -0.9741  0.9409
 7276SOL    HW233291   3.545   1.420   6.511  0.5185 -2.3067  0.8097
 7277SOL     OW33292   2.059   0.476   8.087  0.2268 -0.5101  0.6084
 7277SOL    HW133293   2.101   0.428   8.158 -0.6515 -0.7657  0.9661
 7277SOL    HW233294   1.992   0.532   8.128  1.0425  1.1507 -0.3354
 7278SOL     OW33295   1.689   0.086  13.526  0.2899  0.4602  0.0025
 7278SOL    HW133296   1.715   0.165  13.478 -2.1983  0.6010 -1.1327
 7278SOL    HW233297   1.660   0.126  13.608  0.1361  2.0821 -0.8389
 7279SOL     OW33298   3.457   1.132  15.619  0.2006  0.4152  0.8288
 7279SOL    HW133299   3.404   1.145  15.698 -0.9249 -1.4290  0.3732
 7279SOL    HW233300   3.462   1.221  15.587  1.9462 -0.3112 -0.8979
 7280SOL     OW33301   4.481   0.835   6.934 -0.1909 -0.1982 -0.5222
 7280SOL    HW133302   4.475   0.760   6.875 -2.9082 -0.4185  0.0413
 7280SOL    HW233303   4.450   0.904   6.874 -2.1333  0.0999  0.8360
 7281SOL     OW33304   0.074   1.975   9.469 -0.2595 -0.1144 -0.4639
 7281SOL    HW133305   0.128   2.002   9.543 -1.0563  1.1584 -0.3424
 7281SOL    HW233306   0.011   1.909   9.498  1.1707 -0.4753  1.7479
 7282SOL     OW33307   2.258   3.851   3.115  0.3773 -0.4684 -0.0839
 7282SOL    HW133308   2.336   3.876   3.066 -0.1403 -1.4235 -1.3912
 7282SOL    HW233309   2.301   3.815   3.192  1.8497 -2.3664 -1.8139
 7283SOL     OW33310   4.439   3.330   1.558  0.0279 -0.1249 -0.3335
 7283SOL    HW133311   4.420   3.244   1.523 -0.3879 -0.8401  1.6440
 7283SOL    HW233312   4.532   3.341   1.536  0.3368 -3.4989 -0.7363
 7284SOL     OW33313   3.808   4.109   9.600  0.2791  0.9495 -0.1574
 7284SOL    HW133314   3.901   4.130   9.598  0.2940  0.8190 -1.2688
 7284SOL    HW233315   3.779   4.165   9.528  0.1246 -0.8180 -1.4750
 7285SOL     OW33316   0.536   1.656   4.535 -0.8709  0.0175  0.2750
 7285SOL    HW133317   0.467   1.663   4.601 -1.8713 -0.7316 -0.6838
 7285SOL    HW233318   0.504   1.724   4.476  0.6570  0.0475 -0.5397
 7286SOL     OW33319   2.829   0.273   8.220 -0.2566 -0.1349  0.3375
 7286SOL    HW133320   2.880   0.353   8.208  1.2515 -1.4985 -2.5077
 7286SOL    HW233321   2.783   0.283   8.303 -2.5536 -1.4136 -0.7648
 7287SOL     OW33322   3.406   4.304  15.752  0.2157 -0.1748 -0.0833
 7287SOL    HW133323   3.355   4.342  15.680 -0.3075  0.4291  0.6147
 7287SOL    HW233324   3.333   4.276  15.807  1.1018  0.9711  1.6452
 7288SOL     OW33325   2.670   2.776   2.618  0.4664  0.2992 -0.6110
 7288SOL    HW133326   2.736   2.814   2.676  1.7222 -3.3371  0.3849
 7288SOL    HW233327   2.728   2.729   2.559 -0.5116 -1.8531  0.1341
 7289SOL     OW33328   3.273   3.189   5.913 -0.2358 -0.0910 -0.7549
 7289SOL    HW133329   3.307   3.099   5.909  1.3465  0.4345  1.0884
 7289SOL    HW233330   3.311   3.232   5.836  3.4039  1.3610  1.8875
 7290SOL     OW33331   2.465   4.567   9.181  0.1463 -0.0685  0.0562
 7290SOL    HW133332   2.469   4.556   9.086  0.0469 -3.6331  0.4997
 7290SOL    HW233333   2.475   4.661   9.198 -0.2317 -0.2748  1.3840
 7291SOL     OW33334   3.159   0.987   6.006 -0.0442  0.2157 -0.1069
 7291SOL    HW133335   3.189   1.062   5.954  2.1088  0.2781  1.2425
 7291SOL    HW233336   3.136   0.918   5.944  0.0219 -1.2589  1.4996
 7292SOL     OW33337   0.719   0.963   9.781  0.1590 -0.1822 -0.4749
 7292SOL    HW133338   0.736   0.870   9.771 -0.5777 -0.3897  0.1918
 7292SOL    HW233339   0.623   0.968   9.783  0.2150  1.8842 -2.1193
 7293SOL     OW33340   0.451   2.589   3.298 -0.2751 -0.4376 -0.4473
 7293SOL    HW133341   0.493   2.503   3.294  1.3443  0.2924  1.1138
 7293SOL    HW233342   0.492   2.620   3.217 -1.0853 -0.6914 -0.9618
 7294SOL     OW33343   1.225   4.107   1.423 -0.6215  0.0314  0.0303
 7294SOL    HW133344   1.222   4.138   1.513 -0.8816  1.2064 -0.3741
 7294SOL    HW233345   1.136   4.130   1.396 -0.6609  2.1808  1.9969
 7295SOL     OW33346   1.651   2.535   2.860  0.5898 -0.1614 -0.1689
 7295SOL    HW133347   1.662   2.443   2.834 -0.4364 -0.3158 -0.0276
 7295SOL    HW233348   1.576   2.521   2.917 -0.4614 -0.5322 -1.6280
 7296SOL     OW33349   1.391   4.629   3.573 -0.1168  0.2516  0.2022
 7296SOL    HW133350   1.423   4.542   3.597 -0.6576 -0.4963 -1.7650
 7296SOL    HW233351   1.301   4.607   3.552 -0.6761  0.9455  1.8712
 7297SOL     OW33352   3.187   4.709   2.715  0.0687  0.8603  0.0501
 7297SOL    HW133353   3.148   0.071   2.728 -1.4216  0.2515 -0.5051
 7297SOL    HW233354   3.185   4.666   2.801 -2.4107 -0.8736 -0.8695
 7298SOL     OW33355   2.787   3.200  12.099  0.0831  0.1906 -0.3257
 7298SOL    HW133356   2.760   3.265  12.034  1.0968 -0.5757 -1.5055
 7298SOL    HW233357   2.700   3.191  12.137 -0.2413 -1.1968 -1.4013
 7299SOL     OW33358   1.961   1.211   1.879  0.0402 -0.2479 -0.1305
 7299SOL    HW133359   2.026   1.246   1.939  0.3836 -2.0893  0.5682
 7299SOL    HW233360   2.009   1.149   1.823  0.1512  0.0900 -0.4119
 7300SOL     OW33361   0.546   1.158  10.916  0.6170  0.6761 -0.5216
 7300SOL    HW133362   0.526   1.081  10.968 -1.3413  0.8511 -1.0092
 7300SOL    HW233363   0.543   1.113  10.831  0.5949  1.6959 -1.0605
 7301SOL     OW33364   4.493   0.263   7.481  0.3250 -0.1095 -0.2476
 7301SOL    HW133365   4.584   0.281   7.459  0.2687 -0.4648 -0.7580
 7301SOL    HW233366   4.498   0.188   7.541 -0.4934  0.4742  0.5609
 7302SOL     OW33367   2.205   3.780   4.187 -0.1663 -0.4633  0.0902
 7302SOL    HW133368   2.144   3.767   4.114  2.9382 -2.7628 -2.0652
 7302SOL    HW233369   2.149   3.752   4.259 -0.5248 -0.1503 -0.0648
 7303SOL     OW33370   0.775   3.293   8.155  0.0716 -0.4795 -0.3293
 7303SOL    HW133371   0.782   3.241   8.235 -1.7621  1.2676  0.9683
 7303SOL    HW233372   0.703   3.253   8.107  1.5122 -0.5304 -2.4315
 7304SOL     OW33373   0.453   2.399   9.297  0.0820  0.0138  0.0179
 7304SOL    HW133374   0.502   2.459   9.353 -0.2623  0.7703 -0.4906
 7304SOL    HW233375   0.381   2.457   9.271 -0.9058 -1.1412  0.1713
 7305SOL     OW33376   3.215   2.605   0.534  0.2070  0.0859  0.0684
 7305SOL    HW133377   3.157   2.536   0.568  0.3604 -0.1343 -0.1193
 7305SOL    HW233378   3.169   2.645   0.461 -0.9101  1.6810  1.6358
 7306SOL     OW33379   2.317   4.442   1.450  0.2892  0.2364  0.0767
 7306SOL    HW133380   2.395   4.454   1.395  0.1325  2.2801  0.3129
 7306SOL    HW233381   2.294   4.531   1.475  1.5904  0.1051  1.6769
 7307SOL     OW33382   0.257   0.278   8.847 -0.2859 -0.1679 -0.9507
 7307SOL    HW133383   0.279   0.184   8.848 -1.0213 -0.3333  0.4718
 7307SOL    HW233384   0.162   0.283   8.858  0.1815  2.8807  1.6558
 7308SOL     OW33385   1.983   0.638  14.024  0.0755  0.5270  0.1230
 7308SOL    HW133386   1.888   0.641  14.011  0.1059 -0.2730 -0.3110
 7308SOL    HW233387   2.002   0.566  13.964 -2.1652 -0.6029  0.7709
 7309SOL     OW33388   3.777   3.478  12.271  0.2657  0.3681 -0.5899
 7309SOL    HW133389   3.828   3.505  12.194  1.2787  0.8326  0.2478
 7309SOL    HW233390   3.695   3.526  12.265  1.2838  2.0058 -1.4720
 7310SOL     OW33391   3.976   1.574   5.146 -0.5016  0.2519  0.4598
 7310SOL    HW133392   3.952   1.558   5.237 -0.9063 -2.5339 -0.1183
 7310SOL    HW233393   3.986   1.669   5.136  1.4037 -0.0487 -0.4412
 7311SOL     OW33394   0.786   1.473  15.957 -0.3866 -0.0621  0.1604
 7311SOL    HW133395   0.732   1.465  15.879 -0.2001 -1.3618  0.1737
 7311SOL    HW233396   0.869   1.439  15.925 -1.0841 -0.2832 -1.3879
 7312SOL     OW33397   0.157   1.883   2.460  0.2951  0.0443  0.1783
 7312SOL    HW133398   0.130   1.897   2.550  1.9000 -1.9833  0.9733
 7312SOL    HW233399   0.252   1.893   2.471  0.4935 -1.8565  0.2782
 7313SOL     OW33400   4.377   3.971   2.035  0.4090 -0.5103 -0.0346
 7313SOL    HW133401   4.440   4.034   2.070  1.4011 -1.2235 -0.5099
 7313SOL    HW233402   4.295   3.984   2.081  1.2055  0.3320  1.1540
 7314SOL     OW33403   3.492   0.325   0.854 -0.4792 -0.2754 -0.0298
 7314SOL    HW133404   3.580   0.354   0.830 -0.9326  1.0752 -0.0159
 7314SOL    HW233405   3.478   0.395   0.917 -0.8118 -0.5202  0.1687
 7315SOL     OW33406   0.714   4.621   3.050  0.6441  0.3117  0.3783
 7315SOL    HW133407   0.675   4.544   3.091  0.9755  0.4886  1.0256
 7315SOL    HW233408   0.664   4.698   3.078 -0.1768 -1.1458  2.8784
 7316SOL     OW33409   3.679   4.704   3.278  0.6527  0.2602 -0.1508
 7316SOL    HW133410   3.718   0.063   3.249  1.5889  0.0074  0.3638
 7316SOL    HW233411   3.614   0.005   3.344  0.1086  0.5899 -0.8196
 7317SOL     OW33412   4.309   0.441   2.185 -0.6858 -0.1537  0.1863
 7317SOL    HW133413   4.403   0.428   2.173 -0.3780  0.8349  1.5246
 7317SOL    HW233414   4.261   0.364   2.155 -1.2777 -0.5655  2.2392
 7318SOL     OW33415   0.272   2.861   4.940 -0.2017 -0.5993  0.4159
 7318SOL    HW133416   0.201   2.922   4.920  1.7272  1.4623 -0.1112
 7318SOL    HW233417   0.349   2.888   4.889  0.5123  0.7772  2.2448
 7319SOL     OW33418   4.060   4.692   5.061 -0.4789  0.0727 -1.0130
 7319SOL    HW133419   4.069   0.024   5.138 -0.3226 -1.0083 -0.2492
 7319SOL    HW233420   4.126   0.004   5.002  3.0790  0.4743  3.2062
 7320SOL     OW33421   3.912   3.835   7.624  0.1404  0.0235  0.4033
 7320SOL    HW133422   3.883   3.798   7.540  0.2666 -1.8083  1.1752
 7320SOL    HW233423   3.952   3.910   7.580  0.2566 -0.1559  0.1995
 7321SOL     OW33424   2.293   3.763   7.501  0.2850  0.2738  0.1169
 7321SOL    HW133425   2.328   3.753   7.412  0.1775  0.6640  0.0329
 7321SOL    HW233426   2.316   3.855   7.511  0.3322  0.2082  0.6030
 7322SOL     OW33427   2.578   1.291  15.947  0.8162  0.4492 -0.0851
 7322SOL    HW133428   2.548   1.275  15.858  1.0261  1.3114 -0.3090
 7322SOL    HW233429   2.567   1.386  15.950 -1.2531  0.1554  1.7966
 7323SOL     OW33430   4.326   1.610  12.301  0.2201 -0.2941  0.2018
 7323SOL    HW133431   4.304   1.702  12.317 -3.7187 -1.0291 -1.1642
 7323SOL    HW233432   4.412   1.613  12.344  0.0562  2.9468  0.2970
 7324SOL     OW33433   0.967   0.598   9.826  0.0237 -0.1433 -0.1834
 7324SOL    HW133434   0.923   0.631   9.905 -2.4731 -1.5589 -1.0015
 7324SOL    HW233435   1.013   0.676   9.795 -3.5927  1.7594 -0.7492
 7325SOL     OW33436   2.091   4.298   1.460  0.2557  0.5119  0.1369
 7325SOL    HW133437   2.066   4.301   1.367 -2.0475 -1.3722  0.7035
 7325SOL    HW233438   2.181   4.329   1.452  0.5529 -0.7634 -1.5799
 7326SOL     OW33439   4.592   3.742   0.292  0.5301 -1.0184  0.5342
 7326SOL    HW133440   4.617   3.726   0.201  1.4482 -3.9173  1.2867
 7326SOL    HW233441   4.560   3.832   0.291 -0.5335 -1.3932  0.6191
 7327SOL     OW33442   0.535   3.843   6.897  0.0100  0.5912 -0.1252
 7327SOL    HW133443   0.493   3.795   6.968 -0.7399  1.5286  0.0628
 7327SOL    HW233444   0.596   3.903   6.940  2.2413 -0.1076 -2.3195
 7328SOL     OW33445   0.705   1.173  11.959  0.4400 -0.0513  0.2406
 7328SOL    HW133446   0.772   1.144  11.897  1.4221  1.1690  0.7191
 7328SOL    HW233447   0.756   1.192  12.038  0.9574  1.0393 -0.3651
 7329SOL     OW33448   1.999   0.069   2.624 -0.3226  0.6122  0.4343
 7329SOL    HW133449   1.923   0.126   2.638 -0.4096  0.4799  0.5066
 7329SOL    HW233450   2.052   0.111   2.557 -1.6414  3.0048  0.8829
 7330SOL     OW33451   0.056   1.196   7.307 -0.2574  0.4235  0.4184
 7330SOL    HW133452   0.049   1.110   7.349  1.6984  0.5039  0.9272
 7330SOL    HW233453   0.041   1.253   7.382  0.0050  1.5245 -0.3710
 7331SOL     OW33454   1.772   1.981   6.075  0.0898  0.0007 -0.2302
 7331SOL    HW133455   1.819   1.960   6.156 -0.3248  0.9948  0.2634
 7331SOL    HW233456   1.807   2.064   6.044 -0.1531 -0.0622 -0.6683
 7332SOL     OW33457   2.003   0.127   8.628 -0.3152 -0.2790  0.2134
 7332SOL    HW133458   2.053   0.124   8.547 -0.3201  2.1066  0.1427
 7332SOL    HW233459   2.017   0.040   8.667 -1.0659 -0.9425 -1.0226
 7333SOL     OW33460   4.603   2.012   3.719 -0.6080 -0.1183 -0.4674
 7333SOL    HW133461   4.666   2.074   3.681  0.4345 -1.3345 -0.7068
 7333SOL    HW233462   4.652   1.930   3.719  1.0207  0.8428 -0.4183
 7334SOL     OW33463   1.921   2.420   6.314 -0.0988 -0.4990 -0.1310
 7334SOL    HW133464   1.840   2.470   6.305  0.3236  0.0095 -1.0567
 7334SOL    HW233465   1.994   2.479   6.297  0.1053 -0.0966  2.1148
 7335SOL     OW33466   3.650   0.765   2.564  0.5862  0.3045 -0.2367
 7335SOL    HW133467   3.649   0.756   2.659  0.6251 -2.9565 -0.5547
 7335SOL    HW233468   3.564   0.803   2.548  0.4996 -0.2580 -1.0985
 7336SOL     OW33469   2.554   3.242   3.424  0.1977 -0.1059 -0.2336
 7336SOL    HW133470   2.631   3.228   3.368 -0.3520  1.8168 -1.5152
 7336SOL    HW233471   2.513   3.156   3.421  0.6912 -0.4090  2.1223
 7337SOL     OW33472   1.897   0.957   4.853  0.1358  0.1200  0.2536
 7337SOL    HW133473   1.992   0.969   4.854  0.2074 -0.3523 -0.9671
 7337SOL    HW233474   1.870   1.024   4.917 -0.1512 -0.3134  0.5872
 7338SOL     OW33475   2.470   0.365   7.084  0.1182  0.3780  0.6342
 7338SOL    HW133476   2.460   0.315   7.165 -0.9581 -1.9474 -0.9506
 7338SOL    HW233477   2.492   0.453   7.116  0.9519  1.1746 -2.1065
 7339SOL     OW33478   3.732   0.045   6.337 -0.0847  0.0623  0.2742
 7339SOL    HW133479   3.640   0.023   6.354 -0.5053 -0.2139 -2.4758
 7339SOL    HW233480   3.748   0.006   6.251 -2.0190  1.6126 -0.7713
 7340SOL     OW33481   0.887   1.384   4.293  0.0321 -0.0269 -0.1436
 7340SOL    HW133482   0.900   1.397   4.387 -1.7919 -0.3841  0.1547
 7340SOL    HW233483   0.943   1.458   4.270 -2.2868  1.6520 -0.4036
 7341SOL     OW33484   2.717   4.468   5.938  0.7007 -0.3175 -0.6593
 7341SOL    HW133485   2.767   4.477   6.018  0.8083 -3.0524 -0.4000
 7341SOL    HW233486   2.774   4.405   5.894  1.0554  0.0373 -0.7064
 7342SOL     OW33487   4.265   0.088   8.501 -0.0302 -0.2373  0.1658
 7342SOL    HW133488   4.340   0.141   8.529 -1.2387  0.4425  2.0739
 7342SOL    HW233489   4.269   0.092   8.405 -3.1961 -0.6405  0.0139
 7343SOL     OW33490   2.385   4.396   1.967 -0.6323 -0.0557 -0.3062
 7343SOL    HW133491   2.454   4.331   1.950  0.0144  0.8588 -1.1343
 7343SOL    HW233492   2.368   4.438   1.883 -1.3275  0.6332  0.1874
 7344SOL     OW33493   1.923   3.852   8.828 -0.0553 -0.1504  0.0742
 7344SOL    HW133494   1.914   3.821   8.918 -1.0936 -2.2852 -0.7686
 7344SOL    HW233495   1.859   3.796   8.785 -3.8273  2.8806  1.7906
 7345SOL     OW33496   2.092   1.358   8.997 -0.5423 -0.1864 -0.1728
 7345SOL    HW133497   2.090   1.273   8.951  0.5808 -0.1442 -0.2925
 7345SOL    HW233498   2.159   1.340   9.063  1.6071 -2.0790 -2.8258
 7346SOL     OW33499   3.064   1.824   2.708 -0.1978 -0.1083 -0.3581
 7346SOL    HW133500   3.119   1.817   2.786  1.3196 -3.7641 -1.7301
 7346SOL    HW233501   3.062   1.733   2.677  0.1390 -0.5404  0.9016
 7347SOL     OW33502   1.857   0.203   5.633  0.4438 -0.2957  0.3996
 7347SOL    HW133503   1.843   0.109   5.624 -1.6078 -0.0208  0.6619
 7347SOL    HW233504   1.797   0.217   5.707 -0.4576  1.1408 -0.6118
 7348SOL     OW33505   3.114   0.065   3.318  0.3543  0.8005  0.2398
 7348SOL    HW133506   3.148   0.085   3.405 -0.7428 -0.8048  1.0358
 7348SOL    HW233507   3.103   4.694   3.320 -1.0851  0.9169 -2.7815
 7349SOL     OW33508   3.495   2.459   6.021 -0.4812  0.3767  0.1006
 7349SOL    HW133509   3.581   2.479   5.984 -0.2938 -1.5569 -0.5028
 7349SOL    HW233510   3.509   2.484   6.112 -1.7841  0.0899  0.3776
 7350SOL     OW33511   1.540   1.264   7.129 -0.0108 -0.3243 -0.2879
 7350SOL    HW133512   1.550   1.176   7.165 -0.1486 -0.2595 -0.0872
 7350SOL    HW233513   1.622   1.261   7.079  0.8572  1.0774  1.0466
 7351SOL     OW33514   0.313   4.715  14.456  0.3418 -0.1827  0.3378
 7351SOL    HW133515   0.317   4.630  14.411 -0.0567 -1.0236  1.9064
 7351SOL    HW233516   0.309   0.051  14.381 -0.5440  0.3263  0.7901
 7352SOL     OW33517   2.144   0.827   7.507 -0.3807  0.0655 -0.3566
 7352SOL    HW133518   2.208   0.897   7.519  1.6688 -2.0759  1.1943
 7352SOL    HW233519   2.193   0.747   7.528 -1.2214 -0.4993 -0.5276
 7353SOL     OW33520   3.815   4.464  11.866  0.5531  0.1108  0.1107
 7353SOL    HW133521   3.900   4.505  11.884  0.1990  0.7850  0.2759
 7353SOL    HW233522   3.760   4.543  11.862  0.5798  0.3190  3.4156
 7354SOL     OW33523   4.655   2.992   5.054  0.0681 -0.0295 -0.6284
 7354SOL    HW133524   4.571   2.946   5.043  0.0434 -0.0858 -0.1790
 7354SOL    HW233525   4.645   3.027   5.142  1.2891 -1.0442 -0.0833
 7355SOL     OW33526   3.455   2.296   3.608 -0.8064 -0.4686  0.3734
 7355SOL    HW133527   3.446   2.222   3.668  0.2142 -1.1899 -0.3538
 7355SOL    HW233528   3.396   2.268   3.538 -0.2819 -0.2566 -0.1547
 7356SOL     OW33529   3.201   3.169   3.515 -0.5859 -0.1102  0.5335
 7356SOL    HW133530   3.194   3.124   3.431 -2.2439  0.6992  0.2369
 7356SOL    HW233531   3.154   3.250   3.493 -0.8721 -1.0775 -2.4305
 7357SOL     OW33532   1.367   2.957  16.528 -0.4886 -0.3929 -0.1294
 7357SOL    HW133533   1.432   2.997  16.470 -0.6312 -0.7628 -0.5531
 7357SOL    HW233534   1.294   2.962  16.466  0.0393  0.6006 -0.6642
 7358SOL     OW33535   1.697   4.389  12.299 -0.2682  0.2101 -0.2551
 7358SOL    HW133536   1.714   4.462  12.240 -0.7145  0.4051 -0.1413
 7358SOL    HW233537   1.676   4.436  12.380 -0.5272  2.1561 -1.4536
 7359SOL     OW33538   1.948   3.922   6.348 -0.2097 -0.0311  0.1749
 7359SOL    HW133539   2.014   3.890   6.287 -1.1730 -0.9809 -0.3756
 7359SOL    HW233540   1.980   3.994   6.402 -1.8011  1.8535 -1.4171
 7360SOL     OW33541   0.413   4.622   8.034  0.5075 -0.5986 -0.0229
 7360SOL    HW133542   0.381   4.532   8.029 -0.9484 -0.0462 -0.4468
 7360SOL    HW233543   0.508   4.614   8.022  0.6263  0.3380  0.3059
 7361SOL     OW33544   4.106   3.722   1.563  0.6763  0.1231  0.7429
 7361SOL    HW133545   4.194   3.683   1.567 -1.1634 -4.0433  1.1404
 7361SOL    HW233546   4.074   3.705   1.652 -0.1867  0.2951  0.4626
 7362SOL     OW33547   2.185   0.691   5.861  0.6018 -0.4657 -0.1363
 7362SOL    HW133548   2.281   0.684   5.859  0.8112  2.3447  0.6951
 7362SOL    HW233549   2.162   0.673   5.770 -0.1817  0.6637 -0.1542
 7363SOL     OW33550   1.212   3.519  14.676  0.1090 -0.7930 -0.0031
 7363SOL    HW133551   1.164   3.496  14.756  0.2553  0.3169  0.4049
 7363SOL    HW233552   1.269   3.586  14.713  0.2063 -0.8794  0.0050
 7364SOL     OW33553   2.867   4.129  12.002  0.7780  0.4263 -0.1786
 7364SOL    HW133554   2.934   4.183  12.044  0.6972  0.6489 -0.3420
 7364SOL    HW233555   2.796   4.140  12.064  0.2862 -1.3616 -0.3993
 7365SOL     OW33556   3.374   3.239   4.392 -0.1326 -0.2853 -0.7411
 7365SOL    HW133557   3.349   3.211   4.304  1.6547  1.7975 -1.8914
 7365SOL    HW233558   3.369   3.335   4.394  0.3873 -0.2570 -0.9485
 7366SOL     OW33559   2.420   4.213   9.607 -0.1556 -0.3600  0.3394
 7366SOL    HW133560   2.472   4.232   9.686 -0.8372 -0.5531  0.8325
 7366SOL    HW233561   2.426   4.119   9.621  2.6977 -0.3342 -0.5600
 7367SOL     OW33562   0.661   4.109   7.999  0.3406  0.1432 -0.3027
 7367SOL    HW133563   0.645   4.122   8.092 -0.1820  0.4519 -0.4380
 7367SOL    HW233564   0.756   4.100   7.994  0.3629  0.1615  0.0861
 7368SOL     OW33565   0.973   4.263   3.181 -0.0570  0.0223  0.5548
 7368SOL    HW133566   0.928   4.339   3.217 -0.0468 -0.0938  0.8123
 7368SOL    HW233567   0.912   4.216   3.125  1.0596 -1.9511  1.0130
 7369SOL     OW33568   3.382   0.101  12.180  0.4303  0.2923  0.2137
 7369SOL    HW133569   3.354   0.038  12.113  1.6259 -0.5368  0.4907
 7369SOL    HW233570   3.314   0.167  12.162  1.1105  0.4836 -1.5725
 7370SOL     OW33571   0.298   0.684   9.357 -0.0673 -0.5526  0.0372
 7370SOL    HW133572   0.359   0.694   9.284 -0.7558  0.1678 -0.4477
 7370SOL    HW233573   0.283   0.590   9.356 -2.1701 -0.2166 -0.6069
 7371SOL     OW33574   2.022   3.323   0.018 -0.4017 -0.2212  0.1110
 7371SOL    HW133575   1.992   3.328   0.109  1.7135  3.1555  0.6385
 7371SOL    HW233576   1.983   3.407  17.693  0.3031  0.0720 -0.0328
 7372SOL     OW33577   1.288   0.106   5.213  0.0229 -0.1457 -0.2461
 7372SOL    HW133578   1.305   0.186   5.264  2.0074 -0.0238 -1.0821
 7372SOL    HW233579   1.208   0.086   5.262 -0.0135 -0.6223 -0.5027
 7373SOL     OW33580   1.835   0.839  11.629  0.3191  0.0763  0.0028
 7373SOL    HW133581   1.885   0.846  11.548  0.8200 -2.3086  0.1022
 7373SOL    HW233582   1.885   0.763  11.659 -1.1174 -0.5392  0.8342
 7374SOL     OW33583   0.706   1.985   2.455  0.1637  0.0192 -0.2523
 7374SOL    HW133584   0.726   1.933   2.533 -1.0853 -1.5903 -0.9922
 7374SOL    HW233585   0.705   2.072   2.493  0.8801 -0.6147  1.2083
 7375SOL     OW33586   3.642   2.476  11.918 -0.2816  0.4241  0.5060
 7375SOL    HW133587   3.677   2.393  11.949  1.4245  1.4258  1.2170
 7375SOL    HW233588   3.630   2.533  11.994 -0.2281  1.6764 -0.4118
 7376SOL     OW33589   1.166   0.818  13.222  0.0028  0.3188 -0.0481
 7376SOL    HW133590   1.127   0.843  13.305  1.0901  0.3963  0.4412
 7376SOL    HW233591   1.092   0.832  13.163  0.4996  0.9445 -0.5216
 7377SOL     OW33592   3.971   3.606  12.426  0.3539  0.1165 -0.0755
 7377SOL    HW133593   4.020   3.673  12.378  0.2808  2.0039  2.4754
 7377SOL    HW233594   3.927   3.562  12.354 -0.5552 -1.8214  1.6670
 7378SOL     OW33595   0.363   3.612   6.837 -0.5908  0.4467  0.0727
 7378SOL    HW133596   0.411   3.622   6.919 -0.7683 -2.0150  0.4763
 7378SOL    HW233597   0.405   3.549   6.778  1.9389  2.6793 -0.4750
 7379SOL     OW33598   0.295   1.781   4.607  0.3530 -0.2046  0.6506
 7379SOL    HW133599   0.303   1.876   4.607  0.6599 -0.2288  0.0465
 7379SOL    HW233600   0.204   1.760   4.588  0.9739 -1.5698 -0.8687
 7380SOL     OW33601   4.054   3.175   8.049 -0.0567 -0.3242  0.2760
 7380SOL    HW133602   4.131   3.118   8.042 -1.2024 -1.9635  1.1474
 7380SOL    HW233603   4.075   3.225   8.128 -0.3858  3.4966 -2.0545
 7381SOL     OW33604   2.388   1.726   8.584  0.0839 -0.0709  0.0809
 7381SOL    HW133605   2.446   1.735   8.508  0.7366 -2.7089  0.2779
 7381SOL    HW233606   2.451   1.736   8.655  0.2139 -3.6447  0.4503
 7382SOL     OW33607   3.677   0.741   4.033  0.0696  0.1714  0.0510
 7382SOL    HW133608   3.641   0.679   3.971  3.0626  2.0165 -3.5248
 7382SOL    HW233609   3.769   0.730   4.006  0.2199  1.1360  0.1706
 7383SOL     OW33610   1.235   0.211   9.299  0.7129  0.1447 -0.1652
 7383SOL    HW133611   1.193   0.184   9.381 -0.1721  2.1535  0.0429
 7383SOL    HW233612   1.278   0.132   9.267  0.3454 -0.6137  1.2179
 7384SOL     OW33613   3.219   2.364   8.175 -0.2894 -0.1738  0.5613
 7384SOL    HW133614   3.248   2.274   8.160  1.3088  0.4214  0.0769
 7384SOL    HW233615   3.159   2.386   8.104 -1.2504 -1.4053  0.9882
 7385SOL     OW33616   3.605   3.580  10.129 -0.0833 -0.2067 -0.1895
 7385SOL    HW133617   3.692   3.574  10.169  1.3461 -0.3074 -3.3591
 7385SOL    HW233618   3.607   3.499  10.078  0.6126 -1.1638  1.3632
 7386SOL     OW33619   3.495   1.772   3.145  0.1169  0.3216 -0.3159
 7386SOL    HW133620   3.496   1.687   3.100 -1.3386 -0.2959  0.8146
 7386SOL    HW233621   3.583   1.795   3.115  1.1010 -1.7318  0.9627
 7387SOL     OW33622   1.293   2.135   5.123 -0.3961 -0.0975 -0.0884
 7387SOL    HW133623   1.223   2.134   5.188  0.0576  1.3490  0.4382
 7387SOL    HW233624   1.251   2.195   5.060  0.3281  1.8381  1.2542
 7388SOL     OW33625   4.469   1.476  17.123  0.2733  0.1267 -0.3754
 7388SOL    HW133626   4.450   1.514  17.038 -1.0027 -2.1866 -1.1142
 7388SOL    HW233627   4.380   1.461  17.154  0.1451  1.9945  0.1561
 7389SOL     OW33628   4.643   4.200   7.063 -0.6125 -0.8746 -0.6751
 7389SOL    HW133629   4.646   4.285   7.018  1.4528 -0.0772  0.9523
 7389SOL    HW233630   4.554   4.206   7.097 -0.7381 -0.7120 -1.0337
 7390SOL     OW33631   4.096   2.566  13.052 -0.1429 -0.5614  0.0226
 7390SOL    HW133632   4.064   2.645  13.096 -2.1479 -1.0521 -0.5398
 7390SOL    HW233633   4.073   2.499  13.116  0.5941 -1.1843 -0.3729
 7391SOL     OW33634   4.071   2.482   8.101 -0.3471 -0.4098 -0.1547
 7391SOL    HW133635   3.978   2.483   8.126  0.0096  0.6083  1.1497
 7391SOL    HW233636   4.087   2.572   8.074 -0.6375 -0.4904 -0.6021
 7392SOL     OW33637   2.845   2.973   3.479 -0.0779  0.0174  0.1478
 7392SOL    HW133638   2.817   3.062   3.459  3.6897  1.2056  0.1944
 7392SOL    HW233639   2.805   2.929   3.404 -0.4308  1.9355 -0.7979
 7393SOL     OW33640   2.570   0.784   2.922  0.2887  0.0317 -0.2876
 7393SOL    HW133641   2.571   0.691   2.945 -0.7315  0.4639  1.4888
 7393SOL    HW233642   2.658   0.795   2.885 -0.7508  1.3731 -2.3949
 7394SOL     OW33643   0.515   2.464  15.708 -0.5183  0.7488 -0.1906
 7394SOL    HW133644   0.541   2.414  15.785 -1.7024 -0.2949 -0.4534
 7394SOL    HW233645   0.430   2.425  15.686 -0.9689  1.3533  0.4993
 7395SOL     OW33646   0.964   3.330  13.492 -0.0012 -0.2268  0.3208
 7395SOL    HW133647   1.007   3.248  13.467 -0.4940 -0.3482 -0.1313
 7395SOL    HW233648   0.939   3.300  13.579 -0.8355  1.2849  0.5951
 7396SOL     OW33649   0.111   3.370  13.521 -0.3915  0.0595 -0.1683
 7396SOL    HW133650   0.113   3.358  13.426  1.0750  2.9736 -0.4868
 7396SOL    HW233651   0.068   3.288  13.546  1.2180 -0.1616  1.8336
 7397SOL     OW33652   2.438   1.618  14.692 -0.6897 -0.5814 -0.4751
 7397SOL    HW133653   2.371   1.638  14.627 -0.2879  0.1915 -0.6406
 7397SOL    HW233654   2.423   1.523  14.700  0.2151 -0.6802  0.1230
 7398SOL     OW33655   4.449   0.969   4.854  0.1231  0.5393  0.7944
 7398SOL    HW133656   4.505   1.003   4.785  1.8902  1.5758  2.7357
 7398SOL    HW233657   4.357   0.993   4.836  0.4507 -0.4153 -2.1333
 7399SOL     OW33658   1.612   3.796   7.700  0.0022 -0.3363  0.0941
 7399SOL    HW133659   1.684   3.849   7.735  0.2430  1.2940 -2.9405
 7399SOL    HW233660   1.637   3.801   7.608 -1.0233  3.2215  0.0120
 7400SOL     OW33661   2.129   1.203   0.331  0.2577  0.5745  0.0209
 7400SOL    HW133662   2.138   1.255   0.251 -0.5530  0.5866 -0.0648
 7400SOL    HW233663   2.203   1.144   0.319 -0.5919 -0.9949  2.4459
 7401SOL     OW33664   1.715   4.700   2.418 -0.4197  0.0514 -0.3920
 7401SOL    HW133665   1.738   0.008   2.505 -0.7458 -3.0321  0.8405
 7401SOL    HW233666   1.702   0.056   2.367  2.0455 -1.4521 -3.3427
 7402SOL     OW33667   2.726   1.617   2.319  0.3234  0.3126 -0.7912
 7402SOL    HW133668   2.694   1.682   2.257 -0.8771  2.8487  2.4647
 7402SOL    HW233669   2.808   1.599   2.274 -0.2415 -1.1274 -1.2289
 7403SOL     OW33670   3.631   1.216   0.892  0.1010 -0.0333  0.0390
 7403SOL    HW133671   3.540   1.209   0.922 -0.0108 -0.6320 -0.4459
 7403SOL    HW233672   3.686   1.173   0.957 -0.5416  0.6765  1.0552
 7404SOL     OW33673   1.501   1.186   3.560  0.2426  0.5281 -0.1456
 7404SOL    HW133674   1.545   1.202   3.644  0.9026  1.0629 -0.5896
 7404SOL    HW233675   1.536   1.258   3.508  0.1867  1.8572  1.6672
 7405SOL     OW33676   0.952   4.432  17.271 -0.4209 -0.5190  0.2062
 7405SOL    HW133677   0.912   4.345  17.263 -3.7575  1.1936 -1.6619
 7405SOL    HW233678   0.900   4.482  17.208  1.7856  0.7585 -0.6185
 7406SOL     OW33679   3.002   2.298  13.143  0.1623  0.4712  0.3158
 7406SOL    HW133680   2.935   2.230  13.142  0.8990 -0.2505  0.1664
 7406SOL    HW233681   3.023   2.312  13.051 -1.6516  0.1667 -0.1348
 7407SOL     OW33682   0.498   2.423  10.964 -0.1471  0.2338  0.0678
 7407SOL    HW133683   0.527   2.511  10.941  0.7322 -0.1888 -0.4284
 7407SOL    HW233684   0.409   2.421  11.000  0.4297  0.9731  1.5508
 7408SOL     OW33685   4.219   1.282   2.442 -0.1370  0.3204 -0.0563
 7408SOL    HW133686   4.249   1.199   2.479 -1.3852 -0.8480 -1.6503
 7408SOL    HW233687   4.229   1.244   2.354 -2.4579 -2.3529  0.8357
 7409SOL     OW33688   4.646   1.656   9.267 -0.5668 -0.8327 -0.0356
 7409SOL    HW133689   4.636   1.599   9.344  1.7739  1.5421  2.0147
 7409SOL    HW233690   4.580   1.722   9.290 -0.1509 -0.6054  0.5143
 7410SOL     OW33691   2.004   4.683  15.008  0.1234 -0.2617 -0.0079
 7410SOL    HW133692   2.059   0.015  15.062 -0.7545 -0.5978  1.2412
 7410SOL    HW233693   1.967   4.619  15.069 -2.9461 -1.0060 -2.6658
 7411SOL     OW33694   0.354   3.638   8.665  0.3058  0.3625  0.4730
 7411SOL    HW133695   0.422   3.571   8.672 -2.5980 -2.7078 -0.7377
 7411SOL    HW233696   0.287   3.580   8.701  0.4089  0.2806  0.5329
 7412SOL     OW33697   4.410   1.369   9.582 -0.2777 -1.0476  0.4380
 7412SOL    HW133698   4.382   1.346   9.671  1.1313 -2.4218  0.5239
 7412SOL    HW233699   4.345   1.439   9.578 -0.1906 -0.9492  0.7150
 7413SOL     OW33700   0.386   0.155   8.428  0.1091  0.4642 -0.2072
 7413SOL    HW133701   0.317   0.132   8.366  0.5446 -3.0669  0.6551
 7413SOL    HW233702   0.340   0.214   8.488 -1.5166 -2.1081  1.0631
 7414SOL     OW33703   4.275   3.716   0.317 -0.3067  0.1635  1.0573
 7414SOL    HW133704   4.228   3.672   0.246 -0.6870  0.4643  1.1244
 7414SOL    HW233705   4.365   3.692   0.297 -0.2518 -0.1628  1.6813
 7415SOL     OW33706   4.128   0.279   2.493 -0.2625  0.1811 -0.0816
 7415SOL    HW133707   4.061   0.211   2.491  0.1764 -0.2699  0.9176
 7415SOL    HW233708   4.153   0.296   2.402 -1.5186  1.8247 -0.1119
 7416SOL     OW33709   2.513   4.234  13.093  0.4851 -0.5788 -0.6681
 7416SOL    HW133710   2.490   4.271  13.178  0.5394  3.3134 -2.3257
 7416SOL    HW233711   2.451   4.266  13.027 -1.6496 -0.6483  1.2899
 7417SOL     OW33712   0.625   1.752   9.081  0.4656 -0.6356  0.2891
 7417SOL    HW133713   0.625   1.843   9.051  0.9441 -0.7658 -0.1088
 7417SOL    HW233714   0.633   1.759   9.176  0.2892  0.7128  0.1992
 7418SOL     OW33715   3.022   2.607   4.074  0.2161  0.2046  0.2618
 7418SOL    HW133716   2.986   2.611   3.986  2.8259 -0.7525 -0.8707
 7418SOL    HW233717   3.051   2.516   4.071 -2.2706 -0.5560 -0.1933
 7419SOL     OW33718   4.026   1.016   2.962 -0.0921 -0.0951 -0.1247
 7419SOL    HW133719   4.112   0.986   2.932 -0.7626 -0.3615 -1.7639
 7419SOL    HW233720   3.977   0.935   2.975  0.3413 -0.3563 -0.1340
 7420SOL     OW33721   0.718   1.357   1.150  0.0914 -0.0719 -0.0467
 7420SOL    HW133722   0.687   1.438   1.108 -0.5242 -1.0602 -1.4976
 7420SOL    HW233723   0.782   1.323   1.088  2.3842  1.9837  1.2042
 7421SOL     OW33724   4.693   0.124   7.176 -0.1109 -0.1356  0.1370
 7421SOL    HW133725   4.673   0.032   7.160 -0.6846  0.2014 -1.0463
 7421SOL    HW233726   4.627   0.168   7.123 -2.1533 -1.4320  1.6108
 7422SOL     OW33727   4.660   4.353   6.280  0.1886 -0.9224  0.2807
 7422SOL    HW133728   4.670   4.437   6.236  1.0162 -0.5554  1.1898
 7422SOL    HW233729   4.702   4.300   6.212 -0.0548 -0.1357 -0.4982
 7423SOL     OW33730   2.711   4.226   3.425  0.3233 -0.4630  0.2755
 7423SOL    HW133731   2.679   4.291   3.488 -0.6691  2.4376 -3.2389
 7423SOL    HW233732   2.745   4.295   3.368 -2.2012  0.6488  0.1443
 7424SOL     OW33733   3.900   2.550   2.511  0.0882 -0.0432 -0.5621
 7424SOL    HW133734   3.989   2.540   2.546 -0.8008 -0.8182  1.4399
 7424SOL    HW233735   3.903   2.640   2.479  3.0654  1.3548  3.6396
 7425SOL     OW33736   1.780   2.768   8.343  0.3422 -0.1885 -0.5060
 7425SOL    HW133737   1.738   2.845   8.304 -1.2360 -0.3877  0.7789
 7425SOL    HW233738   1.708   2.706   8.334  0.7227 -1.0823  2.5691
 7426SOL     OW33739   2.960   4.375   3.010 -0.4027  0.5055  0.5190
 7426SOL    HW133740   3.047   4.342   2.989  0.0729  2.6172 -0.8278
 7426SOL    HW233741   2.916   4.381   2.926 -0.2557  0.1844  0.4217
 7427SOL     OW33742   4.381   2.099  10.393 -0.1124 -0.4354 -0.2104
 7427SOL    HW133743   4.295   2.079  10.430  0.8733 -2.1312  1.1442
 7427SOL    HW233744   4.359   2.191  10.377  1.5962  0.1503  0.7841
 7428SOL     OW33745   1.676   3.369  12.150  0.0012 -0.7439 -0.3174
 7428SOL    HW133746   1.609   3.423  12.108  1.5625  0.4991 -1.2366
 7428SOL    HW233747   1.702   3.428  12.220 -0.8777 -1.5302  0.6593
 7429SOL     OW33748   2.633   3.828   3.623  0.6625 -0.5648 -0.5735
 7429SOL    HW133749   2.695   3.759   3.602  2.4809  0.2032  2.3346
 7429SOL    HW233750   2.688   3.902   3.598  0.1346 -0.7581 -2.3133
 7430SOL     OW33751   3.386   0.865  14.397  0.3116 -0.0271  0.2338
 7430SOL    HW133752   3.385   0.917  14.478  0.4372 -1.6165  1.2571
 7430SOL    HW233753   3.427   0.930  14.340 -2.9725  0.4351 -1.6302
 7431SOL     OW33754   2.414   1.524   0.244  0.4136 -0.4457 -0.2022
 7431SOL    HW133755   2.379   1.490   0.326 -0.1068 -0.2464 -0.3396
 7431SOL    HW233756   2.467   1.595   0.280 -1.2487  1.2420 -1.0506
 7432SOL     OW33757   2.436   3.856   1.726 -0.1779  0.3200  0.6354
 7432SOL    HW133758   2.513   3.830   1.776 -1.0672 -0.1704  1.7445
 7432SOL    HW233759   2.423   3.775   1.676  0.7074  0.3927  0.2862
 7433SOL     OW33760   1.250   3.984   7.979 -0.1955 -0.1226 -0.0318
 7433SOL    HW133761   1.265   3.965   7.886  1.4894 -1.8889  0.6063
 7433SOL    HW233762   1.331   4.030   8.001  0.7136  0.1702 -3.9191
 7434SOL     OW33763   4.585   0.928  15.164 -0.2408  0.0697  0.0669
 7434SOL    HW133764   4.634   0.885  15.234 -0.8070 -0.4127  0.1603
 7434SOL    HW233765   4.634   0.898  15.087 -2.5151 -1.7975 -0.6401
 7435SOL     OW33766   2.986   1.326   8.020  0.3300 -0.4085  0.2046
 7435SOL    HW133767   2.951   1.407   7.982 -1.2359 -2.1539 -2.0288
 7435SOL    HW233768   2.930   1.310   8.097 -0.2118  1.6630  0.2378
 7436SOL     OW33769   3.891   1.066   4.630 -0.4835  0.1080  0.1964
 7436SOL    HW133770   3.956   1.039   4.565 -0.1289 -0.1670  0.6702
 7436SOL    HW233771   3.887   0.990   4.688  0.4489  0.4124  0.6626
 7437SOL     OW33772   2.021   2.438   1.384  0.1477  0.0737  0.0380
 7437SOL    HW133773   2.066   2.451   1.467 -1.4196  1.1523  0.7013
 7437SOL    HW233774   1.954   2.505   1.394  0.1400 -0.2625  2.2541
 7438SOL     OW33775   3.575   1.557   9.416 -0.2403  0.2110 -0.0336
 7438SOL    HW133776   3.646   1.621   9.421 -0.0922 -0.0147  0.6580
 7438SOL    HW233777   3.623   1.474   9.418  0.1466  0.4669  0.9803
 7439SOL     OW33778   3.177   0.269   5.407  0.2280 -0.1551 -0.0762
 7439SOL    HW133779   3.245   0.282   5.341  0.8200 -0.9832  0.3630
 7439SOL    HW233780   3.145   0.357   5.425  0.8577  0.5435 -2.3177
 7440SOL     OW33781   0.330   2.822   0.152 -0.1499 -0.1244  0.4675
 7440SOL    HW133782   0.319   2.825   0.247  1.4293 -0.3829  0.6589
 7440SOL    HW233783   0.419   2.855   0.140  0.0600 -1.3187 -1.2513
 7441SOL     OW33784   2.825   0.745   6.834  0.1004 -0.7470 -0.0151
 7441SOL    HW133785   2.744   0.699   6.809  0.3087 -0.3095 -1.5102
 7441SOL    HW233786   2.843   0.788   6.751  0.3502 -0.1336  0.3592
 7442SOL     OW33787   2.501   0.401   3.349 -0.7419 -0.3186 -0.1523
 7442SOL    HW133788   2.466   0.445   3.271 -0.8541  0.1825  0.1801
 7442SOL    HW233789   2.423   0.352   3.373  0.0258 -1.4680 -0.0213
 7443SOL     OW33790   4.145   0.266   2.772  0.1134 -0.3803 -0.4353
 7443SOL    HW133791   4.131   0.234   2.683 -2.1560  1.4328 -0.7509
 7443SOL    HW233792   4.227   0.316   2.776 -0.0663 -0.1856  0.8308
 7444SOL     OW33793   4.231   2.384   9.281 -0.0485  0.2030  0.1259
 7444SOL    HW133794   4.252   2.450   9.347 -0.2561 -1.3693  1.7484
 7444SOL    HW233795   4.316   2.372   9.237 -0.3985  1.8962 -0.9981
 7445SOL     OW33796   2.517   2.549   8.098  0.1931 -0.4476  0.0939
 7445SOL    HW133797   2.479   2.613   8.038 -0.7297 -2.2282 -1.2007
 7445SOL    HW233798   2.435   2.511   8.127  0.9783 -0.9120  1.6994
 7446SOL     OW33799   1.837   1.462   6.683  0.2347 -0.0380  0.6170
 7446SOL    HW133800   1.929   1.485   6.670  0.5776 -2.0333 -0.4467
 7446SOL    HW233801   1.835   1.425   6.772 -1.9804 -1.1493  0.1052
 7447SOL     OW33802   1.320   0.611   7.708 -0.0928  0.0980  0.4955
 7447SOL    HW133803   1.400   0.655   7.737 -0.3799  0.0813  1.3123
 7447SOL    HW233804   1.335   0.599   7.614 -1.4637 -0.1670  0.3109
 7448SOL     OW33805   4.445   0.138   3.480 -0.5195 -0.0592 -0.5001
 7448SOL    HW133806   4.494   0.088   3.415 -1.1168  1.2066 -1.9196
 7448SOL    HW233807   4.455   0.083   3.557  1.1631  0.9600  0.0009
 7449SOL     OW33808   1.074   1.481  10.837 -0.7766  1.5541  0.3456
 7449SOL    HW133809   1.093   1.503  10.746 -1.2830  1.2584  0.1712
 7449SOL    HW233810   1.157   1.508  10.877 -0.4501  1.2116 -0.1089
 7450SOL     OW33811   1.552   4.498  14.125 -0.8405  0.3307 -0.0012
 7450SOL    HW133812   1.576   4.498  14.217  0.5884  1.4008 -0.3663
 7450SOL    HW233813   1.599   4.577  14.096  0.7755 -1.3403 -1.9641
 7451SOL     OW33814   2.329   1.112   8.625 -0.2348 -0.2726 -0.3682
 7451SOL    HW133815   2.275   1.052   8.574 -2.3096  2.0920 -0.9335
 7451SOL    HW233816   2.303   1.201   8.603  0.5315  0.3664  1.3365
 7452SOL     OW33817   3.530   2.979   2.782 -0.0952  0.6804  0.2247
 7452SOL    HW133818   3.559   2.926   2.708 -0.4908  2.6075 -1.2825
 7452SOL    HW233819   3.607   3.035   2.788 -1.5804  2.9699 -2.1993
 7453SOL     OW33820   3.619   0.287   1.141 -0.2909 -0.0027 -0.5225
 7453SOL    HW133821   3.669   0.362   1.171  0.0053 -0.3295 -0.1962
 7453SOL    HW233822   3.536   0.300   1.188  0.3040  2.1362 -0.1055
 7454SOL     OW33823   0.716   0.409   8.484 -0.5676 -0.2466  0.1039
 7454SOL    HW133824   0.808   0.399   8.459 -0.3555 -0.9315  1.1472
 7454SOL    HW233825   0.671   0.410   8.399 -0.4690  0.2263  0.0603
 7455SOL     OW33826   1.523   3.863  15.071  0.5366  0.5335 -0.5246
 7455SOL    HW133827   1.430   3.841  15.083  0.0083  2.4312 -1.0147
 7455SOL    HW233828   1.559   3.781  15.038 -1.1558 -0.1827 -0.5933
 7456SOL     OW33829   4.555   1.508   8.219  0.0946 -0.3700  0.1138
 7456SOL    HW133830   4.610   1.555   8.156 -0.7797 -1.0187 -1.1519
 7456SOL    HW233831   4.475   1.561   8.217  0.6457  0.3931 -2.7905
 7457SOL     OW33832   4.161   3.927   2.449  0.2230  0.0451 -0.4723
 7457SOL    HW133833   4.111   3.849   2.474  0.4170 -0.2583 -1.0309
 7457SOL    HW233834   4.241   3.919   2.500 -0.5827  0.0242  0.7886
 7458SOL     OW33835   3.005   4.685   2.996 -0.1689 -0.0497  0.2177
 7458SOL    HW133836   2.966   4.604   2.963  1.1390 -0.9914  0.9768
 7458SOL    HW233837   3.096   4.657   3.007  0.1034  0.4829 -0.6469
 7459SOL     OW33838   0.144   3.161   8.793  0.2327 -0.4615 -0.3886
 7459SOL    HW133839   0.138   3.071   8.827 -0.2511 -0.1881  0.2512
 7459SOL    HW233840   0.205   3.192   8.860 -1.2054 -1.1802  1.2732
 7460SOL     OW33841   0.375   1.717  17.673 -0.5896  0.1700 -0.3997
 7460SOL    HW133842   0.348   1.674   0.057 -0.0378  0.5561 -0.0146
 7460SOL    HW233843   0.423   1.790   0.014 -0.2446 -0.3714  0.1993
 7461SOL     OW33844   4.440   2.783   3.111  0.0826 -0.0793 -0.4532
 7461SOL    HW133845   4.468   2.784   3.203 -1.1166  0.9905 -0.0940
 7461SOL    HW233846   4.415   2.875   3.098 -1.6678 -0.8685 -2.6076
 7462SOL     OW33847   1.630   1.314   0.756  0.1605  0.2504  0.4541
 7462SOL    HW133848   1.610   1.381   0.690 -0.4214 -0.2413  0.1184
 7462SOL    HW233849   1.645   1.370   0.832  0.2411 -0.9769  1.3294
 7463SOL     OW33850   0.578   1.358   9.612 -0.0645  0.2056 -0.0893
 7463SOL    HW133851   0.561   1.376   9.704 -1.2029 -1.5640  0.0615
 7463SOL    HW233852   0.489   1.369   9.578  0.9389 -0.0643 -2.7721
 7464SOL     OW33853   4.301   1.874   9.078  0.1866 -0.4121  0.8758
 7464SOL    HW133854   4.379   1.885   9.132 -0.2908  0.4518  1.3998
 7464SOL    HW233855   4.292   1.780   9.068 -1.8473  0.0236 -1.7756
 7465SOL     OW33856   2.084   0.286  14.037 -0.2381 -0.5971  0.6417
 7465SOL    HW133857   2.029   0.318  13.965 -1.6891 -1.7328  1.2496
 7465SOL    HW233858   2.162   0.342  14.036  2.1419 -3.9128  0.2442
 7466SOL     OW33859   2.416   2.065  12.323 -0.7830 -0.1145  0.3824
 7466SOL    HW133860   2.453   2.032  12.242 -1.2770  0.2314  0.0178
 7466SOL    HW233861   2.342   2.006  12.335 -1.5135  0.9096  0.8917
 7467SOL     OW33862   3.226   4.337   4.281  0.6812  0.1590  0.1371
 7467SOL    HW133863   3.165   4.407   4.307  0.0308 -0.1876 -0.4501
 7467SOL    HW233864   3.215   4.338   4.186  0.1565  0.9426  0.2044
 7468SOL     OW33865   4.404   0.425   5.896  0.0186 -0.2106 -0.6169
 7468SOL    HW133866   4.398   0.509   5.942 -1.3238 -0.7398  0.1554
 7468SOL    HW233867   4.485   0.435   5.845  0.8783  0.7775  0.9429
 7469SOL     OW33868   1.474   3.418   0.792 -0.1615 -0.3050  0.3159
 7469SOL    HW133869   1.417   3.495   0.787  1.2341  0.7674  1.1754
 7469SOL    HW233870   1.565   3.446   0.798  0.4667 -1.4630 -3.7082
 7470SOL     OW33871   0.975   3.404   8.614  0.0538  0.0105 -0.0212
 7470SOL    HW133872   1.001   3.360   8.533  0.9843  0.0467  0.2597
 7470SOL    HW233873   1.046   3.462   8.640  1.4236 -1.6683  0.0135
 7471SOL     OW33874   2.390   2.031   2.755 -0.0058 -0.3433  0.1776
 7471SOL    HW133875   2.464   1.978   2.727  0.8936  0.5350  0.8916
 7471SOL    HW233876   2.402   2.107   2.698 -1.4708 -1.3769 -1.4942
 7472SOL     OW33877   4.389   0.956   6.674 -0.9592 -0.3236 -0.0973
 7472SOL    HW133878   4.453   1.008   6.625  0.6659 -0.9538  1.3607
 7472SOL    HW233879   4.338   0.904   6.612  1.5465  0.5945 -2.9363
 7473SOL     OW33880   0.872   2.226   8.769 -0.7418  0.7129  0.2328
 7473SOL    HW133881   0.813   2.172   8.821  1.7199 -0.9758  1.2860
 7473SOL    HW233882   0.890   2.306   8.819  2.1703 -0.0004  0.3267
 7474SOL     OW33883   0.087   2.874   3.182  0.2243 -0.6756 -0.1863
 7474SOL    HW133884   0.015   2.821   3.148 -0.1343  0.5980 -1.3862
 7474SOL    HW233885   0.121   2.810   3.245  0.5771  0.1419  0.4576
 7475SOL     OW33886   3.581   0.385  17.296 -0.0568  0.0499 -0.0515
 7475SOL    HW133887   3.582   0.300  17.251  1.1736  0.8032 -1.4347
 7475SOL    HW233888   3.493   0.386  17.334 -0.5525 -2.0784 -1.1180
 7476SOL     OW33889   4.586   3.067   2.339  0.3694 -0.6904  0.2786
 7476SOL    HW133890   4.549   2.980   2.354  1.5016 -0.9169  1.7010
 7476SOL    HW233891   4.545   3.081   2.253  1.0126  1.0066  0.2480
 7477SOL     OW33892   3.215   1.832   5.522 -0.1558 -0.1303  0.3866
 7477SOL    HW133893   3.205   1.808   5.430  1.1560  0.9954 -0.0425
 7477SOL    HW233894   3.184   1.921   5.509  0.0059 -0.2357 -0.7372
 7478SOL     OW33895   3.598   0.120   6.619  0.0302  0.4740  0.0412
 7478SOL    HW133896   3.612   0.091   6.529 -2.1892 -3.5741  0.9905
 7478SOL    HW233897   3.689   0.122   6.649 -0.1781 -1.8706  0.8707
 7479SOL     OW33898   0.914   4.115   0.596 -0.4677  0.3520  0.6727
 7479SOL    HW133899   0.928   4.055   0.669  0.0744 -1.0704 -0.5988
 7479SOL    HW233900   0.820   4.133   0.598 -0.5455 -0.1496  1.4206
 7480SOL     OW33901   0.206   2.538  10.890 -0.2886  0.2181 -0.5259
 7480SOL    HW133902   0.165   2.591  10.958 -1.0724 -1.0888  0.0081
 7480SOL    HW233903   0.137   2.542  10.824 -1.0481 -0.0353  0.2518
 7481SOL     OW33904   4.644   0.636   9.807  0.6030  0.0349  0.0912
 7481SOL    HW133905   4.593   0.567   9.851  0.3213  1.3354  1.8269
 7481SOL    HW233906   4.597   0.711   9.845  0.1502 -0.0722 -0.2538
 7482SOL     OW33907   2.175   3.313   2.976 -0.4312  0.3612 -0.1675
 7482SOL    HW133908   2.111   3.261   2.927 -0.7137  1.5931 -1.0925
 7482SOL    HW233909   2.118   3.381   3.010 -0.9785  1.1792 -2.6874
 7483SOL     OW33910   3.097   3.258   4.168 -0.1711  0.2852  0.4633
 7483SOL    HW133911   3.043   3.302   4.103  1.2152 -0.3190 -1.1100
 7483SOL    HW233912   3.186   3.275   4.138  0.0242  0.5611  1.1919
 7484SOL     OW33913   1.645   2.696   5.407  0.0116 -0.5536 -0.2183
 7484SOL    HW133914   1.609   2.706   5.318  0.7167  0.5834 -0.3691
 7484SOL    HW233915   1.739   2.686   5.397  0.1166  0.7126 -0.4090
 7485SOL     OW33916   2.510   0.299  14.730  0.4752  0.8957 -0.6720
 7485SOL    HW133917   2.440   0.235  14.745  1.3687 -0.2415 -1.3764
 7485SOL    HW233918   2.538   0.313  14.821 -0.3171 -0.8081 -0.1641
 7486SOL     OW33919   2.681   1.452   1.476  0.0107  0.1594 -0.1346
 7486SOL    HW133920   2.685   1.518   1.406  2.3958 -0.1200 -0.2836
 7486SOL    HW233921   2.768   1.412   1.481 -0.7876 -1.3873  1.3268
 7487SOL     OW33922   3.741   0.075   8.367 -0.9064  0.4112 -0.3363
 7487SOL    HW133923   3.827   0.109   8.395 -1.3386  0.5749  0.7895
 7487SOL    HW233924   3.708   0.155   8.326 -3.1872  0.1623  1.0531
 7488SOL     OW33925   1.439   1.403   8.689  0.3698 -0.6763 -0.8772
 7488SOL    HW133926   1.514   1.391   8.631  1.0185  1.6559 -0.5452
 7488SOL    HW233927   1.365   1.365   8.643 -1.0335  0.8024  0.1450
 7489SOL     OW33928   0.518   1.427   4.397 -0.2994 -0.6181 -0.3113
 7489SOL    HW133929   0.432   1.392   4.418 -0.1838 -0.5243  0.3345
 7489SOL    HW233930   0.519   1.502   4.457  1.2983  0.5647 -1.8101
 7490SOL     OW33931   4.233   0.532  13.809 -0.3996  0.5974  0.3650
 7490SOL    HW133932   4.164   0.588  13.845 -0.0211  0.6067  1.0793
 7490SOL    HW233933   4.229   0.552  13.716  1.1424 -0.0746  0.1570
 7491SOL     OW33934   1.029   1.975  17.245  0.0930  0.1776  0.0501
 7491SOL    HW133935   0.974   2.048  17.218  0.6221  0.5624  0.0027
 7491SOL    HW233936   1.039   1.929  17.162 -3.8366  0.6999 -0.6983
 7492SOL     OW33937   0.542   1.152  10.025  0.4324  0.0386  0.5325
 7492SOL    HW133938   0.577   1.180  10.110 -0.1156 -0.1814  0.8334
 7492SOL    HW233939   0.565   1.059  10.028  1.1915  0.2064 -0.0339
 7493SOL     OW33940   4.210   4.364  14.669  0.0001 -0.1182  0.0636
 7493SOL    HW133941   4.209   4.459  14.670 -1.7621 -0.1177 -0.4438
 7493SOL    HW233942   4.167   4.341  14.751  0.2829  0.2453  0.3095
 7494SOL     OW33943   2.005   0.897  13.097  0.5503  0.3345  0.1355
 7494SOL    HW133944   1.952   0.825  13.131  0.0685  0.9946  0.7796
 7494SOL    HW233945   2.087   0.890  13.147  1.2036 -0.5632 -1.0824
 7495SOL     OW33946   0.499   3.684   1.745 -0.5817 -0.6017 -0.1808
 7495SOL    HW133947   0.451   3.758   1.782  0.9031  0.7445 -0.9431
 7495SOL    HW233948   0.538   3.656   1.828  0.7108 -1.1081 -0.9523
 7496SOL     OW33949   0.925   0.547  13.987 -0.5309  0.1821 -0.0036
 7496SOL    HW133950   0.933   0.452  13.976  1.5400  0.2012  1.2110
 7496SOL    HW233951   0.939   0.563  14.080  0.6874  0.0555 -0.1689
 7497SOL     OW33952   4.654   0.052  12.623  0.1830 -0.0343  0.1941
 7497SOL    HW133953   4.592   0.113  12.663  2.7298  0.9219  2.6490
 7497SOL    HW233954   4.677   0.077  12.534 -1.3692  2.0477  0.3860
 7498SOL     OW33955   1.852   1.820   3.939  0.2945 -0.1994  0.4145
 7498SOL    HW133956   1.833   1.898   3.990  0.6751  0.4571 -0.4420
 7498SOL    HW233957   1.838   1.857   3.851 -0.8394 -1.6901 -0.0358
 7499SOL     OW33958   0.498   0.867   8.836  0.1400  0.6429 -0.0673
 7499SOL    HW133959   0.529   0.869   8.926  0.9893  0.8084 -0.3705
 7499SOL    HW233960   0.563   0.807   8.798 -0.0433  0.1176  0.4527
 7500SOL     OW33961   1.892   1.330   8.421  0.5838 -0.1537 -0.1633
 7500SOL    HW133962   1.849   1.409   8.389 -1.0190 -0.4552  1.2201
 7500SOL    HW233963   1.980   1.352   8.392 -0.0962 -0.1641 -2.2213
 7501SOL     OW33964   3.173   4.270  16.085 -0.3148 -0.4281  1.1245
 7501SOL    HW133965   3.170   4.235  15.995  1.2755  0.1689  0.8523
 7501SOL    HW233966   3.157   4.361  16.060 -0.7693 -0.6535  0.5707
 7502SOL     OW33967   0.957   2.046  10.666  0.2657  0.3440  1.0166
 7502SOL    HW133968   0.874   2.006  10.693 -0.2793  0.5722 -0.2717
 7502SOL    HW233969   0.967   2.115  10.732 -1.8071  0.4608  1.2231
 7503SOL     OW33970   4.281   1.800   4.200  0.1107  0.1194  0.1471
 7503SOL    HW133971   4.292   1.881   4.149 -2.5849  0.5288  0.1804
 7503SOL    HW233972   4.258   1.740   4.129 -0.0981  0.5635 -0.1654
 7504SOL     OW33973   2.071   3.932  13.659  1.0391  0.1171 -0.0484
 7504SOL    HW133974   2.064   3.948  13.753 -1.1326 -2.2120  0.2079
 7504SOL    HW233975   2.093   3.839  13.655 -0.7088 -0.2831 -0.4756
 7505SOL     OW33976   0.612   2.024  10.497 -0.0666  0.4860  0.6744
 7505SOL    HW133977   0.611   2.007  10.403 -0.7735 -0.6720  0.8932
 7505SOL    HW233978   0.621   2.119  10.492 -0.3611  0.5234  0.8754
 7506SOL     OW33979   1.108   0.040   8.751  0.8964  0.4133  0.6754
 7506SOL    HW133980   1.080   0.132   8.751 -1.3952 -0.2847 -2.2710
 7506SOL    HW233981   1.110   0.033   8.847 -1.6579 -1.8329  0.5587
 7507SOL     OW33982   1.981   2.581   3.653  0.3927  0.2862 -0.1301
 7507SOL    HW133983   1.967   2.488   3.667 -1.5202  0.3057 -1.9612
 7507SOL    HW233984   1.959   2.582   3.560 -1.1826  0.3241  0.2520
 7508SOL     OW33985   3.774   1.698   9.070  0.5964  0.2564 -0.4693
 7508SOL    HW133986   3.838   1.674   9.137  0.8130  0.6077 -0.5465
 7508SOL    HW233987   3.728   1.614   9.062 -2.8933  2.2968 -1.7835
 7509SOL     OW33988   3.450   0.525   7.461  0.6318 -0.4527 -0.2261
 7509SOL    HW133989   3.383   0.473   7.505 -0.2364  0.9094  0.0438
 7509SOL    HW233990   3.400   0.584   7.406  0.0334 -0.1668  0.6293
 7510SOL     OW33991   4.040   2.855   9.194 -0.0060 -0.3383 -0.2378
 7510SOL    HW133992   3.962   2.844   9.247  0.6115 -1.5261  0.4256
 7510SOL    HW233993   4.075   2.934   9.235 -1.7922 -0.1649  0.9093
 7511SOL     OW33994   0.345   1.117  15.898  0.1724 -0.0827 -0.2416
 7511SOL    HW133995   0.408   1.073  15.955 -0.6663 -2.3564 -1.0711
 7511SOL    HW233996   0.307   1.053  15.838 -0.5527  0.3265 -0.2216
 7512SOL     OW33997   0.558   3.136   7.725 -0.1804 -0.3680  0.5291
 7512SOL    HW133998   0.531   3.205   7.786 -0.5943  0.9461 -1.1552
 7512SOL    HW233999   0.632   3.180   7.684 -1.0720 -0.7055 -1.4668
 7513SOL     OW34000   1.937   4.150  13.537 -0.2611 -0.6686  0.2005
 7513SOL    HW134001   1.961   4.073  13.588  1.4114 -0.9279 -0.9709
 7513SOL    HW234002   1.862   4.106  13.496 -0.1127  1.4866 -2.3923
 7514SOL     OW34003   3.365   3.499   4.350  1.1916 -0.0518  0.1506
 7514SOL    HW134004   3.436   3.525   4.408  1.0844 -1.5976  0.9502
 7514SOL    HW234005   3.333   3.589   4.342  1.5681  0.2442  2.1005
 7515SOL     OW34006   0.904   0.439   6.980 -0.4956  0.4142  0.3182
 7515SOL    HW134007   0.858   0.393   6.910  0.0260 -3.2582  2.3885
 7515SOL    HW234008   0.987   0.390   6.973 -1.3362 -1.1376  1.2227
 7516SOL     OW34009   1.439   3.794  13.584  0.9219 -0.3290  0.0939
 7516SOL    HW134010   1.367   3.814  13.525  3.0337 -1.4569 -2.8522
 7516SOL    HW234011   1.408   3.838  13.663  0.1509  2.1765 -1.6325
 7517SOL     OW34012   2.024   2.969   3.687  0.5329 -0.0032 -0.1408
 7517SOL    HW134013   2.084   2.974   3.762  1.3188 -1.5861 -0.6560
 7517SOL    HW234014   1.938   2.982   3.727  0.9682  0.1002  0.7658
 7518SOL     OW34015   3.993   1.090  16.172  0.1248  0.0163  0.5982
 7518SOL    HW134016   3.921   1.142  16.138  0.7984  0.6543  0.1467
 7518SOL    HW234017   4.015   1.025  16.105  1.8150  0.1433  1.0234
 7519SOL     OW34018   0.663   1.136  10.638  0.1083  0.4528  0.4186
 7519SOL    HW134019   0.733   1.119  10.575  0.9982 -0.7044  1.7205
 7519SOL    HW234020   0.599   1.079  10.597 -0.6836  0.5722  1.5030
 7520SOL     OW34021   3.708   4.167   6.644  0.0145  0.9562 -0.0633
 7520SOL    HW134022   3.687   4.147   6.553 -0.7322 -0.4793  0.4179
 7520SOL    HW234023   3.774   4.101   6.663  1.4476  2.8628  1.5534
 7521SOL     OW34024   1.987   0.707   3.530  0.0736 -0.3177 -0.6103
 7521SOL    HW134025   2.010   0.678   3.618  0.6474 -0.0106 -0.6585
 7521SOL    HW234026   2.042   0.652   3.475  1.0253  1.1754 -1.1380
 7522SOL     OW34027   1.422   3.214   7.858 -0.5509  0.3821  0.3856
 7522SOL    HW134028   1.502   3.253   7.893 -0.6877  0.6147  0.4373
 7522SOL    HW234029   1.375   3.296   7.840  1.8175  1.5663 -0.3336
 7523SOL     OW34030   1.935   2.566   6.887  0.1066  0.3105 -1.0965
 7523SOL    HW134031   1.841   2.576   6.905  0.8866  1.6515  2.1085
 7523SOL    HW234032   1.951   2.472   6.887  0.2678  0.3454  0.9943
 7524SOL     OW34033   3.420   0.179   4.025 -0.6954  0.3152 -0.4172
 7524SOL    HW134034   3.332   0.152   3.996 -0.1057 -0.5939 -1.3727
 7524SOL    HW234035   3.454   0.097   4.060 -0.3764  1.0869  1.0695
 7525SOL     OW34036   0.892   0.816   9.200  0.0447 -0.0176  0.1053
 7525SOL    HW134037   0.975   0.769   9.192  0.7870  0.9983  2.0004
 7525SOL    HW234038   0.875   0.791   9.291  1.3548 -0.8960  0.1147
 7526SOL     OW34039   2.066   0.163  12.688  0.6105 -0.0147  0.0843
 7526SOL    HW134040   2.148   0.114  12.692  0.0404 -0.9206  0.6742
 7526SOL    HW234041   2.011   0.086  12.672  1.7474 -0.4143 -1.9642
 7527SOL     OW34042   4.568   0.239   5.662 -0.5306 -0.1647  0.3756
 7527SOL    HW134043   4.634   0.174   5.639  0.3220  0.3597  1.3138
 7527SOL    HW234044   4.482   0.207   5.635 -0.2042  0.3584 -1.2544
 7528SOL     OW34045   0.503   2.903   8.515  1.0227  0.6578  0.3943
 7528SOL    HW134046   0.572   2.860   8.464 -0.4385  0.0822 -1.0742
 7528SOL    HW234047   0.503   2.990   8.476 -1.4757  0.4060 -0.1936
 7529SOL     OW34048   0.624   4.360   1.939  0.0889 -0.7933  0.0999
 7529SOL    HW134049   0.596   4.448   1.914  2.0192 -0.2683 -0.2525
 7529SOL    HW234050   0.609   4.370   2.033 -0.3503 -0.0007 -0.0529
 7530SOL     OW34051   3.635   2.908  10.553 -0.1161 -0.3387 -0.3522
 7530SOL    HW134052   3.656   2.818  10.577 -1.3678  0.0874  2.3360
 7530SOL    HW234053   3.654   2.898  10.460 -0.3235 -1.1219 -0.3124
 7531SOL     OW34054   2.135   3.358  11.026 -0.1204  0.5527  0.1821
 7531SOL    HW134055   2.219   3.371  11.070  1.2569 -0.4383 -2.1795
 7531SOL    HW234056   2.089   3.305  11.091 -1.8165  3.0227  1.0063
 7532SOL     OW34057   3.172   4.057  10.477  0.4472 -0.0789  0.3679
 7532SOL    HW134058   3.178   3.967  10.444 -0.6530 -0.1349  0.3286
 7532SOL    HW234059   3.209   4.043  10.564 -0.4424 -0.0974  0.7412
 7533SOL     OW34060   3.483   1.317  15.364  0.0831  0.0295  0.4667
 7533SOL    HW134061   3.481   1.370  15.444  0.6932  0.7792 -0.0175
 7533SOL    HW234062   3.431   1.370  15.303  1.0286  0.5081  0.0894
 7534SOL     OW34063   0.044   4.196   6.062  0.2774 -0.3084 -0.3837
 7534SOL    HW134064   0.083   4.136   6.126  0.3947 -3.0051 -2.9564
 7534SOL    HW234065   0.082   4.159   5.982  0.7081  2.1862 -1.3236
 7535SOL     OW34066   0.328   3.881   4.255  0.0663  0.1018 -0.1483
 7535SOL    HW134067   0.306   3.964   4.297 -0.7718  0.3010 -0.9759
 7535SOL    HW234068   0.412   3.854   4.292  1.7117  2.1678 -2.3558
 7536SOL     OW34069   1.795   0.242   3.797  0.5820  0.2563  0.2418
 7536SOL    HW134070   1.725   0.183   3.770  0.5546  0.2631  0.2991
 7536SOL    HW234071   1.868   0.221   3.738  1.2684  0.0303  1.1751
 7537SOL     OW34072   2.031   1.294  13.876 -0.3370  0.3478 -0.2848
 7537SOL    HW134073   2.034   1.322  13.967 -1.6308 -2.5054  0.6334
 7537SOL    HW234074   2.072   1.208  13.870 -0.7639  0.2709 -2.3489
 7538SOL     OW34075   3.989   0.351  13.760  0.1529 -0.9743 -0.0774
 7538SOL    HW134076   4.008   0.445  13.770 -0.8465 -0.7333 -0.4078
 7538SOL    HW234077   3.905   0.342  13.806 -0.3459  0.2704 -0.7326
 7539SOL     OW34078   1.719   0.653   2.811  0.3126  0.1831  0.0726
 7539SOL    HW134079   1.642   0.612   2.771 -1.4093  1.5389  1.9941
 7539SOL    HW234080   1.665   0.728   2.836  1.1382  0.3450  1.3325
 7540SOL     OW34081   0.433   4.387   8.797  0.1546 -0.2114  0.4287
 7540SOL    HW134082   0.491   4.354   8.865  1.2562  1.2754  0.1994
 7540SOL    HW234083   0.491   4.376   8.722  1.4550  1.8897  1.1401
 7541SOL     OW34084   0.267   2.283   5.364 -0.3084  0.8051  0.2480
 7541SOL    HW134085   0.194   2.294   5.304 -0.1578  0.4828  0.0041
 7541SOL    HW234086   0.218   2.289   5.446  0.7643 -3.1705  1.1934
 7542SOL     OW34087   0.531   1.585   6.103  0.1806  0.0544 -0.1133
 7542SOL    HW134088   0.546   1.542   6.019  0.4667 -0.3847  0.1634
 7542SOL    HW234089   0.577   1.524   6.161  1.9136  0.1869 -1.3151
 7543SOL     OW34090   0.131   4.624   3.659 -0.2550  0.3429 -0.1120
 7543SOL    HW134091   0.206   4.567   3.674 -0.5148  0.1550  0.4746
 7543SOL    HW234092   0.131   4.631   3.564 -2.5923 -1.3336 -0.2533
 7544SOL     OW34093   2.399   0.949   8.957 -0.6174  0.3881  0.3591
 7544SOL    HW134094   2.348   0.928   8.879 -2.0732  1.5238  1.0106
 7544SOL    HW234095   2.487   0.943   8.918 -0.7664  5.7078 -0.8348
 7545SOL     OW34096   2.229   0.581  17.568  0.2098 -0.0164 -0.3655
 7545SOL    HW134097   2.167   0.579  17.496 -0.8928 -1.1182  0.6080
 7545SOL    HW234098   2.226   0.486  17.580  3.1076 -0.2082 -1.1657
 7546SOL     OW34099   4.680   4.611   5.136 -0.3351  0.6543 -0.1203
 7546SOL    HW134100   4.586   4.602   5.155  0.2720 -2.0242  1.5782
 7546SOL    HW234101   4.710   4.553   5.206 -2.2435 -0.4475 -0.2153
 7547SOL     OW34102   0.399   2.542   1.230  0.6583  0.5661 -0.0682
 7547SOL    HW134103   0.392   2.620   1.285  1.1565 -0.0302  0.8578
 7547SOL    HW234104   0.442   2.581   1.155  3.0351 -0.4770  0.7473
 7548SOL     OW34105   0.498   1.552  12.319  0.2472  0.1683 -0.0618
 7548SOL    HW134106   0.497   1.550  12.224 -2.1918 -2.2431 -0.0051
 7548SOL    HW234107   0.590   1.578  12.327 -0.2354  1.4687  1.1316
 7549SOL     OW34108   4.137   3.925  12.056 -0.0715  0.0178 -0.4451
 7549SOL    HW134109   4.051   3.964  12.042  0.2527  0.8614 -0.0949
 7549SOL    HW234110   4.192   4.003  12.055  0.8981 -0.6578 -0.7218
 7550SOL     OW34111   3.675   1.131   5.811 -0.2524 -0.1976  0.0883
 7550SOL    HW134112   3.736   1.095   5.875  2.0564  3.2629 -0.1551
 7550SOL    HW234113   3.654   1.207   5.865 -2.9573 -0.7359 -0.2133
 7551SOL     OW34114   0.982   0.912  10.466  0.1586  0.1764  0.6980
 7551SOL    HW134115   0.997   0.880  10.377  2.6424 -0.1298  1.2237
 7551SOL    HW234116   0.903   0.961  10.446  1.6416  2.4328  0.3443
 7552SOL     OW34117   2.561   3.703   2.092 -0.4430 -0.2173 -0.4075
 7552SOL    HW134118   2.533   3.613   2.081  0.9686 -0.4762 -1.8493
 7552SOL    HW234119   2.656   3.694   2.101 -0.0424  0.7968 -3.5671
 7553SOL     OW34120   0.766   2.140  14.944  0.1290  0.3211  0.1698
 7553SOL    HW134121   0.833   2.089  14.899 -1.4625 -0.6889 -1.0329
 7553SOL    HW234122   0.766   2.221  14.892  0.3964  0.6238  0.6309
 7554SOL     OW34123   2.854   0.740   5.018  0.0751 -0.0196 -0.0918
 7554SOL    HW134124   2.836   0.776   5.105  0.9654  1.6818 -0.6206
 7554SOL    HW234125   2.943   0.771   4.999  0.8791 -1.7749  0.7236
 7555SOL     OW34126   2.331   1.036   1.399 -0.6610  0.2819 -0.3404
 7555SOL    HW134127   2.268   0.965   1.396 -0.5404  0.2169 -1.2014
 7555SOL    HW234128   2.269   1.107   1.416  0.1585  0.7874  0.5335
 7556SOL     OW34129   3.834   0.818   1.600  0.4481  1.4039  0.0999
 7556SOL    HW134130   3.909   0.865   1.635  0.2732  1.5772  0.2469
 7556SOL    HW234131   3.774   0.824   1.675 -0.1912 -1.2805 -0.1975
 7557SOL     OW34132   0.560   2.828   9.587  0.8452  0.3195  0.4909
 7557SOL    HW134133   0.574   2.862   9.676  0.9431  0.6797  0.3396
 7557SOL    HW234134   0.532   2.737   9.596 -0.3398  0.4877 -1.7312
 7558SOL     OW34135   0.580   3.595  11.247 -0.1379 -0.2219 -0.3113
 7558SOL    HW134136   0.552   3.677  11.288  0.4813 -0.8746  1.4516
 7558SOL    HW234137   0.514   3.573  11.182  2.1680 -3.2073 -1.6150
 7559SOL     OW34138   2.070   4.429   5.582  0.2064  0.0542  0.8443
 7559SOL    HW134139   2.091   4.353   5.527 -2.1274  1.0822 -1.4853
 7559SOL    HW234140   2.104   4.409   5.669  3.4962  1.7816 -0.0398
 7560SOL     OW34141   2.286   0.864   6.587  0.1002  0.4452 -0.2402
 7560SOL    HW134142   2.201   0.831   6.559  0.2526 -1.4965  1.5579
 7560SOL    HW234143   2.342   0.813   6.529  0.3238  0.7163 -0.2679
 7561SOL     OW34144   3.894   4.381   5.589  0.2729  0.0919  0.1689
 7561SOL    HW134145   3.800   4.360   5.591  0.2196  0.2070 -1.1686
 7561SOL    HW234146   3.933   4.298   5.561 -1.4575 -0.4982 -0.5456
 7562SOL     OW34147   2.034   4.006  16.179 -0.1565 -0.1652 -0.1371
 7562SOL    HW134148   1.957   3.951  16.191  1.5026 -2.9541 -2.3042
 7562SOL    HW234149   2.062   3.978  16.092 -0.0031  2.1057 -0.8010
 7563SOL     OW34150   4.347   3.189   8.046 -0.1925 -0.0531  0.4762
 7563SOL    HW134151   4.332   3.282   8.062 -1.8355  0.3984 -3.4976
 7563SOL    HW234152   4.367   3.156   8.133 -2.6848 -2.5927  0.0818
 7564SOL     OW34153   0.134   0.949   9.788  0.0345  0.1051  0.1921
 7564SOL    HW134154   0.081   1.017   9.830 -0.9426  1.0072 -2.5373
 7564SOL    HW234155   0.196   0.937   9.860  0.8662  1.1281 -0.3553
 7565SOL     OW34156   2.632   0.471   4.432  0.5520 -0.9406  0.2316
 7565SOL    HW134157   2.669   0.559   4.441 -1.4654 -0.2083  1.3653
 7565SOL    HW234158   2.628   0.469   4.336  0.5927 -2.4490  0.2666
 7566SOL     OW34159   2.208   1.829   8.792  0.1172  0.2671  0.6708
 7566SOL    HW134160   2.196   1.770   8.867  1.7056  1.2121  1.6800
 7566SOL    HW234161   2.261   1.785   8.726 -1.7552  0.6529 -1.0854
 7567SOL     OW34162   2.056   4.351   5.265  0.4485 -0.6053  0.8451
 7567SOL    HW134163   1.973   4.305   5.256 -0.4588  1.0211  0.8128
 7567SOL    HW234164   2.042   4.441   5.233 -0.8269 -0.6130  1.3988
 7568SOL     OW34165   0.299   1.181   4.049 -0.4593  0.1260  0.2742
 7568SOL    HW134166   0.356   1.257   4.038  1.1178 -0.9855  0.8196
 7568SOL    HW234167   0.276   1.162   3.958  2.6717 -2.3237  0.0200
 7569SOL     OW34168   0.940   0.434   0.275  0.3993  0.0418 -0.0699
 7569SOL    HW134169   1.028   0.465   0.294  0.7246 -1.7472  1.3208
 7569SOL    HW234170   0.910   0.430   0.366  1.2020  2.2451  0.2822
 7570SOL     OW34171   3.300   1.634  16.135  0.4323 -0.5233  0.6812
 7570SOL    HW134172   3.288   1.721  16.172  0.7102  0.1110 -0.7119
 7570SOL    HW234173   3.314   1.656  16.043  2.4511  0.6405  1.2653
 7571SOL     OW34174   2.837   1.682   3.918 -0.0799 -1.0542  0.0984
 7571SOL    HW134175   2.778   1.662   3.991 -0.7746 -0.3594 -0.2681
 7571SOL    HW234176   2.820   1.615   3.851 -0.2798 -0.0340 -0.8752
 7572SOL     OW34177   2.453   0.641   7.208  0.2293  0.5550  0.4883
 7572SOL    HW134178   2.537   0.672   7.241  1.3135 -1.3219 -0.5131
 7572SOL    HW234179   2.413   0.622   7.293 -1.0513  0.1652 -0.2028
 7573SOL     OW34180   1.385   0.335  10.499  0.0785 -0.0561  0.5929
 7573SOL    HW134181   1.476   0.316  10.519 -0.1498 -2.9701 -1.0385
 7573SOL    HW234182   1.353   0.253  10.460 -1.4882  0.2812  1.1695
 7574SOL     OW34183   2.088   1.033   1.708  0.2486  0.0922  0.5712
 7574SOL    HW134184   2.059   1.030   1.617 -1.6795  1.1223  1.1475
 7574SOL    HW234185   2.170   1.084   1.707 -0.5023  1.3012 -0.5299
 7575SOL     OW34186   4.119   2.874   9.611  0.9713 -0.8795  0.2165
 7575SOL    HW134187   4.157   2.960   9.628  0.0907 -0.7734  1.5979
 7575SOL    HW234188   4.055   2.884   9.540 -0.2549 -2.4786  1.0901
 7576SOL     OW34189   0.764   0.688   2.824 -0.6282  0.2960  0.0271
 7576SOL    HW134190   0.827   0.668   2.755 -2.1507  0.5012 -1.4194
 7576SOL    HW234191   0.680   0.682   2.778 -0.3506 -1.5348 -0.2343
 7577SOL     OW34192   2.015   3.206   0.568  0.6588 -0.0515  0.3267
 7577SOL    HW134193   2.052   3.120   0.589  0.5793 -0.1170  0.2001
 7577SOL    HW234194   2.075   3.236   0.500  0.3619  0.4351  0.2788
 7578SOL     OW34195   4.389   0.386   2.794 -0.2600 -1.1599 -0.2136
 7578SOL    HW134196   4.451   0.459   2.790 -1.1503 -0.2213  3.1300
 7578SOL    HW234197   4.445   0.309   2.801 -0.3639 -1.0822  1.5042
 7579SOL     OW34198   3.580   1.067  12.703 -0.4864 -0.2009 -0.2328
 7579SOL    HW134199   3.527   1.034  12.775  1.5912 -3.8044 -0.3654
 7579SOL    HW234200   3.670   1.078  12.735 -1.0064 -1.5700  1.6724
 7580SOL     OW34201   2.508   1.416   5.832 -0.4276  0.3248 -0.0037
 7580SOL    HW134202   2.597   1.442   5.855  0.1468 -1.2967 -0.3376
 7580SOL    HW234203   2.504   1.324   5.858  0.5139  0.5392  0.8762
 7581SOL     OW34204   4.265   0.674   2.819  0.1464 -0.6955  0.2191
 7581SOL    HW134205   4.260   0.617   2.742  1.2189 -0.2641 -0.1716
 7581SOL    HW234206   4.173   0.691   2.837  0.2542  2.9085 -2.5251
 7582SOL     OW34207   0.881   2.020  13.096 -0.5092 -0.6707  0.2996
 7582SOL    HW134208   0.912   1.993  13.183 -0.6455  2.6031  1.3552
 7582SOL    HW234209   0.820   2.088  13.124 -0.3353 -1.3110  2.2429
 7583SOL     OW34210   1.211   1.758   5.588 -0.2625 -0.1574 -0.6790
 7583SOL    HW134211   1.118   1.741   5.601  0.4039 -1.6780  1.8686
 7583SOL    HW234212   1.251   1.688   5.640 -0.5920  1.2283  1.4253
 7584SOL     OW34213   4.598   2.969   3.851 -0.4306  0.3261  0.4261
 7584SOL    HW134214   4.525   3.007   3.800 -0.4053 -0.0235  0.1310
 7584SOL    HW234215   4.637   3.052   3.877 -0.9287  1.0885 -1.1972
 7585SOL     OW34216   4.450   1.451   4.963 -0.8539  0.5270 -0.3819
 7585SOL    HW134217   4.382   1.406   4.914 -1.1632 -1.4924  1.9063
 7585SOL    HW234218   4.464   1.395   5.039 -0.8802 -2.0790 -2.2805
 7586SOL     OW34219   2.903   4.500  15.817  0.1676  0.8123  0.5150
 7586SOL    HW134220   2.956   4.500  15.737  1.7265  1.3401  1.5452
 7586SOL    HW234221   2.980   4.494  15.873 -1.1227 -2.0896  1.9643
 7587SOL     OW34222   0.472   1.939   7.211  0.3583 -0.7944 -1.2814
 7587SOL    HW134223   0.412   2.000   7.254  1.9062 -1.0111  1.1998
 7587SOL    HW234224   0.459   1.972   7.123 -1.1608  1.1206 -0.3419
 7588SOL     OW34225   1.487   3.838   9.049 -0.1243 -0.2657 -0.0855
 7588SOL    HW134226   1.570   3.860   9.090 -1.8793  2.2030  2.0887
 7588SOL    HW234227   1.429   3.844   9.125 -0.2891  2.1277 -0.4099
 7589SOL     OW34228   4.152   1.978   3.737 -0.1265 -0.5453 -0.3922
 7589SOL    HW134229   4.177   2.070   3.739  0.5388 -0.7054 -1.5990
 7589SOL    HW234230   4.058   1.977   3.719 -0.2969 -1.3610  0.5093
 7590SOL     OW34231   3.036   1.235  16.656  0.0142  0.2737  0.1781
 7590SOL    HW134232   3.039   1.207  16.747 -1.2090  0.7218  0.3606
 7590SOL    HW234233   3.101   1.305  16.654  1.0254 -0.6731  0.0964
 7591SOL     OW34234   3.229   4.117   6.501  0.4863 -0.2256 -0.3025
 7591SOL    HW134235   3.248   4.026   6.523  0.7483  0.2382  1.3389
 7591SOL    HW234236   3.168   4.143   6.570 -0.4309  0.9681 -1.5414
 7592SOL     OW34237   0.801   3.196   8.439  0.6640 -0.5091  0.2102
 7592SOL    HW134238   0.794   3.176   8.532 -0.6012  1.3704  0.5402
 7592SOL    HW234239   0.711   3.174   8.418  0.6940  1.9149 -2.3879
 7593SOL     OW34240   0.390   1.371  15.758 -0.0089  0.4887 -0.1941
 7593SOL    HW134241   0.381   1.298  15.820  0.4150 -0.2732 -1.0247
 7593SOL    HW234242   0.308   1.416  15.774 -0.2925 -0.2093  0.3293
 7594SOL     OW34243   0.562   0.954  12.139 -0.0207  0.7227 -0.3563
 7594SOL    HW134244   0.644   0.961  12.188 -0.0746 -0.8836 -0.0425
 7594SOL    HW234245   0.574   1.016  12.067  0.0158 -0.0235 -0.9837
 7595SOL     OW34246   0.481   0.981   5.785 -0.1089  0.0396 -0.2557
 7595SOL    HW134247   0.505   0.992   5.877 -0.9325 -1.1928  0.0969
 7595SOL    HW234248   0.425   0.904   5.792  0.2639 -0.3519 -1.8147
 7596SOL     OW34249   0.488   1.556   8.361  0.0603  0.0555  0.3965
 7596SOL    HW134250   0.467   1.538   8.452 -0.6713  1.1337  0.4379
 7596SOL    HW234251   0.400   1.557   8.323  0.8491 -0.3404 -1.4524
 7597SOL     OW34252   4.067   0.872   4.449 -0.0316 -0.0554  0.1534
 7597SOL    HW134253   4.035   0.786   4.421 -2.0985  0.3776  1.2479
 7597SOL    HW234254   4.077   0.919   4.367 -1.0741  1.0154  0.6478
 7598SOL     OW34255   4.690   1.722  16.016 -0.5985  0.0603 -0.5898
 7598SOL    HW134256   0.043   1.697  16.067  0.6866  1.6507 -1.7777
 7598SOL    HW234257   4.612   1.697  16.065 -0.4324  1.3448  0.3114
 7599SOL     OW34258   2.927   2.058   7.735  0.1807 -1.1117 -0.5012
 7599SOL    HW134259   2.856   2.105   7.690  0.7567  0.3607  0.1043
 7599SOL    HW234260   3.007   2.075   7.686  1.6351 -1.6470  1.7021
 7600SOL     OW34261   2.481   2.622   1.628 -0.2195 -0.6928 -0.1991
 7600SOL    HW134262   2.422   2.650   1.558  1.0313  1.5963 -0.3519
 7600SOL    HW234263   2.495   2.530   1.606  3.0687 -0.0030 -1.0604
 7601SOL     OW34264   0.870   1.857   8.500  0.5394  0.1911  0.6421
 7601SOL    HW134265   0.932   1.927   8.521  0.4779  0.6330 -0.6918
 7601SOL    HW234266   0.914   1.772   8.513 -0.1592 -0.2190  0.2892
 7602SOL     OW34267   1.034   3.921  13.295 -0.0482  0.6576  0.1357
 7602SOL    HW134268   0.999   3.850  13.241 -1.7862  0.3735  1.6693
 7602SOL    HW234269   0.956   3.966  13.326 -1.8857 -0.7883 -2.3494
 7603SOL     OW34270   1.295   2.280   7.470  0.4128  0.2171 -0.3409
 7603SOL    HW134271   1.244   2.293   7.391  1.5182  1.7047 -0.7909
 7603SOL    HW234272   1.275   2.365   7.509 -1.8643 -0.6163  0.3184
 7604SOL     OW34273   4.582   4.504  15.492  0.2571 -0.7257 -0.2984
 7604SOL    HW134274   4.529   4.483  15.415 -0.5262  1.5074 -0.3675
 7604SOL    HW234275   4.656   4.547  15.448 -0.0271 -1.3564 -1.4150
 7605SOL     OW34276   2.480   3.900   1.200 -0.3141 -0.0621  0.4883
 7605SOL    HW134277   2.438   3.933   1.280 -1.3936  1.8674 -0.8863
 7605SOL    HW234278   2.542   3.838   1.240  0.5597 -0.1475 -0.9949
 7606SOL     OW34279   1.980   3.975   7.699  0.5728  0.3835 -0.0729
 7606SOL    HW134280   2.002   4.064   7.729 -0.2914  0.3645  0.6194
 7606SOL    HW234281   1.916   3.957   7.767 -0.0992  1.4878 -0.4044
 7607SOL     OW34282   1.800   0.908   7.812  0.3355  0.6621  0.1625
 7607SOL    HW134283   1.852   0.843   7.858 -0.3543  0.2264  0.3180
 7607SOL    HW234284   1.817   0.977   7.877  1.8159  1.3279 -0.9223
 7608SOL     OW34285   0.229   1.649   5.191  0.2484 -0.5866  0.4189
 7608SOL    HW134286   0.305   1.705   5.176 -0.0268  0.1663  1.7766
 7608SOL    HW234287   0.177   1.698   5.256 -1.7954 -0.7831 -1.0594
 7609SOL     OW34288   0.069   3.075  17.672  0.2633 -0.0643  0.4244
 7609SOL    HW134289   0.016   3.094  17.595  1.1492 -0.6772 -0.3325
 7609SOL    HW234290   0.000   3.068   0.041 -0.7271  1.5791 -0.4262
 7610SOL     OW34291   2.569   2.466   4.093 -0.4917  0.5325  0.4470
 7610SOL    HW134292   2.562   2.540   4.154  2.4001 -0.2797  1.7569
 7610SOL    HW234293   2.600   2.512   4.015  1.5236 -3.9745 -1.4158
 7611SOL     OW34294   2.431   3.157   4.023 -0.2951 -0.2475  0.1022
 7611SOL    HW134295   2.471   3.181   4.107  0.2397 -1.0886  0.0910
 7611SOL    HW234296   2.504   3.187   3.968 -1.0150  0.7341 -0.3199
 7612SOL     OW34297   3.001   2.395  11.614  0.1153  0.1411  0.1771
 7612SOL    HW134298   3.003   2.464  11.548 -1.8354 -0.7569 -0.7954
 7612SOL    HW234299   2.978   2.320  11.561  0.1167  0.2221  0.0614
 7613SOL     OW34300   0.154   3.754   4.452  0.5201  0.3076 -0.0501
 7613SOL    HW134301   0.193   3.784   4.370 -1.6414 -1.7448 -1.8245
 7613SOL    HW234302   0.192   3.812   4.519 -0.7372 -0.5346  1.3980
 7614SOL     OW34303   3.414   0.768   9.050 -0.4034  0.0628 -0.0549
 7614SOL    HW134304   3.483   0.707   9.075 -0.2683  0.6115  0.8869
 7614SOL    HW234305   3.418   0.758   8.955  1.8326 -0.0097  0.0548
 7615SOL     OW34306   4.620   3.876  12.306  0.8022 -0.6287 -0.3867
 7615SOL    HW134307   4.614   3.860  12.212 -1.1531  0.3944 -0.4288
 7615SOL    HW234308   4.579   3.962  12.310  0.9187 -0.5246 -1.4902
 7616SOL     OW34309   3.325   3.744   2.761 -0.1847  0.1919  0.5038
 7616SOL    HW134310   3.263   3.707   2.698 -0.1122  0.8099  0.0723
 7616SOL    HW234311   3.408   3.719   2.722  0.7367  4.9034 -0.4589
 7617SOL     OW34312   3.040   2.991   3.058 -0.7383  0.2278  0.5465
 7617SOL    HW134313   2.947   2.992   3.038 -0.4149 -2.0944 -1.0698
 7617SOL    HW234314   3.081   3.048   2.993  0.4108 -0.6896  0.4741
 7618SOL     OW34315   4.416   0.245   6.112 -0.4141  0.3269  0.4989
 7618SOL    HW134316   4.486   0.295   6.152 -0.6082  1.6688 -0.8768
 7618SOL    HW234317   4.400   0.291   6.030 -1.8362 -0.3241  0.4108
 7619SOL     OW34318   3.299   4.444   6.019  0.3291  0.0364  0.3946
 7619SOL    HW134319   3.267   4.483   5.937 -0.1182  0.7440  0.9046
 7619SOL    HW234320   3.391   4.421   6.005 -0.1799 -1.1416 -1.0671
 7620SOL     OW34321   2.114   2.946  12.461  0.0195 -0.1773 -0.2382
 7620SOL    HW134322   2.143   2.855  12.461  2.4191  0.5967 -0.6941
 7620SOL    HW234323   2.051   2.933  12.390 -1.6917  2.4744  0.7992
 7621SOL     OW34324   4.376   2.761   4.535 -0.3518 -1.0200 -0.4202
 7621SOL    HW134325   4.317   2.835   4.522  1.5151  1.0013  2.5318
 7621SOL    HW234326   4.309   2.696   4.512 -1.2169 -0.1430 -0.3972
 7622SOL     OW34327   2.220   1.863  10.384  0.2258  0.0874 -0.2300
 7622SOL    HW134328   2.154   1.923  10.420  1.6896  1.1692  0.7085
 7622SOL    HW234329   2.263   1.928  10.328 -2.4552 -0.0404 -2.3894
 7623SOL     OW34330   2.186   3.052   0.098  0.0495  0.3675 -0.5317
 7623SOL    HW134331   2.127   3.045   0.173  0.8994 -0.8532  0.0151
 7623SOL    HW234332   2.211   2.962   0.076  0.0547 -0.0087  1.0206
 7624SOL     OW34333   0.561   4.041  10.398 -0.1939  0.4926  0.2165
 7624SOL    HW134334   0.630   4.039  10.466  0.3843 -3.0454 -0.4832
 7624SOL    HW234335   0.482   4.026  10.450 -0.1492  0.8027  0.3764
 7625SOL     OW34336   4.441   0.837   4.169  0.0670  0.8899  0.2062
 7625SOL    HW134337   4.475   0.834   4.080  0.9327 -0.5755  0.5995
 7625SOL    HW234338   4.347   0.834   4.153  0.1909 -2.9741  0.3868
 7626SOL     OW34339   2.940   1.875   2.297 -0.4745  0.3679  0.1207
 7626SOL    HW134340   2.974   1.924   2.222  1.9266 -0.4184  0.6909
 7626SOL    HW234341   2.858   1.850   2.253  0.1452 -0.5456 -0.5392
 7627SOL     OW34342   3.842   2.141   9.024 -0.2767 -0.2133 -0.2583
 7627SOL    HW134343   3.856   2.212   8.962 -1.2485  0.6817  0.5295
 7627SOL    HW234344   3.822   2.070   8.963  2.0485 -1.2673  0.2203
 7628SOL     OW34345   3.926   3.381   2.885  0.2019  0.1974  0.3936
 7628SOL    HW134346   3.875   3.455   2.919  2.0226  2.0433 -0.9661
 7628SOL    HW234347   3.980   3.418   2.816  1.7769  0.1649  1.6195
 7629SOL     OW34348   3.848   3.084   6.706 -0.3611 -0.5393  0.2248
 7629SOL    HW134349   3.933   3.118   6.677  0.3592 -2.8066 -0.2955
 7629SOL    HW234350   3.813   3.144   6.773 -0.8747  1.2886 -1.6889
 7630SOL     OW34351   4.685   2.063   2.200 -0.8934 -0.0838 -0.0198
 7630SOL    HW134352   4.647   2.119   2.133 -1.2881 -1.2380 -0.7719
 7630SOL    HW234353   4.669   1.980   2.155  0.5315 -0.6460  0.4958
 7631SOL     OW34354   3.498   2.047  11.527  0.0628 -0.5866 -0.0387
 7631SOL    HW134355   3.403   2.038  11.535 -0.0587  1.6230  1.0935
 7631SOL    HW234356   3.525   1.997  11.450  1.6271  0.5452 -0.2143
 7632SOL     OW34357   3.755   3.592   6.323  0.2521 -0.1478 -0.4157
 7632SOL    HW134358   3.691   3.566   6.257  1.0870 -0.6505 -1.0170
 7632SOL    HW234359   3.842   3.572   6.291  0.0113  1.0774 -1.8506
 7633SOL     OW34360   0.067   2.906   2.268  0.2159  0.5038  0.9305
 7633SOL    HW134361   0.004   2.977   2.284  1.8025  1.9295  0.8717
 7633SOL    HW234362   0.068   2.859   2.351  0.3249 -0.6499  0.2765
 7634SOL     OW34363   4.117   1.299   7.352 -0.4296  0.1092 -0.2361
 7634SOL    HW134364   4.202   1.258   7.336 -0.7986 -1.1271  1.0182
 7634SOL    HW234365   4.062   1.263   7.282 -0.1259 -2.7823  1.0281
 7635SOL     OW34366   1.979   0.472  10.739  0.1079 -0.1075  0.1329
 7635SOL    HW134367   1.889   0.451  10.763 -0.0372 -0.2327 -0.5023
 7635SOL    HW234368   1.975   0.475  10.643 -0.5162  0.2450  0.1710
 7636SOL     OW34369   4.102   1.085   6.772 -0.9086 -0.0287  0.0378
 7636SOL    HW134370   4.106   1.074   6.677  1.5637  3.0416 -0.2077
 7636SOL    HW234371   4.116   1.179   6.780  1.5016 -0.5885  2.5545
 7637SOL     OW34372   1.167   1.581   4.652 -0.2102  0.0084  0.0954
 7637SOL    HW134373   1.243   1.617   4.606 -3.2354  3.2740 -2.2840
 7637SOL    HW234374   1.195   1.602   4.742  2.4127  0.0189 -0.7114
 7638SOL     OW34375   2.884   0.222  10.281  0.3148  0.5005 -0.3651
 7638SOL    HW134376   2.793   0.222  10.310  0.2081 -1.7948 -0.6784
 7638SOL    HW234377   2.890   0.128  10.263  1.7589  0.7446 -1.1549
 7639SOL     OW34378   3.367   3.275   9.923  0.1425 -0.4146  0.2824
 7639SOL    HW134379   3.407   3.362   9.916  1.0369 -0.7339  1.4380
 7639SOL    HW234380   3.302   3.292   9.992 -0.1593  1.9442 -0.5900
 7640SOL     OW34381   2.692   1.829   2.493  0.0266  0.0250 -0.1998
 7640SOL    HW134382   2.762   1.882   2.455 -1.1829  1.7715  0.0372
 7640SOL    HW234383   2.731   1.744   2.471  2.2838  1.2678 -1.0688
 7641SOL     OW34384   3.147   1.190   6.395 -0.1700 -0.7675 -0.0777
 7641SOL    HW134385   3.201   1.121   6.358  0.2165 -1.8075  2.4211
 7641SOL    HW234386   3.200   1.270   6.403 -2.3827  1.0169 -2.9044
 7642SOL     OW34387   1.896   3.875  13.906  0.4963  0.1980  0.0434
 7642SOL    HW134388   1.813   3.840  13.874  1.2988 -0.2199 -1.5632
 7642SOL    HW234389   1.868   3.963  13.932 -2.3877 -0.1704 -1.7854
 7643SOL     OW34390   1.377   4.024   0.332  0.2068  0.1460  0.0219
 7643SOL    HW134391   1.282   4.029   0.348  0.9244  1.7419  3.7561
 7643SOL    HW234392   1.381   3.929   0.318 -0.0366 -0.0305  1.1485
 7644SOL     OW34393   1.778   3.943   7.865  0.6830 -0.3198 -0.2302
 7644SOL    HW134394   1.815   3.927   7.952 -2.0607  1.8456  1.3307
 7644SOL    HW234395   1.720   4.015   7.890  1.1013 -0.1258  0.1888
 7645SOL     OW34396   2.345   4.691   3.149 -0.4883  0.3725 -0.3333
 7645SOL    HW134397   2.331   0.054   3.185 -1.9285  0.1203 -0.2695
 7645SOL    HW234398   2.271   4.644   3.187  1.0011 -2.0513 -0.4064
 7646SOL     OW34399   1.681   3.159   8.541 -0.6972  0.4341 -0.0887
 7646SOL    HW134400   1.770   3.143   8.573 -1.9049  1.0780  3.6607
 7646SOL    HW234401   1.660   3.066   8.551  1.2421  0.0009  0.1065
 7647SOL     OW34402   1.747   1.034   9.315 -0.4701 -0.1800 -0.2817
 7647SOL    HW134403   1.708   1.120   9.332  1.4538  0.9220 -1.5019
 7647SOL    HW234404   1.781   1.046   9.227 -0.4334 -0.8250 -0.3581
 7648SOL     OW34405   2.084   2.814   8.391  0.4200 -0.1478 -0.7927
 7648SOL    HW134406   2.092   2.801   8.485  0.7807 -5.0380 -1.4808
 7648SOL    HW234407   1.995   2.846   8.381  0.4615 -0.1565 -1.2080
 7649SOL     OW34408   3.785   4.719   4.641 -0.2702 -0.3301 -0.6594
 7649SOL    HW134409   3.746   0.056   4.579  1.4087  0.6273 -0.7794
 7649SOL    HW234410   3.729   0.010   4.718 -0.3413 -1.0613 -0.5696
 7650SOL     OW34411   4.358   0.186   8.969  0.1033  1.0093  0.2135
 7650SOL    HW134412   4.376   0.199   8.876  0.3601  0.0926  0.1397
 7650SOL    HW234413   4.366   0.276   9.003 -1.0814  0.5341  1.7522
 7651SOL     OW34414   1.258   0.776   2.180  0.1061 -0.0906  0.0798
 7651SOL    HW134415   1.351   0.783   2.202  0.4802  2.7038 -2.3816
 7651SOL    HW234416   1.235   0.718   2.253 -1.4090  0.8060  0.3205
 7652SOL     OW34417   2.104   2.450   1.652 -1.0193  0.6496 -0.0146
 7652SOL    HW134418   2.140   2.522   1.704 -1.7853 -0.0962  1.5434
 7652SOL    HW234419   2.122   2.371   1.703 -1.6313 -0.1794 -1.1123
 7653SOL     OW34420   2.293   0.118   6.905  0.2950 -1.2289 -0.0534
 7653SOL    HW134421   2.308   0.178   6.978 -1.9466 -1.3696  0.5253
 7653SOL    HW234422   2.287   0.034   6.951  0.2754 -1.7164 -0.9406
 7654SOL     OW34423   2.943   0.626   2.918 -0.4669  0.8641  0.0365
 7654SOL    HW134424   3.008   0.694   2.935  0.3904  0.5815 -2.0373
 7654SOL    HW234425   2.990   0.547   2.943  0.1435  0.5818 -2.0192
 7655SOL     OW34426   3.524   3.568   2.614 -0.0005  0.4182  0.3486
 7655SOL    HW134427   3.453   3.520   2.571 -0.0128  2.2470 -1.6750
 7655SOL    HW234428   3.527   3.527   2.701  0.3201  0.9200  0.5747
 7656SOL     OW34429   0.292   3.187   9.681  0.1022  0.0204  0.4662
 7656SOL    HW134430   0.348   3.125   9.728  2.7658  1.3491 -0.9010
 7656SOL    HW234431   0.308   3.164   9.589 -1.0550 -0.3965  0.3763
 7657SOL     OW34432   0.586   0.555  17.361 -0.0849  0.0307 -0.5423
 7657SOL    HW134433   0.621   0.489  17.421  0.9239  0.8223 -0.2646
 7657SOL    HW234434   0.633   0.532  17.280  0.3077 -0.9852 -0.0309
 7658SOL     OW34435   0.191   0.358   6.431 -0.3052 -0.0713  1.1142
 7658SOL    HW134436   0.172   0.270   6.462 -0.7499 -0.8999 -1.4804
 7658SOL    HW234437   0.152   0.364   6.343 -1.1092  1.0191  1.5452
 7659SOL     OW34438   2.045   1.496  14.958 -0.0838  0.0735  0.6230
 7659SOL    HW134439   2.038   1.417  15.012  0.9484 -0.4151  0.0376
 7659SOL    HW234440   2.015   1.467  14.872  0.0819 -1.1531  0.9817
 7660SOL     OW34441   0.264   2.736   0.666 -0.9341 -0.7337 -0.3327
 7660SOL    HW134442   0.356   2.750   0.645 -0.3290 -0.1942  2.7573
 7660SOL    HW234443   0.275   2.650   0.707  0.6554  0.0991  0.9613
 7661SOL     OW34444   3.424   2.727   1.293  0.2879  0.3842  0.1250
 7661SOL    HW134445   3.401   2.752   1.204 -0.5537 -0.8285 -0.0056
 7661SOL    HW234446   3.394   2.801   1.345  0.7131  0.2827  0.5192
 7662SOL     OW34447   1.104   4.471   9.666 -1.0244 -0.3173  0.1579
 7662SOL    HW134448   1.079   4.483   9.574 -0.4503  1.5858  0.2578
 7662SOL    HW234449   1.096   4.559   9.702 -0.3010  0.0623 -0.5828
 7663SOL     OW34450   0.939   2.464   8.912 -0.8586 -0.0164  0.4046
 7663SOL    HW134451   0.955   2.486   9.004  1.1091  1.0204 -0.1753
 7663SOL    HW234452   0.867   2.524   8.893  0.1316  1.1472  0.3136
 7664SOL     OW34453   0.964   2.641  13.927  0.0889 -0.4510 -0.4929
 7664SOL    HW134454   0.957   2.628  13.833 -0.2901  2.8029 -0.9278
 7664SOL    HW234455   0.982   2.551  13.952  1.5573  0.4564  1.7422
 7665SOL     OW34456   4.622   3.004   5.745 -0.0901  0.4366  0.5695
 7665SOL    HW134457   4.665   3.078   5.789  0.3282  0.1120  0.6983
 7665SOL    HW234458   4.663   2.940   5.804  2.5981  0.6927 -1.0253
 7666SOL     OW34459   4.094   2.604   9.487  0.1231  0.1776 -0.1868
 7666SOL    HW134460   4.065   2.670   9.550 -1.9859 -1.8888  1.0354
 7666SOL    HW234461   4.158   2.656   9.439  0.3363  0.5485  0.4989
 7667SOL     OW34462   2.088   1.566  11.087 -0.6186  0.2546 -0.3922
 7667SOL    HW134463   2.021   1.634  11.093 -0.1862  0.7045 -0.6560
 7667SOL    HW234464   2.099   1.556  10.992 -0.8771  0.3905 -0.4372
 7668SOL     OW34465   3.198   4.498   5.429  0.5575  0.1312 -0.3353
 7668SOL    HW134466   3.104   4.511   5.444  0.6983 -0.0837  0.7486
 7668SOL    HW234467   3.241   4.580   5.454 -1.3881  1.3104 -0.8619
 7669SOL     OW34468   0.608   0.962   3.989  0.0378  0.6643  0.0881
 7669SOL    HW134469   0.560   0.969   4.071 -0.4234 -1.6649 -0.0105
 7669SOL    HW234470   0.534   0.933   3.936  0.2935 -1.1675  0.7538
 7670SOL     OW34471   2.004   3.591   2.802 -0.1246  0.1515  0.3557
 7670SOL    HW134472   2.066   3.664   2.806  1.4649 -1.3001  1.9773
 7670SOL    HW234473   2.006   3.571   2.895 -1.2684 -1.1858  0.0978
 7671SOL     OW34474   3.228   1.483   6.414  0.0070 -0.9092 -0.4777
 7671SOL    HW134475   3.301   1.473   6.354 -0.7383 -1.9578 -1.1986
 7671SOL    HW234476   3.177   1.545   6.362  2.4911  1.7398  0.2596
 7672SOL     OW34477   2.210   2.654   4.239  0.2776  0.3480 -0.1159
 7672SOL    HW134478   2.304   2.670   4.228  0.2126 -0.9584 -2.7382
 7672SOL    HW234479   2.193   2.677   4.330  0.5411 -1.4554  0.3806
 7673SOL     OW34480   0.196   0.061   5.259  0.6629  0.1224  0.4787
 7673SOL    HW134481   0.166   0.043   5.349  1.9030  1.4325  1.1445
 7673SOL    HW234482   0.125   0.020   5.209  1.4181 -0.9946  0.3348
 7674SOL     OW34483   1.869   3.701   8.228  0.0599 -0.4410 -0.9816
 7674SOL    HW134484   1.862   3.622   8.282 -1.3922  1.5898  1.8353
 7674SOL    HW234485   1.901   3.662   8.147  0.9238 -0.7700 -0.4823
 7675SOL     OW34486   0.390   4.363   8.503  0.2483  0.1721  0.2620
 7675SOL    HW134487   0.302   4.366   8.541 -0.1666 -0.2659 -0.6427
 7675SOL    HW234488   0.361   4.371   8.412 -3.7604  2.3542  1.7380
 7676SOL     OW34489   0.573   4.475  12.758 -0.0162  0.0851 -0.2291
 7676SOL    HW134490   0.627   4.542  12.716  0.3158  0.8988  1.5071
 7676SOL    HW234491   0.599   4.489  12.849  1.3266  0.9829 -0.7579
 7677SOL     OW34492   1.230   2.775   9.300  0.5643 -0.5520  0.1922
 7677SOL    HW134493   1.323   2.799   9.304  0.2183  0.6382  0.8634
 7677SOL    HW234494   1.228   2.747   9.391  0.2484 -1.6439 -0.1478
 7678SOL     OW34495   4.504   2.127   5.867  0.3242 -0.0762 -0.1605
 7678SOL    HW134496   4.516   2.094   5.778  2.6880 -2.7846  1.2019
 7678SOL    HW234497   4.559   2.205   5.873  0.1887  0.0012  0.0850
 7679SOL     OW34498   1.193   4.670   7.767  0.1049 -0.1875 -0.5103
 7679SOL    HW134499   1.189   4.626   7.682  0.3301  2.4567 -1.9108
 7679SOL    HW234500   1.280   4.646   7.799  0.8910  1.1738 -1.5955
 7680SOL     OW34501   4.103   3.162   4.136  0.1235  0.3948 -0.3202
 7680SOL    HW134502   4.024   3.108   4.133 -0.7546  1.7786 -2.1975
 7680SOL    HW234503   4.180   3.105   4.136  0.8297  1.3685 -0.2324
 7681SOL     OW34504   0.982   3.221   4.517  0.1601 -0.3308 -0.0383
 7681SOL    HW134505   1.057   3.177   4.558 -0.2075 -0.5704  0.3834
 7681SOL    HW234506   0.952   3.159   4.451 -2.3638  1.1791 -0.3281
 7682SOL     OW34507   2.839   0.633   3.577 -0.2315 -0.2740 -0.3553
 7682SOL    HW134508   2.808   0.722   3.594 -0.6485 -0.7246  1.3197
 7682SOL    HW234509   2.752   0.602   3.552 -0.8381  1.8876 -0.8545
 7683SOL     OW34510   2.670   1.036   3.306 -0.5466  0.0857  0.0340
 7683SOL    HW134511   2.596   1.006   3.253  0.2752 -1.5864 -0.1844
 7683SOL    HW234512   2.634   1.122   3.327  0.4807  1.2127 -2.8009
 7684SOL     OW34513   2.195   0.771   1.612 -0.0529 -0.0042  0.0805
 7684SOL    HW134514   2.257   0.772   1.539 -0.5153 -0.6552 -0.3225
 7684SOL    HW234515   2.186   0.865   1.629  2.4519  0.3187 -0.3111
 7685SOL     OW34516   4.045   0.753   5.784  0.1933  0.3944  0.4377
 7685SOL    HW134517   4.081   0.710   5.706 -0.5923 -0.7955  0.7291
 7685SOL    HW234518   4.057   0.839   5.744  1.2636  0.4788  0.9319
 7686SOL     OW34519   0.998   4.084   1.728 -0.5880 -0.4920  0.0925
 7686SOL    HW134520   0.962   4.170   1.750  1.7274  0.7222 -0.8410
 7686SOL    HW234521   1.088   4.114   1.722 -0.8985  0.5849  0.8119
 7687SOL     OW34522   1.734   0.811   5.108 -0.5554  0.0560 -0.2217
 7687SOL    HW134523   1.706   0.731   5.063  0.4188  0.4032 -1.4584
 7687SOL    HW234524   1.825   0.783   5.118 -1.2430 -2.1645 -0.1366
 7688SOL     OW34525   1.729   4.248  16.428 -0.0825  0.2000  0.0534
 7688SOL    HW134526   1.636   4.270  16.435  0.0951  0.0789  2.8471
 7688SOL    HW234527   1.769   4.332  16.451 -0.7152  0.4121  0.3866
 7689SOL     OW34528   2.621   3.666  12.570 -1.2429 -0.4324  0.1190
 7689SOL    HW134529   2.588   3.628  12.488 -1.3492  2.0304 -0.9773
 7689SOL    HW234530   2.549   3.632  12.623 -1.1324 -0.7702  0.0537
 7690SOL     OW34531   3.514   1.023  14.215  0.2110 -0.1140 -0.2152
 7690SOL    HW134532   3.523   0.954  14.149  0.8291  0.0021 -0.2470
 7690SOL    HW234533   3.508   1.101  14.160 -2.5540  0.8885  1.5226
 7691SOL     OW34534   2.918   0.212   7.329  0.1315  0.0948  0.1338
 7691SOL    HW134535   2.878   0.298   7.319 -1.8987 -0.8138  0.5494
 7691SOL    HW234536   3.008   0.231   7.300  0.5206 -0.0832  1.2034
 7692SOL     OW34537   0.293   1.944   5.684  0.0972 -0.0394  1.0047
 7692SOL    HW134538   0.303   2.033   5.716 -0.9637  0.2920  0.4333
 7692SOL    HW234539   0.360   1.892   5.728  0.9147 -1.3557 -1.8359
 7693SOL     OW34540   3.322   2.378   5.589 -0.1036 -0.2305  0.2523
 7693SOL    HW134541   3.284   2.291   5.573  1.1366 -0.6537 -0.3224
 7693SOL    HW234542   3.401   2.356   5.638  1.2823  1.8786 -1.0471
 7694SOL     OW34543   3.802   3.856  16.496 -0.7381 -0.5354  0.6822
 7694SOL    HW134544   3.830   3.935  16.542  0.7955 -1.4170  1.2535
 7694SOL    HW234545   3.752   3.885  16.420 -0.6063  0.2546  0.8987
 7695SOL     OW34546   1.951   0.499   4.108  0.6054  0.3027 -0.4238
 7695SOL    HW134547   1.860   0.475   4.123  1.3484 -0.7765  2.3812
 7695SOL    HW234548   1.986   0.543   4.185  0.3060 -1.5274  0.7581
 7696SOL     OW34549   0.436   1.228  11.978  0.6637  0.0394 -0.5341
 7696SOL    HW134550   0.461   1.317  11.952  0.1080  0.2085 -0.4975
 7696SOL    HW234551   0.509   1.180  11.941  1.8732  3.3837 -2.5046
 7697SOL     OW34552   4.271   2.727   9.246 -0.2296  0.2156 -0.0817
 7697SOL    HW134553   4.346   2.780   9.221  1.8449 -1.9900  1.4078
 7697SOL    HW234554   4.194   2.781   9.228 -0.5469 -0.2444 -0.1228
 7698SOL     OW34555   3.672   0.128   2.615  0.6355 -0.6218  0.3368
 7698SOL    HW134556   3.589   0.088   2.639  0.2733  0.0434  0.1973
 7698SOL    HW234557   3.691   0.177   2.695 -1.3142  0.7382 -0.0456
 7699SOL     OW34558   2.202   0.223   4.156 -0.7596  0.4246 -0.0675
 7699SOL    HW134559   2.266   0.192   4.221 -3.2510 -0.0337  2.1576
 7699SOL    HW234560   2.119   0.203   4.199  0.9459  0.4464  3.2287
 7700SOL     OW34561   1.361   4.041   3.051  0.2846 -0.0477 -0.1449
 7700SOL    HW134562   1.334   4.110   3.111  1.7668 -0.0635  0.5218
 7700SOL    HW234563   1.455   4.051   3.043  0.7000 -1.0501  3.4210
 7701SOL     OW34564   3.107   2.119   7.524  0.2868 -0.3908  0.0615
 7701SOL    HW134565   3.049   2.154   7.457 -0.3163 -0.5148  0.5158
 7701SOL    HW234566   3.182   2.074   7.485  0.2748 -0.6190  0.3009
 7702SOL     OW34567   3.878   2.468   3.779 -0.0390 -0.1575 -0.5092
 7702SOL    HW134568   3.942   2.539   3.771 -0.6487  0.4557  0.0827
 7702SOL    HW234569   3.926   2.391   3.749  0.0347 -0.5077  0.5146
 7703SOL     OW34570   1.343   3.056  15.822  0.4106  0.1442  0.2062
 7703SOL    HW134571   1.432   3.024  15.836  0.8043  1.1740  0.0312
 7703SOL    HW234572   1.359   3.134  15.876  0.1481  2.9882 -3.8620
 7704SOL     OW34573   0.587   3.931   5.790  0.3441 -0.3210  0.9014
 7704SOL    HW134574   0.522   3.969   5.731 -0.4173  0.4907  2.2657
 7704SOL    HW234575   0.669   3.960   5.748 -0.9607  0.7568 -0.9061
 7705SOL     OW34576   0.018   0.482   1.936 -0.0226  0.4680  0.2815
 7705SOL    HW134577   0.062   0.563   1.911  2.2778 -1.3861 -1.6246
 7705SOL    HW234578   4.677   0.476   1.866  1.1241  2.4111 -0.9468
 7706SOL     OW34579   1.946   1.781   4.758 -0.2984  0.0350  0.8348
 7706SOL    HW134580   2.009   1.760   4.827  0.0296  0.2550  0.6003
 7706SOL    HW234581   1.901   1.862   4.780 -0.3864 -0.0376  0.9222
 7707SOL     OW34582   1.694   3.351   3.051 -0.1035 -0.1680  0.2604
 7707SOL    HW134583   1.744   3.391   3.122 -0.8555 -0.4776  0.9724
 7707SOL    HW234584   1.618   3.310   3.093 -0.5853  0.2555 -0.2044
 7708SOL     OW34585   0.494   4.645   4.422  0.1050  0.0327 -0.3684
 7708SOL    HW134586   0.430   4.703   4.380 -0.7693  0.9113  2.1481
 7708SOL    HW234587   0.541   4.613   4.345  0.0663 -0.5982 -0.1270
 7709SOL     OW34588   3.920   1.647   7.077 -0.3821 -0.3475 -0.0333
 7709SOL    HW134589   3.902   1.728   7.029  3.2550 -2.2751 -4.7021
 7709SOL    HW234590   3.977   1.670   7.150  1.0267  0.7279 -1.4768
 7710SOL     OW34591   4.217   3.058   4.710 -0.2311  0.2600  0.4923
 7710SOL    HW134592   4.254   3.111   4.640 -0.7110  0.5159  0.4294
 7710SOL    HW234593   4.267   3.101   4.780  2.3546 -0.5436 -0.8752
 7711SOL     OW34594   4.312   2.364   8.272  0.0507 -0.2438  0.3808
 7711SOL    HW134595   4.321   2.286   8.327 -0.6550 -0.6277 -0.0510
 7711SOL    HW234596   4.231   2.399   8.309 -0.4050 -0.0374 -0.8063
 7712SOL     OW34597   4.665   1.711   2.488  0.0927 -0.0760 -0.3653
 7712SOL    HW134598   4.720   1.781   2.453 -1.7789  2.1663  1.1498
 7712SOL    HW234599   4.584   1.762   2.497 -0.5728 -1.3679  1.0214
 7713SOL     OW34600   1.056   0.197  12.031 -0.1554 -0.0969  0.2796
 7713SOL    HW134601   1.118   0.270  12.042 -0.8522  0.3963  1.0184
 7713SOL    HW234602   1.018   0.191  12.119  0.2106  1.3284  0.5351
 7714SOL     OW34603   0.054   2.319  10.434 -0.5181  1.0161  0.0277
 7714SOL    HW134604   0.055   2.362  10.520  1.0841  0.0509  0.4964
 7714SOL    HW234605   0.002   2.241  10.457  1.6991  0.2896  2.5780
 7715SOL     OW34606   2.598   2.464   8.717  0.3905  0.3736 -0.5727
 7715SOL    HW134607   2.666   2.397   8.712  2.2077  2.2675 -1.3841
 7715SOL    HW234608   2.524   2.403   8.719 -0.2634  1.1132 -2.1609
 7716SOL     OW34609   1.939   3.050   8.593  0.0840 -0.1027 -0.0288
 7716SOL    HW134610   1.956   2.956   8.591  1.0875  0.0845 -0.2571
 7716SOL    HW234611   2.007   3.082   8.653 -0.7549 -1.1876  1.5217
 7717SOL     OW34612   2.558   1.899  12.734 -0.4650  0.5303  0.3283
 7717SOL    HW134613   2.606   1.833  12.684 -2.3659  0.3122 -1.2113
 7717SOL    HW234614   2.491   1.843  12.774 -0.2608 -0.9412 -1.3858
 7718SOL     OW34615   0.156   3.007   3.739  0.2118 -0.4175  0.0754
 7718SOL    HW134616   0.226   2.941   3.734 -0.5602 -1.3986  2.1699
 7718SOL    HW234617   0.176   3.050   3.822 -0.7377  1.9473 -0.9247
 7719SOL     OW34618   1.352   1.351  13.543  0.3838  0.4684 -0.2859
 7719SOL    HW134619   1.437   1.361  13.586 -1.5687  2.5917  3.0419
 7719SOL    HW234620   1.346   1.256  13.530  4.8601  0.4689 -2.1864
 7720SOL     OW34621   4.060   4.162   9.519  0.1367  0.6347 -0.4414
 7720SOL    HW134622   4.040   4.135   9.429 -1.5706 -1.2245  0.4938
 7720SOL    HW234623   4.147   4.198   9.504  0.3909  0.8361  1.5977
 7721SOL     OW34624   2.873   3.669  13.155 -0.5713  0.5964  0.1741
 7721SOL    HW134625   2.909   3.596  13.205  1.1521  1.4751  0.2047
 7721SOL    HW234626   2.906   3.737  13.213 -0.3690  2.7036 -2.4364
 7722SOL     OW34627   3.641   1.095   2.381  0.0458 -0.0045  0.4248
 7722SOL    HW134628   3.704   1.099   2.453  1.0484 -1.8239 -0.3512
 7722SOL    HW234629   3.710   1.111   2.317 -0.4887 -0.2275 -0.1960
 7723SOL     OW34630   2.219   0.014   6.297  0.2180 -0.2694 -0.7274
 7723SOL    HW134631   2.209   4.696   6.212  0.4717 -0.7955 -0.4965
 7723SOL    HW234632   2.297   0.064   6.273 -0.1648  1.0495  0.7360
 7724SOL     OW34633   2.373   2.433   8.331 -1.0255  0.1359  0.5618
 7724SOL    HW134634   2.300   2.434   8.393 -0.5435  0.1613  1.1320
 7724SOL    HW234635   2.364   2.344   8.295  2.2082  0.1294 -0.2243
 7725SOL     OW34636   3.234   0.306   3.029 -0.2766  0.8089  0.1815
 7725SOL    HW134637   3.286   0.267   3.099 -0.7652  0.2527  0.2347
 7725SOL    HW234638   3.179   0.369   3.076 -1.6054 -0.8787  0.8881
 7726SOL     OW34639   1.820   0.285   8.522 -0.2017 -0.2233 -0.2404
 7726SOL    HW134640   1.856   0.305   8.436 -1.0771 -2.0219 -1.0214
 7726SOL    HW234641   1.895   0.229   8.543  1.3193  2.3866  1.3746
 7727SOL     OW34642   0.030   2.411   5.262  1.0088 -0.1864  0.1755
 7727SOL    HW134643   4.703   2.356   5.203  0.5333 -0.1870  0.5898
 7727SOL    HW234644   0.036   2.487   5.204  1.6949 -0.3762 -0.0007
 7728SOL     OW34645   1.024   3.695  15.806 -0.2039 -0.2536  0.2136
 7728SOL    HW134646   1.067   3.768  15.763  2.3617 -1.9823 -0.1555
 7728SOL    HW234647   1.080   3.666  15.878  0.6727 -1.8291 -1.1140
 7729SOL     OW34648   4.334   1.028  10.945  0.1502  0.3038  0.4623
 7729SOL    HW134649   4.422   1.012  10.979 -0.6443 -2.1443  1.3572
 7729SOL    HW234650   4.321   0.950  10.890 -0.7822 -0.1903  1.4061
 7730SOL     OW34651   0.437   0.619   5.953  0.4173  0.0752 -0.1436
 7730SOL    HW134652   0.498   0.593   5.884 -0.9342 -0.5442 -1.1243
 7730SOL    HW234653   0.469   0.566   6.025  3.0025 -1.5693 -2.4856
 7731SOL     OW34654   1.806   0.739   6.656  0.1798 -0.2236 -0.2312
 7731SOL    HW134655   1.801   0.644   6.671 -0.0899 -0.3862 -1.3394
 7731SOL    HW234656   1.865   0.746   6.581  1.7394 -1.8534  0.8425
 7732SOL     OW34657   3.543   3.775   8.649  0.5715 -0.0459 -0.1978
 7732SOL    HW134658   3.542   3.774   8.745 -1.0451  1.5088 -0.1918
 7732SOL    HW234659   3.599   3.700   8.632 -1.1892 -1.4018  0.0662
 7733SOL     OW34660   1.388   1.840   3.566 -0.3639  0.5545  0.7480
 7733SOL    HW134661   1.317   1.845   3.501 -1.0099  0.8048  1.4705
 7733SOL    HW234662   1.418   1.930   3.559  1.2755 -0.3385 -4.0743
 7734SOL     OW34663   1.183   4.561   3.423 -0.4583 -0.1359 -0.4088
 7734SOL    HW134664   1.175   4.641   3.371 -0.5319 -0.0094 -0.2033
 7734SOL    HW234665   1.106   4.562   3.479  0.5799  1.9182  1.0338
 7735SOL     OW34666   0.456   2.402  11.874  0.0757 -0.0924  0.2184
 7735SOL    HW134667   0.402   2.442  11.806 -1.2434  0.3478  1.5455
 7735SOL    HW234668   0.513   2.472  11.903  1.6802 -1.3102  0.0364
 7736SOL     OW34669   0.625   1.448   9.128 -0.2787  0.0368  0.0989
 7736SOL    HW134670   0.571   1.461   9.206 -1.2671  0.2902 -0.6309
 7736SOL    HW234671   0.660   1.533   9.104 -2.4894  0.9137  0.0147
 7737SOL     OW34672   1.078   2.078   1.236 -0.5759  1.1706  0.2700
 7737SOL    HW134673   1.018   2.008   1.211  0.5442  0.0876  0.6235
 7737SOL    HW234674   1.113   2.041   1.317 -1.5577 -0.8248 -0.2358
 7738SOL     OW34675   3.810   2.980   6.096  0.1798  0.2959  0.4711
 7738SOL    HW134676   3.888   2.967   6.042 -0.3328 -0.7089 -0.0173
 7738SOL    HW234677   3.798   2.892   6.131  1.6036 -0.3500 -0.6700
 7739SOL     OW34678   1.639   3.159   5.943  0.2512 -0.3985 -0.1475
 7739SOL    HW134679   1.663   3.251   5.928  0.9613 -0.7167 -0.9989
 7739SOL    HW234680   1.545   3.168   5.956  0.6942  0.5685  2.4489
 7740SOL     OW34681   0.056   2.863  12.463 -0.2357  0.9264  0.3858
 7740SOL    HW134682   0.139   2.911  12.460  0.9074 -0.9773  1.6033
 7740SOL    HW234683   4.722   2.933  12.492  1.9383  2.6541  0.4831
 7741SOL     OW34684   1.650   4.366  12.673 -0.1666  1.0741  0.1061
 7741SOL    HW134685   1.728   4.352  12.727 -1.0955 -0.2283  1.1059
 7741SOL    HW234686   1.688   4.441  12.626 -1.4194  0.1433 -2.3973
 7742SOL     OW34687   2.987   1.020   7.316 -0.4232  0.0579 -0.2572
 7742SOL    HW134688   3.072   1.041   7.278 -0.5022 -1.0412 -1.0448
 7742SOL    HW234689   3.004   0.929   7.340 -0.9108  0.2927  0.9995
 7743SOL     OW34690   1.084   1.839   1.914 -0.3012 -0.1291  0.3618
 7743SOL    HW134691   1.057   1.931   1.905  0.7204  0.4140  2.7095
 7743SOL    HW234692   1.002   1.796   1.889  0.8872 -2.7552  0.9544
 7744SOL     OW34693   0.649   3.935   3.118  0.0930 -0.5039  0.4597
 7744SOL    HW134694   0.567   3.917   3.072  0.2269  0.0263  0.0110
 7744SOL    HW234695   0.714   3.864   3.111 -0.1202 -0.3813 -2.6614
 7745SOL     OW34696   3.790   2.239   4.875 -0.3383 -0.0848 -0.2402
 7745SOL    HW134697   3.695   2.238   4.887 -0.2178  0.4724  0.6709
 7745SOL    HW234698   3.786   2.330   4.847  2.2462 -0.2134 -1.0010
 7746SOL     OW34699   2.291   3.952   8.457  0.7043  0.3766  0.0571
 7746SOL    HW134700   2.317   3.889   8.391  0.5080  1.6198 -1.2011
 7746SOL    HW234701   2.316   4.035   8.416  1.4739  0.1627  0.1071
 7747SOL     OW34702   4.633   1.804   2.148 -0.1425  0.6127  0.4709
 7747SOL    HW134703   4.722   1.778   2.173  0.1129  1.4712  0.4707
 7747SOL    HW234704   4.596   1.727   2.104  0.2390  1.4715 -1.3781
 7748SOL     OW34705   1.745   4.575   9.018  0.8791  0.3964 -0.2120
 7748SOL    HW134706   1.820   4.582   9.077 -0.0111  4.4088  0.3926
 7748SOL    HW234707   1.677   4.623   9.065  0.0241 -1.1705  0.1520
 7749SOL     OW34708   3.827   2.716   6.195 -0.0901  0.0564  0.0592
 7749SOL    HW134709   3.832   2.637   6.249  1.1220 -0.1233 -0.2954
 7749SOL    HW234710   3.817   2.674   6.109 -1.6806 -1.2525  0.8815
 7750SOL     OW34711   3.063   0.418   8.602 -0.0433  0.4580 -0.1675
 7750SOL    HW134712   3.073   0.324   8.584 -0.0952  0.6098 -0.9776
 7750SOL    HW234713   3.108   0.467   8.534  0.7980  0.0903  0.1185
 7751SOL     OW34714   4.591   2.056   1.052  0.6115  0.5454  0.1354
 7751SOL    HW134715   4.570   1.963   1.041 -3.4330  1.5148 -0.3761
 7751SOL    HW234716   4.576   2.058   1.147  1.2720 -0.6809  0.2636
 7752SOL     OW34717   3.509   1.838   6.056 -0.1567 -0.7093  0.1092
 7752SOL    HW134718   3.593   1.863   6.019 -0.7806 -1.4166 -1.8165
 7752SOL    HW234719   3.458   1.824   5.976 -0.5544 -1.6145  0.5152
 7753SOL     OW34720   1.198   3.964   6.191  0.0044 -0.2725  0.0138
 7753SOL    HW134721   1.143   3.969   6.269  2.2332 -1.3802  1.6580
 7753SOL    HW234722   1.270   3.907   6.220 -1.2278 -2.4495 -1.1739
 7754SOL     OW34723   0.310   0.083   9.307  0.2942 -0.1356 -0.8712
 7754SOL    HW134724   0.339   0.071   9.398 -0.6946  0.7465 -0.4358
 7754SOL    HW234725   0.360   0.159   9.278  0.0250  0.3296 -0.1217
 7755SOL     OW34726   3.960   3.619  11.118 -0.1341  0.5466 -0.5040
 7755SOL    HW134727   4.032   3.561  11.092 -1.7998 -1.9623  0.4978
 7755SOL    HW234728   4.011   3.673  11.180  0.6876 -0.1617 -0.5615
 7756SOL     OW34729   2.681   0.827   4.499  0.2530 -0.7648 -0.8741
 7756SOL    HW134730   2.731   0.799   4.576 -1.7104  1.1246  1.0931
 7756SOL    HW234731   2.752   0.835   4.436  2.3885 -1.8098  1.3629
 7757SOL     OW34732   0.650   3.421   8.558  0.9001  0.0940  0.0618
 7757SOL    HW134733   0.681   3.504   8.595  0.1252 -0.2342  1.4520
 7757SOL    HW234734   0.729   3.375   8.531 -0.2454 -1.7809 -0.1383
 7758SOL     OW34735   4.619   2.708   9.536 -0.1952  0.8178 -0.2193
 7758SOL    HW134736   4.681   2.729   9.606 -0.0054  1.2335 -0.5088
 7758SOL    HW234737   4.611   2.791   9.489  0.6644  0.7415 -0.4984
 7759SOL     OW34738   2.562   1.012  10.267  0.2674  0.2927  0.0637
 7759SOL    HW134739   2.571   0.959  10.346 -0.5096  0.1355  0.0550
 7759SOL    HW234740   2.649   1.050  10.255  0.9171 -1.4354 -0.6042
 7760SOL     OW34741   3.794   4.160   2.096  0.0290 -0.8188  0.1108
 7760SOL    HW134742   3.818   4.221   2.027 -1.2633 -0.2409  0.1769
 7760SOL    HW234743   3.699   4.161   2.109  0.1129  0.8594  0.5389
 7761SOL     OW34744   4.494   1.871   0.762  0.2884 -0.6324 -0.5011
 7761SOL    HW134745   4.507   1.946   0.703  0.2271  0.5404  0.9673
 7761SOL    HW234746   4.577   1.862   0.810 -0.2510  1.0252  0.7712
 7762SOL     OW34747   4.133   4.155  11.616 -0.4846  0.8375 -0.2717
 7762SOL    HW134748   4.161   4.086  11.556 -0.3311 -1.5692  2.5412
 7762SOL    HW234749   4.155   4.241  11.580  0.1713  0.7960  0.0215
 7763SOL     OW34750   1.861   3.134  15.978  0.8772  0.1456 -0.2033
 7763SOL    HW134751   1.789   3.121  16.041  0.5738 -0.2702 -0.6359
 7763SOL    HW234752   1.925   3.073  16.016 -1.2411 -2.6795 -1.1489
 7764SOL     OW34753   2.447   4.396   4.747 -0.4115 -0.0274  0.4887
 7764SOL    HW134754   2.516   4.368   4.687  0.5590 -2.4754  2.7313
 7764SOL    HW234755   2.371   4.383   4.690  1.0748  1.5084 -1.8623
 7765SOL     OW34756   4.392   2.519   0.184 -0.0215 -0.1250 -0.9598
 7765SOL    HW134757   4.374   2.599   0.234 -0.1119  0.7288 -2.3300
 7765SOL    HW234758   4.488   2.527   0.184  0.1261 -1.9707 -1.9845
 7766SOL     OW34759   4.502   1.329   0.521 -0.1629 -0.0983  0.2926
 7766SOL    HW134760   4.467   1.264   0.582  0.9865 -0.1919  0.8536
 7766SOL    HW234761   4.534   1.399   0.578  1.0812  0.0064 -0.5348
 7767SOL     OW34762   1.726   4.188   8.100 -0.0210  0.2520  1.1572
 7767SOL    HW134763   1.806   4.180   8.153 -0.2018  0.3694  1.4469
 7767SOL    HW234764   1.695   4.275   8.125  1.5100  1.7024 -2.0071
 7768SOL     OW34765   3.750   0.755  12.655  0.3043 -0.3114  0.0010
 7768SOL    HW134766   3.827   0.810  12.660 -2.7080  4.0558 -1.7860
 7768SOL    HW234767   3.725   0.758  12.747  2.1277  1.0659  0.4531
 7769SOL     OW34768   0.408   1.875   8.474 -0.2247  0.2618 -0.5532
 7769SOL    HW134769   0.467   1.801   8.486 -1.1886 -0.3102  0.6673
 7769SOL    HW234770   0.436   1.906   8.388  1.5628  0.9327  0.2773
 7770SOL     OW34771   2.036   4.206   1.720  0.5038 -0.5311 -0.1751
 7770SOL    HW134772   2.074   4.202   1.632  1.6281 -0.9670  0.3435
 7770SOL    HW234773   2.038   4.302   1.725 -3.9874 -0.3824 -1.1308
 7771SOL     OW34774   4.494   0.633   2.486  0.2991 -0.0108  0.7378
 7771SOL    HW134775   4.521   0.568   2.551 -1.2344 -0.9175  0.4526
 7771SOL    HW234776   4.448   0.684   2.553 -1.5214 -0.9005  0.1474
 7772SOL     OW34777   0.325   0.060   5.897 -0.5023  0.0107  0.4695
 7772SOL    HW134778   0.342   0.150   5.868  0.7857 -0.5496 -0.4899
 7772SOL    HW234779   0.412   0.021   5.887 -1.2389 -1.7430  0.9157
 7773SOL     OW34780   4.350   3.599  12.245 -0.5377  0.2448  0.4413
 7773SOL    HW134781   4.308   3.513  12.251  1.2506 -0.6676  0.0080
 7773SOL    HW234782   4.272   3.653  12.230 -0.8097 -1.1308 -3.1363
 7774SOL     OW34783   2.499   0.791   9.897 -0.1155 -0.3622  0.1690
 7774SOL    HW134784   2.564   0.806   9.965 -1.3937  0.1313  1.2881
 7774SOL    HW234785   2.432   0.856   9.920 -0.5898 -0.2761 -1.4536
 7775SOL     OW34786   0.303   2.627  11.657 -0.2339 -0.1316  0.0380
 7775SOL    HW134787   0.299   2.694  11.726 -1.4041  1.0711 -1.1731
 7775SOL    HW234788   0.338   2.671  11.579  0.4495 -0.3625  0.2162
 7776SOL     OW34789   3.969   0.965   5.196 -0.2336 -0.4005  0.1501
 7776SOL    HW134790   3.937   0.937   5.281  1.6629 -1.2046  0.5972
 7776SOL    HW234791   4.034   1.033   5.216  0.1322 -0.5824 -0.4107
 7777SOL     OW34792   0.754   3.993   5.551  0.0601 -0.4350  0.4089
 7777SOL    HW134793   0.803   3.967   5.473 -1.5551 -2.1913 -0.0381
 7777SOL    HW234794   0.667   3.985   5.510  0.6495  1.3788 -1.1668
 7778SOL     OW34795   0.306   0.382  12.389 -0.4063  0.0140 -0.0510
 7778SOL    HW134796   0.308   0.303  12.335 -3.0703  0.7793 -1.2545
 7778SOL    HW234797   0.302   0.340  12.475  0.0149  0.3450  0.1292
 7779SOL     OW34798   2.814   2.180   2.678  0.0879 -0.1468 -0.1573
 7779SOL    HW134799   2.886   2.239   2.655 -0.2107  1.3210  2.7478
 7779SOL    HW234800   2.834   2.103   2.624 -0.3810 -2.1909  2.6140
 7780SOL     OW34801   1.907   1.723   0.283 -0.1465  0.1091 -0.2564
 7780SOL    HW134802   1.866   1.674   0.354 -0.7543  0.5665 -0.2887
 7780SOL    HW234803   1.937   1.650   0.230 -0.7739 -1.2314  1.2111
 7781SOL     OW34804   2.003   4.139   4.706 -0.2906  0.0690  0.5133
 7781SOL    HW134805   1.935   4.102   4.762 -1.5798  2.5194  0.5825
 7781SOL    HW234806   2.037   4.204   4.768 -1.7725 -0.1034  1.5193
 7782SOL     OW34807   4.685   2.985   9.927  0.1270 -0.0609  0.3729
 7782SOL    HW134808   4.635   2.919   9.975  0.1231 -0.1281  0.2752
 7782SOL    HW234809   4.664   3.071   9.964 -0.0181 -0.9596  2.3720
 7783SOL     OW34810   3.195   1.501  14.286  0.4904  0.0312 -0.4270
 7783SOL    HW134811   3.145   1.521  14.365  2.5508 -1.7118  1.3218
 7783SOL    HW234812   3.180   1.407  14.276  1.0130 -0.1539  0.4736
 7784SOL     OW34813   1.270   0.174   8.979 -0.0698  0.2343  0.1591
 7784SOL    HW134814   1.290   0.264   9.005 -0.1820  0.0742  0.8116
 7784SOL    HW234815   1.328   0.166   8.904  1.5129  1.9024  1.2032
 7785SOL     OW34816   1.856   3.691   5.720  0.1207  0.4328  0.1459
 7785SOL    HW134817   1.804   3.615   5.695  0.6434 -0.4392  1.7129
 7785SOL    HW234818   1.796   3.744   5.772  2.4021 -0.3327  3.5269
 7786SOL     OW34819   1.725   4.097  11.909 -0.2746  0.0366  0.2740
 7786SOL    HW134820   1.669   4.154  11.960  0.5209  0.6252  0.4838
 7786SOL    HW234821   1.808   4.140  11.928 -0.6667  0.1995  1.6221
 7787SOL     OW34822   4.395   0.005   0.123 -0.1786  0.2664  0.2224
 7787SOL    HW134823   4.437   0.073   0.070  1.2389 -0.4103  0.4873
 7787SOL    HW234824   4.308   0.044   0.130 -0.5509 -0.8057  1.5553
 7788SOL     OW34825   3.027   0.479   1.344  0.6276  0.8314 -0.0528
 7788SOL    HW134826   2.944   0.526   1.331  0.9706  1.0425 -1.4372
 7788SOL    HW234827   3.039   0.407   1.282  0.0609  0.2932  0.4639
 7789SOL     OW34828   2.639   0.339   7.983 -0.1147 -0.0855 -0.2667
 7789SOL    HW134829   2.693   0.326   8.060 -1.8497  0.9229  1.1055
 7789SOL    HW234830   2.677   0.280   7.918 -0.0828 -1.7149  1.2484
 7790SOL     OW34831   2.721   2.781   5.432  0.3127  0.3692  0.5489
 7790SOL    HW134832   2.801   2.763   5.382 -1.9708 -0.0959 -2.9465
 7790SOL    HW234833   2.649   2.774   5.370  0.2928  1.0942  0.4888
 7791SOL     OW34834   2.657   4.044   5.157  0.9085 -0.6221 -0.3805
 7791SOL    HW134835   2.751   4.050   5.141  0.9373 -1.0760 -0.3773
 7791SOL    HW234836   2.671   4.022   5.249 -1.0062 -0.3552 -0.0142
 7792SOL     OW34837   3.006   3.633   1.088 -0.3947  0.1326 -0.5023
 7792SOL    HW134838   3.025   3.725   1.106  1.7764 -0.0213 -2.0321
 7792SOL    HW234839   3.043   3.625   1.000  0.4771  2.3700 -0.3191
 7793SOL     OW34840   0.668   4.034   6.391 -0.3027  0.0004  0.0942
 7793SOL    HW134841   0.631   4.087   6.462  0.1311 -1.8374  1.6975
 7793SOL    HW234842   0.615   4.075   6.323 -0.4236  0.5157  0.4991
 7794SOL     OW34843   3.384   0.869   0.676 -0.1943  0.9212 -0.2563
 7794SOL    HW134844   3.443   0.939   0.649 -0.0230  0.6603 -0.5544
 7794SOL    HW234845   3.424   0.844   0.759  0.2526  2.1451 -0.1000
 7795SOL     OW34846   4.237   1.240  14.051  0.2258  0.1612  0.2686
 7795SOL    HW134847   4.239   1.188  14.131  0.0887  0.1912  0.2911
 7795SOL    HW234848   4.189   1.318  14.078 -1.3759 -0.5323 -0.5619
 7796SOL     OW34849   2.290   0.517   6.836 -0.6047 -0.4764 -0.0258
 7796SOL    HW134850   2.288   0.553   6.747 -0.1772  1.7628  0.8793
 7796SOL    HW234851   2.227   0.576   6.877  1.6063  1.2394  0.8679
 7797SOL     OW34852   3.887   0.961  12.537 -0.3680  0.0010  0.5129
 7797SOL    HW134853   3.887   1.019  12.461 -0.0211 -2.8463 -1.6601
 7797SOL    HW234854   3.833   1.007  12.601  1.8594  3.3315 -0.0057
 7798SOL     OW34855   4.132   0.427   7.461  0.7384 -0.4298 -0.3846
 7798SOL    HW134856   4.063   0.480   7.502 -0.6838 -1.0241 -1.9895
 7798SOL    HW234857   4.085   0.369   7.400 -1.4564  1.0262 -0.0868
 7799SOL     OW34858   2.707   0.218   5.196 -0.2768 -0.2180 -0.5700
 7799SOL    HW134859   2.617   0.231   5.226  0.2142 -0.9459  1.1969
 7799SOL    HW234860   2.740   0.305   5.173 -0.1864  0.1893  1.0928
 7800SOL     OW34861   1.757   0.571  11.511 -0.1365 -0.0335 -0.3446
 7800SOL    HW134862   1.797   0.579  11.425  0.7151 -0.9227 -0.0478
 7800SOL    HW234863   1.774   0.477  11.516  1.0574  0.1732 -0.5082
 7801SOL     OW34864   4.259   1.611   9.359 -0.0653  0.0642 -0.2515
 7801SOL    HW134865   4.227   1.593   9.448 -1.2059  0.6680 -0.5305
 7801SOL    HW234866   4.318   1.682   9.385 -3.0546  2.8956 -1.0717
 7802SOL     OW34867   0.820   1.423   3.686 -0.3403  0.6939 -0.4862
 7802SOL    HW134868   0.848   1.362   3.618  0.5156  3.2407 -2.4410
 7802SOL    HW234869   0.814   1.364   3.761 -0.0010  0.1447 -0.8920
 7803SOL     OW34870   1.357   0.567   8.731 -0.4659 -0.4059 -0.1899
 7803SOL    HW134871   1.441   0.555   8.687 -0.7081 -1.5613 -0.3470
 7803SOL    HW234872   1.296   0.594   8.662 -1.6456 -0.9281  0.6360
 7804SOL     OW34873   4.582   3.192   5.509 -0.6723  0.1738  0.0331
 7804SOL    HW134874   4.644   3.263   5.523 -0.6855  0.0445  0.7280
 7804SOL    HW234875   4.587   3.144   5.592 -0.2539  0.1570  0.0009
 7805SOL     OW34876   2.378   2.350   7.614  0.0558  0.2824  0.1563
 7805SOL    HW134877   2.296   2.334   7.567  1.6774 -1.7391 -1.9669
 7805SOL    HW234878   2.345   2.433   7.648  0.0362 -0.5110  2.0612
 7806SOL     OW34879   1.124   3.012   8.669 -0.3014  0.1262  0.5335
 7806SOL    HW134880   1.129   3.070   8.745 -0.2505  2.1223 -0.9959
 7806SOL    HW234881   1.101   2.928   8.709 -1.1516  0.2100  0.2332
 7807SOL     OW34882   1.271   1.499   6.817  0.4929  0.0045  0.2805
 7807SOL    HW134883   1.176   1.495   6.810  0.2980  0.0387  2.8871
 7807SOL    HW234884   1.274   1.591   6.791 -2.1568 -0.1974 -0.7758
 7808SOL     OW34885   1.393   3.879   3.610  0.1185 -0.2297  0.7168
 7808SOL    HW134886   1.352   3.940   3.548 -2.0245 -3.2277 -0.8206
 7808SOL    HW234887   1.395   3.929   3.691 -0.8547  2.9715 -1.1966
 7809SOL     OW34888   0.708   0.832   8.413  0.3498 -0.1362  0.2700
 7809SOL    HW134889   0.717   0.908   8.471 -1.0627  0.3007 -0.0915
 7809SOL    HW234890   0.745   0.861   8.329 -0.0649 -1.0442 -0.2148
 7810SOL     OW34891   3.735   4.396   6.429 -0.3244 -0.0886 -0.3340
 7810SOL    HW134892   3.643   4.405   6.455 -0.1811  1.4501 -0.3504
 7810SOL    HW234893   3.770   4.370   6.514 -0.5673  0.3015 -0.1120
 7811SOL     OW34894   4.109   1.989  13.723 -0.4675  0.6363 -0.0804
 7811SOL    HW134895   4.114   2.076  13.683 -1.1692 -0.7923 -3.2989
 7811SOL    HW234896   4.090   2.010  13.814  0.6370  1.1105  0.0323
 7812SOL     OW34897   3.961   3.351  14.564 -0.4577 -0.3750 -0.0963
 7812SOL    HW134898   3.899   3.347  14.637 -1.7594  1.0584 -1.1285
 7812SOL    HW234899   3.989   3.442  14.557  1.1432 -0.8245  0.5345
 7813SOL     OW34900   0.888   4.621   6.062  0.3841  0.5540  0.2004
 7813SOL    HW134901   0.977   4.611   6.030  0.0421  3.7299 -1.6483
 7813SOL    HW234902   0.832   4.576   5.998  1.5444 -0.0751 -0.3716
 7814SOL     OW34903   0.245   1.200   6.882 -0.0374  0.3572 -0.6989
 7814SOL    HW134904   0.156   1.229   6.861 -0.4629 -1.2379 -1.1195
 7814SOL    HW234905   0.227   1.153   6.964  1.2047  2.5309  0.7982
 7815SOL     OW34906   0.204   2.693   3.375  0.4807 -0.6013  0.0489
 7815SOL    HW134907   0.296   2.666   3.370  0.6625  0.3483 -1.8250
 7815SOL    HW234908   0.193   2.698   3.470  1.6950 -0.9295  0.2022
 7816SOL     OW34909   3.211   3.544   5.053 -0.2808  0.2630  0.0761
 7816SOL    HW134910   3.165   3.472   5.009 -0.5399  0.2740  0.3353
 7816SOL    HW234911   3.284   3.562   4.993 -0.0869 -1.6474 -0.2590
 7817SOL     OW34912   0.388   0.420   4.689 -0.0782  0.6656 -0.0552
 7817SOL    HW134913   0.461   0.365   4.718 -0.1033  0.4560 -0.3879
 7817SOL    HW234914   0.348   0.422   4.776  2.6934  0.6081  1.2261
 7818SOL     OW34915   2.016   1.739   1.099 -0.2118  0.1058  0.2312
 7818SOL    HW134916   2.028   1.814   1.157 -0.6436  0.6002 -0.3248
 7818SOL    HW234917   1.984   1.677   1.165 -0.4688 -1.3429 -1.2631
 7819SOL     OW34918   3.827   3.023   5.063  0.4942 -0.0579  0.1418
 7819SOL    HW134919   3.781   2.939   5.064  2.1226 -0.9718 -1.1334
 7819SOL    HW234920   3.893   3.011   5.132  2.2511 -0.5328 -1.6284
 7820SOL     OW34921   3.652   0.686   7.594 -0.0640  0.2207  0.1899
 7820SOL    HW134922   3.645   0.616   7.659  0.6399  0.0318  0.0620
 7820SOL    HW234923   3.600   0.642   7.527  0.9744 -0.6913 -0.0212
 7821SOL     OW34924   2.740   0.127   9.730 -0.2361  0.5912  0.4345
 7821SOL    HW134925   2.686   0.195   9.691 -1.9433 -0.8979  0.1649
 7821SOL    HW234926   2.823   0.170   9.710  0.0472  0.1262  0.6112
 7822SOL     OW34927   3.441   3.739   3.453  0.1189  0.6575  0.6436
 7822SOL    HW134928   3.448   3.776   3.365 -0.8604 -0.6135  0.0203
 7822SOL    HW234929   3.494   3.793   3.511  0.2655  2.0179 -0.7708
 7823SOL     OW34930   3.262   3.443   5.504  0.3649 -0.0199  0.0695
 7823SOL    HW134931   3.304   3.491   5.433 -1.4957  0.0945 -0.9564
 7823SOL    HW234932   3.179   3.417   5.464 -0.1143  1.1478  0.3131
 7824SOL     OW34933   1.020   0.140   5.586  0.5412  0.2146 -0.3176
 7824SOL    HW134934   1.004   0.190   5.666 -0.7307  0.8311 -0.9425
 7824SOL    HW234935   1.022   0.208   5.518 -0.9027  3.4507  2.9024
 7825SOL     OW34936   0.248   4.002   5.175 -0.5734 -0.0272  0.0844
 7825SOL    HW134937   0.303   3.950   5.117 -0.3941  0.2217  0.0310
 7825SOL    HW234938   0.213   3.937   5.236  0.5777 -1.4186 -0.7597
 7826SOL     OW34939   2.082   3.287  16.426  0.0081  0.6380 -0.1670
 7826SOL    HW134940   2.016   3.249  16.368 -1.0796 -1.1343  2.2384
 7826SOL    HW234941   2.154   3.303  16.365 -0.5092  0.7980 -0.7338
 7827SOL     OW34942   0.981   3.658   1.687  0.0281  0.6026 -0.0606
 7827SOL    HW134943   1.032   3.627   1.612  2.4927  2.4382  0.8516
 7827SOL    HW234944   1.029   3.613   1.756  1.4251  1.1666 -0.6584
 7828SOL     OW34945   1.886   1.191   2.266  0.4145 -0.2982  0.5684
 7828SOL    HW134946   1.902   1.112   2.214  0.9106 -0.1376  0.4761
 7828SOL    HW234947   1.976   1.203   2.297  0.0155  2.7327  0.5219
 7829SOL     OW34948   0.351   2.729   7.543 -0.0902 -0.3856 -0.2979
 7829SOL    HW134949   0.446   2.732   7.541 -0.0465  0.1691  2.2598
 7829SOL    HW234950   0.342   2.658   7.480  1.9668 -0.0097 -0.9922
 7830SOL     OW34951   0.164   0.018   7.532 -0.0236 -0.1156  0.0332
 7830SOL    HW134952   0.252   0.025   7.570 -0.8473 -0.8815  2.1110
 7830SOL    HW234953   0.124   4.684   7.597 -0.0365 -0.2856 -0.1261
 7831SOL     OW34954   2.141   3.574   5.442  0.1914 -0.1772  0.3751
 7831SOL    HW134955   2.095   3.539   5.365  0.0653  0.9197 -0.0533
 7831SOL    HW234956   2.092   3.654   5.463 -2.9084 -1.7176 -1.0565
 7832SOL     OW34957   3.177   0.561  16.172 -0.7664 -0.1685  0.1848
 7832SOL    HW134958   3.116   0.632  16.189 -2.0609 -0.9084 -1.4155
 7832SOL    HW234959   3.161   0.552  16.078 -1.0479 -1.9567  0.4063
 7833SOL     OW34960   1.298   1.516   5.679  0.1414  0.0535  0.0888
 7833SOL    HW134961   1.239   1.443   5.659 -3.2152  2.8864 -0.5387
 7833SOL    HW234962   1.339   1.487   5.760  0.8258 -0.5000 -0.4561
 7834SOL     OW34963   2.212   4.235  13.155  0.1373 -0.0571 -0.2145
 7834SOL    HW134964   2.232   4.158  13.209 -1.7790 -1.0388 -0.9222
 7834SOL    HW234965   2.150   4.277  13.214  0.2497  0.2105 -0.2887
 7835SOL     OW34966   4.144   0.444  13.074  0.1462 -0.2171  0.2468
 7835SOL    HW134967   4.113   0.458  12.984  0.0359  0.0151  0.3207
 7835SOL    HW234968   4.238   0.450  13.058  0.3259 -2.4664  0.5636
 7836SOL     OW34969   3.392   2.853   8.924  0.1826  0.2297 -0.2365
 7836SOL    HW134970   3.328   2.837   8.854  0.8134  0.2890 -0.8218
 7836SOL    HW234971   3.407   2.763   8.952 -0.1994 -0.0210 -0.8301
 7837SOL     OW34972   1.264   3.055   4.452  0.0963  0.2984 -0.4043
 7837SOL    HW134973   1.338   2.997   4.432  1.6139  1.4741  1.7742
 7837SOL    HW234974   1.277   3.074   4.545 -0.5220 -1.5019  0.0524
 7838SOL     OW34975   2.284   2.072   8.960  0.3779  0.2228  0.1247
 7838SOL    HW134976   2.219   2.134   8.927 -0.1827 -0.1204  0.5707
 7838SOL    HW234977   2.251   1.988   8.928  2.3043 -1.1445  1.7075
 7839SOL     OW34978   0.279   1.730   0.453 -0.4572  0.1913  0.0034
 7839SOL    HW134979   0.187   1.707   0.444 -0.4710  0.9735 -1.6960
 7839SOL    HW234980   0.292   1.734   0.548  3.6441 -0.3479 -0.5374
 7840SOL     OW34981   2.981   1.087   4.828 -0.4730 -0.2147  0.6560
 7840SOL    HW134982   3.050   1.100   4.893  1.1695  0.4299 -1.2225
 7840SOL    HW234983   3.026   1.038   4.759 -0.4662 -0.7396  1.0298
 7841SOL     OW34984   3.237   0.212   6.507 -0.1979 -0.4038 -0.0126
 7841SOL    HW134985   3.221   0.184   6.417 -0.6435 -0.3101  0.0341
 7841SOL    HW234986   3.213   0.130   6.549  3.0248 -0.7324  1.1750
 7842SOL     OW34987   3.284   0.067  11.506 -0.3667  0.4793 -0.1398
 7842SOL    HW134988   3.250   0.014  11.578  1.7145  0.1931  0.6166
 7842SOL    HW234989   3.262   0.156  11.535 -2.8025  0.4110 -1.6907
 7843SOL     OW34990   4.061   2.397   1.514  0.5156 -0.2281  0.0886
 7843SOL    HW134991   4.089   2.306   1.515  1.4943  0.0569 -1.5714
 7843SOL    HW234992   3.987   2.383   1.455  0.3613 -3.8415  1.1645
 7844SOL     OW34993   4.622   4.061   2.669 -0.2136  0.1054 -0.0544
 7844SOL    HW134994   4.574   4.139   2.699  0.0101  0.6190 -1.0412
 7844SOL    HW234995   4.662   4.109   2.597 -1.0314 -0.4612 -0.8826
 7845SOL     OW34996   1.008   3.920   9.901  0.0494  0.1246 -0.0393
 7845SOL    HW134997   0.921   3.910   9.861 -0.8974  0.4119  1.9770
 7845SOL    HW234998   0.998   3.862   9.976  0.6209 -0.1986 -0.2137
 7846SOL     OW34999   1.080   2.417   6.191 -0.4323  0.1944 -0.0282
 7846SOL    HW135000   1.099   2.332   6.151 -3.0727  0.1375 -1.1742
 7846SOL    HW235001   1.093   2.479   6.120 -0.2956 -2.5742 -2.4283
 7847SOL     OW35002   0.974   0.428   6.701  0.6871 -0.2381  0.4059
 7847SOL    HW135003   0.917   0.356   6.730 -1.5429  1.8688  1.3214
 7847SOL    HW235004   0.958   0.424   6.607  2.5019 -0.7363  0.1171
 7848SOL     OW35005   0.391   3.930   6.676 -0.0994  0.4015 -0.0764
 7848SOL    HW135006   0.450   3.899   6.744  0.4686  0.1673 -0.6741
 7848SOL    HW235007   0.423   4.020   6.667  1.1166 -0.0521 -0.1334
 7849SOL     OW35008   1.186   2.911   6.195  0.1589  0.0186 -0.1956
 7849SOL    HW135009   1.257   2.867   6.149 -1.2740 -1.6531 -0.7570
 7849SOL    HW235010   1.188   2.867   6.280 -1.8449  1.3048  0.5168
 7850SOL     OW35011   3.510   0.904   5.127  0.7933  0.1214  0.4932
 7850SOL    HW135012   3.585   0.877   5.075 -0.3702 -0.6321 -0.8091
 7850SOL    HW235013   3.544   0.885   5.215  3.8023  0.3513 -0.6245
 7851SOL     OW35014   3.271   1.396  13.643  0.1253  0.0542  0.3911
 7851SOL    HW135015   3.317   1.386  13.560 -1.1570 -0.1808 -0.2933
 7851SOL    HW235016   3.186   1.428  13.611 -0.4490 -1.4071  0.4096
 7852SOL     OW35017   1.507   1.194   8.191 -0.1008 -0.5676 -1.1858
 7852SOL    HW135018   1.557   1.182   8.272 -0.5356 -3.3169 -1.3109
 7852SOL    HW235019   1.501   1.289   8.186 -0.9462 -0.6335 -1.3183
 7853SOL     OW35020   0.164   0.761  14.540  0.2142  0.0803  0.0253
 7853SOL    HW135021   0.137   0.785  14.629  1.9285 -2.4884  1.2209
 7853SOL    HW235022   0.153   0.669  14.562 -0.2384 -0.1345 -1.1180
 7854SOL     OW35023   0.868   3.594   6.317 -0.2280 -0.4298 -0.9074
 7854SOL    HW135024   0.943   3.538   6.339  0.2867  1.0311  1.1260
 7854SOL    HW235025   0.873   3.652   6.393 -1.2087  0.2483 -1.3712
 7855SOL     OW35026   2.222   4.386   5.833 -0.7351 -0.3238  0.1768
 7855SOL    HW135027   2.216   4.351   5.922 -1.1465  0.5740  0.5076
 7855SOL    HW235028   2.296   4.446   5.842 -1.0991  0.0048  0.9555
 7856SOL     OW35029   3.857   1.485   4.726 -0.0211 -0.7340  0.0084
 7856SOL    HW135030   3.790   1.553   4.722  0.5089  0.0026  3.2987
 7856SOL    HW235031   3.802   1.412   4.697 -1.5362  0.1023  0.7701
 7857SOL     OW35032   2.723   0.947  10.035  0.7242  0.2036  0.4493
 7857SOL    HW135033   2.817   0.927  10.042  1.1820  1.9375 -0.7921
 7857SOL    HW235034   2.678   0.886  10.094 -2.2890  0.3774 -1.7042
 7858SOL     OW35035   4.642   3.523   7.437  0.0682 -0.3332 -0.0417
 7858SOL    HW135036   4.603   3.600   7.478  0.3970 -0.0772 -0.2113
 7858SOL    HW235037   4.717   3.564   7.394 -0.0501 -0.8625 -0.7339
 7859SOL     OW35038   2.384   2.708   6.701  0.3024  0.0441 -0.1920
 7859SOL    HW135039   2.313   2.662   6.654 -0.8601  1.1495  0.4848
 7859SOL    HW235040   2.458   2.648   6.699  0.9370  0.7410  2.2246
 7860SOL     OW35041   4.690   0.784  16.101  0.2254 -0.0672  0.1304
 7860SOL    HW135042   4.685   0.701  16.149 -2.0298  0.9860  1.6985
 7860SOL    HW235043   4.654   0.844  16.166  0.4645  0.2935 -0.0676
 7861SOL     OW35044   0.185   1.716   7.353 -0.4242 -0.6821  0.0774
 7861SOL    HW135045   0.175   1.802   7.311  2.1107 -2.4130 -4.0929
 7861SOL    HW235046   0.186   1.659   7.276  2.4947  0.7757 -0.9468
 7862SOL     OW35047   0.898   0.459  10.314  0.5360 -0.0976 -0.5480
 7862SOL    HW135048   0.832   0.473  10.246  0.2388 -0.9213 -0.4205
 7862SOL    HW235049   0.889   0.364  10.313  2.2559 -0.2596 -1.8189
 7863SOL     OW35050   1.459   1.489  17.505 -0.4144  0.0066 -0.3677
 7863SOL    HW135051   1.408   1.510  17.426 -0.7404 -4.0760 -1.2248
 7863SOL    HW235052   1.488   1.399  17.490  0.9955  0.2536  0.8875
 7864SOL     OW35053   4.525   3.584   5.120  0.1959  0.7035  0.3169
 7864SOL    HW135054   4.478   3.566   5.202  0.4940 -1.1636  0.0916
 7864SOL    HW235055   4.546   3.676   5.129 -0.9044  0.8538  1.4316
 7865SOL     OW35056   0.939   4.030   3.464  0.3350 -0.3877  0.5109
 7865SOL    HW135057   0.848   4.030   3.494  0.1535  1.7662 -0.0219
 7865SOL    HW235058   0.954   4.122   3.443  0.1857 -0.3483  0.5736
 7866SOL     OW35059   4.502   1.478  13.769  0.4157  0.4932 -0.1131
 7866SOL    HW135060   4.548   1.458  13.688 -0.5075  2.9498 -1.2423
 7866SOL    HW235061   4.571   1.523  13.818 -0.6793 -0.7800  2.6190
 7867SOL     OW35062   2.049   1.277   5.755 -0.4140  0.4191  0.3980
 7867SOL    HW135063   2.113   1.347   5.742  0.5844 -1.4677 -4.7477
 7867SOL    HW235064   2.113   1.207   5.768 -2.3378 -1.1420  1.5327
 7868SOL     OW35065   4.059   4.096   7.682  0.1796 -0.0929  0.1328
 7868SOL    HW135066   4.153   4.093   7.696  0.5050 -0.4885 -2.1155
 7868SOL    HW235067   4.024   4.111   7.769 -0.5561  1.3192 -0.4130
 7869SOL     OW35068   1.025   3.196   2.639 -0.3842  0.1275 -0.0661
 7869SOL    HW135069   0.949   3.246   2.609 -0.1637  0.0058 -0.8162
 7869SOL    HW235070   1.056   3.249   2.712  0.6576  0.3663 -0.6849
 7870SOL     OW35071   0.165   0.610   8.741 -0.0198 -0.3951 -0.0297
 7870SOL    HW135072   0.200   0.637   8.826  1.4832 -0.5788 -0.5802
 7870SOL    HW235073   0.234   0.613   8.674  1.1429  1.9094  1.2767
 7871SOL     OW35074   3.706   0.518   3.760  0.6524 -0.2521  0.7652
 7871SOL    HW135075   3.720   0.611   3.744 -4.7170  0.6011  0.8867
 7871SOL    HW235076   3.647   0.522   3.835 -0.3725  0.8053 -0.1046
 7872SOL     OW35077   4.238   2.944   6.521 -0.1956  0.3099 -0.2557
 7872SOL    HW135078   4.298   2.869   6.515 -2.1918 -1.2876 -0.1221
 7872SOL    HW235079   4.181   2.934   6.446 -0.6141 -1.6602  0.3241
 7873SOL     OW35080   1.304   4.258   6.769  0.0391 -0.8491  0.2151
 7873SOL    HW135081   1.383   4.281   6.819  0.2915  2.2364 -1.5743
 7873SOL    HW235082   1.349   4.205   6.703 -0.0008 -1.7421  0.9059
 7874SOL     OW35083   3.451   2.994   4.151  0.1457  0.8361  0.4664
 7874SOL    HW135084   3.538   2.990   4.111  0.5939 -1.4499  1.6748
 7874SOL    HW235085   3.390   2.983   4.078  0.0935  0.2164  0.5979
 7875SOL     OW35086   2.466   4.459  15.234 -0.3342 -0.9274  0.5860
 7875SOL    HW135087   2.448   4.549  15.206 -1.1317 -1.4481 -0.5744
 7875SOL    HW235088   2.553   4.441  15.200 -1.2540 -0.8324 -1.7865
 7876SOL     OW35089   4.508   0.951   1.820 -0.4042  0.5565  0.9078
 7876SOL    HW135090   4.559   0.881   1.779 -1.3054 -1.3009  3.0038
 7876SOL    HW235091   4.466   0.902   1.890 -0.3159  0.2156  0.7256
 7877SOL     OW35092   1.930   2.552   8.330  0.1828  0.8577  0.2937
 7877SOL    HW135093   1.925   2.581   8.238 -2.0265  1.6242  0.6741
 7877SOL    HW235094   1.882   2.626   8.366  2.0549  2.4907 -0.5229
 7878SOL     OW35095   3.275   3.401  13.523  0.1626  0.1082  0.7249
 7878SOL    HW135096   3.259   3.339  13.593  0.7709 -1.0125 -0.1344
 7878SOL    HW235097   3.192   3.448  13.530  0.6250  0.8047  1.5027
 7879SOL     OW35098   0.720   2.351   3.625 -0.2836 -0.2768 -0.7496
 7879SOL    HW135099   0.706   2.330   3.718 -0.1964  1.5653 -0.3217
 7879SOL    HW235100   0.722   2.447   3.625 -0.8225 -0.2635 -1.4608
 7880SOL     OW35101   1.711   0.662  12.246  0.0271  0.3498  0.0041
 7880SOL    HW135102   1.802   0.691  12.249 -0.3487  1.5468 -0.2237
 7880SOL    HW235103   1.698   0.592  12.310  4.2143 -0.2855  0.1482
 7881SOL     OW35104   1.517   1.293  10.952  0.3514 -0.0641 -0.1777
 7881SOL    HW135105   1.532   1.388  10.953  2.5887 -0.4298  0.8917
 7881SOL    HW235106   1.478   1.286  11.040 -1.5289  3.4343 -0.7328
 7882SOL     OW35107   3.200   1.128   3.067 -0.1076 -0.1651  0.2493
 7882SOL    HW135108   3.189   1.223   3.074 -0.4119  0.0097 -2.6376
 7882SOL    HW235109   3.116   1.088   3.046 -2.2334  4.0810  0.7108
 7883SOL     OW35110   0.643   2.443   1.762 -0.0393 -0.1917  0.3154
 7883SOL    HW135111   0.686   2.391   1.830 -2.0552 -1.4277  0.6330
 7883SOL    HW235112   0.640   2.532   1.796 -3.2045  0.0840 -0.6735
 7884SOL     OW35113   3.390   1.721   6.515  0.3083 -0.1542  0.5306
 7884SOL    HW135114   3.439   1.804   6.518 -0.9800  0.6228  0.1519
 7884SOL    HW235115   3.375   1.706   6.422  0.9970 -0.0322  0.4015
 7885SOL     OW35116   2.921   3.338   8.956  0.1463  0.3806 -0.1694
 7885SOL    HW135117   2.914   3.418   9.008 -0.2258  1.1298 -1.3884
 7885SOL    HW235118   2.933   3.375   8.869  0.0728  0.6949 -0.0434
 7886SOL     OW35119   3.852   2.041   2.908  0.0416  0.5321 -1.1235
 7886SOL    HW135120   3.914   2.004   2.846 -1.5203 -2.7903 -0.7647
 7886SOL    HW235121   3.858   2.136   2.918  1.5278  0.2653  0.4873
 7887SOL     OW35122   2.259   2.384   2.669  0.4157  1.0645  0.4469
 7887SOL    HW135123   2.317   2.459   2.658  0.7405  0.8831  0.9384
 7887SOL    HW235124   2.319   2.313   2.691 -0.7999  0.4469  1.7819
 7888SOL     OW35125   2.642   4.351   6.275 -0.6910 -0.5949 -0.4542
 7888SOL    HW135126   2.689   4.416   6.327 -0.5411  1.1932 -2.8324
 7888SOL    HW235127   2.554   4.387   6.266 -1.0181 -1.2610  0.0127
 7889SOL     OW35128   2.863   3.311   5.727  0.4852 -0.2795 -0.3857
 7889SOL    HW135129   2.940   3.282   5.776  0.3247 -1.6986 -0.9839
 7889SOL    HW235130   2.864   3.405   5.745  0.2224 -0.0321 -1.6582
 7890SOL     OW35131   1.662   1.980   5.839  0.2299  0.2704  0.1215
 7890SOL    HW135132   1.608   2.058   5.851 -1.5830 -0.8346 -0.9756
 7890SOL    HW235133   1.695   1.972   5.928 -0.9288  1.3106  0.6374
 7891SOL     OW35134   4.128   2.903   4.988  0.3093  0.0435 -0.2196
 7891SOL    HW135135   4.115   2.936   5.078 -1.3024  1.0720 -0.8202
 7891SOL    HW235136   4.191   2.964   4.951 -2.0057  1.5886 -1.6035
 7892SOL     OW35137   2.537   4.723   8.731  0.3224  0.1332 -0.2186
 7892SOL    HW135138   2.519   0.024   8.640  0.3616  0.4334 -0.1468
 7892SOL    HW235139   2.447   4.720   8.765 -0.0170  1.0999 -1.0039
 7893SOL     OW35140   1.540   2.672   9.622 -0.4244  0.2192 -0.0367
 7893SOL    HW135141   1.475   2.725   9.577 -1.6606 -0.5304  0.8943
 7893SOL    HW235142   1.515   2.689   9.713 -1.7408  1.3065 -0.6031
 7894SOL     OW35143   2.024   0.597   6.934  0.1672 -0.5871  0.3797
 7894SOL    HW135144   2.023   0.677   6.882  0.7128 -0.2261  0.9218
 7894SOL    HW235145   2.048   0.629   7.021  3.0637 -0.2027 -0.5762
 7895SOL     OW35146   1.722   3.668  16.984 -0.0137  0.6107 -0.2747
 7895SOL    HW135147   1.660   3.615  17.034 -0.5944  2.2487  0.7765
 7895SOL    HW235148   1.729   3.748  17.036 -0.1828 -0.7327  1.8247
 7896SOL     OW35149   2.856   1.781   9.389  0.3042  0.3820 -0.1857
 7896SOL    HW135150   2.862   1.869   9.427  0.9117  0.4003 -0.3257
 7896SOL    HW235151   2.778   1.785   9.334  0.3751 -0.8438 -0.3651
 7897SOL     OW35152   0.970   2.065   5.416 -0.0366 -0.9943 -0.4255
 7897SOL    HW135153   0.930   2.110   5.342  1.7699  0.6377 -0.3883
 7897SOL    HW235154   0.979   1.977   5.378 -4.3197 -0.8474 -1.8269
 7898SOL     OW35155   1.374   4.095  10.442 -0.2083 -0.0822 -0.1392
 7898SOL    HW135156   1.465   4.084  10.470  0.3041 -2.2331 -2.6653
 7898SOL    HW235157   1.349   4.174  10.489  0.3902  0.7110 -1.1577
 7899SOL     OW35158   3.467   3.837  10.093 -0.5992  0.0956 -0.2435
 7899SOL    HW135159   3.511   3.759  10.058 -0.3608  0.2398 -0.2614
 7899SOL    HW235160   3.534   3.868  10.153 -0.0005 -1.7959  0.0784
 7900SOL     OW35161   4.253   1.331   4.840 -0.5825 -0.4348  0.3148
 7900SOL    HW135162   4.227   1.330   4.748 -1.4884  2.2445  0.5445
 7900SOL    HW235163   4.178   1.374   4.881 -0.0622  0.9878 -0.2405
 7901SOL     OW35164   4.000   4.085   3.393  0.2981  0.1049  0.3383
 7901SOL    HW135165   4.085   4.083   3.349 -0.7638  1.8339 -1.7648
 7901SOL    HW235166   3.990   4.178   3.409  1.4432  0.2935 -0.0807
 7902SOL     OW35167   2.021   2.442  10.684  0.1512  0.3259  0.4837
 7902SOL    HW135168   2.087   2.441  10.753 -0.8987  1.5092  1.5202
 7902SOL    HW235169   2.071   2.431  10.603  0.4925  0.8396  0.6242
 7903SOL     OW35170   3.491   3.504   0.303 -0.1362 -0.3622  0.6227
 7903SOL    HW135171   3.579   3.484   0.273 -0.3701 -0.2448 -0.1500
 7903SOL    HW235172   3.506   3.486   0.395 -0.0269  2.3806  1.1379
 7904SOL     OW35173   0.432   3.006   6.851  0.1620  0.4748 -0.3389
 7904SOL    HW135174   0.352   3.050   6.880 -1.5856 -3.0065  0.1927
 7904SOL    HW235175   0.439   3.047   6.765  0.6781  0.5253 -0.2682
 7905SOL     OW35176   0.277   3.828   9.070 -0.2072  0.3434 -0.2272
 7905SOL    HW135177   0.223   3.905   9.052  0.3838  1.0294  0.9611
 7905SOL    HW235178   0.343   3.828   9.000 -1.3349  0.1501 -1.2811
 7906SOL     OW35179   4.518   1.028  16.656  0.0670 -0.5635 -0.7184
 7906SOL    HW135180   4.510   1.028  16.752 -1.3815  0.9776 -0.8383
 7906SOL    HW235181   4.487   0.939  16.639 -0.2781 -0.9639  1.9154
 7907SOL     OW35182   1.294   2.731   1.799  0.0957 -0.3280 -0.0175
 7907SOL    HW135183   1.285   2.666   1.729 -1.4828  0.5280 -0.6193
 7907SOL    HW235184   1.216   2.712   1.852  0.6587 -0.8694  0.6137
 7908SOL     OW35185   1.592   1.125   0.309  0.6445  0.5674 -0.2643
 7908SOL    HW135186   1.580   1.035   0.279  1.8571  0.2157  0.3269
 7908SOL    HW235187   1.542   1.125   0.391 -2.2130 -1.0352 -2.0125
 7909SOL     OW35188   4.177   1.544   1.617  0.4848  0.3465 -0.3529
 7909SOL    HW135189   4.116   1.570   1.547  1.0204  0.7746 -0.6581
 7909SOL    HW235190   4.130   1.473   1.661 -2.2057  0.8498 -2.3561
 7910SOL     OW35191   0.737   0.622   9.717  0.0153 -0.5398 -0.4026
 7910SOL    HW135192   0.705   0.633   9.627 -2.3302 -1.9292  0.2555
 7910SOL    HW235193   0.832   0.617   9.707 -0.1500 -1.1530 -1.7927
 7911SOL     OW35194   0.046   1.224  14.149  0.1439  0.0611 -0.0067
 7911SOL    HW135195   0.126   1.229  14.201 -1.0892 -1.4068  2.0212
 7911SOL    HW235196   4.702   1.202  14.213  1.2460  0.4944  1.3278
 7912SOL     OW35197   4.691   4.156   8.120  0.2405  0.1245 -0.0347
 7912SOL    HW135198   4.621   4.098   8.147  0.7170 -0.4759 -0.0879
 7912SOL    HW235199   4.690   4.154   8.024  1.3483  2.2074 -0.0973
 7913SOL     OW35200   0.964   0.639   4.369 -0.7300  0.2814 -0.3964
 7913SOL    HW135201   0.868   0.639   4.373 -0.7055  3.4394  0.1465
 7913SOL    HW235202   0.995   0.660   4.457 -1.3909  1.0510 -0.3502
 7914SOL     OW35203   3.610   3.065   6.946 -0.2419  0.5064 -0.0302
 7914SOL    HW135204   3.607   3.045   7.040 -0.4200  1.3271  0.1470
 7914SOL    HW235205   3.684   3.126   6.945 -0.1305  0.3344 -1.3762
 7915SOL     OW35206   3.383   3.240   2.600 -0.2380  0.4690  0.2142
 7915SOL    HW135207   3.345   3.311   2.548  0.1224 -0.1233 -0.8640
 7915SOL    HW235208   3.415   3.285   2.678 -0.5557 -2.7595  2.2368
 7916SOL     OW35209   2.742   2.758   5.956  0.4378  0.3749 -0.0936
 7916SOL    HW135210   2.776   2.816   5.888  1.5039  1.0841  1.0237
 7916SOL    HW235211   2.821   2.705   5.972 -0.0850 -0.5183 -0.4566
 7917SOL     OW35212   1.440   1.654   5.135  0.0363  0.5167  0.2789
 7917SOL    HW135213   1.530   1.686   5.132 -0.4667  1.6070 -3.2012
 7917SOL    HW235214   1.416   1.685   5.222 -2.0280 -0.8293  0.2008
 7918SOL     OW35215   1.164   4.584   7.522  0.0030 -0.0119 -0.0728
 7918SOL    HW135216   1.219   4.513   7.488 -0.2397 -1.0471  1.7126
 7918SOL    HW235217   1.132   4.638   7.450 -3.0046 -1.3391  0.2801
 7919SOL     OW35218   1.706   0.068  15.281  0.1300  0.0214 -0.4747
 7919SOL    HW135219   1.715   4.700  15.258  0.9727  0.3440 -1.4038
 7919SOL    HW235220   1.676   0.054  15.371 -0.5760  1.5350 -0.4834
 7920SOL     OW35221   0.649   0.917   9.047 -0.2871  0.5514  0.5679
 7920SOL    HW135222   0.740   0.892   9.064 -0.6797 -2.2153 -1.3708
 7920SOL    HW235223   0.612   0.886   9.130  1.9509  1.3045  1.8636
 7921SOL     OW35224   2.689   0.370  16.093 -0.5175 -0.2549  0.3349
 7921SOL    HW135225   2.723   0.438  16.034 -2.9077  2.3847  1.9768
 7921SOL    HW235226   2.714   0.415  16.174  0.1317  1.5641 -0.8506
 7922SOL     OW35227   3.646   2.242  13.308 -0.0855 -0.1303  0.2638
 7922SOL    HW135228   3.573   2.300  13.291 -1.1579 -1.2769  0.9472
 7922SOL    HW235229   3.595   2.173  13.350  0.1487 -0.3789  0.1429
 7923SOL     OW35230   1.980   3.787   5.507  0.4539  0.0020  0.1738
 7923SOL    HW135231   2.031   3.863   5.535 -1.6730  1.9344 -1.2423
 7923SOL    HW235232   1.943   3.757   5.590 -0.3278 -0.3211 -0.2938
 7924SOL     OW35233   2.063   1.033   6.809 -0.3369 -0.5673 -0.1279
 7924SOL    HW135234   2.038   1.121   6.835 -0.2724 -1.4613  2.9051
 7924SOL    HW235235   2.052   1.044   6.714 -3.1336 -1.0537  0.1497
 7925SOL     OW35236   0.390   0.385   6.141 -0.0474 -0.4191 -1.3228
 7925SOL    HW135237   0.415   0.310   6.195  2.0288 -0.1069 -1.8227
 7925SOL    HW235238   0.295   0.381   6.147  0.1436  1.0332  2.5174
 7926SOL     OW35239   0.187   0.690  16.362  0.5379 -0.4302  0.9496
 7926SOL    HW135240   0.137   0.675  16.282  0.1730  2.2192  0.6852
 7926SOL    HW235241   0.241   0.769  16.352 -0.4643  0.2128  0.7021
 7927SOL     OW35242   0.395   3.147  14.437  0.0333  0.3724  0.6512
 7927SOL    HW135243   0.319   3.182  14.483 -0.8328 -3.1299  1.8809
 7927SOL    HW235244   0.356   3.093  14.368 -0.0424  1.8089 -0.4458
 7928SOL     OW35245   4.571   3.214   2.961  0.1032 -0.0518 -0.1961
 7928SOL    HW135246   4.529   3.274   2.899  0.8989  0.5418 -0.1565
 7928SOL    HW235247   4.522   3.134   2.944  0.7491 -0.2866 -0.9623
 7929SOL     OW35248   3.951   1.330   2.523  0.3280  0.0538 -0.1108
 7929SOL    HW135249   4.036   1.308   2.486 -0.7126 -3.0194 -0.7011
 7929SOL    HW235250   3.935   1.409   2.471  1.0507  1.3967  1.7279
 7930SOL     OW35251   3.599   2.964  11.578  0.3947  0.1119  0.6725
 7930SOL    HW135252   3.566   3.038  11.527 -1.5857 -2.8319 -2.2906
 7930SOL    HW235253   3.544   2.977  11.656 -1.7346 -1.3059 -0.5886
 7931SOL     OW35254   1.248   4.393   8.064 -0.0769  0.0543 -0.1575
 7931SOL    HW135255   1.314   4.456   8.038  0.5217  0.1822  1.6895
 7931SOL    HW235256   1.206   4.364   7.982 -2.0936 -2.8976  1.9078
 7932SOL     OW35257   1.239   4.207   7.599 -0.1446  0.2464  0.4518
 7932SOL    HW135258   1.184   4.136   7.633  0.0301 -0.2493 -0.2987
 7932SOL    HW235259   1.218   4.273   7.666  0.7966  1.3468 -0.3351
 7933SOL     OW35260   3.256   3.950   7.934  0.0510 -0.1950  0.6319
 7933SOL    HW135261   3.280   3.883   7.870  2.4794  0.3249  0.9957
 7933SOL    HW235262   3.243   3.896   8.012 -1.9708 -1.7173 -0.7548
 7934SOL     OW35263   2.843   1.665   5.428  0.2752 -0.0461 -0.3231
 7934SOL    HW135264   2.918   1.606   5.421 -0.1009 -0.4271 -1.1519
 7934SOL    HW235265   2.853   1.732   5.361  0.1194 -1.5108 -1.8079
 7935SOL     OW35266   2.626   0.054  17.556 -0.5619 -0.1775  0.3978
 7935SOL    HW135267   2.670   0.061  17.471 -2.3347 -0.2946 -0.5416
 7935SOL    HW235268   2.596   0.143  17.574  2.4909  1.0527 -0.5647
 7936SOL     OW35269   2.791   4.264   8.772 -0.3817 -0.4055  0.6897
 7936SOL    HW135270   2.793   4.358   8.790  1.2459 -0.2898 -0.1346
 7936SOL    HW235271   2.697   4.245   8.769 -0.5077  0.1939  0.8133
 7937SOL     OW35272   2.845   4.013   4.886 -0.1107 -0.6586 -0.1611
 7937SOL    HW135273   2.915   4.078   4.887 -2.2682  1.6403  1.6730
 7937SOL    HW235274   2.837   3.979   4.975 -1.1196  1.5013  0.5796
 7938SOL     OW35275   1.205   1.511  15.218  0.4176 -0.0832  0.1390
 7938SOL    HW135276   1.264   1.547  15.152  0.7911 -4.2027 -1.8479
 7938SOL    HW235277   1.224   1.417  15.215  1.0409  0.0540 -0.3251
 7939SOL     OW35278   1.920   2.225   7.646  0.1329 -0.3852  0.2633
 7939SOL    HW135279   1.850   2.179   7.600  0.8567 -0.4651 -0.7496
 7939SOL    HW235280   1.870   2.295   7.689 -1.0231 -1.3528  0.4894
 7940SOL     OW35281   4.324   2.950  15.423 -0.4328 -0.0532  0.1793
 7940SOL    HW135282   4.351   2.868  15.381 -1.6342  0.1485 -0.9633
 7940SOL    HW235283   4.232   2.954  15.400  0.0758 -1.1016 -2.0819
 7941SOL     OW35284   0.794   1.568   5.095  0.6715  0.2510  0.6038
 7941SOL    HW135285   0.782   1.632   5.024 -0.2929 -0.1510  0.4085
 7941SOL    HW235286   0.771   1.484   5.056  0.5861  0.6069 -0.1165
 7942SOL     OW35287   2.794   0.297   7.022  0.3521 -0.5123 -0.7532
 7942SOL    HW135288   2.851   0.371   7.002 -2.1502  1.1015 -1.9584
 7942SOL    HW235289   2.731   0.338   7.082  1.4023  0.2260 -0.1632
 7943SOL     OW35290   1.813   4.652  17.394  0.2999  0.3019 -0.0233
 7943SOL    HW135291   1.871   4.656  17.470  1.2440  1.0189 -0.7815
 7943SOL    HW235292   1.843   4.565  17.369 -0.6538 -0.7471  2.4839
 7944SOL     OW35293   2.945   1.994   2.528 -0.2509  0.2564 -0.0917
 7944SOL    HW135294   2.986   1.918   2.571 -0.5375 -0.0303 -0.3259
 7944SOL    HW235295   2.967   1.980   2.436 -0.8939  0.1689 -0.2291
 7945SOL     OW35296   0.287   1.620   4.826  0.1322 -0.4019 -0.5916
 7945SOL    HW135297   0.284   1.527   4.805  3.4314 -0.3881 -1.1164
 7945SOL    HW235298   0.267   1.651   4.738 -0.3109 -0.6984 -0.5984
 7946SOL     OW35299   2.787   0.316   4.815 -0.5028  0.9640 -0.1488
 7946SOL    HW135300   2.775   0.410   4.828  1.1228  1.1120  0.2639
 7946SOL    HW235301   2.862   0.294   4.871 -1.2455 -0.2645  0.3598
 7947SOL     OW35302   2.413   3.548   5.507  0.5728  0.1465  0.2439
 7947SOL    HW135303   2.377   3.517   5.590 -1.4659  0.6046 -0.4695
 7947SOL    HW235304   2.329   3.579   5.473  2.0864  2.7790 -1.1186
 7948SOL     OW35305   4.251   3.775   2.899  0.3360  0.0102 -0.1286
 7948SOL    HW135306   4.234   3.858   2.944 -1.7101  0.0288 -0.9293
 7948SOL    HW235307   4.306   3.727   2.961  0.5300 -1.3333 -1.3589
 7949SOL     OW35308   3.889   1.118   4.941 -0.3153  0.1558  0.7931
 7949SOL    HW135309   3.947   1.194   4.932 -0.8696  0.3385 -1.2007
 7949SOL    HW235310   3.887   1.098   5.035  0.6760  2.5021  1.3017
 7950SOL     OW35311   0.224   4.485   6.527  0.0076 -0.1774 -0.4784
 7950SOL    HW135312   0.139   4.502   6.565 -0.0680  3.0966 -2.0851
 7950SOL    HW235313   0.255   4.575   6.514  0.3732 -0.1789  0.3852
 7951SOL     OW35314   0.426   1.927   2.475  0.3838  0.2430  0.4375
 7951SOL    HW135315   0.420   1.831   2.474 -1.1173  0.3158  2.7437
 7951SOL    HW235316   0.517   1.945   2.453 -0.6056  1.6063 -2.6097
 7952SOL     OW35317   3.993   4.689   3.529 -0.3659  0.8143 -0.2843
 7952SOL    HW135318   4.058   4.619   3.518  1.0135  2.0938 -0.3249
 7952SOL    HW235319   4.037   0.036   3.483 -0.1712  0.2038 -1.0493
 7953SOL     OW35320   1.645   1.887   8.493 -0.3518  0.0224 -0.7430
 7953SOL    HW135321   1.740   1.881   8.501 -0.5702 -1.6545  0.6504
 7953SOL    HW235322   1.642   1.961   8.433  1.3304  0.4426 -0.3176
 7954SOL     OW35323   3.359   4.284   5.677  0.2904 -0.2678 -0.0657
 7954SOL    HW135324   3.265   4.299   5.665 -0.2812 -2.2343  2.0964
 7954SOL    HW235325   3.390   4.280   5.586  1.0231  2.2230  0.0587
 7955SOL     OW35326   0.607   2.539   2.546 -0.2945 -0.2184 -0.3671
 7955SOL    HW135327   0.644   2.503   2.465 -0.7115 -2.0110  0.2408
 7955SOL    HW235328   0.683   2.578   2.590  1.2360 -3.1290 -0.3915
 7956SOL     OW35329   0.706   3.565   9.543 -0.3094  0.1484  0.1260
 7956SOL    HW135330   0.618   3.593   9.567  0.1753  0.5059  1.4719
 7956SOL    HW235331   0.710   3.474   9.573 -1.2821 -0.3461 -1.2273
 7957SOL     OW35332   3.078   1.031   8.204  0.0363 -0.4566  0.2511
 7957SOL    HW135333   2.993   1.026   8.160  0.4897  0.2197 -0.7144
 7957SOL    HW235334   3.044   1.002   8.288 -1.8112 -0.2788 -0.4295
 7958SOL     OW35335   0.321   0.353   4.425 -0.7448  0.0354  0.2425
 7958SOL    HW135336   0.295   0.431   4.376  3.4183 -0.6258 -3.0152
 7958SOL    HW235337   0.362   0.383   4.505 -1.4358  2.4656 -0.3268
 7959SOL     OW35338   3.502   0.543   3.936 -0.0134 -0.5376  0.1159
 7959SOL    HW135339   3.464   0.503   4.014  0.8962 -0.0934  0.7873
 7959SOL    HW235340   3.421   0.562   3.888  0.5562 -0.2293 -0.7259
 7960SOL     OW35341   0.268   0.653   7.036 -0.0648  0.2932  0.5102
 7960SOL    HW135342   0.360   0.628   7.046  0.5713  1.7321 -1.5468
 7960SOL    HW235343   0.277   0.746   7.014  0.0618 -0.3915 -2.3494
 7961SOL     OW35344   3.247   2.584   5.418  0.4016  0.6950  0.5603
 7961SOL    HW135345   3.276   2.655   5.475  0.6801  1.5890 -0.7004
 7961SOL    HW235346   3.276   2.504   5.463 -5.5718 -1.8996 -0.2588
 7962SOL     OW35347   2.314   1.758   5.285  0.0731 -0.1772  0.1576
 7962SOL    HW135348   2.304   1.853   5.286 -1.2594 -0.3129 -0.0542
 7962SOL    HW235349   2.405   1.759   5.313  0.3360  2.7273 -0.8403
 7963SOL     OW35350   2.421   4.400   3.030  0.3305  0.4290  0.4619
 7963SOL    HW135351   2.347   4.451   2.998  1.7790  1.1848 -1.6520
 7963SOL    HW235352   2.379   4.314   3.020  0.0381  0.6551 -0.2442
 7964SOL     OW35353   0.946   1.441   5.553  0.0209  0.4285  0.1414
 7964SOL    HW135354   0.874   1.379   5.562  0.1833  0.7518  3.5051
 7964SOL    HW235355   1.025   1.389   5.538  0.1427  1.2637 -2.1568
 7965SOL     OW35356   3.328   0.896   8.009  0.3584 -0.1786 -0.8592
 7965SOL    HW135357   3.412   0.855   8.030  0.3337 -0.2171 -0.8355
 7965SOL    HW235358   3.346   0.909   7.916  0.1093 -2.0039 -1.1630
 7966SOL     OW35359   0.179   4.385  13.405 -0.4895  0.0079  0.5790
 7966SOL    HW135360   0.120   4.458  13.423  0.1982  0.7909 -0.3699
 7966SOL    HW235361   0.152   4.314  13.463 -3.7134  1.9084  1.4163
 7967SOL     OW35362   4.597   3.534  17.077  0.1213 -0.4680 -0.0487
 7967SOL    HW135363   4.545   3.473  17.130  0.2560 -0.2228  0.3676
 7967SOL    HW235364   4.614   3.469  17.009  1.4553 -0.6516  0.4573
 7968SOL     OW35365   1.878   4.073   4.956  0.1586 -0.5094  0.1346
 7968SOL    HW135366   1.852   4.165   4.951  1.5842 -0.0312  1.4438
 7968SOL    HW235367   1.891   4.054   5.049 -1.8967 -0.9101  0.3463
 7969SOL     OW35368   4.480   0.736  10.704 -0.3732  0.3345  0.9033
 7969SOL    HW135369   4.394   0.759  10.739 -1.5153 -2.7271  0.1399
 7969SOL    HW235370   4.446   0.657  10.662  0.5485  0.8212 -0.7622
 7970SOL     OW35371   3.642   0.188   4.515 -0.1744 -0.4715  0.2815
 7970SOL    HW135372   3.557   0.212   4.478  0.6941  0.6666 -0.9674
 7970SOL    HW235373   3.669   0.268   4.560 -0.0120 -0.9278  1.0011
 7971SOL     OW35374   2.230   3.030  14.474 -0.5572  0.0068  0.0934
 7971SOL    HW135375   2.219   2.935  14.471  0.5676 -0.1618  1.2796
 7971SOL    HW235376   2.179   3.056  14.397  0.8755  0.6249 -0.6375
 7972SOL     OW35377   2.785   2.390   1.910  0.3916 -0.1581 -0.4687
 7972SOL    HW135378   2.815   2.354   1.827 -1.5003 -1.2923 -0.6626
 7972SOL    HW235379   2.693   2.365   1.919  0.0175  1.3979  0.1295
 7973SOL     OW35380   4.174   3.368   1.392  0.1346 -0.0816 -0.1908
 7973SOL    HW135381   4.124   3.315   1.453  0.7980 -0.7314 -0.2156
 7973SOL    HW235382   4.255   3.391   1.437 -1.1169  2.4841  0.7505
 7974SOL     OW35383   3.422   1.849   1.919 -0.1376 -0.0523 -0.1500
 7974SOL    HW135384   3.475   1.895   1.854 -2.2141 -2.3942 -3.5467
 7974SOL    HW235385   3.335   1.865   1.883  0.3251  1.3612 -0.6441
 7975SOL     OW35386   0.845   1.345   9.664 -0.3492  0.2142  0.0583
 7975SOL    HW135387   0.831   1.309   9.751 -0.9390  0.1647 -0.0563
 7975SOL    HW235388   0.759   1.371   9.630 -2.2156 -3.3043  2.1177
 7976SOL     OW35389   0.308   4.281   1.194  0.1302  0.8577 -0.0644
 7976SOL    HW135390   0.234   4.342   1.198 -0.2179  0.2183  3.1826
 7976SOL    HW235391   0.329   4.246   1.281  0.6251 -3.8202 -2.0841
 7977SOL     OW35392   3.340   1.870   4.269  0.1723  0.5101 -0.7424
 7977SOL    HW135393   3.262   1.815   4.277 -1.8660  3.4870  0.0316
 7977SOL    HW235394   3.377   1.860   4.357 -1.5315 -1.5666 -0.2559
 7978SOL     OW35395   3.016   1.173   2.819  0.3913  0.1244  0.6995
 7978SOL    HW135396   3.077   1.120   2.767 -1.6478 -0.6108 -0.9373
 7978SOL    HW235397   3.035   1.256   2.777  1.0901  0.1735  1.1142
 7979SOL     OW35398   3.743   0.123   5.771 -0.9305  0.3503  0.4171
 7979SOL    HW135399   3.808   0.193   5.764 -1.8639  1.2130  0.3533
 7979SOL    HW235400   3.796   0.044   5.771 -0.2726  0.7965  0.9305
 7980SOL     OW35401   4.342   2.917   2.165 -0.4239  0.2647  0.3595
 7980SOL    HW135402   4.384   2.848   2.113  3.1739  2.3014  0.5731
 7980SOL    HW235403   4.320   2.986   2.103  0.0924  0.2194  0.1253
 7981SOL     OW35404   2.169   4.378  16.413  0.0114  0.6377 -0.0360
 7981SOL    HW135405   2.203   4.315  16.477 -0.4972  1.1496  0.7320
 7981SOL    HW235406   2.092   4.330  16.383  1.0863  0.3289 -2.3304
 7982SOL     OW35407   0.095   0.313  16.990  0.2091  0.0578  0.2575
 7982SOL    HW135408   0.066   0.234  17.036 -0.2310  1.0030  1.5999
 7982SOL    HW235409   0.046   0.298  16.909  0.7388  1.2933 -0.2788
 7983SOL     OW35410   4.447   4.414   0.104 -0.4933  0.1004  0.2058
 7983SOL    HW135411   4.465   4.462   0.184 -0.8010  1.7059 -0.7023
 7983SOL    HW235412   4.393   4.472   0.050 -1.6109 -0.6014  0.5643
 7984SOL     OW35413   0.279   4.369   9.941 -0.1748  0.5795 -0.2379
 7984SOL    HW135414   0.219   4.410   9.878 -0.0318  2.0022  0.5604
 7984SOL    HW235415   0.248   4.278   9.939 -0.2833  0.6009  0.8185
 7985SOL     OW35416   3.417   0.240   7.170  1.0858 -0.1559 -0.6009
 7985SOL    HW135417   3.481   0.223   7.101  1.5679 -0.3479 -0.1133
 7985SOL    HW235418   3.446   0.329   7.193  2.4738 -0.2642 -1.9290
 7986SOL     OW35419   3.302   1.832  13.079 -0.0512 -0.1906  0.1109
 7986SOL    HW135420   3.242   1.791  13.017  0.0441 -2.0102  1.2497
 7986SOL    HW235421   3.266   1.807  13.164 -0.7097  1.2571  0.2661
 7987SOL     OW35422   4.214   2.745   8.911  0.2939 -0.1517 -0.2771
 7987SOL    HW135423   4.141   2.788   8.865  0.7460 -0.3509 -1.1843
 7987SOL    HW235424   4.191   2.652   8.915 -1.9051  0.4588  1.4288
 7988SOL     OW35425   2.311   4.408   8.791  0.0652  0.1668 -0.4385
 7988SOL    HW135426   2.293   4.485   8.845 -0.4956  0.0963 -0.5221
 7988SOL    HW235427   2.269   4.333   8.834 -0.7032  0.8186 -0.0515
 7989SOL     OW35428   0.038   3.207   7.058 -0.0328  0.4396  0.0493
 7989SOL    HW135429   0.063   3.270   6.990 -2.2190 -0.1727 -1.3335
 7989SOL    HW235430   4.667   3.220   7.062 -0.4745 -2.7048 -0.0350
 7990SOL     OW35431   2.246   2.116   5.543 -0.0051 -0.5179 -0.2217
 7990SOL    HW135432   2.306   2.052   5.582  3.5963  3.5309  0.9000
 7990SOL    HW235433   2.167   2.090   5.590  0.4423 -1.4219  0.0370
 7991SOL     OW35434   1.536   2.102   5.524 -0.5663 -0.1103  0.1061
 7991SOL    HW135435   1.458   2.056   5.493  0.9759 -2.3087 -0.4268
 7991SOL    HW235436   1.513   2.193   5.503  2.1367  0.4531 -0.4543
 7992SOL     OW35437   4.420   4.494   6.453 -0.5672 -0.1358  0.0561
 7992SOL    HW135438   4.341   4.547   6.446 -1.6941 -2.0278 -1.3757
 7992SOL    HW235439   4.409   4.434   6.379  4.3121 -0.2874 -0.5503
 7993SOL     OW35440   1.602   1.704   1.823 -0.3032  0.1004  0.0602
 7993SOL    HW135441   1.549   1.732   1.898 -0.6739  1.0185 -0.5315
 7993SOL    HW235442   1.555   1.754   1.756  0.0601  1.0629  0.5233
 7994SOL     OW35443   1.928   4.293  11.381  0.0836 -0.2254 -0.7297
 7994SOL    HW135444   1.870   4.250  11.444  1.3916  0.1793  0.7460
 7994SOL    HW235445   1.949   4.219  11.325  0.5417 -0.3305 -0.4191
 7995SOL     OW35446   2.544   1.917   4.041 -0.2372  0.3518  0.0022
 7995SOL    HW135447   2.577   1.829   4.020  0.9293  0.5524  0.9516
 7995SOL    HW235448   2.454   1.903   4.014 -0.0716 -0.5221 -0.0903
 7996SOL     OW35449   2.781   1.286   8.208 -0.6190  0.0558  0.3645
 7996SOL    HW135450   2.693   1.320   8.225 -1.7059 -3.4350  1.6976
 7996SOL    HW235451   2.771   1.192   8.194  1.3170 -0.2292  0.7978
 7997SOL     OW35452   2.760   4.322   4.544  0.3292  0.0110  0.1253
 7997SOL    HW135453   2.737   4.279   4.626 -0.7458 -1.9426 -1.1988
 7997SOL    HW235454   2.837   4.271   4.518  0.7087  0.6908 -0.1028
 7998SOL     OW35455   0.679   0.257   2.946 -0.4824  0.0456 -0.1933
 7998SOL    HW135456   0.601   0.302   2.914 -1.1454  0.5229  2.1190
 7998SOL    HW235457   0.716   0.220   2.865  0.5305 -0.3288  0.4401
 7999SOL     OW35458   1.963   1.221   4.402  0.2322 -0.2545 -0.1273
 7999SOL    HW135459   1.997   1.210   4.491  1.2533 -0.8587 -0.5957
 7999SOL    HW235460   1.953   1.129   4.378  0.5301  0.5310 -3.2438
 8000SOL     OW35461   1.754   1.343  14.969  0.3201 -0.5088 -0.0866
 8000SOL    HW135462   1.738   1.435  14.944 -0.2527 -0.4100  0.6408
 8000SOL    HW235463   1.691   1.335  15.041  0.0252  0.8923 -0.1770
 8001SOL     OW35464   1.146   1.839   5.292  0.0646  0.3213 -0.4178
 8001SOL    HW135465   1.080   1.806   5.353  0.7919 -2.8892 -1.3790
 8001SOL    HW235466   1.234   1.830   5.330 -0.9765  0.4544  2.0043
 8002SOL     OW35467   0.312   4.032  13.260 -0.4845  0.5999  0.1569
 8002SOL    HW135468   0.298   4.008  13.169  0.9208  0.1758  0.0497
 8002SOL    HW235469   0.260   3.962  13.299 -0.9796 -0.3319 -2.1613
 8003SOL     OW35470   1.849   3.359   3.282  0.0200  0.3538  0.3516
 8003SOL    HW135471   1.937   3.398   3.281  0.0924  0.2243  1.6660
 8003SOL    HW235472   1.797   3.437   3.297 -0.6514  0.0111 -0.2346
 8004SOL     OW35473   1.172   2.551   6.696  0.0443  0.9694  0.0087
 8004SOL    HW135474   1.133   2.475   6.653 -0.6861  1.9203 -1.0283
 8004SOL    HW235475   1.178   2.527   6.789 -0.4621  1.2185  0.1080
 8005SOL     OW35476   2.836   3.902  16.142  0.3087  0.4649 -0.5855
 8005SOL    HW135477   2.796   3.837  16.085 -2.0458  0.8952  0.5643
 8005SOL    HW235478   2.907   3.847  16.175 -1.1136 -1.7046 -1.2154
 8006SOL     OW35479   3.141   0.616   0.386  0.5979 -0.2426  0.2822
 8006SOL    HW135480   3.072   0.558   0.419 -0.0838  0.8936  0.8581
 8006SOL    HW235481   3.132   0.697   0.437  0.9252  0.2117 -0.3758
 8007SOL     OW35482   4.688   4.392   7.551 -0.0912 -0.2051 -0.1586
 8007SOL    HW135483   4.662   4.472   7.505  1.5416  0.8778  0.8005
 8007SOL    HW235484   0.016   4.424   7.625 -2.8466  0.4356  1.4583
 8008SOL     OW35485   1.676   2.764  12.357  0.0945  0.1577  0.2258
 8008SOL    HW135486   1.691   2.756  12.451 -0.2513  2.4652  0.4818
 8008SOL    HW235487   1.667   2.671  12.337  2.3698 -0.5248  2.3910
 8009SOL     OW35488   2.398   4.414  13.929  0.1202  0.5818  0.0763
 8009SOL    HW135489   2.373   4.456  14.011 -1.0398  1.8011 -0.8811
 8009SOL    HW235490   2.371   4.323  13.939  0.4231  0.5826  0.8585
 8010SOL     OW35491   4.643   3.729   7.593 -0.2044  0.1357  0.0572
 8010SOL    HW135492   4.597   3.813   7.590 -1.0176 -0.2974  0.1929
 8010SOL    HW235493   4.577   3.677   7.641  0.5460  0.5803  1.5659
 8011SOL     OW35494   3.924   0.764   3.005 -0.4798 -0.8292 -0.7792
 8011SOL    HW135495   3.938   0.703   3.078 -2.5420 -1.9114 -1.2734
 8011SOL    HW235496   3.847   0.809   3.042  1.5743  1.7914  0.2973
 8012SOL     OW35497   3.560   0.832   5.382  0.3379 -0.1110 -0.8151
 8012SOL    HW135498   3.593   0.846   5.470 -0.3347 -1.7830 -0.2935
 8012SOL    HW235499   3.596   0.745   5.364 -2.0172 -0.8064 -2.1735
 8013SOL     OW35500   2.581   3.300  12.902  0.5402 -0.0276 -0.6161
 8013SOL    HW135501   2.532   3.219  12.916  0.1205  0.9386  3.7911
 8013SOL    HW235502   2.608   3.313  12.993  0.3406 -1.5186 -0.3413
 8014SOL     OW35503   4.179   1.681   7.598  0.8477 -0.1875 -0.0461
 8014SOL    HW135504   4.111   1.639   7.546  0.4806 -0.4727  0.6618
 8014SOL    HW235505   4.219   1.599   7.627  0.4600  0.0697  1.2275
 8015SOL     OW35506   2.878   2.420  17.341 -0.2048 -0.4133 -0.2413
 8015SOL    HW135507   2.860   2.327  17.355 -0.8264 -0.1136  0.9088
 8015SOL    HW235508   2.974   2.413  17.337 -0.3201 -0.4068 -2.7909
 8016SOL     OW35509   0.800   2.609   3.653  0.2746  0.1808  0.1075
 8016SOL    HW135510   0.739   2.631   3.582  0.3044  0.5594  0.2008
 8016SOL    HW235511   0.785   2.682   3.712 -2.0806 -0.6395  0.5270
 8017SOL     OW35512   2.224   2.721   7.357 -0.0365  0.6781  0.7865
 8017SOL    HW135513   2.227   2.815   7.371  1.1538  0.9127 -1.2202
 8017SOL    HW235514   2.316   2.705   7.378 -0.1971 -1.8112 -0.3170
 8018SOL     OW35515   2.420   3.704  10.124 -0.2798 -0.3883 -0.2802
 8018SOL    HW135516   2.446   3.613  10.136 -0.9708 -0.3384  1.5883
 8018SOL    HW235517   2.498   3.759  10.119  0.5403 -1.5755 -0.2568
 8019SOL     OW35518   0.949   3.715  13.126  0.2791 -0.2424  0.3271
 8019SOL    HW135519   0.990   3.699  13.040 -0.0468  0.7537 -0.0212
 8019SOL    HW235520   0.967   3.632  13.169 -0.4024 -0.5434  0.0247
 8020SOL     OW35521   4.173   1.715   4.437  0.1199  0.1283 -0.0857
 8020SOL    HW135522   4.106   1.660   4.398 -0.2729  0.1320  0.5769
 8020SOL    HW235523   4.203   1.754   4.355 -1.6942  0.0924 -0.7710
 8021SOL     OW35524   2.142   0.638   5.265  0.4175 -0.1211 -0.0910
 8021SOL    HW135525   2.169   0.669   5.179 -2.3598 -0.0476 -0.9433
 8021SOL    HW235526   2.104   0.715   5.307  0.1817  0.6130 -1.6638
 8022SOL     OW35527   1.009   2.184   8.011  0.2488 -0.0527  0.3014
 8022SOL    HW135528   1.040   2.133   8.087  2.1704  1.2648  0.4118
 8022SOL    HW235529   0.978   2.117   7.950  0.2527 -0.6301  0.9199
 8023SOL     OW35530   4.351   3.484   8.060  0.2604 -0.0664 -0.4498
 8023SOL    HW135531   4.347   3.569   8.016  0.7789 -0.6455 -1.5961
 8023SOL    HW235532   4.281   3.508   8.122  1.5050 -0.5319  1.1477
 8024SOL     OW35533   2.655   1.626  12.075 -0.4609  0.4829 -0.0945
 8024SOL    HW135534   2.641   1.714  12.042 -0.7159 -0.3050 -2.1108
 8024SOL    HW235535   2.667   1.581  11.991 -1.5491 -0.7946  0.4366
 8025SOL     OW35536   3.638   3.166  14.055  0.2074  0.3699  0.3324
 8025SOL    HW135537   3.592   3.142  14.136  0.0493 -2.4605 -0.6108
 8025SOL    HW235538   3.655   3.081  14.015 -1.5577  0.1652  0.0280
 8026SOL     OW35539   0.315   2.303   3.495  0.8991 -0.1935 -0.4862
 8026SOL    HW135540   0.233   2.271   3.457  0.3582 -0.4565  0.9360
 8026SOL    HW235541   0.383   2.251   3.451 -0.9384 -1.1839 -2.1724
 8027SOL     OW35542   0.372   1.034  10.550 -0.2203  0.0851 -0.1899
 8027SOL    HW135543   0.308   1.072  10.610  1.6758  0.1668  1.7981
 8027SOL    HW235544   0.377   0.943  10.580  2.5007  0.2377 -0.1658
 8028SOL     OW35545   1.106   4.051   0.392  0.3638  0.5441  0.5465
 8028SOL    HW135546   1.021   4.095   0.390  0.2947  0.5412  3.6877
 8028SOL    HW235547   1.112   4.042   0.487  1.1345 -0.1779  0.4308
 8029SOL     OW35548   2.328   0.232   4.574  0.3290 -0.3556  0.1083
 8029SOL    HW135549   2.340   0.187   4.658  0.5816  1.3830  1.0152
 8029SOL    HW235550   2.234   0.233   4.556  0.1093  4.3039  1.4625
 8030SOL     OW35551   3.046   0.904  11.915 -0.5164  0.1927 -0.0737
 8030SOL    HW135552   3.094   0.860  11.845 -0.0160 -0.2885  0.5738
 8030SOL    HW235553   3.116   0.895  11.979  0.5158  1.5143 -1.0135
 8031SOL     OW35554   1.161   2.834   5.251 -0.5114 -0.0323  0.4852
 8031SOL    HW135555   1.145   2.865   5.340  0.9439  1.5914  0.1836
 8031SOL    HW235556   1.126   2.745   5.260 -1.1649  0.2040  0.2469
 8032SOL     OW35557   1.422   1.274   6.772  0.0127  0.4103 -0.0696
 8032SOL    HW135558   1.507   1.292   6.731  0.5500 -1.4596  0.2059
 8032SOL    HW235559   1.390   1.361   6.794  0.2511  0.7962 -1.2486
 8033SOL     OW35560   2.416   3.087  10.052  0.1721  0.3791 -0.2515
 8033SOL    HW135561   2.391   3.130  10.134 -0.2328 -0.1164 -0.1131
 8033SOL    HW235562   2.405   3.165   9.998  0.4250 -0.1105 -1.0004
 8034SOL     OW35563   3.054   1.665  14.783  1.1182 -0.3522 -0.4036
 8034SOL    HW135564   2.967   1.706  14.784  0.8074 -1.0538  1.3538
 8034SOL    HW235565   3.091   1.696  14.866 -2.6616  1.0880  0.7590
 8035SOL     OW35566   4.302   3.040   0.625 -0.3334 -0.0161 -0.5224
 8035SOL    HW135567   4.235   3.099   0.660 -1.2645 -0.0565 -2.2196
 8035SOL    HW235568   4.270   2.952   0.645 -1.4127  0.5629  0.2993
 8036SOL     OW35569   1.108   1.965   6.358 -0.4885 -0.5402 -0.0149
 8036SOL    HW135570   1.110   1.884   6.307  0.4095 -0.2725 -0.3936
 8036SOL    HW235571   1.139   2.022   6.288  1.7038 -0.3744  1.1135
 8037SOL     OW35572   2.995   0.245   7.588  0.1550 -0.2188 -0.1455
 8037SOL    HW135573   2.964   0.186   7.518  1.5840 -1.2121  0.0545
 8037SOL    HW235574   3.052   0.188   7.640 -0.8322  1.3303  2.6348
 8038SOL     OW35575   3.842   1.172   4.272 -0.4282 -0.4026  0.4074
 8038SOL    HW135576   3.756   1.213   4.283 -1.2579 -2.1064  0.2750
 8038SOL    HW235577   3.808   1.083   4.280 -0.3162 -0.3840  1.1205
 8039SOL     OW35578   0.125   1.491   2.971  0.7087  0.1924  0.0522
 8039SOL    HW135579   0.130   1.533   3.057 -1.9416  0.8136 -0.0939
 8039SOL    HW235580   0.196   1.546   2.938  0.3958  0.2385 -0.5272
 8040SOL     OW35581   2.919   0.992   3.164  0.2242 -0.3938  0.0406
 8040SOL    HW135582   2.929   0.897   3.158 -0.5226 -0.6313  2.7112
 8040SOL    HW235583   2.854   1.008   3.232  0.5006 -3.5470  1.0464
 8041SOL     OW35584   0.655   1.589  10.636 -0.3454 -0.3632 -0.1127
 8041SOL    HW135585   0.732   1.542  10.605  0.2591  0.5366  0.0080
 8041SOL    HW235586   0.621   1.533  10.706 -0.7035  0.7264  0.5959
 8042SOL     OW35587   2.519   1.266  17.440 -1.0868  0.3381  0.0017
 8042SOL    HW135588   2.527   1.356  17.407  3.3224 -0.2480 -0.5908
 8042SOL    HW235589   2.454   1.280  17.508 -1.4265  0.2344 -0.3056
 8043SOL     OW35590   2.986   2.964  14.923 -0.2967  0.2675 -0.0524
 8043SOL    HW135591   3.051   3.013  14.973  0.3804 -0.6644 -0.0243
 8043SOL    HW235592   2.924   2.914  14.977  0.7506  2.2703  2.9882
 8044SOL     OW35593   4.269   0.284   5.049 -0.0852 -0.2578 -0.0380
 8044SOL    HW135594   4.324   0.334   4.989 -0.5812 -0.6210 -0.7900
 8044SOL    HW235595   4.225   0.223   4.990 -0.1716  1.6958 -1.9890
 8045SOL     OW35596   3.363   1.189   0.966  0.0042  0.8297 -0.0891
 8045SOL    HW135597   3.344   1.108   1.013  1.2850 -0.9148 -2.5850
 8045SOL    HW235598   3.292   1.168   0.905  1.8676 -1.7248 -1.3494
 8046SOL     OW35599   1.970   1.380   1.562 -0.1774 -0.1434 -0.1157
 8046SOL    HW135600   1.903   1.427   1.611 -1.0598  1.6929 -3.0839
 8046SOL    HW235601   1.930   1.293   1.563 -3.1732  1.2463 -0.2507
 8047SOL     OW35602   3.658   1.265  13.230 -0.4130 -0.1264 -0.2562
 8047SOL    HW135603   3.719   1.299  13.295 -0.5994 -1.2632  0.5199
 8047SOL    HW235604   3.693   1.177  13.214 -2.1271 -0.2942 -3.0970
 8048SOL     OW35605   2.458   3.431  12.513  0.3036  0.3502 -0.0453
 8048SOL    HW135606   2.421   3.396  12.433  0.6534  0.8166 -0.4136
 8048SOL    HW235607   2.518   3.361  12.539 -0.7176 -0.6607 -0.4108
 8049SOL     OW35608   0.254   1.022   5.148 -0.2088 -0.4279  0.1322
 8049SOL    HW135609   0.236   1.095   5.088  2.7361  0.6082  0.5237
 8049SOL    HW235610   0.277   0.956   5.083 -0.0381 -2.2409  2.0575
 8050SOL     OW35611   2.086   1.730  11.954 -0.6041  0.3084 -0.3821
 8050SOL    HW135612   2.172   1.688  11.961 -1.7556 -1.8050  1.0859
 8050SOL    HW235613   2.119   1.809  11.913 -2.6753  1.5140  0.2946
 8051SOL     OW35614   2.937   2.609   0.871 -0.2975 -0.6478 -0.2319
 8051SOL    HW135615   2.867   2.611   0.937 -0.9314 -0.8202 -0.9059
 8051SOL    HW235616   2.895   2.562   0.799  0.7118  0.9994 -1.8799
 8052SOL     OW35617   3.760   0.421  10.550 -0.5251 -0.2350  0.7187
 8052SOL    HW135618   3.749   0.439  10.457 -0.7365  0.3103  0.8462
 8052SOL    HW235619   3.851   0.450  10.564 -0.0326 -0.7857 -1.2927
 8053SOL     OW35620   1.060   1.948   5.059  0.3417  0.4732  0.4143
 8053SOL    HW135621   1.103   1.908   5.134  1.6547  1.9445  0.4481
 8053SOL    HW235622   1.133   1.926   5.000  0.8282 -0.6864  1.4530
 8054SOL     OW35623   4.100   4.223   5.907 -0.2528  0.0205  0.0434
 8054SOL    HW135624   4.085   4.168   5.984  0.5196 -1.8215 -1.1507
 8054SOL    HW235625   4.194   4.240   5.912  0.2014 -2.2331 -1.2903
 8055SOL     OW35626   4.246   3.555  12.915  0.7309  0.5179 -0.2959
 8055SOL    HW135627   4.291   3.639  12.923  1.3388  0.3245 -1.6796
 8055SOL    HW235628   4.264   3.543  12.822 -0.2456  0.0584 -0.4280
 8056SOL     OW35629   2.487   0.715   7.686 -0.1154 -0.0717  0.8165
 8056SOL    HW135630   2.554   0.651   7.711 -0.4194 -1.1955 -1.2512
 8056SOL    HW235631   2.543   0.791   7.674 -0.1377 -0.2021 -0.0509
 8057SOL     OW35632   2.301   2.759   1.489  0.3230 -0.5434 -0.2382
 8057SOL    HW135633   2.259   2.738   1.405  0.4174 -2.2989  0.1405
 8057SOL    HW235634   2.340   2.840   1.458  0.5925 -0.7958 -0.5642
 8058SOL     OW35635   0.979   4.576   3.119 -0.6854 -0.4907  0.1775
 8058SOL    HW135636   0.995   4.614   3.205  3.8728  1.2866 -1.4858
 8058SOL    HW235637   0.885   4.594   3.114 -0.6573 -0.9687 -2.3483
 8059SOL     OW35638   0.793   3.005  12.478  0.1899  0.0118  0.0238
 8059SOL    HW135639   0.740   3.073  12.520  3.1661  1.4867  1.4039
 8059SOL    HW235640   0.721   2.951  12.447  0.6187 -0.2619 -0.4916
 8060SOL     OW35641   0.955   0.268  17.331 -0.6719 -0.4935 -0.7653
 8060SOL    HW135642   0.958   0.178  17.299  1.7829 -0.9263  0.6943
 8060SOL    HW235643   0.862   0.291  17.323 -0.8717 -1.0253  0.1548
 8061SOL     OW35644   0.168   3.469  11.902  0.3231 -0.1802 -0.1291
 8061SOL    HW135645   0.153   3.519  11.822  0.9517  0.1902 -0.0148
 8061SOL    HW235646   0.220   3.394  11.874  0.1699  0.0159 -0.9551
 8062SOL     OW35647   0.441   3.111   7.225 -0.7595  0.4434 -0.3674
 8062SOL    HW135648   0.467   3.068   7.306 -2.9840 -1.5474 -0.6879
 8062SOL    HW235649   0.347   3.101   7.212 -0.9207  1.3462  0.1173
 8063SOL     OW35650   0.777   2.642   5.123 -0.3749 -0.1077  0.0197
 8063SOL    HW135651   0.828   2.671   5.199  0.2408  2.9614 -1.5824
 8063SOL    HW235652   0.844   2.632   5.056 -1.0401  2.1589 -0.9767
 8064SOL     OW35653   2.484   2.982  14.542 -0.3736 -0.0272  0.2371
 8064SOL    HW135654   2.513   3.073  14.545  0.8113 -0.3821 -0.4714
 8064SOL    HW235655   2.395   2.988  14.508  0.7017 -1.6359 -2.8147
 8065SOL     OW35656   1.409   3.195   1.653 -0.6280 -0.1531  0.1212
 8065SOL    HW135657   1.352   3.223   1.725 -0.9986  3.3922 -1.5587
 8065SOL    HW235658   1.432   3.282   1.619 -0.3145 -0.1352  0.3760
 8066SOL     OW35659   3.644   2.091   6.226 -0.0995  0.5657 -0.4154
 8066SOL    HW135660   3.718   2.152   6.228 -0.5591  1.0707  1.4113
 8066SOL    HW235661   3.678   2.013   6.183  1.2384  0.9535 -0.0896
 8067SOL     OW35662   0.148   2.881   8.818 -0.0001 -0.5534 -0.0251
 8067SOL    HW135663   0.157   2.867   8.912  1.2458  3.9839  0.5090
 8067SOL    HW235664   0.230   2.850   8.780 -1.6839 -1.4725 -2.9208
 8068SOL     OW35665   0.469   1.496   8.642  0.1053 -0.2761  0.4236
 8068SOL    HW135666   0.454   1.455   8.728 -0.4653  0.7032  0.7956
 8068SOL    HW235667   0.383   1.536   8.630  0.7288  0.2900 -2.0443
 8069SOL     OW35668   2.486   1.796  11.933  0.5948 -0.3324 -0.2578
 8069SOL    HW135669   2.429   1.739  11.985 -0.2587  0.6982 -0.0808
 8069SOL    HW235670   2.476   1.754  11.847 -0.5891  1.9477 -1.2220
 8070SOL     OW35671   2.036   3.824   8.486  0.1883 -0.1990  0.3653
 8070SOL    HW135672   2.050   3.740   8.531 -1.5286 -2.3578 -3.1579
 8070SOL    HW235673   2.110   3.828   8.426 -0.1057  1.8334  0.1385
 8071SOL     OW35674   4.370   1.147   7.318 -0.0000 -0.0387 -0.0452
 8071SOL    HW135675   4.413   1.136   7.402 -0.5384 -0.8214  0.1231
 8071SOL    HW235676   4.403   1.070   7.272  0.1687 -1.2675  2.1676
 8072SOL     OW35677   1.110   2.014   2.265 -0.1587  0.8388  0.2553
 8072SOL    HW135678   1.133   2.058   2.347 -1.0320  1.3713  0.2150
 8072SOL    HW235679   1.022   2.039   2.237  0.1728  1.7752  0.0264
 8073SOL     OW35680   3.115   1.186   6.681  0.0379  0.9709 -0.1850
 8073SOL    HW135681   3.029   1.194   6.721  0.0954 -0.2712  0.1955
 8073SOL    HW235682   3.095   1.166   6.590 -1.8790 -1.2280  0.7271
 8074SOL     OW35683   4.323   1.754   4.810  0.4045 -0.1794  0.0316
 8074SOL    HW135684   4.231   1.729   4.798 -0.2881  2.1389  0.6031
 8074SOL    HW235685   4.350   1.728   4.898  1.1680  2.0928  0.4410
 8075SOL     OW35686   4.071   2.567  12.774  0.8361  0.0198  0.2464
 8075SOL    HW135687   4.079   2.556  12.869  0.7852 -1.2060  0.1146
 8075SOL    HW235688   3.985   2.606  12.762  0.8477 -0.2047 -0.5228
 8076SOL     OW35689   2.139   3.705   2.145  0.2396 -0.7277  0.1310
 8076SOL    HW135690   2.134   3.797   2.173  1.9112 -0.5570 -0.1145
 8076SOL    HW235691   2.081   3.660   2.207 -0.2395 -0.8442 -0.4072
 8077SOL     OW35692   1.561   1.740   6.119 -0.2376 -0.5637  0.3897
 8077SOL    HW135693   1.501   1.756   6.046  0.3417 -1.2241 -0.2354
 8077SOL    HW235694   1.584   1.831   6.138 -1.7953  0.3313 -2.0843
 8078SOL     OW35695   3.357   2.749   5.619 -0.0610  0.1444 -0.0788
 8078SOL    HW135696   3.398   2.834   5.604  1.2149 -0.4669 -0.0088
 8078SOL    HW235697   3.398   2.737   5.705 -1.4865 -1.5322  0.3746
 8079SOL     OW35698   2.202   1.871   7.781  0.1048 -0.1341 -0.0380
 8079SOL    HW135699   2.143   1.796   7.792  0.9009 -0.6212  0.9387
 8079SOL    HW235700   2.270   1.850   7.717  2.8043  2.5366  1.9306
 8080SOL     OW35701   2.463   0.786   0.875  0.0353 -0.3585  0.0597
 8080SOL    HW135702   2.465   0.752   0.785 -1.7616  2.7694 -1.1547
 8080SOL    HW235703   2.549   0.828   0.872 -0.0590 -0.2367 -1.2556
 8081SOL     OW35704   4.072   3.305   5.992 -0.5020 -0.3013  0.2954
 8081SOL    HW135705   4.145   3.367   5.984  2.4911 -3.7489  0.9935
 8081SOL    HW235706   3.999   3.362   6.018  1.1612  1.9708  0.0046
 8082SOL     OW35707   3.591   3.493   4.517 -0.2795 -0.2262 -0.3486
 8082SOL    HW135708   3.661   3.458   4.462 -0.3635 -1.3014  0.2318
 8082SOL    HW235709   3.618   3.581   4.544 -0.3599  0.2528 -1.8418
 8083SOL     OW35710   4.557   0.452   6.578  0.1815  0.1721  0.4572
 8083SOL    HW135711   4.544   0.507   6.501 -1.2857  0.6619  1.0644
 8083SOL    HW235712   4.559   0.364   6.541 -2.5135  0.5984 -0.6573
 8084SOL     OW35713   0.185   1.392  16.090  0.2057  0.0048 -0.4225
 8084SOL    HW135714   0.221   1.404  16.178 -2.9694  1.9410  0.5954
 8084SOL    HW235715   0.091   1.400  16.104  0.3053  2.1286 -1.0022
 8085SOL     OW35716   3.062   1.531   7.174 -0.1743 -0.5168  0.1420
 8085SOL    HW135717   3.072   1.482   7.092 -0.1399  2.2232 -1.4985
 8085SOL    HW235718   3.021   1.463   7.227 -0.1072 -2.1585 -1.9096
 8086SOL     OW35719   2.196   2.581   6.540  0.0920 -0.2980  0.1404
 8086SOL    HW135720   2.109   2.613   6.564  0.4497  0.3782  0.5254
 8086SOL    HW235721   2.180   2.553   6.449  3.9132 -1.4455 -0.1589
 8087SOL     OW35722   1.303   1.658   4.888  0.4729  0.3912 -0.1565
 8087SOL    HW135723   1.307   1.648   4.984 -0.1803 -0.3259 -0.1998
 8087SOL    HW235724   1.293   1.753   4.891 -0.3913  0.2879  0.2677
 8088SOL     OW35725   3.121   1.527  14.560  0.8014 -0.2970 -0.1643
 8088SOL    HW135726   3.049   1.465  14.576  2.6427 -1.6013  2.9674
 8088SOL    HW235727   3.122   1.567  14.647  2.0226 -1.7068  0.4559
 8089SOL     OW35728   0.902   2.179  15.191 -0.4262 -0.1745 -0.2541
 8089SOL    HW135729   0.837   2.173  15.122  0.9426 -0.2878 -1.5418
 8089SOL    HW235730   0.964   2.119  15.149 -0.8299 -0.0934 -0.9604
 8090SOL     OW35731   2.685   0.307   3.511  0.4037 -0.8004 -0.8733
 8090SOL    HW135732   2.677   0.250   3.434  1.1972 -0.3134 -1.3164
 8090SOL    HW235733   2.655   0.385   3.463 -0.5376 -1.5715 -1.5666
 8091SOL     OW35734   2.505   0.462   2.725 -0.0117 -0.5173  0.5496
 8091SOL    HW135735   2.568   0.503   2.785  0.4854 -0.1325 -0.2333
 8091SOL    HW235736   2.535   0.371   2.729  0.4101 -0.4876 -2.0462
 8092SOL     OW35737   4.017   0.643   7.840 -0.1652  0.1882 -0.3993
 8092SOL    HW135738   3.983   0.681   7.921  0.6963 -0.1406  0.1189
 8092SOL    HW235739   3.943   0.613   7.789 -1.1888  2.3843 -0.2023
 8093SOL     OW35740   0.266   1.214   9.573  0.5746 -0.4635  0.0447
 8093SOL    HW135741   0.269   1.121   9.550  2.3882 -0.0516 -1.4256
 8093SOL    HW235742   0.291   1.211   9.665  1.9860  1.6185 -0.2485
 8094SOL     OW35743   0.589   1.445  14.622  0.0717  0.0272 -0.0793
 8094SOL    HW135744   0.654   1.379  14.601  0.1855  1.0884 -3.0875
 8094SOL    HW235745   0.553   1.471  14.537  1.2100 -0.3711 -0.6799
 8095SOL     OW35746   4.540   0.012  17.182 -0.5234  0.4255 -0.6624
 8095SOL    HW135747   4.633   0.036  17.183 -0.1370 -1.1613  2.1972
 8095SOL    HW235748   4.501   0.083  17.233  0.7340  0.9292 -0.3918
 8096SOL     OW35749   1.403   0.148   0.440 -0.5741  0.3926  0.0316
 8096SOL    HW135750   1.405   0.159   0.536 -0.2919 -1.9340  0.2950
 8096SOL    HW235751   1.385   0.056   0.421 -0.8860  0.2812  0.8616
 8097SOL     OW35752   3.530   3.291   7.949 -0.0286 -0.2203 -0.6289
 8097SOL    HW135753   3.470   3.362   7.971  0.1002  0.3788 -2.1779
 8097SOL    HW235754   3.493   3.269   7.863 -2.5828  1.8919 -0.0467
 8098SOL     OW35755   4.296   0.432   3.907 -0.0817 -0.1790 -0.4086
 8098SOL    HW135756   4.266   0.435   3.816 -0.4826  1.4024 -0.2396
 8098SOL    HW235757   4.273   0.343   3.931  1.5608 -0.6056 -0.4507
 8099SOL     OW35758   3.727   1.712   6.396 -0.6622 -0.3182 -0.8144
 8099SOL    HW135759   3.634   1.737   6.401 -1.0064 -1.6605 -0.6458
 8099SOL    HW235760   3.774   1.795   6.399 -2.7759  0.8918 -0.7528
 8100SOL     OW35761   4.286   3.489  10.033 -0.2134  0.0880  0.1031
 8100SOL    HW135762   4.283   3.584  10.042  0.6866  0.1820 -0.6986
 8100SOL    HW235763   4.363   3.465  10.085  1.4498  1.5912 -1.6863
 8101SOL     OW35764   3.662   0.796   3.067  0.1675 -0.1381 -0.3875
 8101SOL    HW135765   3.655   0.754   2.981 -0.5434 -3.4425  1.2744
 8101SOL    HW235766   3.603   0.870   3.057  1.1843  0.5090 -1.6228
 8102SOL     OW35767   1.581   4.661  15.537 -0.4253 -0.4360  0.3989
 8102SOL    HW135768   1.623   4.576  15.519 -0.2730 -0.1717 -0.4521
 8102SOL    HW235769   1.491   4.647  15.508 -0.4885 -1.9365  1.2981
 8103SOL     OW35770   0.638   3.228   6.412  0.1281  0.6544  0.3245
 8103SOL    HW135771   0.639   3.299   6.348 -1.8116 -0.2967 -0.7501
 8103SOL    HW235772   0.724   3.247   6.449  0.9711 -0.4177 -1.0873
 8104SOL     OW35773   3.174   2.668  15.808  0.2845 -0.2755 -0.2208
 8104SOL    HW135774   3.140   2.689  15.722  1.9447  1.1967 -0.5283
 8104SOL    HW235775   3.265   2.653  15.783  0.6356  1.0363  0.2545
 8105SOL     OW35776   4.416   2.690   8.522 -0.7036 -0.1337  0.2389
 8105SOL    HW135777   4.478   2.649   8.462 -0.2682 -0.1325  0.6891
 8105SOL    HW235778   4.383   2.609   8.560  0.6926 -0.0040  1.7003
 8106SOL     OW35779   4.394   0.327  16.852 -0.2119  0.1601 -0.4034
 8106SOL    HW135780   4.362   0.249  16.898 -1.4908  0.7409 -0.3237
 8106SOL    HW235781   4.416   0.378  16.930  1.3470 -0.8321 -0.1957
 8107SOL     OW35782   3.766   0.598  16.518  0.4438 -0.4509  0.3572
 8107SOL    HW135783   3.806   0.588  16.431 -1.3750 -3.0267 -0.1852
 8107SOL    HW235784   3.837   0.658  16.541 -0.8229  1.1271  0.1457
 8108SOL     OW35785   0.179   1.727  13.676  0.1835  0.7218 -0.1552
 8108SOL    HW135786   0.253   1.788  13.676  0.3063  0.5703  1.5902
 8108SOL    HW235787   0.110   1.793  13.667 -0.8646 -0.1564  1.5449
 8109SOL     OW35788   1.098   3.867   8.543  0.3842  0.0480 -1.0107
 8109SOL    HW135789   1.154   3.790   8.556 -0.8581 -0.6307  0.3519
 8109SOL    HW235790   1.013   3.825   8.529  0.9616 -1.8248  0.9405
 8110SOL     OW35791   2.129   2.278   7.456 -0.9480  0.0718 -0.1760
 8110SOL    HW135792   2.070   2.259   7.528 -0.5518  0.1083  0.1586
 8110SOL    HW235793   2.119   2.373   7.465 -2.0002 -0.1036  0.4009
 8111SOL     OW35794   2.167   1.308   1.157 -0.0479  0.3070 -0.0162
 8111SOL    HW135795   2.190   1.274   1.243  0.8563 -2.5325 -1.3847
 8111SOL    HW235796   2.072   1.301   1.169 -0.2344  0.6156 -1.2441
 8112SOL     OW35797   3.264   1.786  14.004  0.0819 -0.0650 -0.3896
 8112SOL    HW135798   3.276   1.827  14.090 -0.7749 -0.6232 -0.0052
 8112SOL    HW235799   3.350   1.811  13.969 -0.2289  2.1294  0.3807
 8113SOL     OW35800   0.360   1.496   3.503 -0.5267 -0.0972  0.3641
 8113SOL    HW135801   0.416   1.571   3.525  0.0670 -0.0855 -1.1956
 8113SOL    HW235802   0.358   1.459   3.591  3.4903 -0.6839  0.2127
 8114SOL     OW35803   0.021   3.429   2.682  0.4024  0.6697  0.0535
 8114SOL    HW135804   0.039   3.339   2.707 -1.2989  0.4848  0.5921
 8114SOL    HW235805   4.677   3.424   2.615  2.1903  0.2478 -1.7195
 8115SOL     OW35806   0.374   1.222   2.989 -0.5788  0.1050  0.2296
 8115SOL    HW135807   0.284   1.248   3.008 -0.5039 -0.0369  0.7619
 8115SOL    HW235808   0.378   1.150   3.051  0.1683  0.7320  0.9040
 8116SOL     OW35809   2.608   2.995   7.441  0.8975  0.3182 -0.1299
 8116SOL    HW135810   2.568   3.065   7.389  0.0264  0.4248  0.6766
 8116SOL    HW235811   2.643   3.032   7.522 -1.3526 -1.0360  1.4768
 8117SOL     OW35812   1.673   4.008  16.338 -0.8981 -0.3596  0.4948
 8117SOL    HW135813   1.603   3.989  16.400 -0.9590  2.7306  1.3676
 8117SOL    HW235814   1.690   4.099  16.363 -1.6404 -0.3899  1.1128
 8118SOL     OW35815   3.271   3.136  13.662  0.2353  0.2278  0.9759
 8118SOL    HW135816   3.183   3.101  13.674 -0.0009  0.4278 -0.1400
 8118SOL    HW235817   3.313   3.120  13.746  1.1819  0.6336  0.5913
 8119SOL     OW35818   2.192   1.850   9.406 -0.0658 -0.2155  0.5021
 8119SOL    HW135819   2.261   1.817   9.348  0.0158  1.1423 -0.1522
 8119SOL    HW235820   2.129   1.777   9.406 -0.2675 -0.0324 -1.7521
 8120SOL     OW35821   2.319   4.638   4.516 -0.0227  0.0701  0.3489
 8120SOL    HW135822   2.380   4.625   4.443 -1.4413  2.1331 -1.2049
 8120SOL    HW235823   2.310   4.550   4.550 -1.8115 -0.3195 -1.1370
 8121SOL     OW35824   1.256   0.447   9.384 -0.8422  0.4678  0.4294
 8121SOL    HW135825   1.249   0.415   9.474  1.3108 -4.4480 -1.1320
 8121SOL    HW235826   1.247   0.370   9.327  0.4262 -0.2959  1.2408
 8122SOL     OW35827   2.279   2.475  15.876  0.0060 -0.1638 -0.4193
 8122SOL    HW135828   2.282   2.558  15.923 -0.4862 -0.3563 -0.0489
 8122SOL    HW235829   2.193   2.439  15.896 -1.0267  3.1382  0.9703
 8123SOL     OW35830   0.453   3.389   9.382 -0.4606  0.3692  0.0634
 8123SOL    HW135831   0.461   3.303   9.424 -0.4210 -0.0765 -0.8470
 8123SOL    HW235832   0.438   3.434   9.465 -2.8590  1.9519 -1.2544
 8124SOL     OW35833   4.538   1.755   5.559  0.4329 -0.2561  0.4590
 8124SOL    HW135834   4.607   1.754   5.625  1.7819  2.3808 -0.9204
 8124SOL    HW235835   4.480   1.817   5.604 -0.4260  0.6766 -1.9341
 8125SOL     OW35836   4.679   4.681   0.310  0.4208  0.2038  0.0878
 8125SOL    HW135837   4.697   0.049   0.290 -0.3947  0.2746 -0.3046
 8125SOL    HW235838   4.605   4.685   0.370  1.3898 -3.0430  1.5245
 8126SOL     OW35839   3.829   4.271   7.115 -0.3311  0.2222  0.0476
 8126SOL    HW135840   3.766   4.199   7.117 -0.8432  0.6972  1.4958
 8126SOL    HW235841   3.778   4.352   7.123 -0.7288  0.0278 -0.5547
 8127SOL     OW35842   3.861   3.678   9.964 -0.0876 -0.0969 -0.2131
 8127SOL    HW135843   3.953   3.690   9.942 -0.2786 -0.2609 -1.1173
 8127SOL    HW235844   3.833   3.770   9.967 -0.1063 -0.1606  1.5564
 8128SOL     OW35845   1.090   3.852   4.682 -0.5230 -0.0801 -0.4975
 8128SOL    HW135846   1.046   3.929   4.721  0.5209 -0.5898  1.7068
 8128SOL    HW235847   1.021   3.791   4.657  0.3103 -0.9491 -0.6492
 8129SOL     OW35848   4.365   4.552   3.086 -0.3452 -0.0169 -0.3675
 8129SOL    HW135849   4.298   4.619   3.096 -0.3470 -0.1420  0.4343
 8129SOL    HW235850   4.341   4.499   3.162  0.9415 -0.8373 -0.5238
 8130SOL     OW35851   1.204   3.621   3.196  0.8457 -0.6147  0.0129
 8130SOL    HW135852   1.124   3.579   3.226  1.1570 -1.3488 -0.1907
 8130SOL    HW235853   1.165   3.704   3.168  3.1488 -0.0555 -1.5857
 8131SOL     OW35854   2.104   3.703   1.868 -0.3662  0.1552  0.1346
 8131SOL    HW135855   2.093   3.798   1.868 -0.4243  0.1499  0.5369
 8131SOL    HW235856   2.086   3.689   1.961  0.6562  0.5107  0.3836
 8132SOL     OW35857   0.224   0.078   9.735 -0.0570 -0.0685  0.4492
 8132SOL    HW135858   0.233   0.003   9.677 -1.9356  0.0940 -0.0474
 8132SOL    HW235859   0.196   0.038   9.817 -3.2216  1.8542  0.3220
 8133SOL     OW35860   3.096   1.454   9.384 -0.8347 -0.4671 -0.4153
 8133SOL    HW135861   3.077   1.511   9.310 -0.5717  1.3851  0.9663
 8133SOL    HW235862   3.005   1.440   9.412 -0.1133  0.3381  2.4023
 8134SOL     OW35863   3.631   4.365   7.451  0.0656  0.1616 -0.4757
 8134SOL    HW135864   3.557   4.373   7.390  0.5345 -0.3037 -1.1021
 8134SOL    HW235865   3.685   4.429   7.404  1.1448 -0.6564 -0.3448
 8135SOL     OW35866   4.566   2.643   2.618  0.2058 -0.1322  0.1283
 8135SOL    HW135867   4.577   2.575   2.684 -2.8418 -0.5414  0.1943
 8135SOL    HW235868   4.476   2.620   2.597 -0.6495  2.8032  0.5185
 8136SOL     OW35869   0.729   4.668   5.129  0.4803 -0.1198  0.4042
 8136SOL    HW135870   0.634   4.662   5.134  0.5600 -1.3639  0.5101
 8136SOL    HW235871   0.744   0.033   5.160 -1.8200  0.0019  1.1883
 8137SOL     OW35872   2.956   3.989   3.957 -0.0179 -0.7831  0.3209
 8137SOL    HW135873   3.012   4.024   3.888 -1.5829 -0.8013 -0.9476
 8137SOL    HW235874   2.869   4.013   3.927  0.3022  0.5348  0.4576
 8138SOL     OW35875   2.527   1.936   5.598  0.0321  0.3635 -0.1002
 8138SOL    HW135876   2.463   1.904   5.662 -0.9968 -0.3223 -1.4879
 8138SOL    HW235877   2.522   1.871   5.529  1.4731 -2.3453  2.3423
 8139SOL     OW35878   2.068   1.946   6.961  0.1795 -0.2194  0.1908
 8139SOL    HW135879   2.024   1.869   6.925 -1.6162  0.7555  0.3356
 8139SOL    HW235880   2.078   2.000   6.882 -1.6504 -0.6875 -0.3432
 8140SOL     OW35881   2.131   0.450   7.320  0.3254 -0.2105  0.2175
 8140SOL    HW135882   2.053   0.473   7.371  0.5401  0.3500  0.3034
 8140SOL    HW235883   2.173   0.536   7.317  2.0317 -1.0433  0.3159
 8141SOL     OW35884   0.764   1.743   6.200 -0.0495  0.3111  0.1052
 8141SOL    HW135885   0.836   1.687   6.170 -2.4128 -2.1429 -1.0364
 8141SOL    HW235886   0.698   1.699   6.147 -0.7914  0.4496  0.9163
 8142SOL     OW35887   1.003   1.556   8.499 -0.7233 -0.4701  0.1719
 8142SOL    HW135888   1.037   1.477   8.458 -0.0232 -0.1006  0.0490
 8142SOL    HW235889   0.913   1.538   8.472 -0.9190 -0.9115  1.1123
 8143SOL     OW35890   3.638   2.828  11.290 -0.0227  0.1741 -0.1552
 8143SOL    HW135891   3.681   2.908  11.260 -0.7634  0.4295 -0.5139
 8143SOL    HW235892   3.703   2.788  11.349  0.0756  1.2277  0.4493
 8144SOL     OW35893   2.198   1.334   3.767  0.0160 -0.2888  0.5953
 8144SOL    HW135894   2.135   1.265   3.747  0.1136 -0.3707  0.5702
 8144SOL    HW235895   2.185   1.332   3.862  0.9648  0.6058  0.7449
 8145SOL     OW35896   0.049   2.812   0.056  0.0823 -0.3280 -0.1973
 8145SOL    HW135897   0.026   2.873  17.684 -0.4670 -1.3555 -0.9180
 8145SOL    HW235898   0.136   2.848   0.075 -0.0352 -0.5149  0.7163
 8146SOL     OW35899   2.860   3.547   9.100 -0.7835  0.6099 -0.2895
 8146SOL    HW135900   2.820   3.633   9.090  2.7921  1.9228 -2.8401
 8146SOL    HW235901   2.924   3.575   9.165 -0.1766  1.1256 -1.1069
 8147SOL     OW35902   3.236   2.262   7.823 -0.4009  0.1633 -0.4492
 8147SOL    HW135903   3.218   2.280   7.730 -0.8386  1.6371 -0.0769
 8147SOL    HW235904   3.145   2.260   7.853 -1.2796  0.1427 -3.0413
 8148SOL     OW35905   4.405   3.820   7.378  0.1919  0.1640  0.7311
 8148SOL    HW135906   4.420   3.761   7.304 -0.5104 -0.1630  0.8491
 8148SOL    HW235907   4.342   3.769   7.428 -1.9911  0.8703 -1.2774
 8149SOL     OW35908   4.605   1.300  16.869 -0.1902 -0.1002 -0.2582
 8149SOL    HW135909   4.680   1.247  16.843  0.4193 -0.0811  1.4434
 8149SOL    HW235910   4.644   1.375  16.913  2.2250 -0.9900 -0.9121
 8150SOL     OW35911   4.657   4.669  17.650  0.0300 -0.0508 -0.4496
 8150SOL    HW135912   4.602   4.665   0.031  0.8665 -1.0085  0.0856
 8150SOL    HW235913   4.636   0.032  17.616 -0.2277 -0.2830 -0.8877
 8151SOL     OW35914   4.293   1.227   5.456  0.5617 -0.2611  0.5390
 8151SOL    HW135915   4.217   1.282   5.439  1.3288  0.5805 -0.1795
 8151SOL    HW235916   4.314   1.202   5.366  2.4535  1.3282  0.5265
 8152SOL     OW35917   2.893   0.575   0.840  0.0012  0.0522  0.4353
 8152SOL    HW135918   2.983   0.548   0.858 -0.1842 -1.3555 -0.7564
 8152SOL    HW235919   2.896   0.670   0.824 -0.4342  0.1428  0.9137
 8153SOL     OW35920   4.669   4.626   6.181  0.4502 -0.3121  0.0857
 8153SOL    HW135921   0.030   4.659   6.153  0.0223  0.0428 -0.8023
 8153SOL    HW235922   4.614   4.666   6.114  1.4625  0.2693 -0.3838
 8154SOL     OW35923   0.281   3.129   3.062  1.0543 -0.5613 -0.1339
 8154SOL    HW135924   0.255   3.190   2.992 -1.2620 -1.7682 -0.3384
 8154SOL    HW235925   0.228   3.150   3.139  0.3531 -0.7973 -0.5473
 8155SOL     OW35926   2.069   4.083   4.288 -0.1680 -0.2052  0.2572
 8155SOL    HW135927   2.121   4.160   4.266  0.6072 -1.3371 -1.9656
 8155SOL    HW235928   2.071   4.025   4.212  2.3081  1.6424 -1.0733
 8156SOL     OW35929   2.949   0.141   6.374 -0.8089 -0.0655  0.1439
 8156SOL    HW135930   2.908   0.080   6.436 -2.9830  0.4805 -0.7518
 8156SOL    HW235931   2.949   0.097   6.289  1.2056 -0.1601  0.2131
 8157SOL     OW35932   2.070   2.362   0.054  0.0799  0.4397  0.7130
 8157SOL    HW135933   2.039   2.282   0.010  0.2193 -0.8798  3.0015
 8157SOL    HW235934   2.139   2.321   0.107  0.6438  1.5254  0.8194
 8158SOL     OW35935   2.164   1.641   5.506 -0.2667 -0.8908 -0.0223
 8158SOL    HW135936   2.070   1.654   5.509  0.0015  0.1793  3.7905
 8158SOL    HW235937   2.185   1.663   5.416 -2.6500  0.7688 -0.1769
 8159SOL     OW35938   4.153   3.898   0.024  0.5592  0.7843  0.7195
 8159SOL    HW135939   4.217   3.858  17.663 -1.8149  0.9770 -2.0051
 8159SOL    HW235940   4.209   3.958   0.073  0.7058  0.9704  0.3183
 8160SOL     OW35941   4.169   1.836   8.484  0.3905 -1.3044  0.6987
 8160SOL    HW135942   4.256   1.849   8.447 -0.9701  0.7865 -1.7847
 8160SOL    HW235943   4.123   1.794   8.410  1.3357 -0.9008 -0.1124
 8161SOL     OW35944   3.236   3.839  17.339 -0.0875  0.2683  0.4856
 8161SOL    HW135945   3.240   3.791  17.422 -0.0906 -1.4004 -0.4740
 8161SOL    HW235946   3.318   3.814  17.296 -0.7357 -0.4758 -0.3086
 8162SOL     OW35947   3.768   0.344   7.448  0.3321 -0.4456 -0.1789
 8162SOL    HW135948   3.765   0.249   7.439 -1.7110 -0.5088  1.0283
 8162SOL    HW235949   3.691   0.372   7.398  0.9389  0.2260 -0.7308
 8163SOL     OW35950   0.000   0.980   3.397 -0.3091  0.4674  0.2246
 8163SOL    HW135951   0.075   1.032   3.428 -0.1609 -0.2437  1.0497
 8163SOL    HW235952   0.026   0.894   3.428 -0.9617  1.1184  2.6254
 8164SOL     OW35953   0.152   2.963   6.992 -0.0067 -0.4117 -0.9015
 8164SOL    HW135954   0.151   2.980   7.086  2.2039  1.8714 -1.2829
 8164SOL    HW235955   0.122   3.051   6.969  0.9266 -0.2419 -1.4848
 8165SOL     OW35956   0.970   0.462   2.468 -0.2516 -0.2266  0.0298
 8165SOL    HW135957   1.009   0.478   2.382 -4.2263  0.1969 -1.6809
 8165SOL    HW235958   0.982   0.367   2.471  1.7634 -0.0212 -0.9723
 8166SOL     OW35959   0.180   1.049   7.108  0.1978 -0.1529  0.0128
 8166SOL    HW135960   0.110   1.102   7.148  0.7191 -1.3827  2.5456
 8166SOL    HW235961   0.128   0.969   7.096 -2.2093  1.1443  1.5856
 8167SOL     OW35962   2.601   3.290   2.478  0.2515  0.4830  0.4851
 8167SOL    HW135963   2.615   3.199   2.505 -0.7448  0.4598  0.9251
 8167SOL    HW235964   2.508   3.308   2.493  0.0291  0.7881 -1.2711
 8168SOL     OW35965   2.986   3.876   5.931 -0.8656 -0.2517  0.2553
 8168SOL    HW135966   3.036   3.903   6.008  0.6880 -0.5998 -0.6392
 8168SOL    HW235967   3.048   3.908   5.866  0.3531  0.3323  1.7056
 8169SOL     OW35968   4.202   0.302  13.962  0.3902 -0.3946 -0.2506
 8169SOL    HW135969   4.170   0.354  13.888 -0.3734 -1.4446 -0.6654
 8169SOL    HW235970   4.121   0.276  14.006 -0.3520  0.2810 -1.2247
 8170SOL     OW35971   4.054   0.439   5.445 -0.1799  0.1753 -0.1367
 8170SOL    HW135972   4.148   0.427   5.429 -0.4340 -1.4408 -0.3736
 8170SOL    HW235973   4.023   0.428   5.355  0.2797 -0.7199 -0.1824
 8171SOL     OW35974   2.232   0.212  14.923  0.4062  0.6810 -0.2600
 8171SOL    HW135975   2.160   0.253  14.875 -0.4881 -0.0335  0.4776
 8171SOL    HW235976   2.254   0.149  14.854  0.0516  0.8088 -0.4886
 8172SOL     OW35977   2.584   3.269   6.833 -0.3496 -0.5004  0.3155
 8172SOL    HW135978   2.560   3.182   6.801  0.3610 -0.5725 -0.0245
 8172SOL    HW235979   2.605   3.310   6.749  0.3995 -1.5488 -0.0236
 8173SOL     OW35980   1.078   1.359  10.441 -0.5618 -0.3594  0.6704
 8173SOL    HW135981   1.173   1.346  10.442 -0.1400  2.6232 -0.2080
 8173SOL    HW235982   1.058   1.322  10.355  0.9028 -1.8514  0.9667
 8174SOL     OW35983   1.975   2.904   2.669  0.3868 -0.4104 -0.0955
 8174SOL    HW135984   1.897   2.868   2.710 -1.2911 -0.4725 -3.3622
 8174SOL    HW235985   1.953   2.872   2.582 -0.9541 -0.0925  0.1384
 8175SOL     OW35986   1.367   4.547   5.262 -0.1700 -0.5793 -0.3421
 8175SOL    HW135987   1.358   4.640   5.282  0.1352 -0.5497 -0.3454
 8175SOL    HW235988   1.290   4.521   5.311  0.8825 -1.4194  0.8413
 8176SOL     OW35989   1.609   1.240   7.514  0.2168 -0.0536  0.2970
 8176SOL    HW135990   1.680   1.274   7.568  0.2466 -0.9087  0.7867
 8176SOL    HW235991   1.547   1.312   7.525 -0.4863 -0.4900 -0.8530
 8177SOL     OW35992   0.594   1.374   7.620 -0.1479 -0.1753 -0.1618
 8177SOL    HW135993   0.632   1.294   7.656 -1.7802 -1.1549 -0.5723
 8177SOL    HW235994   0.500   1.360   7.635 -0.2765  0.1671 -0.6130
 8178SOL     OW35995   3.147   4.357   8.825  0.0583 -0.5210  0.0591
 8178SOL    HW135996   3.115   4.267   8.839 -1.5175  0.0684  0.2021
 8178SOL    HW235997   3.239   4.353   8.797 -0.3057  1.1793 -1.3620
 8179SOL     OW35998   1.503   4.472   9.286 -0.4130 -0.1821  0.5679
 8179SOL    HW135999   1.532   4.447   9.374 -0.1579 -1.1466  0.2091
 8179SOL    HW236000   1.505   4.396   9.228  0.8895  1.0891 -1.0476
 8180SOL     OW36001   2.246   0.142   0.769 -0.7786  0.2539  0.5060
 8180SOL    HW136002   2.236   0.154   0.674 -0.1008  0.7640  0.5006
 8180SOL    HW236003   2.329   0.181   0.797 -0.2316 -0.8289  0.3970
 8181SOL     OW36004   2.084   1.967   5.946 -0.1287  0.2205  0.1834
 8181SOL    HW136005   2.091   2.060   5.968  0.0273  0.5387 -1.2025
 8181SOL    HW236006   2.140   1.920   6.008  1.1354  0.0135 -1.1203
 8182SOL     OW36007   3.973   1.484   7.527  0.8919  1.0868 -0.4382
 8182SOL    HW136008   3.997   1.420   7.460 -0.2257 -0.4073  0.5904
 8182SOL    HW236009   3.902   1.533   7.486 -0.8546 -2.5438 -1.7680
 8183SOL     OW36010   0.029   4.199   8.380 -0.0749 -0.7745 -0.4906
 8183SOL    HW136011   0.009   4.176   8.289  2.0532  0.8402 -1.3793
 8183SOL    HW236012   4.666   4.227   8.407 -0.7217 -0.3553 -2.9831
 8184SOL     OW36013   3.417   1.828   6.874  0.0455  0.5112 -0.4917
 8184SOL    HW136014   3.436   1.775   6.797 -0.5395 -0.3534 -0.0338
 8184SOL    HW236015   3.405   1.752   6.931 -1.7682  0.0097 -1.5374
 8185SOL     OW36016   4.638   2.602   4.209 -0.3740  0.8825 -0.3574
 8185SOL    HW136017   4.687   2.595   4.291 -2.7002  0.5336  0.9703
 8185SOL    HW236018   4.681   2.679   4.172  0.5422 -0.5858 -2.3488
 8186SOL     OW36019   3.155   2.758   7.999  0.1124  0.5748 -0.1531
 8186SOL    HW136020   3.209   2.689   8.039  1.0993  0.0574 -2.3452
 8186SOL    HW236021   3.110   2.712   7.928 -0.1260 -0.9862  1.0088
 8187SOL     OW36022   2.838   0.387   6.322 -0.3818 -0.7592 -0.4393
 8187SOL    HW136023   2.905   0.325   6.350 -0.4505  0.3237  2.0431
 8187SOL    HW236024   2.888   0.453   6.274  0.1627 -2.5094 -2.3013
 8188SOL     OW36025   1.263   0.364   1.761 -0.0741 -0.3056 -0.0842
 8188SOL    HW136026   1.305   0.281   1.786 -0.9978 -0.8138 -0.2078
 8188SOL    HW236027   1.333   0.419   1.724  0.0510  0.8257  1.8282
 8189SOL     OW36028   4.518   3.693   3.835 -0.2223  0.0736  0.3535
 8189SOL    HW136029   4.444   3.749   3.860 -0.7700 -1.5352  2.2552
 8189SOL    HW236030   4.538   3.649   3.917 -1.3256 -1.8212 -0.3756
 8190SOL     OW36031   4.468   1.314  16.634  0.1812  0.2217 -0.6020
 8190SOL    HW136032   4.460   1.219  16.622 -0.6018  0.1535  0.4499
 8190SOL    HW236033   4.484   1.321  16.728  1.6756 -4.4454 -0.4989
 8191SOL     OW36034   1.781   0.722   3.852 -0.5761 -0.2436  0.1715
 8191SOL    HW136035   1.757   0.787   3.786  0.4701  0.3571  0.3918
 8191SOL    HW236036   1.831   0.665   3.795 -0.2789 -0.5138  0.7080
 8192SOL     OW36037   4.716   4.585   1.975  0.8988  0.3135  0.0014
 8192SOL    HW136038   0.047   4.651   1.932  0.5260 -0.8261 -2.2403
 8192SOL    HW236039   4.658   4.635   2.032 -0.1067 -2.4966  1.4226
 8193SOL     OW36040   3.213   3.097  12.958  0.1725 -0.1547 -0.9373
 8193SOL    HW136041   3.126   3.089  12.998  0.8869  1.3105  0.9402
 8193SOL    HW236042   3.258   3.122  13.039  0.4167  2.8107 -1.9762
 8194SOL     OW36043   4.556   1.884  12.433 -0.1756 -0.1182  0.2000
 8194SOL    HW136044   4.639   1.843  12.455 -0.0314 -0.6124 -1.2259
 8194SOL    HW236045   4.587   1.960  12.383  2.8975 -1.0952  0.6466
 8195SOL     OW36046   3.824   3.213   6.957  0.3093 -0.4078  0.4349
 8195SOL    HW136047   3.785   3.285   7.006  1.5092 -1.0554  2.3394
 8195SOL    HW236048   3.906   3.255   6.932  0.1998  0.3988  1.4074
 8196SOL     OW36049   0.697   0.922  15.538 -0.5190 -0.5026  0.5525
 8196SOL    HW136050   0.652   0.873  15.469  2.5554 -1.5467 -0.7212
 8196SOL    HW236051   0.626   0.980  15.565 -1.1418 -1.2928  0.5978
 8197SOL     OW36052   0.230   3.682   6.346 -0.0379 -0.2859  0.3635
 8197SOL    HW136053   0.190   3.635   6.273 -1.8197  0.0951  1.1127
 8197SOL    HW236054   0.189   3.628   6.414 -0.7530 -1.5415 -1.0575
 8198SOL     OW36055   1.325   4.492  16.215  0.3787 -0.3516 -0.1595
 8198SOL    HW136056   1.361   4.422  16.270  1.3096 -0.4570 -0.9016
 8198SOL    HW236057   1.374   4.568  16.245 -1.4244 -0.2245  2.5031
 8199SOL     OW36058   0.952   2.709   3.047  0.4164 -0.2925  0.1936
 8199SOL    HW136059   1.028   2.661   3.015  0.2117 -0.3830 -0.1603
 8199SOL    HW236060   0.932   2.647   3.118 -2.0776  1.7416  1.2917
 8200SOL     OW36061   1.527   1.096   5.782 -0.0597  0.1250  0.9900
 8200SOL    HW136062   1.459   1.031   5.769  0.6342 -0.2392 -0.7312
 8200SOL    HW236063   1.569   1.060   5.860  0.1334  1.4278  1.4917
 8201SOL     OW36064   0.065   0.235  15.664 -0.0919  0.9915  0.3056
 8201SOL    HW136065   0.156   0.251  15.639  0.4164 -0.0909  1.4701
 8201SOL    HW236066   0.028   0.321  15.645 -0.4780  0.3200 -1.9276
 8202SOL     OW36067   2.083   3.363  15.266  0.1253 -0.4100  0.3300
 8202SOL    HW136068   2.039   3.294  15.316 -0.1320 -0.1237  0.5035
 8202SOL    HW236069   2.154   3.396  15.322 -0.3287 -1.2974  1.4328
 8203SOL     OW36070   2.418   3.483  14.374 -0.0166 -0.1741 -0.0359
 8203SOL    HW136071   2.325   3.466  14.361 -0.2182  0.2354  0.8623
 8203SOL    HW236072   2.439   3.394  14.403 -2.7429 -0.3497  1.4042
 8204SOL     OW36073   0.842   2.136   2.952  0.1251 -0.1040 -0.1715
 8204SOL    HW136074   0.830   2.050   2.992  1.6166  0.1732  0.8746
 8204SOL    HW236075   0.750   2.156   2.934  0.5705  1.0415 -1.1224
 8205SOL     OW36076   1.609   1.087   8.425 -0.1228  0.4111  0.1896
 8205SOL    HW136077   1.674   1.052   8.486  0.4293  2.6872  0.9238
 8205SOL    HW236078   1.537   1.029   8.448 -0.0044  0.6404  1.1869
 8206SOL     OW36079   1.926   0.576   7.502  0.2130 -0.1746 -0.3704
 8206SOL    HW136080   1.869   0.573   7.579  2.0337 -1.2905  0.9492
 8206SOL    HW236081   1.990   0.638   7.538  1.8833 -1.2327 -1.5074
 8207SOL     OW36082   3.854   0.494   5.905  0.4140  0.2685  0.4901
 8207SOL    HW136083   3.862   0.448   5.989 -2.9142  0.3876  0.8760
 8207SOL    HW236084   3.908   0.440   5.847 -1.2072 -0.3404 -0.4425
 8208SOL     OW36085   0.669   3.190  13.257 -0.5809  0.4554 -0.1489
 8208SOL    HW136086   0.580   3.170  13.229 -0.7652  0.4726  0.4286
 8208SOL    HW236087   0.714   3.169  13.175 -0.2802  2.4239 -0.4952
 8209SOL     OW36088   2.083   4.316   4.880  0.0363 -0.0922  0.8952
 8209SOL    HW136089   2.146   4.382   4.908  0.6208  0.3267 -1.3998
 8209SOL    HW236090   2.002   4.358   4.911 -0.8582 -0.9807 -0.2125
 8210SOL     OW36091   3.721   0.512   7.790  0.6136  0.6504 -0.3444
 8210SOL    HW136092   3.700   0.526   7.883 -1.1057 -0.7417 -0.5207
 8210SOL    HW236093   3.758   0.423   7.793 -0.8736  0.0910  1.7954
 8211SOL     OW36094   4.694   1.278  17.196 -0.2242 -0.5879 -0.0525
 8211SOL    HW136095   4.656   1.190  17.188 -1.8034  0.0289  0.7190
 8211SOL    HW236096   4.615   1.329  17.213  0.7486  1.0419 -0.3651
 8212SOL     OW36097   0.171   3.462   6.553 -0.5086  0.0229 -0.3798
 8212SOL    HW136098   0.176   3.395   6.485  0.8758 -2.2918  1.9995
 8212SOL    HW236099   0.259   3.464   6.590 -0.7443 -1.2398  0.2524
 8213SOL     OW36100   1.682   4.643  10.505 -0.3943 -0.1652  0.2471
 8213SOL    HW136101   1.647   0.008  10.513  2.7141  1.0644  0.3108
 8213SOL    HW236102   1.727   4.660  10.422 -0.2535 -0.0202  0.3512
 8214SOL     OW36103   3.751   1.031  13.263 -0.3945 -0.5544 -0.0953
 8214SOL    HW136104   3.694   0.972  13.312  1.0778 -0.6557  1.5259
 8214SOL    HW236105   3.822   0.977  13.229  1.6468  2.4209 -0.5351
 8215SOL     OW36106   0.415   3.004   4.753 -0.1259  0.1011  0.0570
 8215SOL    HW136107   0.494   2.950   4.746  0.0394  0.3966 -0.3259
 8215SOL    HW236108   0.398   3.003   4.659  0.6280  3.2478 -0.1009
 8216SOL     OW36109   3.354   0.980   2.798  0.1439 -0.3393 -0.4153
 8216SOL    HW136110   3.317   1.068   2.792 -0.0479 -0.5658 -2.2679
 8216SOL    HW236111   3.438   1.008   2.835 -0.7899  1.3483  0.4432
 8217SOL     OW36112   3.241   3.192   7.994 -0.9510 -0.2062 -0.1287
 8217SOL    HW136113   3.284   3.275   8.015  1.2878 -1.7557  1.2910
 8217SOL    HW236114   3.267   3.175   7.903  1.2039  1.7499  0.1372
 8218SOL     OW36115   0.349   4.622   2.068 -0.4505 -0.1411 -0.6290
 8218SOL    HW136116   0.380   4.700   2.113  2.0609 -1.7882  0.4973
 8218SOL    HW236117   0.429   4.613   2.016 -1.6388  0.6211 -2.5688
 8219SOL     OW36118   1.923   3.686   6.529  0.1036 -0.3011  0.4773
 8219SOL    HW136119   2.005   3.683   6.579 -0.0155  1.0169  0.7679
 8219SOL    HW236120   1.945   3.763   6.476 -2.0798  0.0901  0.1430
 8220SOL     OW36121   4.560   1.399   8.614 -0.0621 -0.2560 -0.3443
 8220SOL    HW136122   4.565   1.480   8.563 -4.4600  0.3305  0.1925
 8220SOL    HW236123   4.525   1.338   8.550 -1.0399 -0.6684  0.5857
 8221SOL     OW36124   0.678   0.152   6.470 -0.6321  0.0447  0.1981
 8221SOL    HW136125   0.683   0.056   6.478  1.2099  0.2078  0.9634
 8221SOL    HW236126   0.742   0.178   6.536 -1.5323 -0.0601  1.1120
 8222SOL     OW36127   3.904   1.621   3.970 -0.2417 -0.4769  0.4548
 8222SOL    HW136128   3.866   1.684   4.030 -1.5896 -0.9032  0.0547
 8222SOL    HW236129   3.847   1.619   3.893  0.1663  0.4044  0.1306
 8223SOL     OW36130   4.631   0.614  10.881  0.3023 -0.7352  0.3471
 8223SOL    HW136131   4.570   0.629  10.809  1.0149 -1.1867 -0.3473
 8223SOL    HW236132   4.649   0.703  10.911 -0.5943 -0.0078 -1.3100
 8224SOL     OW36133   0.491   2.438   5.472  0.2787 -0.0288  0.5766
 8224SOL    HW136134   0.471   2.516   5.419 -1.9437  0.0192  1.4888
 8224SOL    HW236135   0.424   2.377   5.443  2.9604 -2.1802 -1.0599
 8225SOL     OW36136   0.033   3.152   8.045  0.0621  0.3866  0.1746
 8225SOL    HW136137   0.090   3.192   8.110 -0.4346 -0.6264  1.2383
 8225SOL    HW236138   0.106   3.119   7.993  0.0190  0.1394  0.2698
 8226SOL     OW36139   2.570   2.210  16.142  0.1247 -0.5269  0.2429
 8226SOL    HW136140   2.492   2.156  16.130  0.9924 -0.9779 -3.5833
 8226SOL    HW236141   2.536   2.282  16.194  0.6056 -0.4755  0.4893
 8227SOL     OW36142   0.491   0.109   9.623 -0.4765  0.3608 -0.1221
 8227SOL    HW136143   0.535   0.184   9.662  0.4781 -0.7223  0.8662
 8227SOL    HW236144   0.402   0.110   9.659 -0.7540 -0.3972 -0.7782
 8228SOL     OW36145   0.864   4.048  14.889 -0.2110  0.1786  0.1008
 8228SOL    HW136146   0.892   4.001  14.968 -0.3781 -1.9689 -1.1110
 8228SOL    HW236147   0.826   4.127  14.927  2.8745  1.3993  0.6488
 8229SOL     OW36148   3.261   3.018  11.271  0.4853  0.4596 -0.3401
 8229SOL    HW136149   3.185   2.961  11.285  1.4598 -0.5401  0.8219
 8229SOL    HW236150   3.311   2.966  11.209 -1.1539 -3.4164  1.5897
 8230SOL     OW36151   0.494   0.906  10.823 -0.0345  0.1294  0.4058
 8230SOL    HW136152   0.527   0.860  10.746  1.0299 -1.6143  1.8720
 8230SOL    HW236153   0.407   0.868  10.835  0.3850 -1.0858 -0.3946
 8231SOL     OW36154   1.682   1.199   4.267 -0.2293 -0.0694  0.1306
 8231SOL    HW136155   1.762   1.192   4.318  0.5273  0.1768 -1.0172
 8231SOL    HW236156   1.721   1.193   4.180  0.1763  2.0825  0.1525
 8232SOL     OW36157   0.307   2.455  12.115 -0.3923 -0.0820  0.1434
 8232SOL    HW136158   0.216   2.470  12.089 -0.5432 -0.6588  0.3215
 8232SOL    HW236159   0.315   2.533  12.169  0.1268  0.3408 -0.5570
 8233SOL     OW36160   0.589   4.326  13.201 -0.5458 -0.2190 -0.1964
 8233SOL    HW136161   0.598   4.278  13.119 -2.0116  2.0672 -1.7081
 8233SOL    HW236162   0.677   4.311  13.234  0.3621 -0.5295 -2.7539
 8234SOL     OW36163   1.063   3.452   2.476 -0.1590  0.0225 -0.2030
 8234SOL    HW136164   1.098   3.363   2.478  0.0754  0.1448  1.6352
 8234SOL    HW236165   1.149   3.486   2.500 -0.5408 -0.0519  1.2870
 8235SOL     OW36166   1.408   4.229   2.412 -0.5785  0.1516 -0.1303
 8235SOL    HW136167   1.422   4.165   2.481 -1.6775 -0.4414 -0.4625
 8235SOL    HW236168   1.485   4.286   2.411  0.2872 -1.0220 -0.6520
 8236SOL     OW36169   0.291   3.951   3.810 -0.1076  0.1773 -0.1502
 8236SOL    HW136170   0.320   4.036   3.843  1.9011 -0.6317  0.1223
 8236SOL    HW236171   0.196   3.967   3.810 -0.2565 -0.5639 -3.4260
 8237SOL     OW36172   3.095   0.470  15.915  0.1290 -0.6238  0.5645
 8237SOL    HW136173   3.138   0.495  15.833 -3.0236  0.4657 -0.7684
 8237SOL    HW236174   3.002   0.467  15.893  0.3638 -1.2780 -0.3375
 8238SOL     OW36175   2.707   0.743  13.440 -0.3858 -0.3106  0.1017
 8238SOL    HW136176   2.790   0.702  13.418 -0.7346 -1.5273  1.0870
 8238SOL    HW236177   2.735   0.786  13.521 -1.6296  0.7880 -0.0407
 8239SOL     OW36178   4.710   1.364   1.047 -0.4869  0.6646  0.5842
 8239SOL    HW136179   4.674   1.288   1.093  3.0202 -1.8568 -0.8157
 8239SOL    HW236180   0.053   1.311   1.004 -0.7852 -1.2911  2.5097
 8240SOL     OW36181   0.975   2.909   2.706 -0.1227  0.7237 -0.6097
 8240SOL    HW136182   1.031   2.898   2.629 -2.0328 -0.1345 -1.8687
 8240SOL    HW236183   0.957   3.002   2.698 -1.2932  0.8398  3.4285
 8241SOL     OW36184   1.082   3.355   1.646 -0.2219  0.0867 -0.0838
 8241SOL    HW136185   1.080   3.411   1.569  0.0736  2.1397  1.4244
 8241SOL    HW236186   1.149   3.403   1.694 -1.9817  0.7621  1.7626
 8242SOL     OW36187   3.441   4.702   0.696  0.6146 -0.1093  0.3030
 8242SOL    HW136188   3.482   4.686   0.611 -0.5793  1.3323 -0.5378
 8242SOL    HW236189   3.388   0.050   0.663 -0.0307 -0.1272  1.3053
 8243SOL     OW36190   0.995   0.617   6.402 -0.2498 -0.3035  0.1766
 8243SOL    HW136191   0.930   0.554   6.369 -1.6962 -0.1760  2.7400
 8243SOL    HW236192   1.058   0.553   6.435 -1.1626 -1.9540 -1.2655
 8244SOL     OW36193   1.581   3.605   5.470 -0.2275  0.1815  0.4640
 8244SOL    HW136194   1.617   3.590   5.382 -0.5047  0.9165  0.2196
 8244SOL    HW236195   1.650   3.584   5.532 -0.6939 -0.9465  0.5928
 8245SOL     OW36196   2.417   4.703  14.456  0.0530  0.5693 -0.6369
 8245SOL    HW136197   2.440   0.039  14.385  0.4915  1.9140  0.6386
 8245SOL    HW236198   2.330   4.680  14.424 -0.4794  2.2965 -0.3986
 8246SOL     OW36199   2.114   1.334   6.390  0.1289  0.0623  0.0365
 8246SOL    HW136200   2.117   1.367   6.300  0.1022 -0.4347 -0.1508
 8246SOL    HW236201   2.185   1.385   6.428  0.0084  0.7833 -0.7173
 8247SOL     OW36202   2.789   3.180   4.902 -0.2006  0.1173 -0.3195
 8247SOL    HW136203   2.792   3.087   4.880 -0.5744 -0.2560  1.1760
 8247SOL    HW236204   2.816   3.221   4.820 -2.8534  1.2300 -0.6656
 8248SOL     OW36205   4.306   1.343   6.025  0.1847 -0.5994  0.7215
 8248SOL    HW136206   4.381   1.398   6.050 -0.5198 -0.0154  1.5818
 8248SOL    HW236207   4.246   1.409   5.990 -0.9223 -0.7896  2.2563
 8249SOL     OW36208   1.854   3.670   5.248  0.3517 -0.4707 -0.3576
 8249SOL    HW136209   1.859   3.575   5.246 -2.1437 -0.5693 -1.4750
 8249SOL    HW236210   1.881   3.682   5.340  0.8303  0.9001 -0.6687
 8250SOL     OW36211   2.861   0.738   9.811  0.7658 -0.3332 -0.0069
 8250SOL    HW136212   2.942   0.690   9.795  0.1314 -1.6313  0.6563
 8250SOL    HW236213   2.821   0.680   9.876 -0.5139 -0.7179 -1.1263
 8251SOL     OW36214   1.825   2.985   6.023 -0.0685  0.4708 -0.1708
 8251SOL    HW136215   1.791   2.991   6.112 -1.1443  0.2583 -0.5523
 8251SOL    HW236216   1.771   3.052   5.980 -1.5771 -0.4906  0.2023
 8252SOL     OW36217   2.615   1.305   1.121 -0.6653  0.0022 -0.3968
 8252SOL    HW136218   2.605   1.215   1.153  0.9942 -0.4300 -1.0861
 8252SOL    HW236219   2.529   1.313   1.078 -2.1548 -0.0557  2.6124
 8253SOL     OW36220   0.636   2.741   7.208 -0.4302  0.1980 -0.3533
 8253SOL    HW136221   0.631   2.813   7.145 -1.2989  0.6299  0.2146
 8253SOL    HW236222   0.654   2.667   7.149  0.3334  1.0831 -1.2316
 8254SOL     OW36223   1.876   2.189  10.449  0.7052 -0.5848 -0.4503
 8254SOL    HW136224   1.941   2.257  10.428 -0.7389  1.3151  1.2401
 8254SOL    HW236225   1.812   2.245  10.404 -0.9359 -2.5685 -0.5456
 8255SOL     OW36226   2.017   3.677   3.745 -0.2113  0.1908 -0.3561
 8255SOL    HW136227   2.007   3.618   3.670  1.2336  0.3845 -0.7139
 8255SOL    HW236228   1.930   3.697   3.778  0.5574  0.4617  1.4938
 8256SOL     OW36229   0.124   1.139  16.851 -0.5250  0.2427 -0.1510
 8256SOL    HW136230   0.173   1.090  16.785  0.0515  1.9929 -1.0046
 8256SOL    HW236231   0.107   1.064  16.909 -1.3449  1.8612  1.7138
 8257SOL     OW36232   0.789   3.351   9.715  0.4960  0.5700 -0.2516
 8257SOL    HW136233   0.774   3.388   9.802 -1.0002  1.8421 -1.0673
 8257SOL    HW236234   0.870   3.299   9.718  0.6014  0.7816  0.7275
 8258SOL     OW36235   1.829   0.079  15.577  0.2701  0.3241  1.0487
 8258SOL    HW136236   1.850   4.720  15.533 -3.5164  0.6498 -1.4580
 8258SOL    HW236237   1.741   0.050  15.603  0.4323 -0.7530  0.4156
 8259SOL     OW36238   1.312   4.557   6.796  0.9548  0.1089  0.4964
 8259SOL    HW136239   1.407   4.556   6.780  0.7488  0.6330 -0.7835
 8259SOL    HW236240   1.305   4.574   6.890  0.5051 -3.5444  1.1258
 8260SOL     OW36241   0.409   4.354  17.033  0.6339  0.0843 -0.8618
 8260SOL    HW136242   0.445   4.406  17.105 -1.0557  0.7594 -0.5125
 8260SOL    HW236243   0.315   4.364  17.044  0.8146 -1.1546  1.6787
 8261SOL     OW36244   1.899   0.549   5.081  0.3255  0.6677  0.3034
 8261SOL    HW136245   1.968   0.577   5.141 -1.0534 -0.3771  2.3920
 8261SOL    HW236246   1.891   0.459   5.115 -2.8022  0.3527 -1.2962
 8262SOL     OW36247   1.626   3.800   7.333 -0.4014  0.2284 -0.5609
 8262SOL    HW136248   1.692   3.751   7.382  0.5071 -0.5816 -2.5834
 8262SOL    HW236249   1.546   3.748   7.322  1.7538 -3.1399 -0.5984
 8263SOL     OW36250   4.357   4.618  10.817  0.9098 -0.6991 -0.2265
 8263SOL    HW136251   4.410   4.620  10.896 -0.6202  0.5813  0.7561
 8263SOL    HW236252   4.398   4.695  10.779  0.3711 -0.8543 -1.1483
 8264SOL     OW36253   3.901   4.423  15.444  0.0253  0.1459  0.4676
 8264SOL    HW136254   3.871   4.503  15.487 -0.7585 -0.4756  1.0826
 8264SOL    HW236255   3.914   4.454  15.355 -3.0041  0.7094  0.2181
 8265SOL     OW36256   2.650   0.785   0.056 -0.3556  0.2240 -0.1300
 8265SOL    HW136257   2.677   0.807  17.664 -0.0852  0.9869  0.1383
 8265SOL    HW236258   2.563   0.746   0.043  0.3772 -1.0843 -1.1064
 8266SOL     OW36259   2.958   2.003   7.066  0.4940  0.2507  0.0413
 8266SOL    HW136260   2.880   2.013   7.011  1.4047  1.0688 -1.0931
 8266SOL    HW236261   2.997   1.923   7.032 -0.3436  0.7990 -2.1833
 8267SOL     OW36262   4.538   3.793  11.872  0.4290  0.0849 -0.3012
 8267SOL    HW136263   4.503   3.865  11.818 -1.5518 -2.3093 -2.2332
 8267SOL    HW236264   4.465   3.732  11.881  0.0204  0.6539  0.2413
 8268SOL     OW36265   4.105   1.862   6.254 -0.4228 -0.1218 -0.0409
 8268SOL    HW136266   4.152   1.942   6.278  0.9358 -0.5884 -1.1333
 8268SOL    HW236267   4.176   1.805   6.223 -1.5345 -1.5474  0.0670
 8269SOL     OW36268   2.445   0.855   2.100  0.4973 -0.8254 -0.7553
 8269SOL    HW136269   2.408   0.806   2.174 -3.7669  2.7554 -0.5504
 8269SOL    HW236270   2.371   0.839   2.043 -1.0835  0.0607  1.0554
 8270SOL     OW36271   1.812   4.264  12.884  0.0692  0.0454  0.3335
 8270SOL    HW136272   1.871   4.326  12.842  0.7873 -2.3322 -2.2281
 8270SOL    HW236273   1.865   4.184  12.886 -1.0824 -0.6809  1.7095
 8271SOL     OW36274   1.651   2.371   3.455 -0.2068 -0.3330 -0.3680
 8271SOL    HW136275   1.741   2.404   3.450 -0.4257 -0.0240 -2.1898
 8271SOL    HW236276   1.648   2.328   3.369  0.6770  0.4078 -0.7767
 8272SOL     OW36277   3.794   3.246   7.292 -0.4440 -0.5719  0.3462
 8272SOL    HW136278   3.752   3.275   7.211 -0.1113 -1.1898 -0.0518
 8272SOL    HW236279   3.717   3.249   7.348 -0.1038 -0.1852  0.7922
 8273SOL     OW36280   3.708   2.705   8.855 -0.5385  0.0886 -0.4612
 8273SOL    HW136281   3.653   2.781   8.874  0.1709  0.8335 -1.3921
 8273SOL    HW236282   3.736   2.734   8.768  3.6754  0.8888  1.1615
 8274SOL     OW36283   4.480   3.570   5.907 -0.7812  0.0345 -0.2822
 8274SOL    HW136284   4.537   3.574   5.831  0.9705  0.3495  1.0561
 8274SOL    HW236285   4.441   3.656   5.893  4.4007  2.3498 -0.3854
 8275SOL     OW36286   0.538   0.904   2.883  0.8430 -0.4226 -0.0418
 8275SOL    HW136287   0.612   0.891   2.943  0.1247 -3.5231  0.1623
 8275SOL    HW236288   0.577   0.864   2.806 -0.4337  1.2946 -1.5586
 8276SOL     OW36289   4.713   0.712  17.152 -0.3708  0.3031  0.2019
 8276SOL    HW136290   4.673   0.628  17.173  0.5410  0.2945  1.8132
 8276SOL    HW236291   0.054   0.739  17.216  1.1187  2.3046 -2.1295
 8277SOL     OW36292   2.813   0.122   2.311  0.2573  0.0839  0.2168
 8277SOL    HW136293   2.876   0.144   2.380  1.5533 -0.5733 -0.7644
 8277SOL    HW236294   2.850   0.045   2.268  0.8523  1.4766 -1.7503
 8278SOL     OW36295   1.946   4.022   3.977 -0.4389  0.5687 -0.2918
 8278SOL    HW136296   2.032   4.030   3.935 -0.6480  0.0621 -0.8037
 8278SOL    HW236297   1.932   3.933   4.009 -0.3613  0.3324 -0.9125
 8279SOL     OW36298   4.419   1.296   6.289  0.6072 -0.1665  0.2533
 8279SOL    HW136299   4.433   1.363   6.222 -0.2784 -0.8030 -0.5746
 8279SOL    HW236300   4.513   1.281   6.298  0.9154  0.4350 -1.8950
 8280SOL     OW36301   2.669   3.415   5.430 -0.0722  0.2551  0.4091
 8280SOL    HW136302   2.644   3.385   5.343  0.4968 -0.3147  0.4394
 8280SOL    HW236303   2.597   3.476   5.446  0.4687  0.8069  0.7137
 8281SOL     OW36304   3.289   4.088   9.685  0.5197  0.0757  0.4445
 8281SOL    HW136305   3.292   4.075   9.779  0.8593 -0.0074  0.4218
 8281SOL    HW236306   3.297   3.995   9.664  3.1559  0.6057 -0.8482
 8282SOL     OW36307   3.556   1.807  13.224 -0.5206  0.0598 -0.1831
 8282SOL    HW136308   3.484   1.745  13.235 -0.0692 -0.2254  1.2026
 8282SOL    HW236309   3.526   1.869  13.158 -1.5743 -1.2848 -0.9695
 8283SOL     OW36310   0.192   0.973   1.738 -0.0195  0.0380  0.1176
 8283SOL    HW136311   0.187   0.985   1.832 -2.0017  0.0108  0.0041
 8283SOL    HW236312   0.273   1.019   1.713  0.3527 -0.7920 -0.2151
 8284SOL     OW36313   3.802   1.643   3.182  0.0025 -0.0997 -1.1174
 8284SOL    HW136314   3.897   1.650   3.195  0.0610 -1.4500 -0.8108
 8284SOL    HW236315   3.780   1.733   3.159  2.3578 -0.0832 -3.3167
 8285SOL     OW36316   4.340   0.768   3.841 -0.5530 -0.1293 -0.6228
 8285SOL    HW136317   4.404   0.804   3.780  1.7048  0.8975  2.3123
 8285SOL    HW236318   4.303   0.704   3.781  0.9063 -2.8106  1.3412
 8286SOL     OW36319   3.946   2.303  11.888  0.0331 -0.0793  0.3754
 8286SOL    HW136320   4.007   2.329  11.957  0.1337  3.6183 -1.1286
 8286SOL    HW236321   3.863   2.286  11.933  0.8786 -3.7761  0.4995
 8287SOL     OW36322   1.424   1.484  16.120  0.1730  0.0183 -1.0363
 8287SOL    HW136323   1.328   1.486  16.116  0.1232  0.1587  0.2771
 8287SOL    HW236324   1.431   1.556  16.183 -1.5317 -0.0511 -0.7521
 8288SOL     OW36325   3.455   4.170   9.463 -0.1344 -0.0270  0.4809
 8288SOL    HW136326   3.519   4.241   9.466  0.6715 -0.7403  0.3063
 8288SOL    HW236327   3.421   4.164   9.552  0.7277 -0.7698  0.7665
 8289SOL     OW36328   1.944   4.107   3.533 -0.1345  0.5722  0.0795
 8289SOL    HW136329   1.978   4.078   3.618 -0.9944  3.0058  1.2448
 8289SOL    HW236330   2.020   4.110   3.474 -0.2293  0.9660 -0.0255
 8290SOL     OW36331   2.352   3.995  12.554  0.3291 -0.2836  0.2782
 8290SOL    HW136332   2.259   4.013  12.540  0.5174  1.7999  1.8288
 8290SOL    HW236333   2.395   4.064  12.503 -1.5064 -0.2839 -1.2643
 8291SOL     OW36334   1.255   0.378  12.052  0.3782  0.1158  0.1476
 8291SOL    HW136335   1.294   0.303  12.095 -2.8896 -1.1118  0.9881
 8291SOL    HW236336   1.324   0.444  12.048 -1.9908  2.6172  0.2399
 8292SOL     OW36337   0.171   4.600   6.805 -0.1491  0.1968  0.0369
 8292SOL    HW136338   0.179   4.657   6.882  0.9486  0.6663 -0.4264
 8292SOL    HW236339   0.264   4.598   6.782 -0.0345  0.1958  0.4811
 8293SOL     OW36340   0.595   2.825   0.097 -0.1424 -0.2074  0.1917
 8293SOL    HW136341   0.622   2.736   0.117  0.7504 -0.1920 -0.9751
 8293SOL    HW236342   0.598   2.811   0.003  0.1700 -0.4834  0.2428
 8294SOL     OW36343   4.147   3.386   8.901  0.3180 -0.5326  0.1883
 8294SOL    HW136344   4.234   3.352   8.921  0.2240 -0.7976  0.1388
 8294SOL    HW236345   4.103   3.345   8.975 -2.6557  0.0554 -1.2765
 8295SOL     OW36346   0.499   0.983   6.050  0.3984  0.1038  0.0572
 8295SOL    HW136347   0.478   1.071   6.082  0.9089 -0.0095  0.7006
 8295SOL    HW236348   0.512   0.949   6.138  1.9861  1.9706  0.5497
 8296SOL     OW36349   0.551   1.681   7.197 -0.1395  0.2117 -0.4530
 8296SOL    HW136350   0.537   1.775   7.184  0.7666  0.5298  0.8889
 8296SOL    HW236351   0.490   1.624   7.149 -0.5559 -0.3896  0.7802
 8297SOL     OW36352   4.028   4.379  16.821 -0.4271  0.0279 -0.2965
 8297SOL    HW136353   3.948   4.333  16.847 -0.7169 -0.1429 -1.4910
 8297SOL    HW236354   4.036   4.361  16.727 -0.6007  1.2374 -0.5346
 8298SOL     OW36355   2.571   0.843   5.278  0.0170  0.8067  0.1337
 8298SOL    HW136356   2.492   0.896   5.274 -0.2214  0.5407  1.4299
 8298SOL    HW236357   2.540   0.778   5.214 -0.4193  0.8337  0.3147
 8299SOL     OW36358   4.128   1.911   0.762 -0.6575  0.1194 -0.2341
 8299SOL    HW136359   4.130   1.844   0.693 -0.1662  0.1069 -0.2082
 8299SOL    HW236360   4.072   1.976   0.720  0.9046  1.1189 -0.7916
 8300SOL     OW36361   0.798   3.258   4.749  0.0430 -0.2597 -0.0596
 8300SOL    HW136362   0.773   3.270   4.657 -1.1651 -1.4008  0.1283
 8300SOL    HW236363   0.806   3.164   4.761 -0.0752 -0.5745 -2.4393
 8301SOL     OW36364   3.185   0.542  15.294  0.4666  0.0315 -1.2077
 8301SOL    HW136365   3.092   0.560  15.302  0.5958  0.6088 -0.9644
 8301SOL    HW236366   3.216   0.604  15.227 -0.8882  0.2040 -1.6709
 8302SOL     OW36367   0.549   2.303  10.546 -0.3970  0.3505  1.0370
 8302SOL    HW136368   0.483   2.318  10.479  1.9563  0.8686 -1.1789
 8302SOL    HW236369   0.607   2.376  10.525  0.2559 -0.5628 -0.3522
 8303SOL     OW36370   3.093   3.766   9.904  0.6622  0.4610  0.2419
 8303SOL    HW136371   3.181   3.751   9.870  0.8510  0.6288  0.6561
 8303SOL    HW236372   3.049   3.808   9.830  0.0610 -0.1577  0.2426
 8304SOL     OW36373   3.325   1.259   4.157  0.5601 -0.0268 -0.4313
 8304SOL    HW136374   3.308   1.177   4.202 -2.2880  0.8760  0.1278
 8304SOL    HW236375   3.324   1.240   4.063 -0.6212  1.5648 -0.7477
 8305SOL     OW36376   1.462   0.589  12.105  0.2041  0.1323 -0.1664
 8305SOL    HW136377   1.419   0.657  12.156  1.6289 -1.5480  3.2224
 8305SOL    HW236378   1.556   0.595  12.123  0.8364 -1.2709 -2.9025
 8306SOL     OW36379   3.884   2.280  14.910 -0.2370 -0.5915 -0.2457
 8306SOL    HW136380   3.954   2.284  14.845  0.9293 -0.4031  1.0180
 8306SOL    HW236381   3.909   2.199  14.954  2.2667 -0.3294 -1.1983
 8307SOL     OW36382   3.124   1.196  15.903  0.0895 -0.1696 -0.0645
 8307SOL    HW136383   3.206   1.209  15.950 -0.5278  2.4885  0.3028
 8307SOL    HW236384   3.096   1.284  15.876  1.7844  0.4506  0.2073
 8308SOL     OW36385   3.133   0.955   2.368 -0.0603 -0.4131  0.5691
 8308SOL    HW136386   3.209   0.937   2.423  0.1390 -1.2258  0.0224
 8308SOL    HW236387   3.055   0.961   2.424 -1.2431  0.1535 -1.1590
 8309SOL     OW36388   1.145   3.619   9.213  0.0306 -0.3847 -0.0726
 8309SOL    HW136389   1.079   3.646   9.277 -0.6458 -0.0806 -0.9136
 8309SOL    HW236390   1.079   3.569   9.166 -0.7913  0.8405 -0.2183
 8310SOL     OW36391   4.614   0.629   9.025 -0.4662  0.3247 -0.3875
 8310SOL    HW136392   4.693   0.590   9.063 -0.1624  0.4286 -0.9204
 8310SOL    HW236393   4.647   0.687   8.956 -1.7938 -0.3553 -1.5882
 8311SOL     OW36394   2.786   4.172   6.524  0.0998  0.5511  0.0698
 8311SOL    HW136395   2.806   4.264   6.538  1.2663  0.2320  0.5645
 8311SOL    HW236396   2.712   4.185   6.464  0.2802  1.1072 -0.0311
 8312SOL     OW36397   3.139   4.082   8.754 -0.5382 -0.7648 -0.0773
 8312SOL    HW136398   3.192   4.034   8.818 -0.8011 -1.4221 -0.3431
 8312SOL    HW236399   3.168   4.053   8.667  0.2599 -0.8277  0.2105
 8313SOL     OW36400   1.694   4.148   8.460 -0.1715 -0.3002  0.4935
 8313SOL    HW136401   1.695   4.237   8.495 -0.8518  0.1493 -0.6420
 8313SOL    HW236402   1.600   4.130   8.473 -0.3603  0.2904 -0.0570
 8314SOL     OW36403   2.031   1.657  10.787 -0.6132 -0.7827  0.4141
 8314SOL    HW136404   1.944   1.618  10.795 -1.1964  0.2034 -1.0880
 8314SOL    HW236405   2.024   1.689  10.697  3.3971 -1.4938 -0.1446
 8315SOL     OW36406   0.770   4.490   6.908  0.1963 -0.1625 -0.6260
 8315SOL    HW136407   0.680   4.465   6.926  0.9084  0.0283  3.2545
 8315SOL    HW236408   0.817   4.451   6.981 -1.7646 -0.8502  0.2646
 8316SOL     OW36409   2.760   0.498   3.975  0.2270 -0.1958  0.1479
 8316SOL    HW136410   2.710   0.493   4.057  2.3694 -2.7253  1.2859
 8316SOL    HW236411   2.849   0.478   4.005  0.5910  1.6465  0.3015
 8317SOL     OW36412   4.709   1.577   1.233  0.5193  0.0086  0.4287
 8317SOL    HW136413   4.658   1.497   1.216  1.6575 -0.5977 -0.0997
 8317SOL    HW236414   0.058   1.565   1.173 -1.3428  0.6972 -1.9807
 8318SOL     OW36415   4.048   2.309   5.363  0.2771  0.5538 -0.4717
 8318SOL    HW136416   4.130   2.291   5.408  0.2579  0.7898 -0.3434
 8318SOL    HW236417   4.050   2.401   5.337  1.4876  0.0116 -2.2584
 8319SOL     OW36418   3.199   4.020   7.263 -0.0949 -0.1664  0.3639
 8319SOL    HW136419   3.284   3.977   7.268  1.0888  1.9122 -2.0212
 8319SOL    HW236420   3.206   4.086   7.332 -3.2269  2.1386 -1.4852
 8320SOL     OW36421   3.857   1.098   8.199 -0.2126  0.6183 -0.0947
 8320SOL    HW136422   3.824   1.067   8.115  0.3219 -2.6690  0.8793
 8320SOL    HW236423   3.927   1.033   8.207  0.0053  0.8176 -0.3653
 8321SOL     OW36424   3.247   4.589   2.965  0.0338  0.2647 -0.3196
 8321SOL    HW136425   3.292   4.572   3.048  0.2693  2.5275  0.0403
 8321SOL    HW236426   3.244   4.502   2.926  1.8277 -0.2615  0.7104
 8322SOL     OW36427   3.384   3.545   9.882 -0.0910  0.6003  0.7201
 8322SOL    HW136428   3.435   3.626   9.882  0.4560  0.2493  0.1905
 8322SOL    HW236429   3.329   3.555   9.805 -1.5031 -1.1746  1.5104
 8323SOL     OW36430   0.938   3.331   1.917  0.3045  0.3003  0.3402
 8323SOL    HW136431   1.028   3.351   1.892  0.9014  1.3037  3.3362
 8323SOL    HW236432   0.907   3.301   1.831 -1.1700  0.9971  0.6404
 8324SOL     OW36433   2.211   1.500   3.157  0.4795 -0.4332  0.6040
 8324SOL    HW136434   2.201   1.582   3.109 -0.2235 -1.2097 -0.5947
 8324SOL    HW236435   2.121   1.466   3.155  0.6238 -0.8108  0.4544
 8325SOL     OW36436   0.801   2.840   8.895 -0.1608 -0.0852  0.3525
 8325SOL    HW136437   0.737   2.771   8.875  0.2329 -0.3463 -0.0044
 8325SOL    HW236438   0.804   2.819   8.989  0.9554 -1.0023  0.1097
 8326SOL     OW36439   0.185   1.680  16.166  0.1506 -0.0512 -0.8887
 8326SOL    HW136440   0.274   1.710  16.186  0.1528 -0.7544  0.1607
 8326SOL    HW236441   0.177   1.643  16.254 -0.1209 -1.0332 -1.3354
 8327SOL     OW36442   3.010   0.131   4.114 -0.4319 -0.1722 -0.3498
 8327SOL    HW136443   2.991   0.131   4.208  1.2131 -0.1153 -0.0177
 8327SOL    HW236444   2.920   0.128   4.081 -0.4112 -0.6259 -0.3642
 8328SOL     OW36445   3.736   3.915   7.135  0.1426  0.1421 -0.0526
 8328SOL    HW136446   3.801   3.949   7.197  1.1392 -1.7040 -0.0760
 8328SOL    HW236447   3.684   3.993   7.114  0.1801 -0.5611 -2.7598
 8329SOL     OW36448   3.594   4.131   5.564 -0.0303  0.1841  0.3374
 8329SOL    HW136449   3.539   4.123   5.486  0.2032 -2.3938  0.4333
 8329SOL    HW236450   3.578   4.221   5.589  0.0412  0.6548 -1.2866
 8330SOL     OW36451   1.375   4.700  16.397  0.3232 -0.2683 -0.3860
 8330SOL    HW136452   1.331   0.009  16.476 -0.4190 -2.2746  0.0640
 8330SOL    HW236453   1.403   0.058  16.357 -1.6790  0.5701 -0.0760
 8331SOL     OW36454   1.231   0.505  11.770 -0.1910  0.9633  0.1181
 8331SOL    HW136455   1.150   0.458  11.751  0.2481 -0.3139  1.3386
 8331SOL    HW236456   1.254   0.474  11.858 -0.9558  1.5014  0.5073
 8332SOL     OW36457   0.022   3.589  17.316 -0.1962 -0.0097  0.2081
 8332SOL    HW136458   0.080   3.515  17.333 -0.3524  0.0242  0.9285
 8332SOL    HW236459   4.711   3.574  17.229 -1.3749 -0.8869  0.8287
 8333SOL     OW36460   2.434   4.505   4.298  0.4415  0.3130 -0.0967
 8333SOL    HW136461   2.412   4.557   4.220 -0.4555 -1.6697 -1.1538
 8333SOL    HW236462   2.529   4.495   4.298  0.6785  2.4799 -0.4781
 8334SOL     OW36463   1.338   3.717  15.754  0.1555 -0.0962  0.0817
 8334SOL    HW136464   1.373   3.665  15.827  0.2321  1.2080  0.9909
 8334SOL    HW236465   1.351   3.805  15.790  2.7247 -1.0020  1.3663
 8335SOL     OW36466   2.368   1.594   4.678  0.4153 -0.7179 -0.0206
 8335SOL    HW136467   2.310   1.538   4.626 -0.7874 -0.4926  1.0677
 8335SOL    HW236468   2.346   1.677   4.635  2.9214 -0.1314 -0.1590
 8336SOL     OW36469   2.866   4.682  15.382 -0.5924 -0.1822  0.2607
 8336SOL    HW136470   2.904   4.600  15.413 -0.5558 -0.2498  0.0336
 8336SOL    HW236471   2.917   4.719  15.311  0.5490 -0.6494  0.8390
 8337SOL     OW36472   1.734   1.647  11.983  0.1662 -0.5482  0.1263
 8337SOL    HW136473   1.667   1.594  11.940 -2.4149  0.8069  2.4399
 8337SOL    HW236474   1.805   1.628  11.922  0.8337 -0.0657  0.7449
 8338SOL     OW36475   4.427   3.715  15.004  0.5602 -0.0664 -0.2774
 8338SOL    HW136476   4.494   3.751  15.061 -0.5728  0.1523  0.9185
 8338SOL    HW236477   4.417   3.626  15.036 -2.0392 -0.4402 -2.0749
 8339SOL     OW36478   1.499   3.459   6.460  0.1174 -0.4718  0.4593
 8339SOL    HW136479   1.566   3.493   6.519  0.2270 -0.4920  0.3440
 8339SOL    HW236480   1.422   3.496   6.504 -0.0113  1.4806 -1.4090
 8340SOL     OW36481   2.779   3.549  15.509 -0.3912 -0.6166 -0.0384
 8340SOL    HW136482   2.754   3.467  15.468  0.5984 -1.4960  1.1178
 8340SOL    HW236483   2.835   3.528  15.584 -1.4060 -1.4968  0.4682
 8341SOL     OW36484   2.723   1.525   8.459  0.5406  0.6245 -0.2805
 8341SOL    HW136485   2.680   1.605   8.430 -0.1024  0.1746 -0.5577
 8341SOL    HW236486   2.815   1.550   8.459  0.5234  0.6179 -2.5335
 8342SOL     OW36487   0.187   2.612   4.994  0.0780 -0.0994 -0.5398
 8342SOL    HW136488   0.105   2.637   5.037  1.7247  2.1947  1.2519
 8342SOL    HW236489   0.219   2.694   4.958  2.6640 -0.8235  0.1346
 8343SOL     OW36490   0.441   4.673   5.200 -0.1445 -0.5872  1.0424
 8343SOL    HW136491   0.363   4.718   5.234 -0.6463 -1.7629  1.4659
 8343SOL    HW236492   0.451   0.005   5.123  1.0772 -2.1332  0.0894
 8344SOL     OW36493   1.543   3.513   5.982  0.2951  0.0226 -0.4436
 8344SOL    HW136494   1.628   3.491   6.018  0.5230  2.4233  0.5274
 8344SOL    HW236495   1.518   3.446   5.918  0.7499  1.2115 -1.8637
 8345SOL     OW36496   1.251   1.590  10.671  0.4275  0.3282  0.4684
 8345SOL    HW136497   1.306   1.612  10.746  1.3233  1.1874 -0.4440
 8345SOL    HW236498   1.307   1.548  10.605 -1.8923  2.2617 -2.7533
 8346SOL     OW36499   4.707   3.946   7.039 -0.2331  0.1870 -0.3871
 8346SOL    HW136500   4.673   4.036   7.044 -1.9106 -0.3223 -2.3735
 8346SOL    HW236501   4.712   3.945   6.943 -0.1668  2.7374 -0.4238
 8347SOL     OW36502   1.960   0.755   8.204  0.3367  0.1236  0.1255
 8347SOL    HW136503   2.047   0.794   8.198 -0.2564  2.0309  3.9785
 8347SOL    HW236504   1.928   0.803   8.280  1.1050  1.6457 -0.5250
 8348SOL     OW36505   3.824   3.510   6.787  0.4578  0.0154  0.2421
 8348SOL    HW136506   3.900   3.454   6.803 -0.1733 -0.9634 -0.1806
 8348SOL    HW236507   3.858   3.560   6.713  0.7005  1.3153  1.2197
 8349SOL     OW36508   3.190   1.534   9.881  0.6028 -0.0057 -0.3896
 8349SOL    HW136509   3.202   1.472   9.809 -1.1868 -0.4468 -0.3270
 8349SOL    HW236510   3.186   1.477   9.959  0.0385  1.3874  0.6002
 8350SOL     OW36511   3.450   4.648   2.069  0.0543 -0.4881  0.0402
 8350SOL    HW136512   3.498   4.662   2.151 -0.3825  2.4069 -0.2291
 8350SOL    HW236513   3.508   4.611   2.003  1.7324  0.8697  0.7530
 8351SOL     OW36514   3.802   2.879   8.663 -0.0464  0.1495 -0.2519
 8351SOL    HW136515   3.871   2.939   8.691 -1.5467  0.7665  2.0695
 8351SOL    HW236516   3.768   2.926   8.588  1.2265  1.3224 -0.0852
 8352SOL     OW36517   2.976   4.688   6.141 -0.0313 -0.1106 -0.0586
 8352SOL    HW136518   2.914   4.722   6.077  1.0724  0.9523 -0.5567
 8352SOL    HW236519   2.966   4.595   6.124  0.3342 -0.3110  0.8088
 8353SOL     OW36520   1.224   2.688   5.491 -0.0027 -0.5720  0.0230
 8353SOL    HW136521   1.207   2.624   5.560 -0.3297 -1.9083 -1.2881
 8353SOL    HW236522   1.256   2.759   5.547 -0.1557 -1.0868  0.7688
 8354SOL     OW36523   1.419   3.209   6.701  0.0138  0.3281  0.3304
 8354SOL    HW136524   1.360   3.229   6.774  1.4620 -0.1451  1.6233
 8354SOL    HW236525   1.374   3.139   6.655  0.7691 -1.4315  2.2608
 8355SOL     OW36526   1.848   1.079  11.435 -0.2346  0.1669 -0.4548
 8355SOL    HW136527   1.817   1.026  11.363 -0.9043  0.8042 -0.6345
 8355SOL    HW236528   1.897   1.153  11.399  0.9616 -1.8627 -2.9092
 8356SOL     OW36529   0.569   2.123   6.877 -0.4195  0.3454 -0.4828
 8356SOL    HW136530   0.617   2.147   6.797  0.2624  0.4053 -0.0525
 8356SOL    HW236531   0.562   2.028   6.872 -1.7808  0.3946  0.6618
 8357SOL     OW36532   0.786   3.050  15.762 -0.3903 -0.3483  0.8619
 8357SOL    HW136533   0.755   3.122  15.706 -2.4572 -0.9041  1.3009
 8357SOL    HW236534   0.830   3.099  15.832 -0.4407 -0.1031  0.7235
 8358SOL     OW36535   0.150   2.198   5.916  0.0922 -0.2433  0.6355
 8358SOL    HW136536   0.173   2.209   6.009  1.9465  1.0102  0.0413
 8358SOL    HW236537   0.237   2.193   5.875 -0.0085  0.6376  0.3086
 8359SOL     OW36538   1.834   0.849  13.811 -0.0636 -0.2488  0.0573
 8359SOL    HW136539   1.772   0.784  13.847 -0.2787 -1.2591 -2.1266
 8359SOL    HW236540   1.885   0.888  13.883 -3.0631  1.3684  1.3043
 8360SOL     OW36541   4.139   0.747   5.499 -0.7548  0.1436 -0.2177
 8360SOL    HW136542   4.187   0.737   5.416 -0.2724  0.0658  0.0673
 8360SOL    HW236543   4.080   0.672   5.491  1.1887 -1.4414  0.1099
 8361SOL     OW36544   1.515   2.714   4.555 -0.0235  0.1829  0.0778
 8361SOL    HW136545   1.445   2.729   4.619 -0.8100 -0.4162 -0.6376
 8361SOL    HW236546   1.459   2.688   4.482  1.2731  1.4490 -1.3852
 8362SOL     OW36547   3.430   1.322   8.387 -0.5546  0.1630  0.3307
 8362SOL    HW136548   3.346   1.364   8.410  0.0094  0.5093  1.7648
 8362SOL    HW236549   3.394   1.240   8.353  0.2169 -0.2581  0.5400
 8363SOL     OW36550   0.597   0.589   9.473 -0.3801 -0.1006 -0.1312
 8363SOL    HW136551   0.637   0.550   9.396  1.1952 -0.3638  0.8068
 8363SOL    HW236552   0.507   0.596   9.443 -1.6186  0.6091  3.7384
 8364SOL     OW36553   2.201   3.543   6.339  0.2470  0.1559 -0.5369
 8364SOL    HW136554   2.182   3.483   6.412 -1.2083  1.2878  0.0236
 8364SOL    HW236555   2.239   3.474   6.285 -1.5317 -2.3337  1.3587
 8365SOL     OW36556   1.648   2.709   1.699  1.3197 -0.1053  0.1387
 8365SOL    HW136557   1.603   2.783   1.658 -0.4894 -0.5076  1.4087
 8365SOL    HW236558   1.595   2.704   1.779 -2.0295  0.6927 -2.0220
 8366SOL     OW36559   3.902   3.807   8.346 -0.0077  0.3189  0.1579
 8366SOL    HW136560   3.863   3.883   8.387 -2.9689 -2.5491  2.6383
 8366SOL    HW236561   3.900   3.819   8.251 -0.9347  0.2520  0.1768
 8367SOL     OW36562   2.523   3.316   7.099 -0.2149 -0.7953  0.0842
 8367SOL    HW136563   2.541   3.409   7.110 -1.0085 -0.8199  1.6025
 8367SOL    HW236564   2.542   3.299   7.006 -1.6567  0.0067 -0.3602
 8368SOL     OW36565   2.099   4.217   2.368 -0.0338  0.1666  0.0347
 8368SOL    HW136566   2.158   4.273   2.316  0.2203  0.3479  0.5154
 8368SOL    HW236567   2.011   4.255   2.362  0.7698  1.8817 -1.1303
 8369SOL     OW36568   1.427   3.461   8.313 -0.1357  0.0976 -0.3491
 8369SOL    HW136569   1.478   3.528   8.360  0.7400 -1.8321  1.4744
 8369SOL    HW236570   1.482   3.438   8.239 -2.0071  1.6732 -2.2371
 8370SOL     OW36571   1.454   2.485   2.648 -0.2431 -0.1284 -0.6072
 8370SOL    HW136572   1.391   2.555   2.666  0.0336  0.0975 -0.5097
 8370SOL    HW236573   1.503   2.474   2.730  0.7669 -0.3992 -1.2483
 8371SOL     OW36574   2.228   1.726   4.880  0.0744  0.5104 -0.1332
 8371SOL    HW136575   2.261   1.657   4.823 -0.4244 -2.0275  2.6318
 8371SOL    HW236576   2.280   1.802   4.853  2.6059 -0.8228  0.9739
 8372SOL     OW36577   0.358   2.180   2.710 -0.2280  0.1132  0.2393
 8372SOL    HW136578   0.437   2.153   2.663  0.3449 -1.7864  2.2863
 8372SOL    HW236579   0.353   2.265   2.667  2.5534 -0.7760 -1.8723
 8373SOL     OW36580   0.086   0.421   9.138  0.3367 -0.1680 -0.3315
 8373SOL    HW136581   0.131   0.425   9.222 -0.5530  1.7153  0.0556
 8373SOL    HW236582   0.135   0.470   9.072 -1.4293  1.5638 -0.3345
 8374SOL     OW36583   1.626   3.672  14.884  0.2985 -0.0077  0.1425
 8374SOL    HW136584   1.666   3.724  14.814 -0.1966  2.8614  2.0072
 8374SOL    HW236585   1.704   3.637  14.925 -0.1731 -0.5102  0.6099
 8375SOL     OW36586   0.026   0.600   2.999  0.1859 -0.2136  0.1304
 8375SOL    HW136587   0.018   0.564   3.087  0.4270  2.5896  1.3062
 8375SOL    HW236588   4.697   0.679   3.010 -1.4766 -0.8649 -3.2923
 8376SOL     OW36589   2.419   0.135  16.012  0.2737 -0.3995 -0.2398
 8376SOL    HW136590   2.444   0.129  15.920 -0.2168  1.2688 -0.4675
 8376SOL    HW236591   2.505   0.155  16.050 -0.3487  0.6272  0.6190
 8377SOL     OW36592   3.874   2.930   9.434  0.1103  0.0815  0.2764
 8377SOL    HW136593   3.779   2.923   9.447 -0.5505  3.2393 -2.8310
 8377SOL    HW236594   3.884   3.025   9.430 -0.1188  0.0215 -2.0134
 8378SOL     OW36595   1.460   4.235   9.841  0.2385  0.3113  0.5234
 8378SOL    HW136596   1.374   4.226   9.881 -0.9008  0.8184 -1.7825
 8378SOL    HW236597   1.471   4.149   9.801  1.0698  0.5525  0.2261
 8379SOL     OW36598   2.465   2.369   1.550 -0.4717  0.3708 -0.1918
 8379SOL    HW136599   2.459   2.333   1.461 -1.0848 -0.6375  0.2525
 8379SOL    HW236600   2.389   2.323   1.585  0.3681 -0.9423 -0.0847
 8380SOL     OW36601   3.394   1.184   2.424  0.3783 -0.5081 -0.2388
 8380SOL    HW136602   3.406   1.276   2.401 -1.6185  0.5964  3.0896
 8380SOL    HW236603   3.478   1.144   2.402  1.7268 -0.4100  4.5986
 8381SOL     OW36604   1.031   3.173   2.230 -0.2884  0.9428  0.1306
 8381SOL    HW136605   1.087   3.175   2.308  1.7469 -1.5391 -1.2733
 8381SOL    HW236606   1.058   3.091   2.188 -0.2136  1.2186 -0.3580
 8382SOL     OW36607   3.777   1.708  12.016  0.1813 -0.5171  0.2027
 8382SOL    HW136608   3.714   1.652  11.971 -0.2138  1.3873 -1.5850
 8382SOL    HW236609   3.762   1.679  12.106  1.1835  0.3145  0.6265
 8383SOL     OW36610   3.473   1.019   4.450  0.1487 -0.7328 -0.2517
 8383SOL    HW136611   3.457   1.097   4.503  1.9679 -1.9590  2.0885
 8383SOL    HW236612   3.403   1.028   4.385  1.0782  0.9103 -1.0305
 8384SOL     OW36613   0.768   4.361  11.260 -0.3022 -0.4436 -0.2040
 8384SOL    HW136614   0.674   4.349  11.274 -0.6748  2.1513 -0.4222
 8384SOL    HW236615   0.806   4.279  11.230 -0.4524 -0.1134 -1.2774
 8385SOL     OW36616   3.482   4.342  16.485  0.2246  0.4202  0.0635
 8385SOL    HW136617   3.446   4.314  16.401  1.0254  1.2611 -0.5682
 8385SOL    HW236618   3.457   4.435  16.480 -1.4108 -0.0820 -1.1817
 8386SOL     OW36619   0.623   1.688   8.146  0.1150 -0.4027 -0.3497
 8386SOL    HW136620   0.587   1.765   8.190 -1.8715 -1.3709 -0.2622
 8386SOL    HW236621   0.613   1.628   8.221 -0.7805 -1.5747 -1.4124
 8387SOL     OW36622   3.728   2.593   7.825  0.3100 -0.0309  0.5735
 8387SOL    HW136623   3.671   2.542   7.767  0.8263 -1.7807  1.6104
 8387SOL    HW236624   3.682   2.675   7.844 -0.0996  0.2446 -1.5546
 8388SOL     OW36625   0.980   2.347  17.598  0.2819  0.4352  0.1702
 8388SOL    HW136626   1.022   2.262  17.591  1.7088  1.1184  0.5628
 8388SOL    HW236627   0.892   2.314  17.617  0.5052 -0.6774 -0.7098
 8389SOL     OW36628   3.770   3.871   4.645 -1.1782 -0.3575  0.4824
 8389SOL    HW136629   3.854   3.913   4.661 -1.3171  0.1446 -0.1126
 8389SOL    HW236630   3.702   3.939   4.647 -0.3939  0.4563 -0.6592
 8390SOL     OW36631   0.822   2.178   5.216 -0.3194 -0.0284  0.0266
 8390SOL    HW136632   0.797   2.258   5.262  1.8291  0.3482  0.5471
 8390SOL    HW236633   0.735   2.149   5.189 -0.8397  0.1295  1.5638
 8391SOL     OW36634   2.767   0.422  12.427  0.5058 -0.1322 -0.0540
 8391SOL    HW136635   2.857   0.393  12.443  0.5707 -1.4340 -2.7474
 8391SOL    HW236636   2.751   0.501  12.478  2.3149  0.0593  0.2054
 8392SOL     OW36637   3.675   2.723   4.105 -0.2266  0.5971  0.2449
 8392SOL    HW136638   3.590   2.716   4.148  0.3409 -0.2229  1.2321
 8392SOL    HW236639   3.741   2.687   4.164 -0.5646 -1.2387 -0.4779
 8393SOL     OW36640   3.690   3.741   7.770  0.3664  0.3497 -0.2892
 8393SOL    HW136641   3.675   3.814   7.830  0.9819  0.0999  0.1733
 8393SOL    HW236642   3.775   3.765   7.735 -0.2942  0.2541 -1.9312
 8394SOL     OW36643   3.538   0.439   5.755  0.2453 -0.1101 -0.3007
 8394SOL    HW136644   3.519   0.523   5.797 -0.9814  0.5953 -2.2341
 8394SOL    HW236645   3.622   0.419   5.795  1.2646  1.0648 -1.8600
 8395SOL     OW36646   1.056   0.815   6.218  0.1923  0.0529 -0.8163
 8395SOL    HW136647   1.057   0.757   6.294  1.3002  1.8139  0.5070
 8395SOL    HW236648   1.044   0.898   6.264  0.9001 -0.0353 -0.4685
 8396SOL     OW36649   3.582   4.300  17.129 -0.2159  0.2667 -0.0582
 8396SOL    HW136650   3.491   4.307  17.099 -0.5654 -0.5128  0.7921
 8396SOL    HW236651   3.629   4.343  17.058  1.9828 -1.3549  0.4169
 8397SOL     OW36652   1.993   0.724  13.661 -0.3102 -0.0643  0.5374
 8397SOL    HW136653   1.940   0.792  13.702  1.1517  0.0313  2.2820
 8397SOL    HW236654   1.919   0.667  13.638 -0.6172  0.9349 -0.9453
 8398SOL     OW36655   2.211   0.204   2.182  0.1217 -0.0972 -0.1225
 8398SOL    HW136656   2.248   0.116   2.192 -3.1975 -1.6294 -1.3902
 8398SOL    HW236657   2.244   0.236   2.266  2.4068  0.7967 -1.3627
 8399SOL     OW36658   4.372   4.514   4.463 -0.3907 -0.4768  0.4985
 8399SOL    HW136659   4.336   4.444   4.517 -1.6350 -1.4574 -1.5992
 8399SOL    HW236660   4.357   4.485   4.373  1.3440  1.1569 -0.3036
 8400SOL     OW36661   3.155   1.741   7.347  0.0005 -0.0277  0.2543
 8400SOL    HW136662   3.132   1.668   7.288  0.4220  0.2067 -0.1940
 8400SOL    HW236663   3.075   1.792   7.355 -0.2651 -0.7558  2.2931
 8401SOL     OW36664   1.460   3.626   3.509 -0.6261  0.1201 -0.3718
 8401SOL    HW136665   1.434   3.705   3.555 -1.0893  0.9081 -1.9859
 8401SOL    HW236666   1.378   3.581   3.489 -1.8471  1.9852  0.4143
 8402SOL     OW36667   3.001   0.412   3.114  0.3362 -0.1261 -0.4079
 8402SOL    HW136668   2.983   0.318   3.118 -1.4261  0.2285 -0.0459
 8402SOL    HW236669   2.984   0.441   3.204  0.3231  0.2961 -0.5468
 8403SOL     OW36670   1.899   2.020  11.534 -0.4940 -0.1546  0.6170
 8403SOL    HW136671   1.904   1.939  11.586  0.4782  1.9394  3.7844
 8403SOL    HW236672   1.956   1.998  11.461  0.5922  2.0324  0.8214
 8404SOL     OW36673   3.441   4.682   8.306 -0.4453 -0.5147  0.1750
 8404SOL    HW136674   3.478   4.611   8.359  0.5959  0.4857  0.8021
 8404SOL    HW236675   3.485   4.664   8.223 -0.5486  1.8982 -0.4183
 8405SOL     OW36676   4.172   4.339   7.101 -0.1563  0.1722 -0.5232
 8405SOL    HW136677   4.220   4.415   7.066  0.8748 -1.4211 -2.5622
 8405SOL    HW236678   4.101   4.386   7.146 -0.7906 -1.7144  0.4134
 8406SOL     OW36679   1.916   0.649  17.618 -0.4615 -0.2207  0.6915
 8406SOL    HW136680   1.919   0.703  17.539  0.1697 -0.3831  0.6083
 8406SOL    HW236681   2.009   0.659  17.640 -0.8167  3.3761  0.6585
 8407SOL     OW36682   3.568   2.775   5.795 -0.2801  0.0262  0.0702
 8407SOL    HW136683   3.633   2.842   5.776  0.5413 -0.6700  0.4263
 8407SOL    HW236684   3.628   2.700   5.802  0.6791  0.7634 -0.3621
 8408SOL     OW36685   1.655   1.036  14.952 -0.3783 -0.1259 -0.0146
 8408SOL    HW136686   1.731   1.036  15.010 -2.2474  0.8826  2.4560
 8408SOL    HW236687   1.592   1.082  15.006  1.9931  1.1528  1.6525
 8409SOL     OW36688   2.927   2.744   8.202 -0.1278 -0.1129 -0.0137
 8409SOL    HW136689   3.000   2.700   8.160  1.3097  0.8397  1.5011
 8409SOL    HW236690   2.969   2.765   8.285 -0.8983  1.8444 -0.0945
 8410SOL     OW36691   3.001   4.719   7.863 -0.5244 -0.8303 -0.7083
 8410SOL    HW136692   3.002   4.628   7.894  0.7310 -0.7143 -0.4207
 8410SOL    HW236693   3.033   4.697   7.776  1.0719  0.5854 -0.4691
 8411SOL     OW36694   1.402   0.807  14.748 -0.0113  0.2572 -0.0393
 8411SOL    HW136695   1.412   0.902  14.751  2.1230  0.0141  0.8787
 8411SOL    HW236696   1.378   0.796  14.840  1.5190 -2.8833 -0.0148
 8412SOL     OW36697   3.991   1.257   2.795 -0.0853  0.1998  0.2675
 8412SOL    HW136698   3.988   1.161   2.796 -2.3563  0.2771 -0.0796
 8412SOL    HW236699   3.975   1.272   2.702  1.0089  0.9410  0.2009
 8413SOL     OW36700   0.045   2.445  13.873 -0.1748 -0.5337  0.0197
 8413SOL    HW136701   0.038   2.504  13.799  1.1892 -0.1962  0.1564
 8413SOL    HW236702   0.030   2.359  13.834 -1.7264 -0.9891  1.5957
 8414SOL     OW36703   3.683   2.752   2.289  0.1509  0.0345 -0.4169
 8414SOL    HW136704   3.667   2.837   2.247  1.5860  0.2114 -0.6176
 8414SOL    HW236705   3.668   2.696   2.213  1.8046 -1.5928  0.4489
 8415SOL     OW36706   4.457   1.209   3.775 -0.6249  0.2102 -0.0283
 8415SOL    HW136707   4.379   1.264   3.770  0.8003  2.1792 -0.8544
 8415SOL    HW236708   4.476   1.194   3.682  1.2650  1.4431  0.1584
 8416SOL     OW36709   3.678   1.400   2.200  0.3823 -0.4424 -0.0677
 8416SOL    HW136710   3.690   1.305   2.190  1.2125 -0.3073 -0.3386
 8416SOL    HW236711   3.583   1.411   2.203  0.5560  0.5155  1.8773
 8417SOL     OW36712   0.915   1.252   8.521 -0.4455  0.3512  0.2026
 8417SOL    HW136713   0.853   1.184   8.546  0.6659 -0.4090  0.9139
 8417SOL    HW236714   0.856   1.314   8.478 -0.4108  1.5286  1.8372
 8418SOL     OW36715   1.277   0.786   1.890  0.1368 -0.0920 -0.5297
 8418SOL    HW136716   1.256   0.864   1.840 -0.1754 -1.7045 -2.9312
 8418SOL    HW236717   1.250   0.804   1.980  0.6475  0.7601 -0.5490
 8419SOL     OW36718   0.820   4.358   3.415 -0.0767  0.2491  0.3931
 8419SOL    HW136719   0.757   4.400   3.357  2.4556  1.7680 -1.2413
 8419SOL    HW236720   0.811   4.401   3.500 -2.3838 -1.1026  0.8378
 8420SOL     OW36721   0.987   1.599  12.843 -0.0167 -0.4671  0.2437
 8420SOL    HW136722   0.953   1.517  12.878  1.1960 -0.2996  1.7857
 8420SOL    HW236723   0.916   1.654  12.876 -0.5313 -0.5688 -0.6899
 8421SOL     OW36724   1.608   1.311  11.289 -0.0120 -0.0608 -0.0573
 8421SOL    HW136725   1.663   1.320  11.366 -0.5398 -1.6634  0.4937
 8421SOL    HW236726   1.527   1.346  11.326  0.0097 -0.5065  0.3942
 8422SOL     OW36727   4.118   1.647   2.685  0.2116 -0.3493  0.4320
 8422SOL    HW136728   4.080   1.589   2.750  0.8367 -0.6062  0.5691
 8422SOL    HW236729   4.194   1.593   2.665  0.4126  1.7884 -4.5920
 8423SOL     OW36730   3.155   1.475  12.711  0.2482  0.2454 -0.4499
 8423SOL    HW136731   3.238   1.433  12.731  0.6261  0.7918 -0.8781
 8423SOL    HW236732   3.170   1.518  12.627  1.5721  2.4471  0.9165
 8424SOL     OW36733   4.574   2.370  14.681  0.3978 -0.0301  0.0663
 8424SOL    HW136734   4.540   2.308  14.617  1.2282 -0.4768  0.0588
 8424SOL    HW236735   4.499   2.427  14.695  1.6835  1.6512  0.1259
 8425SOL     OW36736   0.686   1.941   3.300  0.0900 -0.1354 -0.2965
 8425SOL    HW136737   0.695   1.855   3.343 -2.0168  0.3029  1.0012
 8425SOL    HW236738   0.699   1.998   3.376 -2.1722  0.5445 -0.4314
 8426SOL     OW36739   4.203   0.237   7.799 -0.5877  0.0548 -0.0675
 8426SOL    HW136740   4.239   0.310   7.749  0.1040 -0.5800 -0.4938
 8426SOL    HW236741   4.146   0.198   7.733 -0.9223 -0.4823  0.5315
 8427SOL     OW36742   0.301   0.397  12.039 -0.5090 -0.1801 -0.1453
 8427SOL    HW136743   0.274   0.468  12.098  0.0137  0.6091 -0.8518
 8427SOL    HW236744   0.281   0.321  12.093 -1.1642  0.4718  0.5155
 8428SOL     OW36745   1.459   0.359   3.463 -0.0711  0.4354  0.3115
 8428SOL    HW136746   1.553   0.362   3.482 -0.3052  2.7787  1.0675
 8428SOL    HW236747   1.457   0.434   3.404  1.0818  0.1577 -0.0836
 8429SOL     OW36748   0.441   0.110   4.984  0.0693 -0.2428  0.7610
 8429SOL    HW136749   0.357   0.155   4.986 -1.0479 -2.3819  1.9522
 8429SOL    HW236750   0.486   0.146   4.908 -0.1377  0.3468  0.9168
 8430SOL     OW36751   1.652   0.902  16.499  0.0388  0.0741  0.3914
 8430SOL    HW136752   1.559   0.885  16.509 -0.3191  1.6286 -0.2636
 8430SOL    HW236753   1.662   0.994  16.526 -0.0900 -0.6205  2.7524
 8431SOL     OW36754   1.541   4.194   7.561  0.8638 -0.3235 -0.4264
 8431SOL    HW136755   1.472   4.191   7.495  0.1560  1.7692  0.2134
 8431SOL    HW236756   1.619   4.169   7.513 -0.1357 -1.6639 -1.3359
 8432SOL     OW36757   1.562   0.958   6.394 -1.0051  0.4454  0.1956
 8432SOL    HW136758   1.535   0.868   6.413  0.3646  0.4507  2.1808
 8432SOL    HW236759   1.635   0.942   6.335  0.9612 -0.3010  2.8365
 8433SOL     OW36760   1.342   3.233   8.524 -0.0537 -0.2333  0.4744
 8433SOL    HW136761   1.247   3.232   8.515  0.1654  0.6976 -1.8225
 8433SOL    HW236762   1.351   3.317   8.480 -4.1091 -1.1034 -1.9544
 8434SOL     OW36763   1.893   3.343  16.651  0.3634  0.5263 -0.7873
 8434SOL    HW136764   1.838   3.275  16.613 -1.3834  2.7565 -2.2198
 8434SOL    HW236765   1.962   3.348  16.585 -0.1290 -0.6179 -1.3747
 8435SOL     OW36766   2.481   1.239   0.544 -0.2299 -0.0554 -0.5690
 8435SOL    HW136767   2.409   1.209   0.600 -0.5385 -0.4659 -1.1847
 8435SOL    HW236768   2.465   1.333   0.558 -1.2335 -0.0680 -1.5597
 8436SOL     OW36769   3.566   2.943   1.523  0.0023  0.4673  0.1654
 8436SOL    HW136770   3.546   2.958   1.616 -0.4362 -0.6092  0.2492
 8436SOL    HW236771   3.658   2.916   1.520 -0.5924 -1.8504  2.3406
 8437SOL     OW36772   4.198   0.820   5.992  0.4656 -0.1479 -0.0709
 8437SOL    HW136773   4.208   0.915   5.983  0.1948 -0.1993 -0.9257
 8437SOL    HW236774   4.125   0.797   5.935 -0.2141  2.6086 -0.3098
 8438SOL     OW36775   3.460   0.218   8.390  0.4560 -0.6939  0.3335
 8438SOL    HW136776   3.381   0.206   8.443 -0.5436  1.8858 -0.5814
 8438SOL    HW236777   3.456   0.134   8.344 -0.5700 -0.1387 -0.5924
 8439SOL     OW36778   1.248   3.191   1.912 -0.1875  0.2257  0.0357
 8439SOL    HW136779   1.252   3.257   1.982  1.3284  0.7322 -0.5319
 8439SOL    HW236780   1.285   3.117   1.960 -1.7132  0.0240  0.8798
 8440SOL     OW36781   0.006   3.861  13.096  0.4785  0.2892  0.3656
 8440SOL    HW136782   0.009   3.875  13.191 -0.7778 -1.0368  0.5983
 8440SOL    HW236783   4.641   3.883  13.068  1.2166  0.3460 -1.8917
 8441SOL     OW36784   0.102   1.802   8.755 -0.2650  0.1177  0.1700
 8441SOL    HW136785   0.053   1.776   8.833 -1.7937 -1.0794 -1.1911
 8441SOL    HW236786   0.193   1.786   8.778  0.0705 -0.3956 -1.5340
 8442SOL     OW36787   2.016   3.817   4.966  0.2758  0.0349  0.0017
 8442SOL    HW136788   1.969   3.895   4.937  0.3615  0.1713  0.2232
 8442SOL    HW236789   1.988   3.819   5.057 -0.8933 -2.7105 -0.3127
 8443SOL     OW36790   1.173   3.155   4.198  0.0472 -0.3399  0.4215
 8443SOL    HW136791   1.113   3.091   4.160  0.6031 -0.7610  0.2470
 8443SOL    HW236792   1.172   3.128   4.290 -1.1677 -0.6986  0.3055
 8444SOL     OW36793   4.377   0.923  15.387  0.3537 -0.0218 -0.2254
 8444SOL    HW136794   4.438   0.915  15.460 -0.2843  0.3395  0.3382
 8444SOL    HW236795   4.428   0.976  15.325  2.5147  0.7489  2.2151
 8445SOL     OW36796   1.230   2.443   5.363  0.6806 -0.5647  0.0427
 8445SOL    HW136797   1.224   2.537   5.385 -2.9243 -0.7697 -0.0482
 8445SOL    HW236798   1.161   2.432   5.298 -1.1216  0.4278  1.7672
 8446SOL     OW36799   3.136   2.019   4.541  0.3315 -0.8609 -0.2085
 8446SOL    HW136800   3.230   2.035   4.546  0.1155 -0.2827  2.2129
 8446SOL    HW236801   3.140   1.958   4.615  0.6066  0.8936  1.2368
 8447SOL     OW36802   4.711   3.670   6.530 -0.7698 -0.8460 -0.4211
 8447SOL    HW136803   4.646   3.602   6.513 -0.9011 -1.5664  2.8853
 8447SOL    HW236804   0.055   3.616   6.569 -1.9520 -1.5242  0.6874
 8448SOL     OW36805   4.409   4.225   7.169  0.0761  0.0511  0.6519
 8448SOL    HW136806   4.327   4.260   7.133  0.2967  1.2980  1.3907
 8448SOL    HW236807   4.405   4.255   7.259 -1.0259  1.0320  0.2767
 8449SOL     OW36808   4.099   0.280  17.034  0.0451  0.0689 -0.6910
 8449SOL    HW136809   4.180   0.230  17.047 -0.0027  0.0386 -0.4980
 8449SOL    HW236810   4.060   0.236  16.959  0.1315 -0.6493 -0.3205
 8450SOL     OW36811   0.995   1.500   6.824  0.4196 -0.2555 -0.0358
 8450SOL    HW136812   0.938   1.500   6.747  0.5898 -1.8145 -0.1613
 8450SOL    HW236813   0.951   1.560   6.884 -1.5234 -0.8263 -0.8755
 8451SOL     OW36814   2.543   2.652  16.939 -0.3666 -0.3166  0.1814
 8451SOL    HW136815   2.603   2.695  16.878  0.0974  1.0307  1.5971
 8451SOL    HW236816   2.568   2.559  16.942  3.0783  0.5984  0.1362
 8452SOL     OW36817   2.579   1.343   3.846 -0.4055  0.0843  0.2458
 8452SOL    HW136818   2.651   1.385   3.801 -1.8895  0.6721 -1.5978
 8452SOL    HW236819   2.534   1.309   3.769 -0.4627 -3.4438  1.8467
 8453SOL     OW36820   2.873   4.080  15.509 -0.1081  0.1907 -0.3057
 8453SOL    HW136821   2.850   4.097  15.417  1.8459  0.4411 -0.7503
 8453SOL    HW236822   2.932   4.005  15.510 -2.8680 -1.9242  0.8550
 8454SOL     OW36823   4.089   3.265   4.384 -0.1769  0.1188 -0.0261
 8454SOL    HW136824   4.038   3.193   4.420  3.3511 -1.1799  2.3658
 8454SOL    HW236825   4.110   3.236   4.295 -0.8153 -2.2478  0.6167
 8455SOL     OW36826   0.683   1.178   6.953  0.6901  0.0465  0.1969
 8455SOL    HW136827   0.647   1.236   7.020  0.4260  1.2961 -1.0211
 8455SOL    HW236828   0.748   1.140   7.012  1.8493 -1.0339 -1.7511
 8456SOL     OW36829   0.452   2.737   2.885 -0.3296  0.2607  0.0352
 8456SOL    HW136830   0.524   2.718   2.945  0.3012  0.7832 -0.5498
 8456SOL    HW236831   0.399   2.659   2.902  1.1648 -0.8959 -0.6446
 8457SOL     OW36832   1.388   1.351   6.428 -0.4341  0.2407 -0.4807
 8457SOL    HW136833   1.421   1.424   6.480  0.4376 -1.5816  1.5047
 8457SOL    HW236834   1.419   1.273   6.474  1.7913  1.1069 -0.5401
 8458SOL     OW36835   1.368   2.558  15.191  0.2814 -0.1335  0.1846
 8458SOL    HW136836   1.461   2.549  15.168  0.1959 -0.7937  0.1044
 8458SOL    HW236837   1.350   2.652  15.185 -2.3156 -0.6635 -0.3046
 8459SOL     OW36838   3.705   4.526   5.960  0.1786  0.3261  0.1055
 8459SOL    HW136839   3.657   4.509   6.041 -1.5542  0.5305 -0.8909
 8459SOL    HW236840   3.672   4.465   5.894 -0.2688  2.2309 -1.4549
 8460SOL     OW36841   1.602   0.968  16.798  0.4161 -0.1976  0.3438
 8460SOL    HW136842   1.642   1.018  16.726  0.5722 -1.4449 -0.4434
 8460SOL    HW236843   1.672   0.904  16.809  0.0819 -0.7082 -0.4371
 8461SOL     OW36844   1.103   3.816   6.484  0.1965 -0.1156  0.4981
 8461SOL    HW136845   1.025   3.851   6.442  0.4309  1.1667  1.1303
 8461SOL    HW236846   1.153   3.784   6.409  0.8022  0.6551  0.5745
 8462SOL     OW36847   3.138   3.203   3.801  0.1702 -0.0755 -0.0714
 8462SOL    HW136848   3.165   3.146   3.729 -0.5148 -0.0232 -0.3702
 8462SOL    HW236849   3.044   3.206   3.782  0.3441  0.8146 -0.8096
 8463SOL     OW36850   4.543   1.419   3.225  0.3916  0.3925 -0.2903
 8463SOL    HW136851   4.503   1.471   3.155 -0.9918  0.0531  0.2589
 8463SOL    HW236852   4.598   1.361   3.172 -0.4092 -1.2770  0.7249
 8464SOL     OW36853   4.678   0.465  15.625 -0.4551  0.2797 -0.0451
 8464SOL    HW136854   4.722   0.508  15.552 -0.0682  4.1895  2.4500
 8464SOL    HW236855   4.592   0.508  15.623 -0.3374  0.5661  0.8938
 8465SOL     OW36856   3.213   4.166  17.478 -0.0147 -0.6744  0.1007
 8465SOL    HW136857   3.296   4.119  17.471 -2.1599 -4.5779  1.2896
 8465SOL    HW236858   3.210   4.213  17.394 -0.1844 -0.3598  0.2839
 8466SOL     OW36859   4.257   4.712   6.874  0.3704 -0.7966  0.2588
 8466SOL    HW136860   4.221   4.659   6.803  0.7095 -0.2932 -0.2788
 8466SOL    HW236861   4.267   0.072   6.829 -0.5812 -0.6389  0.3325
 8467SOL     OW36862   4.614   3.284   7.543  0.1833  0.7456 -0.3192
 8467SOL    HW136863   4.551   3.262   7.474  0.6250  0.3465 -0.5931
 8467SOL    HW236864   4.632   3.372   7.508 -0.6978  1.1025  0.1484
 8468SOL     OW36865   3.989   4.556   1.939  0.0364 -0.3726 -0.5192
 8468SOL    HW136866   3.958   4.468   1.962 -0.0485  0.3285  2.0820
 8468SOL    HW236867   4.037   4.539   1.858  0.9926 -0.8182  0.1410
 8469SOL     OW36868   0.134   4.367   3.521  0.0395  0.2489  0.4549
 8469SOL    HW136869   0.057   4.382   3.466 -0.6385  1.6165  1.7723
 8469SOL    HW236870   0.143   4.272   3.512 -3.1867  0.0918 -1.2525
 8470SOL     OW36871   0.394   1.605   6.363 -0.2830 -0.3958 -0.5410
 8470SOL    HW136872   0.413   1.585   6.272 -1.3310  0.1968 -0.8858
 8470SOL    HW236873   0.299   1.597   6.375 -0.3268  1.4767  0.3818
 8471SOL     OW36874   2.554   0.625   3.533 -0.1819 -0.0403 -0.1770
 8471SOL    HW136875   2.500   0.637   3.455 -0.5230 -2.4539 -0.2940
 8471SOL    HW236876   2.483   0.623   3.597  1.6084 -2.4578  1.7133
 8472SOL     OW36877   0.447   3.544   1.136 -0.2223 -0.3540 -0.0420
 8472SOL    HW136878   0.514   3.500   1.084 -0.1865 -0.1570 -0.1631
 8472SOL    HW236879   0.417   3.607   1.070 -1.1114 -0.9665 -0.2287
 8473SOL     OW36880   1.973   0.418  13.809  0.1754  0.1905 -0.6006
 8473SOL    HW136881   1.882   0.441  13.828 -0.4009 -2.0413 -0.6578
 8473SOL    HW236882   1.975   0.415  13.713 -1.6320 -0.0465 -0.6312
 8474SOL     OW36883   3.818   3.741   3.723 -0.3419  0.0727  0.6352
 8474SOL    HW136884   3.876   3.664   3.723 -0.4613 -0.0148  0.0746
 8474SOL    HW236885   3.739   3.718   3.772 -1.5916 -0.7658 -1.8179
 8475SOL     OW36886   2.132   2.530   7.535  0.5205  0.2501 -0.1467
 8475SOL    HW136887   2.146   2.593   7.605 -2.3474  1.1732 -0.4117
 8475SOL    HW236888   2.167   2.593   7.472  0.3073 -2.2414 -2.8042
 8476SOL     OW36889   4.523   1.376   5.560 -0.0838  0.1034 -0.1251
 8476SOL    HW136890   4.582   1.318   5.511 -0.3866 -1.2558  1.1526
 8476SOL    HW236891   4.435   1.338   5.556 -0.0912  0.2378 -1.3387
 8477SOL     OW36892   2.817   2.185  17.449 -0.5977  0.3425 -0.3909
 8477SOL    HW136893   2.723   2.172  17.464 -0.3640  0.3872  1.1412
 8477SOL    HW236894   2.854   2.104  17.484 -1.3834  0.4961  0.8184
 8478SOL     OW36895   1.853   2.195  14.042  0.2465  0.2521  0.2687
 8478SOL    HW136896   1.945   2.222  14.041  0.6661 -1.2774 -3.0803
 8478SOL    HW236897   1.816   2.267  13.990  1.0359  0.1420 -0.4362
 8479SOL     OW36898   3.967   0.884   3.325  0.2529  0.2492 -0.5898
 8479SOL    HW136899   4.019   0.844   3.256 -0.8799 -1.4992 -0.4408
 8479SOL    HW236900   4.022   0.864   3.401 -1.0382 -0.1927  0.2269
 8480SOL     OW36901   4.137   0.854   4.012  0.0927 -0.0212 -0.3606
 8480SOL    HW136902   4.097   0.891   3.934 -1.7298 -0.5362  0.3327
 8480SOL    HW236903   4.215   0.811   3.975 -0.4170  0.8963 -2.4634
 8481SOL     OW36904   3.900   1.012   7.307  0.4835 -0.1493 -0.6032
 8481SOL    HW136905   3.923   0.920   7.297  0.8680 -0.2856  1.4852
 8481SOL    HW236906   3.812   1.012   7.345  0.3555 -1.6131 -0.9155
 8482SOL     OW36907   4.520   2.059   7.707  0.1827  0.1734 -0.1027
 8482SOL    HW136908   4.456   2.122   7.740 -0.7631 -0.0116 -1.5828
 8482SOL    HW236909   4.467   2.016   7.641  2.0146 -1.3898 -0.5364
 8483SOL     OW36910   3.492   4.491   0.934  0.0361 -0.5416  0.1562
 8483SOL    HW136911   3.578   4.504   0.895  0.1072  0.0733  0.5076
 8483SOL    HW236912   3.446   4.555   0.880 -0.1199  0.6615  1.7040
 8484SOL     OW36913   2.834   3.582  11.470  0.3183 -0.5351  0.2174
 8484SOL    HW136914   2.760   3.642  11.472  0.3219 -0.6188  2.0901
 8484SOL    HW236915   2.838   3.557  11.377 -1.4782 -2.8230  0.7779
 8485SOL     OW36916   1.383   1.660   4.513  0.1649  0.1874 -0.1485
 8485SOL    HW136917   1.370   1.725   4.444 -4.2190  0.4963  0.9592
 8485SOL    HW236918   1.473   1.682   4.539  0.6398 -1.5088 -0.4053
 8486SOL     OW36919   4.631   3.065   6.717  0.1682 -0.2363  0.2308
 8486SOL    HW136920   4.566   3.135   6.722 -0.5250 -1.0026  1.8274
 8486SOL    HW236921   4.580   2.996   6.758 -0.3255 -0.3482 -0.5761
 8487SOL     OW36922   1.688   1.021   3.096  0.3052 -0.6021  0.4194
 8487SOL    HW136923   1.705   0.986   3.008 -1.2161  1.6186 -0.7446
 8487SOL    HW236924   1.615   1.081   3.082  0.7378  0.4318  2.5737
 8488SOL     OW36925   3.386   1.517  17.632 -0.0102 -0.2290 -0.6117
 8488SOL    HW136926   3.310   1.480  17.678 -0.7289  0.9759 -0.8305
 8488SOL    HW236927   3.457   1.454  17.641 -0.3645 -0.2065  2.1834
 8489SOL     OW36928   4.551   1.624   3.662  0.6955 -0.3832  0.2086
 8489SOL    HW136929   4.472   1.614   3.608 -0.7221  1.1189  2.0056
 8489SOL    HW236930   4.575   1.532   3.671 -1.4464 -0.8912  0.6347
 8490SOL     OW36931   2.638   0.305   7.593  0.5607  0.3228 -0.1132
 8490SOL    HW136932   2.707   0.366   7.566  2.1704 -2.2837 -1.9561
 8490SOL    HW236933   2.685   0.250   7.656  1.5649  1.1421 -0.1544
 8491SOL     OW36934   2.116   2.573   3.139  0.2830  0.0800  0.0947
 8491SOL    HW136935   2.074   2.560   3.224 -0.2067  2.2498  0.1696
 8491SOL    HW236936   2.117   2.480   3.114  0.8149  0.3143 -0.7595
 8492SOL     OW36937   0.933   4.153   8.628  0.0517  0.3057  0.2119
 8492SOL    HW136938   0.999   4.165   8.559  0.4143 -1.6630  0.1878
 8492SOL    HW236939   0.951   4.223   8.690  2.4797  1.8399 -2.2286
 8493SOL     OW36940   4.179   2.349  14.808  0.2188  0.1992  0.1267
 8493SOL    HW136941   4.230   2.402  14.747 -1.9535 -0.2049 -2.0280
 8493SOL    HW236942   4.248   2.331  14.872  0.3995  0.1229 -0.0904
 8494SOL     OW36943   3.778   3.567   1.176 -0.2326 -0.2827 -0.2522
 8494SOL    HW136944   3.822   3.617   1.107 -2.3695  0.2927 -1.2060
 8494SOL    HW236945   3.855   3.526   1.216  0.0160  1.5111  1.0627
 8495SOL     OW36946   0.308   4.256  16.283  0.1604 -0.1499 -0.1608
 8495SOL    HW136947   0.375   4.290  16.342 -1.9763  2.7367  0.6110
 8495SOL    HW236948   0.333   4.298  16.201  1.0291  0.1983  0.2885
 8496SOL     OW36949   0.177   1.196   3.441 -0.1608 -0.6927  0.7894
 8496SOL    HW136950   0.132   1.278   3.458  0.6963 -0.0025 -0.2134
 8496SOL    HW236951   0.265   1.223   3.467  0.3440  0.4455 -2.1364
 8497SOL     OW36952   4.134   2.287  13.875 -0.0555 -0.0037  0.0010
 8497SOL    HW136953   4.071   2.307  13.806  0.2982  1.5543  0.1425
 8497SOL    HW236954   4.076   2.296  13.950  1.2191 -2.4629  1.2710
 8498SOL     OW36955   0.057   0.232   7.403 -0.3341  0.4169 -0.0107
 8498SOL    HW136956   0.106   0.163   7.447  1.8120 -0.1550 -3.2711
 8498SOL    HW236957   0.021   0.173   7.336  0.2101 -0.1407  0.1916
 8499SOL     OW36958   1.335   2.917   8.441  0.4401 -0.0607 -0.2308
 8499SOL    HW136959   1.420   2.915   8.485  1.0635  0.1550 -1.4423
 8499SOL    HW236960   1.284   2.978   8.495  1.2643 -0.3450  0.8764
 8500SOL     OW36961   1.862   2.235   6.056  0.3170 -0.2317 -0.0629
 8500SOL    HW136962   1.957   2.242   6.047  0.0903 -0.1134 -2.2182
 8500SOL    HW236963   1.845   2.291   6.132 -0.2515 -1.7441  0.9179
 8501SOL     OW36964   2.520   3.225   9.090 -0.7397 -0.0892 -0.1999
 8501SOL    HW136965   2.517   3.137   9.130  3.0551  0.3726  1.0811
 8501SOL    HW236966   2.591   3.219   9.027  0.3928  0.7677  0.9999
 8502SOL     OW36967   2.045   2.085   0.937  0.9511  0.0089  0.4647
 8502SOL    HW136968   2.097   2.068   1.015  0.6292  0.6618  0.8228
 8502SOL    HW236969   2.012   2.164   0.979  1.0611  0.8366 -1.0112
 8503SOL     OW36970   2.526   1.123   5.848 -0.3921 -0.3249  0.0293
 8503SOL    HW136971   2.620   1.109   5.859 -0.4614 -2.4538 -2.0473
 8503SOL    HW236972   2.519   1.057   5.779 -2.2238 -0.5928  0.4882
 8504SOL     OW36973   0.577   2.860   5.779  0.3197 -0.8049  0.0975
 8504SOL    HW136974   0.543   2.788   5.727  1.0764 -0.8141 -0.3928
 8504SOL    HW236975   0.629   2.823   5.850 -0.3164 -0.3581  0.8007
 8505SOL     OW36976   2.714   2.168   2.917 -0.4001  0.4605  0.0168
 8505SOL    HW136977   2.750   2.084   2.948 -2.2644  1.0742  3.7535
 8505SOL    HW236978   2.755   2.164   2.830  1.1006 -0.0506  0.7428
 8506SOL     OW36979   1.916   2.195   4.475  0.0588  0.4694 -0.0073
 8506SOL    HW136980   1.825   2.195   4.507 -0.3776 -0.4925 -1.2877
 8506SOL    HW236981   1.965   2.186   4.557  0.1105 -0.2014 -0.1140
 8507SOL     OW36982   1.178   1.436   5.005 -0.3375  0.4353  0.9565
 8507SOL    HW136983   1.115   1.459   5.074  0.7347 -1.4083  2.5521
 8507SOL    HW236984   1.193   1.519   4.958 -2.1654 -1.8207 -3.5634
 8508SOL     OW36985   4.231   0.466  16.310  0.3011  0.0027 -0.4323
 8508SOL    HW136986   4.163   0.404  16.335  0.4330  1.2746  3.2180
 8508SOL    HW236987   4.311   0.425  16.344 -0.3283 -2.6473 -2.1811
 8509SOL     OW36988   1.666   4.172   6.504 -0.4748 -0.2195  1.1506
 8509SOL    HW136989   1.702   4.130   6.582 -2.6995 -2.3791  0.9957
 8509SOL    HW236990   1.582   4.129   6.494 -1.4437  1.7691  0.6761
 8510SOL     OW36991   4.515   3.035   6.139 -0.2291  0.4568 -0.2570
 8510SOL    HW136992   4.436   3.017   6.088 -1.4752  1.7289  1.2116
 8510SOL    HW236993   4.483   3.047   6.228 -1.0259  0.7314 -0.5777
 8511SOL     OW36994   3.208   2.585   4.464  0.3249 -0.3700 -0.3115
 8511SOL    HW136995   3.181   2.495   4.445  2.7443 -0.5503 -2.9600
 8511SOL    HW236996   3.175   2.630   4.386 -3.6048 -1.4548  0.7296
 8512SOL     OW36997   3.782   4.206  11.858 -0.2596 -0.0433 -0.2627
 8512SOL    HW136998   3.735   4.205  11.775 -2.5811 -2.2278  1.0720
 8512SOL    HW236999   3.794   4.301  11.866 -0.9446  0.2697 -3.1145
 8513SOL     OW37000   2.255   0.423   7.639  0.9200 -0.2598 -0.2524
 8513SOL    HW137001   2.214   0.478   7.705 -0.8936 -1.1322 -0.6709
 8513SOL    HW237002   2.276   0.349   7.696  0.1384 -0.2161  0.0779
 8514SOL     OW37003   3.615   4.367  11.072 -0.0991  0.1563  0.3923
 8514SOL    HW137004   3.537   4.411  11.037  1.7252  1.8160 -1.5826
 8514SOL    HW237005   3.684   4.433  11.079  0.4809 -0.5414  1.2867
 8515SOL     OW37006   2.419   4.273   8.589 -0.5355 -0.1823  0.1061
 8515SOL    HW137007   2.391   4.199   8.644  1.1088 -2.1777 -1.7195
 8515SOL    HW237008   2.388   4.340   8.649  1.9995  0.6201  0.5211
 8516SOL     OW37009   0.315   4.408   1.667  0.0969  0.2500 -0.0812
 8516SOL    HW137010   0.312   4.420   1.762  3.0185  0.2776  0.0027
 8516SOL    HW237011   0.223   4.422   1.645 -0.7391 -1.3041  2.3993
 8517SOL     OW37012   4.606   1.864   8.201  0.1519  0.1891 -0.5973
 8517SOL    HW137013   4.542   1.898   8.139 -1.5441  0.3505  1.2349
 8517SOL    HW237014   4.668   1.832   8.135 -0.6831  1.7045 -2.1278
 8518SOL     OW37015   2.088   1.170   3.404 -0.0022 -0.0995  0.2597
 8518SOL    HW137016   2.034   1.108   3.452 -1.6805  0.6317 -0.6884
 8518SOL    HW237017   2.100   1.128   3.319  0.9646 -1.4009  1.0452
 8519SOL     OW37018   3.269   4.531   6.916 -0.1800  0.1643  0.4703
 8519SOL    HW137019   3.289   4.459   6.857  0.2252 -0.4154  1.3165
 8519SOL    HW237020   3.306   4.603   6.864 -0.6845 -0.4101 -0.6806
 8520SOL     OW37021   1.781   0.792   4.105 -0.1849  0.0866  0.1623
 8520SOL    HW137022   1.847   0.730   4.137 -1.4674 -0.6903  1.3195
 8520SOL    HW237023   1.769   0.754   4.018  1.3343  2.6631 -1.1855
 8521SOL     OW37024   2.712   1.200   7.794 -0.0881 -0.2740  0.0655
 8521SOL    HW137025   2.623   1.234   7.789  0.0539  0.6706  4.1589
 8521SOL    HW237026   2.764   1.279   7.812 -0.3468  0.4058 -2.1725
 8522SOL     OW37027   3.057   0.649   4.480  0.1356  0.1217 -0.3832
 8522SOL    HW137028   3.142   0.679   4.448  1.0165 -2.0484 -0.0644
 8522SOL    HW237029   3.054   0.554   4.471 -0.7841  0.2567 -1.5740
 8523SOL     OW37030   1.688   4.095   5.716  0.3155  0.3107 -0.4262
 8523SOL    HW137031   1.745   4.037   5.766 -1.3341 -0.6478  0.3298
 8523SOL    HW237032   1.615   4.033   5.714  0.0146  0.6312  0.3926
 8524SOL     OW37033   2.510   0.323   5.925  0.2639 -0.1305 -0.0123
 8524SOL    HW137034   2.518   0.241   5.877  2.8973 -0.8306  1.6168
 8524SOL    HW237035   2.483   0.384   5.856  0.6600 -3.3981 -3.0784
 8525SOL     OW37036   3.982   4.541   3.282  0.6517 -0.2429 -0.7637
 8525SOL    HW137037   3.940   4.562   3.366 -0.7068 -2.8085 -0.7963
 8525SOL    HW237038   3.926   4.472   3.247 -0.3002  0.1567 -0.0305
 8526SOL     OW37039   3.018   2.526  13.295  0.3299 -0.2735  0.2356
 8526SOL    HW137040   3.026   2.455  13.231  0.7206  0.1157 -0.1493
 8526SOL    HW237041   3.061   2.488  13.371  1.1981  1.3789  0.5685
 8527SOL     OW37042   0.099   0.208   3.505 -0.5592 -0.7266  0.2521
 8527SOL    HW137043   0.061   0.176   3.587  1.4762  0.0206  1.4914
 8527SOL    HW237044   0.102   0.121   3.464  1.8556 -1.1333  1.2489
 8528SOL     OW37045   3.546   1.426   7.422  0.0681 -0.0174 -0.4099
 8528SOL    HW137046   3.459   1.448   7.456  0.2208 -0.0037 -0.0343
 8528SOL    HW237047   3.583   1.511   7.398 -0.2273 -0.1010 -1.1519
 8529SOL     OW37048   2.511   2.198   4.554  0.2081  0.0492 -0.1413
 8529SOL    HW137049   2.545   2.159   4.634  0.0153 -0.9473 -0.5506
 8529SOL    HW237050   2.570   2.165   4.487  1.3334  1.3908  0.2008
 8530SOL     OW37051   3.244   2.723   6.575  0.0266  0.6420  0.3648
 8530SOL    HW137052   3.175   2.661   6.556  0.7284  0.3280 -1.1836
 8530SOL    HW237053   3.196   2.806   6.572 -0.3562  0.3411 -1.8639
 8531SOL     OW37054   2.514   3.649   6.913  0.5074 -0.2644  0.0198
 8531SOL    HW137055   2.555   3.620   6.994 -2.6784  0.3377  1.8378
 8531SOL    HW237056   2.505   3.744   6.923  0.8855 -0.0836 -1.3506
 8532SOL     OW37057   3.753   4.537   7.264  0.1537 -0.5334  0.1649
 8532SOL    HW137058   3.722   4.574   7.181  0.3038  0.6590  0.6436
 8532SOL    HW237059   3.848   4.531   7.257  0.2881  0.0658  1.5493
 8533SOL     OW37060   1.490   3.749  16.462 -0.3792  0.0733  0.1118
 8533SOL    HW137061   1.492   3.842  16.484 -1.9466  0.0128  0.5092
 8533SOL    HW237062   1.577   3.717  16.484 -0.0630  0.7266 -0.1712
 8534SOL     OW37063   0.952   3.381  15.157 -0.2655 -0.0581  0.1328
 8534SOL    HW137064   0.859   3.368  15.175 -1.0416  2.1607 -2.4035
 8534SOL    HW237065   0.990   3.370  15.244  3.1863 -0.7307 -1.4660
 8535SOL     OW37066   1.352   1.385  10.457 -0.2781 -0.4637  0.1921
 8535SOL    HW137067   1.425   1.379  10.396 -1.3057 -1.1774 -0.9607
 8535SOL    HW237068   1.381   1.345  10.539 -1.4827 -0.0257  0.8348
 8536SOL     OW37069   1.997   2.461  15.907 -0.0763  0.2887  0.0142
 8536SOL    HW137070   2.026   2.419  15.827  0.4966 -0.7549  0.7708
 8536SOL    HW237071   1.907   2.486  15.882  0.6749  2.4955 -0.5304
 8537SOL     OW37072   3.772   0.227   5.153 -0.0999 -0.1585  0.0923
 8537SOL    HW137073   3.753   0.157   5.216 -0.8992  0.9196  1.0343
 8537SOL    HW237074   3.863   0.257   5.163 -0.5979  0.7980  1.6378
 8538SOL     OW37075   4.568   3.977   6.219  0.2039 -0.4651  0.1939
 8538SOL    HW137076   4.597   3.888   6.197  0.7130  0.0170 -1.0770
 8538SOL    HW237077   4.511   3.965   6.295 -1.7214 -0.2424 -1.2205
 8539SOL     OW37078   2.000   2.359  10.137  0.1460  0.7668 -0.2638
 8539SOL    HW137079   1.939   2.422  10.098 -1.4189 -0.7141 -0.2199
 8539SOL    HW237080   1.949   2.282  10.111  3.1586 -1.4213  0.3903
 8540SOL     OW37081   3.854   2.329   2.907 -0.2528 -0.5055 -0.3497
 8540SOL    HW137082   3.785   2.359   2.847 -0.1354  2.9587  1.2352
 8540SOL    HW237083   3.931   2.345   2.853  1.7013  1.0099  2.8714
 8541SOL     OW37084   2.957   1.986  13.965  0.9138  0.2138  0.5909
 8541SOL    HW137085   3.021   1.963  14.032  0.2624  0.6607  1.3694
 8541SOL    HW237086   3.002   1.960  13.885  0.8060  1.0309  0.2653
 8542SOL     OW37087   4.063   0.926   1.727  0.0515 -0.0196 -0.2577
 8542SOL    HW137088   4.145   0.883   1.703 -0.5810 -1.2293 -0.2322
 8542SOL    HW237089   4.078   0.989   1.799 -3.6813  0.8208 -0.2352
 8543SOL     OW37090   2.727   3.469   9.432  0.5279  0.3072  0.1638
 8543SOL    HW137091   2.738   3.551   9.385 -2.2313  0.3612 -0.4188
 8543SOL    HW237092   2.653   3.428   9.386  1.1420 -0.0954 -0.4607
 8544SOL     OW37093   0.228   3.660   0.644  0.1008  0.2965 -0.4953
 8544SOL    HW137094   0.188   3.657   0.558  2.6871 -3.6618 -1.5590
 8544SOL    HW237095   0.164   3.602   0.685 -0.5222 -0.5907 -2.7609
 8545SOL     OW37096   4.550   1.125   6.079  0.2682  0.0348  0.5988
 8545SOL    HW137097   4.467   1.169   6.062 -0.9805 -2.3016  0.6402
 8545SOL    HW237098   4.550   1.076   5.997 -1.3411 -1.5217  1.5368
 8546SOL     OW37099   2.118   4.356   3.562 -0.0414 -0.6185 -0.5952
 8546SOL    HW137100   2.199   4.349   3.511 -0.6007  1.0358 -1.7349
 8546SOL    HW237101   2.137   4.427   3.623 -1.2322 -0.9592  0.1825
 8547SOL     OW37102   2.094   2.055   8.728 -0.2468  0.5983  0.7353
 8547SOL    HW137103   1.999   2.046   8.728 -0.2246  0.2772 -0.3801
 8547SOL    HW237104   2.119   1.969   8.760  1.9046  0.3485 -1.5417
 8548SOL     OW37105   1.314   2.905   5.646  0.3826 -0.3859  0.2459
 8548SOL    HW137106   1.382   2.870   5.703  1.1045  1.2498  0.3863
 8548SOL    HW237107   1.307   2.993   5.682 -0.3517  0.4699 -2.0056
 8549SOL     OW37108   3.252   0.269   2.183 -0.3133  0.8382  0.1329
 8549SOL    HW137109   3.274   0.306   2.269 -1.1500 -0.4583  0.9086
 8549SOL    HW237110   3.180   0.325   2.154 -0.9526 -0.0686 -0.0222
 8550SOL     OW37111   4.005   1.441  17.497 -0.2005 -0.4785 -0.0280
 8550SOL    HW137112   3.993   1.358  17.451 -0.4053 -0.7041  0.4366
 8550SOL    HW237113   3.921   1.479  17.471  0.1893  0.9957  0.8220
 8551SOL     OW37114   4.651   1.798   9.633 -0.3061  0.5506 -0.9799
 8551SOL    HW137115   4.631   1.705   9.640  2.4174  0.1563  1.4336
 8551SOL    HW237116   4.682   1.817   9.721  1.2428  1.3169 -1.6688
 8552SOL     OW37117   1.414   3.719   5.830  0.0489  0.0222  0.1924
 8552SOL    HW137118   1.459   3.643   5.866  0.2597  0.9407  1.8396
 8552SOL    HW237119   1.329   3.683   5.805 -0.3626  1.8458 -1.0399
 8553SOL     OW37120   4.528   3.868   0.932 -0.3267 -0.6284  0.2209
 8553SOL    HW137121   4.533   3.773   0.944  1.2513 -0.5881 -0.1199
 8553SOL    HW237122   4.617   3.901   0.947 -0.2453 -1.1040  0.8189
 8554SOL     OW37123   2.770   3.329   0.097  0.5087  0.3111 -0.3205
 8554SOL    HW137124   2.830   3.295   0.163  1.0179  1.9514  0.0473
 8554SOL    HW237125   2.739   3.243   0.067  0.7283  0.1254 -0.0071
 8555SOL     OW37126   4.695   1.135   3.879 -0.4420 -0.1444  0.0918
 8555SOL    HW137127   4.609   1.157   3.843 -0.1583  1.0298  0.1189
 8555SOL    HW237128   4.704   1.200   3.949 -3.1861 -0.0786  0.3561
 8556SOL     OW37129   4.483   0.822   8.015 -0.3753  0.2930  0.1764
 8556SOL    HW137130   4.533   0.772   8.080  0.1313  0.4220 -0.1125
 8556SOL    HW237131   4.410   0.862   8.063 -0.0077  0.3745  0.6743
 8557SOL     OW37132   2.313   2.433   3.595 -0.7521  0.3535 -0.4279
 8557SOL    HW137133   2.344   2.371   3.660  0.8519  0.8806 -0.7013
 8557SOL    HW237134   2.352   2.517   3.618 -1.2931  0.5410 -0.2013
 8558SOL     OW37135   0.652   0.620   5.122  0.3893  0.5352 -0.2264
 8558SOL    HW137136   0.716   0.566   5.078 -2.7703 -2.4984 -1.1237
 8558SOL    HW237137   0.691   0.707   5.111  1.4415  0.2257  1.0607
 8559SOL     OW37138   3.175   1.796   1.802 -0.2095 -0.6943  0.0884
 8559SOL    HW137139   3.085   1.821   1.822 -0.3703 -0.4534 -0.9450
 8559SOL    HW237140   3.169   1.702   1.816 -0.5297 -0.6371  0.3296
 8560SOL     OW37141   3.124   1.798  14.500  0.4110 -0.0912 -0.0001
 8560SOL    HW137142   3.096   1.779  14.590  2.4069 -1.2644  0.3852
 8560SOL    HW237143   3.172   1.716  14.487  1.9556  1.0514 -1.5212
 8561SOL     OW37144   3.060   4.178   5.226 -0.1522  0.1775  0.5620
 8561SOL    HW137145   2.990   4.145   5.170 -0.3669 -1.8528  2.0538
 8561SOL    HW237146   3.133   4.118   5.217 -0.4706 -0.1081 -0.1228
 8562SOL     OW37147   1.695   2.764   4.217  0.0762 -0.1361 -0.1213
 8562SOL    HW137148   1.746   2.693   4.256 -0.4463 -0.4780 -0.0458
 8562SOL    HW237149   1.733   2.842   4.255  0.1767  0.0142 -0.5304
 8563SOL     OW37150   1.852   2.774   3.204  0.2034 -0.1822  0.2505
 8563SOL    HW137151   1.932   2.823   3.188 -1.9571  3.0163 -0.9281
 8563SOL    HW237152   1.787   2.844   3.217  0.4651  0.2528 -0.7619
 8564SOL     OW37153   3.376   3.159  11.524 -0.4706 -0.0560 -0.4344
 8564SOL    HW137154   3.295   3.126  11.485 -0.1860 -1.3960  0.0840
 8564SOL    HW237155   3.362   3.147  11.618  0.2114 -0.8305 -0.4235
 8565SOL     OW37156   3.110   2.814   4.619  0.5093 -0.6445 -0.1551
 8565SOL    HW137157   3.015   2.828   4.620  0.3533 -1.9006  1.3635
 8565SOL    HW237158   3.137   2.827   4.528  1.6090 -1.8166  0.0108
 8566SOL     OW37159   3.167   2.551   7.766  0.5421  0.5893 -0.4848
 8566SOL    HW137160   3.232   2.550   7.695  1.1121  1.8000  0.0173
 8566SOL    HW237161   3.182   2.466   7.807  0.3319  0.3823 -0.8369
 8567SOL     OW37162   3.696   0.829  15.285  0.5025  0.3273 -0.2932
 8567SOL    HW137163   3.734   0.900  15.337  2.1979  0.5930 -1.8934
 8567SOL    HW237164   3.646   0.882  15.223  0.2232  0.5785  0.1464
 8568SOL     OW37165   1.552   2.154   5.101  0.4599  0.3699  0.1157
 8568SOL    HW137166   1.563   2.245   5.129  0.1515  0.7396 -0.9433
 8568SOL    HW237167   1.458   2.144   5.117  0.9165 -0.3672  2.3341
 8569SOL     OW37168   1.403   2.719  13.825 -0.3578 -0.1146  0.1073
 8569SOL    HW137169   1.399   2.642  13.882 -0.6907 -1.5459 -1.8305
 8569SOL    HW237170   1.396   2.795  13.882  2.5373  1.1874 -1.2587
 8570SOL     OW37171   3.970   3.142   5.754 -0.2177 -0.7149 -0.6094
 8570SOL    HW137172   4.059   3.147   5.718  0.7703  1.3362  2.0426
 8570SOL    HW237173   3.982   3.180   5.841  1.3196 -1.2794 -0.5749
 8571SOL     OW37174   4.689   1.287   6.249  0.4757  0.7310  0.2214
 8571SOL    HW137175   4.696   1.351   6.178 -0.3291 -0.7121 -1.1508
 8571SOL    HW237176   4.696   1.204   6.202  0.5027  0.6810  0.3127
 8572SOL     OW37177   3.416   2.459   3.141  0.3749 -0.7859 -0.2492
 8572SOL    HW137178   3.379   2.372   3.154 -2.0362  0.5311  1.6859
 8572SOL    HW237179   3.348   2.494   3.085  0.5880  0.5061  0.2960
 8573SOL     OW37180   0.924   2.558   4.928 -0.2309 -0.1558  0.5447
 8573SOL    HW137181   0.894   2.569   4.837  0.2799 -1.4669  0.2269
 8573SOL    HW237182   0.995   2.622   4.937  0.5238 -0.9038 -0.1325
 8574SOL     OW37183   2.407   4.698  16.398  0.1581 -0.3965 -0.1289
 8574SOL    HW137184   2.473   0.003  16.335 -0.2403 -1.3069 -0.9584
 8574SOL    HW237185   2.443   4.616  16.434 -1.4809 -1.4709 -0.9840
 8575SOL     OW37186   0.846   1.042   1.764 -0.6757  0.1651  0.0264
 8575SOL    HW137187   0.845   0.974   1.831  4.3624  0.0292 -0.0348
 8575SOL    HW237188   0.887   1.001   1.687 -0.3797 -1.0469  0.8372
 8576SOL     OW37189   2.735   3.980   5.393 -0.2213  0.0909 -0.3076
 8576SOL    HW137190   2.759   4.020   5.477 -0.9312  0.4296 -0.2584
 8576SOL    HW237191   2.700   3.895   5.420 -1.2219  0.1196 -1.5358
 8577SOL     OW37192   2.527   0.825  10.457 -0.4742  0.3240  0.6766
 8577SOL    HW137193   2.500   0.853  10.544 -0.7308 -0.8098  0.9540
 8577SOL    HW237194   2.443   0.799  10.419 -0.4551 -0.7344  1.3871
 8578SOL     OW37195   1.302   4.432   5.037  0.4072  0.5422 -0.7679
 8578SOL    HW137196   1.339   4.498   5.095  1.4085 -0.1294 -0.6452
 8578SOL    HW237197   1.295   4.355   5.093 -1.8026  0.7455 -0.7534
 8579SOL     OW37198   0.891   0.958   2.459  0.3452  0.0564 -0.2718
 8579SOL    HW137199   0.869   1.046   2.490  1.3115 -0.4744  1.9909
 8579SOL    HW237200   0.978   0.959   2.499 -0.8578  0.6562  2.3469
 8580SOL     OW37201   0.097   1.435   5.029 -0.4231  0.5281 -1.2443
 8580SOL    HW137202   0.128   1.503   5.089  0.3210 -1.4843  0.6471
 8580SOL    HW237203   0.166   1.371   5.014 -0.8022  0.0455 -0.9434
 8581SOL     OW37204   1.896   4.297  15.755  0.1169  0.1513 -0.3892
 8581SOL    HW137205   1.949   4.287  15.676 -1.5686 -1.3224 -1.3246
 8581SOL    HW237206   1.848   4.378  15.739 -0.3592 -0.3901 -1.6435
 8582SOL     OW37207   3.409   1.385  15.922  0.0137 -0.7088  0.3343
 8582SOL    HW137208   3.442   1.350  16.005  2.8341  0.9241 -0.1155
 8582SOL    HW237209   3.403   1.476  15.951  0.2515 -0.4894 -0.3097
 8583SOL     OW37210   2.756   0.849   1.173 -0.4578 -0.0200  0.7739
 8583SOL    HW137211   2.756   0.891   1.259 -1.5958 -0.5967  1.0559
 8583SOL    HW237212   2.723   0.761   1.190  0.9758 -0.4759  1.1827
 8584SOL     OW37213   0.829   3.751  12.440 -0.4311  0.0291  0.2908
 8584SOL    HW137214   0.750   3.730  12.489 -1.3190  0.5052 -0.9402
 8584SOL    HW237215   0.894   3.689  12.474  0.4293  1.0050  0.4023
 8585SOL     OW37216   3.516   2.939   4.907 -0.3468  0.9266  0.3833
 8585SOL    HW137217   3.437   2.893   4.937 -1.4329  2.5098  0.0043
 8585SOL    HW237218   3.496   2.945   4.813  0.5985  0.5786  0.1646
 8586SOL     OW37219   4.523   1.832  11.175  0.3595  0.0529  0.5045
 8586SOL    HW137220   4.447   1.874  11.133  1.4414 -1.0868 -2.6195
 8586SOL    HW237221   4.557   1.899  11.234 -1.8397  0.8562  0.8901
 8587SOL     OW37222   2.521   4.433   8.959  1.0872  0.4627  0.0426
 8587SOL    HW137223   2.601   4.471   8.922  2.1621 -1.8416  0.0398
 8587SOL    HW237224   2.485   4.377   8.891  0.1476  1.7236 -0.5053
 8588SOL     OW37225   2.420   0.133   3.829 -0.2384  0.2655 -0.0325
 8588SOL    HW137226   2.506   0.105   3.859 -0.6028 -0.0435  0.7276
 8588SOL    HW237227   2.438   0.211   3.777  1.5050  0.3243  0.6712
 8589SOL     OW37228   2.529   0.329  17.630  0.3384  0.2663  0.0946
 8589SOL    HW137229   2.451   0.295  17.674 -0.0539  0.4225 -0.4924
 8589SOL    HW237230   2.502   0.394  17.566 -3.5812 -1.9703 -0.5128
 8590SOL     OW37231   0.490   3.196   2.849 -0.3824  0.0109  0.3539
 8590SOL    HW137232   0.466   3.279   2.808 -0.8007  0.1364  0.8484
 8590SOL    HW237233   0.415   3.139   2.830 -1.2694  0.4276  2.6060
 8591SOL     OW37234   1.627   2.527  15.131  0.0613 -0.4774  0.0157
 8591SOL    HW137235   1.638   2.518  15.037 -0.4124 -1.6520  0.0626
 8591SOL    HW237236   1.713   2.556  15.160  0.6900 -0.8515 -1.4912
 8592SOL     OW37237   2.004   2.131   2.859 -0.2344  0.1620  0.1825
 8592SOL    HW137238   1.991   2.036   2.869  1.4499  0.2246  3.0458
 8592SOL    HW237239   2.011   2.143   2.765  0.6142  1.0186  0.3517
 8593SOL     OW37240   2.357   0.904  10.119  0.4889 -0.5570 -0.1208
 8593SOL    HW137241   2.328   0.851  10.193 -3.4961 -0.2719 -1.4672
 8593SOL    HW237242   2.440   0.936  10.153  0.5874  0.8154 -1.6364
 8594SOL     OW37243   0.646   4.538  13.012 -0.0981  0.3235 -0.1707
 8594SOL    HW137244   0.712   4.565  13.076 -1.4284  0.6182  1.0950
 8594SOL    HW237245   0.594   4.482  13.070  0.6658 -1.2203 -0.9903
 8595SOL     OW37246   1.575   2.133  14.082 -0.0132  0.2296  0.6706
 8595SOL    HW137247   1.527   2.197  14.134  2.7615  1.8180  1.2708
 8595SOL    HW237248   1.617   2.073  14.144  0.2370 -2.5540 -2.1581
 8596SOL     OW37249   0.675   3.135   6.050 -0.0678  0.1750  0.2278
 8596SOL    HW137250   0.737   3.208   6.059  1.0863 -0.7242 -0.4518
 8596SOL    HW237251   0.709   3.093   5.971  0.1529  0.8254 -0.0238
 8597SOL     OW37252   1.502   2.065   6.418 -0.0948 -0.6001  0.0094
 8597SOL    HW137253   1.591   2.032   6.426 -0.0423 -0.3658  0.3662
 8597SOL    HW237254   1.490   2.081   6.324 -1.7641  0.5656  0.4219
 8598SOL     OW37255   4.712   4.021   2.931 -0.2003  0.2356  0.4646
 8598SOL    HW137256   4.684   4.039   2.841 -0.4301 -1.5042  0.1944
 8598SOL    HW237257   4.658   3.944   2.948 -2.7223  2.0055  0.3912
 8599SOL     OW37258   1.456   0.681  10.536 -0.3450 -0.3112  0.3087
 8599SOL    HW137259   1.472   0.763  10.489 -0.4209 -0.0911  0.6687
 8599SOL    HW237260   1.545   0.646  10.546 -0.4991 -0.9536 -0.6174
 8600SOL     OW37261   1.994   1.487   4.855  0.5016 -0.1818  0.0206
 8600SOL    HW137262   1.935   1.428   4.808 -0.6942  0.7018  0.4370
 8600SOL    HW237263   2.012   1.560   4.795 -1.2089  0.2270  0.0115
 8601SOL     OW37264   2.688   2.114   8.253  0.3458  1.0129  0.5186
 8601SOL    HW137265   2.607   2.095   8.301  0.5658  1.8230  1.2188
 8601SOL    HW237266   2.662   2.164   8.176  0.8776 -2.1365 -1.7113
 8602SOL     OW37267   4.171   2.534   3.429  0.3511 -0.4567 -0.1182
 8602SOL    HW137268   4.118   2.520   3.351 -0.2098 -1.1019  0.3758
 8602SOL    HW237269   4.191   2.624   3.407  0.7709 -0.6165 -0.3834
 8603SOL     OW37270   2.981   3.913   7.130 -0.0136  0.5918  0.7682
 8603SOL    HW137271   3.018   3.825   7.131 -1.0564  0.1283 -0.7621
 8603SOL    HW237272   3.058   3.951   7.173  1.5613  0.2981 -1.7185
 8604SOL     OW37273   2.784   3.224   3.303  0.2888  0.3144 -0.1796
 8604SOL    HW137274   2.728   3.232   3.226  1.3455  3.8532 -0.6072
 8604SOL    HW237275   2.864   3.250   3.257 -0.0541  1.3423 -0.2026
 8605SOL     OW37276   2.153   1.345   2.025  0.0512  0.0685  0.0505
 8605SOL    HW137277   2.127   1.426   1.981  1.0744 -0.1537 -0.9581
 8605SOL    HW237278   2.197   1.383   2.101 -0.9503 -1.1882  1.2885
 8606SOL     OW37279   2.664   0.056  16.657  0.9323 -0.6195 -0.6005
 8606SOL    HW137280   2.687   4.718  16.588 -0.2034 -1.9381  0.1982
 8606SOL    HW237281   2.633   4.719  16.725  2.8999 -2.9210 -1.7598
 8607SOL     OW37282   3.150   3.028   8.189 -0.2624 -0.7731 -0.5659
 8607SOL    HW137283   3.166   3.077   8.109  0.9696 -0.2988 -0.0253
 8607SOL    HW237284   3.119   2.948   8.145 -2.8946  0.0561 -0.2200
 8608SOL     OW37285   0.908   4.288   6.392  0.0161 -0.3599 -0.3904
 8608SOL    HW137286   0.919   4.380   6.417 -1.8721  0.3820 -2.3160
 8608SOL    HW237287   0.819   4.284   6.356 -0.2869 -2.5664  0.6457
 8609SOL     OW37288   4.375   3.032   5.248  0.0660  0.1565 -0.1972
 8609SOL    HW137289   4.335   2.948   5.268  0.3186 -0.4135 -2.0644
 8609SOL    HW237290   4.467   3.015   5.266 -0.0982 -0.0172  0.4727
 8610SOL     OW37291   2.388   0.183   6.152  0.3330  0.0595 -0.1756
 8610SOL    HW137292   2.427   0.145   6.074  0.7570  0.2208 -0.0482
 8610SOL    HW237293   2.362   0.266   6.112 -0.1383  0.7900  1.6118
 8611SOL     OW37294   0.708   1.083   8.599  0.6568  0.0847 -0.2360
 8611SOL    HW137295   0.735   1.083   8.691  4.0812  1.9687 -1.2646
 8611SOL    HW237296   0.633   1.142   8.612  0.0514 -0.5247 -0.9749
 8612SOL     OW37297   0.858   0.931   8.160 -0.7267  0.1046  0.1391
 8612SOL    HW137298   0.947   0.966   8.166 -2.2660  3.7594  1.5876
 8612SOL    HW237299   0.863   0.903   8.068 -0.2120 -0.8940  0.4834
 8613SOL     OW37300   1.781   0.386   2.448 -0.2663 -0.8266 -0.3250
 8613SOL    HW137301   1.726   0.318   2.409  0.3213 -0.9767 -0.8867
 8613SOL    HW237302   1.857   0.390   2.389  0.0767 -1.8638  0.0535
 8614SOL     OW37303   0.720   0.206   5.380 -0.2228  0.1381 -0.8222
 8614SOL    HW137304   0.805   0.248   5.382  0.3720 -1.1530  1.8108
 8614SOL    HW237305   0.655   0.272   5.406  1.5025  1.2566  0.6072
 8615SOL     OW37306   1.829   3.001   7.655 -0.2338  0.2813  0.0995
 8615SOL    HW137307   1.803   3.093   7.646 -1.2094  0.0681  0.7187
 8615SOL    HW237308   1.771   2.957   7.594 -0.6010  1.0721 -0.1215
 8616SOL     OW37309   3.237   4.056   0.754  0.4375 -0.5092  0.1656
 8616SOL    HW137310   3.246   4.147   0.782 -2.4622  0.4980 -2.1871
 8616SOL    HW237311   3.284   4.069   0.672  0.3085 -1.0786  0.0041
 8617SOL     OW37312   3.490   4.058   5.990 -0.5240 -0.1629  0.2963
 8617SOL    HW137313   3.451   3.999   5.925  2.4550 -1.3631 -0.4414
 8617SOL    HW237314   3.572   4.014   6.011  0.3147  1.4180  0.3330
 8618SOL     OW37315   4.593   3.267  16.960 -0.1657  0.4553  0.1188
 8618SOL    HW137316   4.679   3.236  16.931 -0.5788  0.5916 -1.2731
 8618SOL    HW237317   4.545   3.185  16.949  0.4073  0.0664  0.5447
 8619SOL     OW37318   4.357   3.934   0.749 -0.1515 -0.0280  0.5152
 8619SOL    HW137319   4.354   3.838   0.740 -0.0642  0.1085 -0.9638
 8619SOL    HW237320   4.424   3.929   0.818 -0.6348  0.2949  1.0100
 8620SOL     OW37321   3.838   2.047   3.561 -0.4017  0.1302  0.1978
 8620SOL    HW137322   3.909   2.107   3.586 -0.1288  0.1021 -0.4953
 8620SOL    HW237323   3.825   2.070   3.469 -1.0320  1.0561  0.5147
 8621SOL     OW37324   3.459   0.609   3.602  0.2544  0.4527 -0.0485
 8621SOL    HW137325   3.453   0.682   3.540  1.1538  0.0695 -0.5805
 8621SOL    HW237326   3.530   0.625   3.664  1.8930  0.9780 -2.0607
 8622SOL     OW37327   4.062   3.757   7.822  0.3072  0.4879 -0.9865
 8622SOL    HW137328   4.007   3.686   7.856 -0.9273  1.5382 -0.7932
 8622SOL    HW237329   4.008   3.798   7.754  0.1620  1.4350 -0.2975
 8623SOL     OW37330   2.438   2.060   7.714  0.2644  0.6222 -0.4289
 8623SOL    HW137331   2.419   2.001   7.641 -0.2626 -1.8769  1.7452
 8623SOL    HW237332   2.361   2.114   7.698  0.1696  0.4907 -0.4131
 8624SOL     OW37333   3.739   1.738   2.349  0.3085  0.2834  0.4315
 8624SOL    HW137334   3.759   1.816   2.400  1.1977 -0.0012  0.5173
 8624SOL    HW237335   3.665   1.758   2.291  1.6088  0.2569 -1.2214
 8625SOL     OW37336   3.241   1.272   4.614 -0.7465 -0.1995 -0.1085
 8625SOL    HW137337   3.318   1.299   4.564 -0.9294  2.4107  1.0678
 8625SOL    HW237338   3.284   1.268   4.699 -0.7697  0.2655 -0.0775
 8626SOL     OW37339   3.286   0.085  12.648  0.2417  0.6334  0.5653
 8626SOL    HW137340   3.192   0.073  12.664  0.3053 -0.8500 -0.1853
 8626SOL    HW237341   3.310   0.101  12.739  0.4607  0.0962  0.6025
 8627SOL     OW37342   2.255   2.072   7.094  0.0917  0.5995 -0.5178
 8627SOL    HW137343   2.187   2.139   7.090 -0.1909  0.3030 -0.6919
 8627SOL    HW237344   2.206   1.995   7.064 -0.8799  0.4648  1.4427
 8628SOL     OW37345   3.616   1.559  14.165  0.0427 -0.2456 -0.0024
 8628SOL    HW137346   3.643   1.569  14.256 -0.9087  0.0451  0.2441
 8628SOL    HW237347   3.676   1.491  14.133 -2.2526 -2.6568  0.8566
 8629SOL     OW37348   0.656   3.146   9.950 -0.5093 -0.3157  0.0016
 8629SOL    HW137349   0.702   3.128  10.032  0.4830  1.9077 -0.0713
 8629SOL    HW237350   0.639   3.240   9.956 -0.6838 -0.4792  1.9870
 8630SOL     OW37351   4.331   3.502   8.680 -0.0792 -0.1044 -0.2615
 8630SOL    HW137352   4.367   3.547   8.603  2.1620 -1.7281 -0.1924
 8630SOL    HW237353   4.241   3.532   8.681 -0.5460 -1.5767  1.3223
 8631SOL     OW37354   2.747   3.018   6.945 -0.2222  0.6245  0.2008
 8631SOL    HW137355   2.676   3.005   6.883 -0.2477 -0.8524  0.5511
 8631SOL    HW237356   2.730   2.948   7.008 -0.0942  0.0358 -0.4140
 8632SOL     OW37357   1.035   4.087  10.858 -0.2910  0.8267 -0.0993
 8632SOL    HW137358   1.082   4.170  10.868 -1.0639  0.8806  3.2154
 8632SOL    HW237359   0.951   4.125  10.885 -1.0004 -0.3499 -0.6338
 8633SOL     OW37360   0.752   4.643  11.259 -0.3597 -0.3804  0.3574
 8633SOL    HW137361   0.757   4.561  11.210  1.0816  2.0127 -3.4438
 8633SOL    HW237362   0.768   4.621  11.351 -1.3681  0.8800  0.8270
 8634SOL     OW37363   2.619   2.191  12.448 -0.1328 -0.2826  0.6182
 8634SOL    HW137364   2.558   2.125  12.416 -0.8353  0.5491  0.2397
 8634SOL    HW237365   2.591   2.268  12.399 -2.3258 -1.9168 -0.6956
 8635SOL     OW37366   3.668   3.465   7.704 -0.2312  0.3675  0.3958
 8635SOL    HW137367   3.601   3.438   7.766  1.2376 -0.4856  1.6041
 8635SOL    HW237368   3.657   3.560   7.700 -0.6607  0.3371  0.9203
 8636SOL     OW37369   1.549   1.644  11.365 -0.1341  0.4285 -0.2938
 8636SOL    HW137370   1.532   1.581  11.295  1.4860  0.0535 -0.3683
 8636SOL    HW237371   1.503   1.596  11.434  2.5598 -1.8977 -0.1241
 8637SOL     OW37372   4.679   1.069   9.212 -0.1497  0.0092 -0.1398
 8637SOL    HW137373   0.029   1.109   9.259  1.2586 -2.3568 -0.3419
 8637SOL    HW237374   4.653   0.995   9.267  0.7580 -1.7254 -2.0431
 8638SOL     OW37375   2.247   2.683  12.447  0.6844 -0.3093 -0.4554
 8638SOL    HW137376   2.187   2.609  12.433  0.8614 -0.3831 -0.8120
 8638SOL    HW237377   2.221   2.708  12.536  1.6211  1.6181 -0.7252
 8639SOL     OW37378   2.993   0.363  10.468  0.1044 -0.2781 -0.4658
 8639SOL    HW137379   2.973   0.311  10.390 -2.7512  0.7773 -0.4072
 8639SOL    HW237380   2.903   0.394  10.480  0.3101 -0.2438  1.0205
 8640SOL     OW37381   3.515   3.428   2.861  0.1012  0.7292 -0.1951
 8640SOL    HW137382   3.586   3.468   2.912 -0.5017  1.3713  0.1514
 8640SOL    HW237383   3.454   3.390   2.925  2.7170 -2.5873  0.3544
 8641SOL     OW37384   3.915   4.570   6.237  0.4266  0.4250  0.1827
 8641SOL    HW137385   3.906   4.515   6.315  0.3651 -0.6076 -0.5562
 8641SOL    HW237386   3.961   4.508   6.180 -1.5854 -1.2195  0.3476
 8642SOL     OW37387   3.130   0.202   4.752 -0.4740 -0.2775 -0.4688
 8642SOL    HW137388   3.128   0.154   4.669 -2.3926  0.1791 -0.6926
 8642SOL    HW237389   3.095   0.139   4.815  1.3877 -0.3640  0.4754
 8643SOL     OW37390   0.099   1.581   6.389  0.4410  0.3567  0.0352
 8643SOL    HW137391   0.073   1.560   6.299  2.3494 -3.7076  0.4508
 8643SOL    HW237392   0.067   1.668   6.414  0.7059  0.7498 -0.9738
 8644SOL     OW37393   4.692   4.078   2.079 -0.1894 -0.0584 -0.1857
 8644SOL    HW137394   4.667   4.001   2.028 -0.3637 -0.2479  0.1862
 8644SOL    HW237395   0.037   4.036   2.131  0.9683 -0.2984 -1.9337
 8645SOL     OW37396   0.909   3.533   7.619 -0.7149 -0.3306 -0.6366
 8645SOL    HW137397   0.894   3.593   7.693 -1.1958 -0.2288 -0.8123
 8645SOL    HW237398   0.949   3.461   7.666  2.0657  0.5726 -1.6523
 8646SOL     OW37399   0.459   4.322   9.308 -0.1862  0.3882  0.2067
 8646SOL    HW137400   0.423   4.291   9.391  0.9956 -1.2178  0.1190
 8646SOL    HW237401   0.398   4.396   9.305 -2.0405 -1.0851  1.6447
 8647SOL     OW37402   3.756   1.473   0.136  0.4136 -0.4955  0.4455
 8647SOL    HW137403   3.684   1.424   0.096  1.3117  0.2413 -2.0665
 8647SOL    HW237404   3.722   1.562   0.130 -3.0986 -1.8933 -0.5909
 8648SOL     OW37405   1.647   3.584  16.720  0.2910 -0.2307 -0.1583
 8648SOL    HW137406   1.695   3.586  16.803  2.4437 -0.7128 -1.3964
 8648SOL    HW237407   1.576   3.647  16.736  0.3042 -0.6458  1.5453
 8649SOL     OW37408   3.686   2.336  15.832 -0.7414 -0.1018 -0.3377
 8649SOL    HW137409   3.695   2.420  15.788  1.3013  0.5369  1.3016
 8649SOL    HW237410   3.632   2.298  15.763 -2.0627  1.3526 -0.1184
 8650SOL     OW37411   3.242   3.980  10.147  0.2004  0.0471  0.0078
 8650SOL    HW137412   3.317   3.930  10.115 -0.0333 -0.9032  0.9366
 8650SOL    HW237413   3.205   3.936  10.224  2.2877  0.4916  1.2562
 8651SOL     OW37414   2.023   2.732   2.909  0.3424 -0.2487  0.5697
 8651SOL    HW137415   2.066   2.674   2.972  1.2130 -1.6199 -1.2875
 8651SOL    HW237416   2.105   2.762   2.871  0.3381 -2.7889 -1.3846
 8652SOL     OW37417   4.698   1.208   5.432  0.5516 -0.0639 -0.4220
 8652SOL    HW137418   4.674   1.187   5.342 -0.6567  0.3111 -0.1906
 8652SOL    HW237419   4.685   1.125   5.478 -1.9038  1.2861  1.3127
 8653SOL     OW37420   3.614   2.783   2.563 -0.2073  0.1576  0.2067
 8653SOL    HW137421   3.693   2.787   2.617 -1.2679  0.3262  1.7587
 8653SOL    HW237422   3.635   2.758   2.473 -1.3252  2.1150 -0.5946
 8654SOL     OW37423   2.974   2.050  15.076 -0.2135  0.4303 -0.1182
 8654SOL    HW137424   3.028   2.023  15.001  1.9959 -0.3324  1.7544
 8654SOL    HW237425   2.884   2.051  15.042  0.3023  1.6158 -1.4943
 8655SOL     OW37426   1.159   2.917   6.962  1.0261  0.0075  0.2058
 8655SOL    HW137427   1.107   2.837   6.949 -1.2834  1.4546  0.5151
 8655SOL    HW237428   1.250   2.888   6.959  0.2003 -2.4400 -1.2573
 8656SOL     OW37429   2.326   3.948   6.563 -0.4464  0.2503  0.0299
 8656SOL    HW137430   2.293   3.881   6.623 -2.4798  0.9872 -0.2597
 8656SOL    HW237431   2.409   3.904   6.542 -0.7208  0.0740 -0.6966
 8657SOL     OW37432   3.911   3.981   6.682  0.1881 -0.5122  0.0180
 8657SOL    HW137433   3.847   3.928   6.634  0.6568 -2.0038  1.0188
 8657SOL    HW237434   3.909   3.935   6.766 -1.4716  2.1126  1.4166
 8658SOL     OW37435   0.558   1.256  12.239 -0.3902 -0.4913  0.5607
 8658SOL    HW137436   0.507   1.241  12.159 -1.7982  0.2948  1.3044
 8658SOL    HW237437   0.650   1.259  12.212 -1.1386  0.5207 -1.8592
 8659SOL     OW37438   2.662   2.508   8.463 -0.1941 -0.0937  0.3894
 8659SOL    HW137439   2.619   2.481   8.543 -2.0978  0.6560 -0.3759
 8659SOL    HW237440   2.595   2.479   8.401  1.6403 -2.2808 -0.5535
 8660SOL     OW37441   1.797   2.218   1.459  0.5327 -0.2153  0.3214
 8660SOL    HW137442   1.752   2.254   1.383  0.3863 -0.2137  0.4103
 8660SOL    HW237443   1.768   2.288   1.516  2.3496  1.2010 -0.4977
 8661SOL     OW37444   3.415   0.103  17.460  0.3872  0.4316 -0.1429
 8661SOL    HW137445   3.379   0.191  17.444 -2.2321 -0.6692 -0.3398
 8661SOL    HW237446   3.464   0.107  17.378  0.0328 -0.5056 -0.3926
 8662SOL     OW37447   4.149   0.832   8.694 -0.0974 -0.0020 -0.3359
 8662SOL    HW137448   4.084   0.779   8.741 -0.5370  0.7165 -0.1447
 8662SOL    HW237449   4.214   0.801   8.758  0.4795  0.0625 -0.8877
 8663SOL     OW37450   4.315   1.414  16.430  0.5341 -0.1535  0.2604
 8663SOL    HW137451   4.373   1.385  16.501  0.7482 -1.4301 -0.4359
 8663SOL    HW237452   4.258   1.337  16.428  0.5034 -0.1535  0.8821
 8664SOL     OW37453   0.465   4.713  14.967 -0.2364  0.5120 -0.3279
 8664SOL    HW137454   0.444   4.648  14.899  0.2208  0.7078 -0.6541
 8664SOL    HW237455   0.551   4.677  14.988 -0.3040 -0.2974 -1.3999
 8665SOL     OW37456   0.136   1.863   5.422  0.2308 -0.5032 -0.0411
 8665SOL    HW137457   0.132   1.901   5.510 -0.2669  0.6223 -0.5487
 8665SOL    HW237458   0.081   1.928   5.379 -1.0805 -2.0368 -0.6743
 8666SOL     OW37459   3.317   4.565   4.669 -0.1197 -0.0409 -0.2730
 8666SOL    HW137460   3.226   4.567   4.642  0.2407  0.7677 -1.4434
 8666SOL    HW237461   3.307   4.604   4.756  0.7172 -0.0471 -0.1655
 8667SOL     OW37462   0.977   3.417   5.036 -0.1548  0.5079  0.4775
 8667SOL    HW137463   0.996   3.505   5.069  0.9191  0.8757 -1.1758
 8667SOL    HW237464   1.017   3.430   4.950  0.1920  1.5586  0.8021
 8668SOL     OW37465   3.566   3.580   6.525 -0.0908 -0.0293  0.1751
 8668SOL    HW137466   3.634   3.576   6.458  0.3717 -1.5765  0.7350
 8668SOL    HW237467   3.576   3.496   6.570  1.6365  0.2643  0.3477
 8669SOL     OW37468   1.196   2.694   7.243 -0.6474 -0.0334  0.8119
 8669SOL    HW137469   1.259   2.703   7.172  0.5176 -1.7823  1.5954
 8669SOL    HW237470   1.241   2.738   7.315  0.3218  0.8069 -0.3034
 8670SOL     OW37471   1.686   1.853   6.399 -0.0290  0.9365 -0.0555
 8670SOL    HW137472   1.695   1.766   6.439 -0.0774  2.3714  3.0765
 8670SOL    HW237473   1.777   1.865   6.371  0.1500  0.6765  0.4115
 8671SOL     OW37474   4.401   1.619   4.578  0.1892  0.0285  0.0176
 8671SOL    HW137475   4.346   1.661   4.512 -0.3277 -1.0885 -0.2530
 8671SOL    HW237476   4.370   1.665   4.656 -0.3156  0.3845 -0.3967
 8672SOL     OW37477   2.551   1.375   9.315 -0.7071 -0.8047  0.3732
 8672SOL    HW137478   2.550   1.279   9.317 -0.2554 -0.7975  0.8025
 8672SOL    HW237479   2.467   1.403   9.350  0.1261  0.6320  1.1855
 8673SOL     OW37480   1.026   4.028  10.227  0.4348  0.2077  0.3329
 8673SOL    HW137481   1.015   4.084  10.303 -0.8094  0.4912 -0.0435
 8673SOL    HW237482   0.943   3.980  10.234 -0.6165  2.0888  0.7700
 8674SOL     OW37483   1.837   2.441  12.540  0.4617 -0.3820  0.6902
 8674SOL    HW137484   1.915   2.469  12.492 -0.8658 -0.4596 -1.4961
 8674SOL    HW237485   1.857   2.355  12.577 -1.5381 -0.4971  1.4652
 8675SOL     OW37486   3.168   4.198  15.790 -0.0713 -0.0879  0.1253
 8675SOL    HW137487   3.106   4.243  15.732 -0.6318  1.3958  1.8972
 8675SOL    HW237488   3.131   4.111  15.777  0.8218 -0.5032  0.3561
 8676SOL     OW37489   1.484   3.346   2.773  0.2188  0.6527  0.1019
 8676SOL    HW137490   1.552   3.326   2.709  0.4575  2.3889 -0.1820
 8676SOL    HW237491   1.540   3.398   2.831  1.0447 -0.6712  0.4874
 8677SOL     OW37492   3.917   3.923  17.270  0.1394 -1.0542 -0.8599
 8677SOL    HW137493   3.904   4.017  17.254  1.7327 -0.8088 -0.7138
 8677SOL    HW237494   3.846   3.913  17.333  2.3380  0.1056  1.8240
 8678SOL     OW37495   0.776   3.093   8.723 -0.1203 -0.3607  0.1793
 8678SOL    HW137496   0.826   3.169   8.751 -1.3385  0.2916  0.5951
 8678SOL    HW237497   0.778   3.039   8.803  2.1162  3.0364  2.3995
 8679SOL     OW37498   4.599   3.547  15.750  0.6175 -0.1020  0.0880
 8679SOL    HW137499   4.548   3.628  15.751 -1.3161 -1.2891 -2.9199
 8679SOL    HW237500   4.599   3.535  15.655 -0.2044  0.0699  0.0653
 8680SOL     OW37501   2.327   0.362   8.524  0.7408 -0.2060  0.1455
 8680SOL    HW137502   2.275   0.411   8.588  0.8194  0.2305 -0.1256
 8680SOL    HW237503   2.412   0.366   8.568  0.1983  2.1329  1.0190
 8681SOL     OW37504   4.511   1.514   5.800  0.1353 -0.4369  0.3034
 8681SOL    HW137505   4.519   1.463   5.720 -1.5654  0.3791 -0.3845
 8681SOL    HW237506   4.583   1.573   5.777  1.2621 -1.6885  0.5865
 8682SOL     OW37507   4.377   3.488   4.143  0.0324 -0.2458  0.1043
 8682SOL    HW137508   4.462   3.467   4.183  0.4803 -0.5413 -1.0055
 8682SOL    HW237509   4.362   3.400   4.107 -0.5985 -0.1782  0.2094
 8683SOL     OW37510   2.970   1.856   8.942 -0.1770 -0.1406 -0.3404
 8683SOL    HW137511   3.043   1.867   9.003 -0.4102  0.8382 -0.2491
 8683SOL    HW237512   2.997   1.922   8.879 -1.5595 -1.3750 -2.2180
 8684SOL     OW37513   4.494   0.398  16.387  0.1125 -0.2083  0.2369
 8684SOL    HW137514   4.563   0.383  16.322 -1.8734  1.5215 -2.2414
 8684SOL    HW237515   4.549   0.446  16.448  0.3254  0.2960 -0.3466
 8685SOL     OW37516   2.449   2.997   4.860  0.0604 -0.1673 -0.0373
 8685SOL    HW137517   2.529   3.003   4.808  0.3272 -1.8556  0.1831
 8685SOL    HW237518   2.396   3.061   4.813 -1.9936 -1.0829  1.0560
 8686SOL     OW37519   1.675   4.213   4.255  0.1755 -0.1479  0.5741
 8686SOL    HW137520   1.622   4.171   4.323 -0.9539 -0.3815 -0.4653
 8686SOL    HW237521   1.621   4.212   4.176  0.5546  0.2303  0.3112
 8687SOL     OW37522   3.820   1.132  12.806  0.2282 -0.0809 -0.3500
 8687SOL    HW137523   3.879   1.182  12.750 -0.4684 -0.2879 -1.2800
 8687SOL    HW237524   3.866   1.134  12.890  0.9076 -4.2325 -0.6255
 8688SOL     OW37525   4.005   3.973  14.326 -0.2945 -0.1691  0.1569
 8688SOL    HW137526   4.100   3.986  14.322 -0.1866 -0.4635  1.7284
 8688SOL    HW237527   3.996   3.893  14.274 -0.8757 -0.2257  0.3458
 8689SOL     OW37528   3.128   1.522  16.704  0.4926  0.0901 -0.1536
 8689SOL    HW137529   3.210   1.550  16.746 -1.3708  3.0860  1.5054
 8689SOL    HW237530   3.114   1.578  16.628  0.7408  0.6451  0.2118
 8690SOL     OW37531   1.794   0.784   9.141  0.1382  0.0620  0.0505
 8690SOL    HW137532   1.786   0.844   9.216 -1.8156 -2.4426  1.8407
 8690SOL    HW237533   1.887   0.773   9.162 -0.0383 -2.1492 -0.3359
 8691SOL     OW37534   2.961   4.412   9.067  0.0497 -0.2358 -0.2487
 8691SOL    HW137535   2.985   4.415   8.974  0.7588 -0.0640 -0.0510
 8691SOL    HW237536   2.950   4.321   9.095 -0.0291  1.1001  3.9476
 8692SOL     OW37537   3.680   2.967   3.978  0.5575  0.3670 -0.1302
 8692SOL    HW137538   3.744   2.970   3.906  1.9209  3.5353  1.1917
 8692SOL    HW237539   3.684   2.876   4.005 -1.0357  1.1915  2.8011
 8693SOL     OW37540   2.229   2.414   4.547  0.0675 -0.0535 -0.0418
 8693SOL    HW137541   2.143   2.391   4.582 -0.7972  0.5229 -1.7866
 8693SOL    HW237542   2.240   2.352   4.475 -1.8207 -0.8517  0.3510
 8694SOL     OW37543   0.288   2.370   4.063  0.1321 -0.4656 -0.5834
 8694SOL    HW137544   0.273   2.382   3.969 -0.7635  0.0404 -0.3733
 8694SOL    HW237545   0.376   2.333   4.069 -0.2679 -1.5283 -1.2039
 8695SOL     OW37546   3.257   1.225   9.354 -0.0166 -0.8871  0.0341
 8695SOL    HW137547   3.215   1.310   9.344  1.6641 -0.2131 -1.4018
 8695SOL    HW237548   3.210   1.180   9.284  3.3360 -0.3981 -2.5293
 8696SOL     OW37549   1.480   1.887   1.662 -0.0475  0.0323 -0.2505
 8696SOL    HW137550   1.390   1.916   1.673  0.1859  1.1801 -1.4067
 8696SOL    HW237551   1.525   1.965   1.696 -0.2651  1.2926 -2.8265
 8697SOL     OW37552   0.651   4.331   6.312 -0.6653 -0.6439  0.8491
 8697SOL    HW137553   0.590   4.393   6.272 -2.8447 -1.8327  2.3069
 8697SOL    HW237554   0.588   4.259   6.316 -0.9446 -0.5986 -2.4251
 8698SOL     OW37555   2.212   1.661   4.293 -0.0855  0.1199 -0.0240
 8698SOL    HW137556   2.142   1.597   4.278  1.3953 -1.5584  0.0926
 8698SOL    HW237557   2.186   1.703   4.375  0.1394 -0.4966  0.3693
 8699SOL     OW37558   4.376   3.005   5.628  0.0197 -0.3404 -0.7953
 8699SOL    HW137559   4.469   2.986   5.642  0.1208  0.8231  0.1313
 8699SOL    HW237560   4.373   3.080   5.688  1.4433  1.1553 -2.5875
 8700SOL     OW37561   1.914   1.487  11.717 -0.3923 -0.0927 -0.4012
 8700SOL    HW137562   1.865   1.417  11.759 -1.3545  0.1908 -1.0620
 8700SOL    HW237563   1.999   1.469  11.759 -0.7950 -0.1443  0.3966
 8701SOL     OW37564   3.625   3.685   7.235 -0.5323  0.6241  0.2708
 8701SOL    HW137565   3.651   3.769   7.197  0.3145  1.0653  1.7873
 8701SOL    HW237566   3.696   3.685   7.300  0.7875  1.0716 -1.1727
 8702SOL     OW37567   1.563   4.641  13.318 -0.3560  0.6290 -0.0591
 8702SOL    HW137568   1.605   4.694  13.250 -0.6874 -0.0935 -0.8301
 8702SOL    HW237569   1.586   4.674  13.405  0.6139 -1.1545  0.3633
 8703SOL     OW37570   4.211   0.436   1.174 -0.1252 -0.2358  0.0399
 8703SOL    HW137571   4.117   0.430   1.159  0.1085 -1.6199 -0.8053
 8703SOL    HW237572   4.237   0.498   1.105 -1.9105  0.4794  0.0220
 8704SOL     OW37573   3.087   3.153  13.408 -0.1581  0.1325  0.1188
 8704SOL    HW137574   3.079   3.061  13.432 -0.3466 -0.2185 -1.2631
 8704SOL    HW237575   3.147   3.188  13.474  1.1868  0.1893 -1.1063
 8705SOL     OW37576   0.423   1.756   3.875  0.2239  0.1696  0.3866
 8705SOL    HW137577   0.378   1.834   3.905  0.0936  0.5569 -0.8235
 8705SOL    HW237578   0.405   1.701   3.951  0.8974 -3.2065 -1.9060
 8706SOL     OW37579   3.693   0.784   0.569  0.4037  0.1914  0.3389
 8706SOL    HW137580   3.677   0.876   0.590  1.5045  0.0166  1.9788
 8706SOL    HW237581   3.681   0.742   0.654  0.0999  2.5765  1.4815
 8707SOL     OW37582   4.700   2.461   6.881  0.2150 -0.6036 -0.0848
 8707SOL    HW137583   4.638   2.496   6.945  1.4817  1.1537  0.2099
 8707SOL    HW237584   0.035   2.535   6.864 -0.9316  0.1689 -0.6420
 8708SOL     OW37585   3.861   1.487   6.477 -0.3539 -0.8050 -0.1711
 8708SOL    HW137586   3.830   1.577   6.476  1.1500 -0.2696  0.4004
 8708SOL    HW237587   3.775   1.445   6.483  0.0991 -1.6380  0.6063
 8709SOL     OW37588   2.206   4.166   7.791 -0.2187 -0.7354 -0.1657
 8709SOL    HW137589   2.229   4.242   7.737 -3.0312 -1.1548 -1.9077
 8709SOL    HW237590   2.189   4.092   7.733  0.0604 -0.0285 -1.1562
 8710SOL     OW37591   2.742   1.312   7.159  0.4473 -0.2112  0.4935
 8710SOL    HW137592   2.734   1.393   7.108  3.1556  0.5073  1.2386
 8710SOL    HW237593   2.796   1.334   7.235  3.0219 -0.2097 -1.3442
 8711SOL     OW37594   2.168   4.449   8.085 -0.3796 -0.1440 -0.2061
 8711SOL    HW137595   2.169   4.356   8.110 -0.3634  0.2143  1.1234
 8711SOL    HW237596   2.140   4.480   8.171 -1.8945 -1.8348 -0.0747
 8712SOL     OW37597   2.371   0.569   9.766  0.3653 -0.1799  0.7722
 8712SOL    HW137598   2.427   0.645   9.782  0.8911 -0.4480  0.2131
 8712SOL    HW237599   2.333   0.552   9.852  0.7040  2.4122  1.4517
 8713SOL     OW37600   3.480   4.108   3.395 -0.1598  0.1257  0.4599
 8713SOL    HW137601   3.559   4.066   3.362 -0.4380 -0.5008  0.5972
 8713SOL    HW237602   3.478   4.062   3.479 -0.3505 -0.6443  0.0400
 8714SOL     OW37603   4.713   2.944   2.666 -0.2096  0.3632  0.4862
 8714SOL    HW137604   4.640   3.005   2.673 -0.5347  0.0437 -0.1380
 8714SOL    HW237605   4.721   2.929   2.572 -1.2381 -0.7053  0.5703
 8715SOL     OW37606   0.109   3.455   5.553  0.6987 -0.3857  0.1324
 8715SOL    HW137607   0.196   3.430   5.582  1.2273 -0.6237 -1.6572
 8715SOL    HW237608   0.128   3.486   5.465 -1.3864 -0.6149 -0.3869
 8716SOL     OW37609   4.023   0.459   0.487 -0.5444 -0.6471 -0.4268
 8716SOL    HW137610   4.065   0.531   0.535  0.3725  0.0274 -2.2331
 8716SOL    HW237611   3.934   0.487   0.466 -0.2184  1.5697  1.0841
 8717SOL     OW37612   3.399   2.448   3.841 -0.3307  0.4588  0.0991
 8717SOL    HW137613   3.486   2.475   3.869 -0.2698  1.3773 -0.9466
 8717SOL    HW237614   3.424   2.394   3.765 -2.1824 -0.1863 -0.0727
 8718SOL     OW37615   4.227   2.714  11.106 -0.1265  0.4844 -0.7232
 8718SOL    HW137616   4.250   2.622  11.119 -0.9307  0.5349  1.1227
 8718SOL    HW237617   4.276   2.742  11.029 -0.3356  1.8714 -0.3558
 8719SOL     OW37618   0.223   2.645   3.653  0.1642 -0.4694 -0.2200
 8719SOL    HW137619   0.290   2.714   3.651 -1.6731  1.3749  2.2510
 8719SOL    HW237620   0.269   2.561   3.659  0.2009 -0.5470 -1.6035
 8720SOL     OW37621   0.956   0.307   3.901 -0.3160 -0.1277 -0.2888
 8720SOL    HW137622   1.013   0.239   3.864  0.8701 -0.0883  1.4455
 8720SOL    HW237623   0.874   0.298   3.853 -0.1211 -2.2447 -0.2286
 8721SOL     OW37624   4.088   1.633   6.855  0.7068 -0.6076  0.7056
 8721SOL    HW137625   4.054   1.656   6.941 -0.6501  2.4358 -0.6356
 8721SOL    HW237626   4.031   1.557   6.845  1.9053 -1.8710  3.6365
 8722SOL     OW37627   3.855   4.293   9.064  0.0147 -0.1054 -0.4437
 8722SOL    HW137628   3.920   4.278   8.994  0.6659  0.4264  0.0442
 8722SOL    HW237629   3.899   4.368   9.102 -0.4291 -0.1854  0.2156
 8723SOL     OW37630   0.147   3.526   5.256  0.3647 -0.4697 -0.2541
 8723SOL    HW137631   0.115   3.520   5.166 -2.4334 -0.2828  0.7407
 8723SOL    HW237632   0.234   3.490   5.237  0.4105  0.0014 -0.9489
 8724SOL     OW37633   1.265   3.288   6.935  0.4414 -0.2523  0.1951
 8724SOL    HW137634   1.282   3.302   7.029  0.4006 -0.4904  0.2375
 8724SOL    HW237635   1.171   3.271   6.933  0.2935  0.5618  0.1543
 8725SOL     OW37636   1.185   4.686   9.881 -0.3775  0.4463  0.0987
 8725SOL    HW137637   1.261   4.668   9.826 -0.3732  3.6790 -0.9307
 8725SOL    HW237638   1.170   4.610   9.938 -0.6380  0.3013 -0.1665
 8726SOL     OW37639   0.729   4.594   7.982 -0.2681  0.1550  0.1174
 8726SOL    HW137640   0.817   4.619   7.953  0.1669  1.2415  2.3121
 8726SOL    HW237641   0.707   4.520   7.926  0.2263  0.0317  0.0828
 8727SOL     OW37642   2.183   4.688  15.401 -0.1298 -0.4367  0.0638
 8727SOL    HW137643   2.240   4.618  15.369 -0.2724 -1.0061  1.0299
 8727SOL    HW237644   2.166   0.021  15.326 -0.1552 -0.7619 -0.1777
 8728SOL     OW37645   2.269   2.196   8.254  0.2496 -0.1915  0.6427
 8728SOL    HW137646   2.192   2.251   8.238 -0.0626 -0.9423 -0.4211
 8728SOL    HW237647   2.240   2.113   8.217  0.2561  0.7961 -1.5880
 8729SOL     OW37648   3.338   2.736   2.587  0.2997 -0.4866  0.4718
 8729SOL    HW137649   3.426   2.768   2.566  0.1441  0.1454  0.7741
 8729SOL    HW237650   3.299   2.823   2.582  0.6305 -0.1629  3.8623
 8730SOL     OW37651   0.186   2.089   9.887  0.0932  0.7007  0.5427
 8730SOL    HW137652   0.127   2.159   9.860  0.7444 -0.2572 -3.3450
 8730SOL    HW237653   0.120   2.033   9.927 -1.5703  2.1972 -0.0880
 8731SOL     OW37654   1.243   3.335   2.142  0.1637  0.7558  0.0989
 8731SOL    HW137655   1.148   3.341   2.149  0.1906  1.2497  0.0524
 8731SOL    HW237656   1.272   3.414   2.188 -0.4585 -1.2339  3.9212
 8732SOL     OW37657   2.438   1.908   3.566  0.1644  0.3449  0.1688
 8732SOL    HW137658   2.396   1.978   3.617 -1.4912  0.6305 -1.5903
 8732SOL    HW237659   2.500   1.875   3.631  0.5054  1.1858  0.2769
 8733SOL     OW37660   0.021   0.539   7.299 -0.1694  0.6085 -0.2049
 8733SOL    HW137661   0.035   0.485   7.376  0.8773  0.2603 -0.6325
 8733SOL    HW237662   4.699   0.477   7.242  0.7594 -0.4321  0.1799
 8734SOL     OW37663   3.933   1.336   1.771  0.1512 -0.1289  0.3856
 8734SOL    HW137664   3.887   1.389   1.706  0.0903  0.7282  1.1218
 8734SOL    HW237665   3.902   1.389   1.845  0.0480 -1.2755  1.1662
 8735SOL     OW37666   0.186   4.241  10.982 -0.3187 -0.0428  0.5902
 8735SOL    HW137667   0.127   4.226  10.908  0.1254  0.6213  0.0985
 8735SOL    HW237668   0.268   4.195  10.964 -1.1219 -1.1041 -0.3246
 8736SOL     OW37669   0.670   2.886   4.726  1.0547 -0.1690 -0.4172
 8736SOL    HW137670   0.716   2.877   4.643 -0.4946  1.4156 -1.4426
 8736SOL    HW237671   0.621   2.804   4.731  1.5993 -0.4943 -0.3318
 8737SOL     OW37672   2.179   3.844  13.067  0.6243 -0.0036 -0.7710
 8737SOL    HW137673   2.124   3.903  13.016 -0.5700 -1.9344 -1.7118
 8737SOL    HW237674   2.252   3.827  13.008  1.6428  2.4689 -0.2427
 8738SOL     OW37675   4.232   0.831  14.977  0.4047  0.0404 -0.2687
 8738SOL    HW137676   4.235   0.811  15.071 -1.0015 -2.6885 -0.8020
 8738SOL    HW237677   4.244   0.926  14.982  0.9648  0.0201 -1.4144
 8739SOL     OW37678   0.740   1.001  10.329 -0.7626  0.0561 -0.2482
 8739SOL    HW137679   0.724   1.085  10.286  0.3774 -1.5356 -3.8351
 8739SOL    HW237680   0.663   0.949  10.303 -0.6014 -0.5027  0.4053
 8740SOL     OW37681   0.605   4.521   9.178 -0.0676  0.0908  0.1695
 8740SOL    HW137682   0.575   4.449   9.233  0.8207  0.4819  1.1551
 8740SOL    HW237683   0.585   4.584   9.248 -0.1062  1.1721 -0.8136
 8741SOL     OW37684   2.181   3.949  17.437 -0.2952  0.1740 -0.0039
 8741SOL    HW137685   2.129   3.906  17.505  0.4951 -1.0370 -0.1694
 8741SOL    HW237686   2.264   3.968  17.480 -0.3801  0.7849 -0.1138
 8742SOL     OW37687   3.409   2.345  11.300  0.1571 -0.2034  0.2384
 8742SOL    HW137688   3.369   2.317  11.218  0.9422 -1.7680  0.3823
 8742SOL    HW237689   3.338   2.321  11.360 -0.6052 -1.6047 -1.2226
 8743SOL     OW37690   4.136   2.987   1.654  0.0885 -0.0882 -0.7834
 8743SOL    HW137691   4.204   3.029   1.601  0.7303  1.8749  1.6385
 8743SOL    HW237692   4.064   3.014   1.597  0.5736 -0.6779 -1.6702
 8744SOL     OW37693   0.185   0.478  10.903 -0.3747  0.5316 -0.0532
 8744SOL    HW137694   0.133   0.550  10.869  0.2365  0.6503 -0.7309
 8744SOL    HW237695   0.202   0.444  10.815  1.7085 -0.3808  0.7012
 8745SOL     OW37696   0.007   1.062  13.150  0.0444  0.2683 -0.1184
 8745SOL    HW137697   4.654   1.026  13.106 -0.6494  1.5161  0.0838
 8745SOL    HW237698   0.004   1.030  13.240  0.7537  0.2530 -0.1027
 8746SOL     OW37699   1.244   1.466  12.409 -0.1543 -0.4487  0.2138
 8746SOL    HW137700   1.297   1.531  12.455  0.8867 -1.6103  0.6615
 8746SOL    HW237701   1.241   1.393  12.471 -0.1542 -1.4261 -0.9377
 8747SOL     OW37702   4.194   2.264   2.974 -0.3861  0.2644  0.3198
 8747SOL    HW137703   4.133   2.281   3.046  0.0401  0.6083  0.6030
 8747SOL    HW237704   4.153   2.288   2.891  1.4817  0.4586 -0.5538
 8748SOL     OW37705   0.037   0.210   1.940 -0.2844 -0.1454  0.1544
 8748SOL    HW137706   0.038   0.305   1.952 -0.3588  0.0459 -1.3429
 8748SOL    HW237707   4.693   0.190   2.004 -0.6546 -1.8144 -0.7528
 8749SOL     OW37708   1.328   4.379   6.507 -0.5666 -0.6583 -0.0734
 8749SOL    HW137709   1.285   4.377   6.592 -1.1380  0.8737 -0.3353
 8749SOL    HW237710   1.344   4.285   6.494 -1.0219 -0.8765  0.9349
 8750SOL     OW37711   0.971   4.448   4.288 -0.0630 -0.1443  0.4592
 8750SOL    HW137712   1.065   4.441   4.273 -0.2002 -0.6387 -0.2269
 8750SOL    HW237713   0.944   4.368   4.242 -0.2838 -0.7826  1.7194
 8751SOL     OW37714   1.649   1.724  15.290 -0.2979 -0.1969  0.1866
 8751SOL    HW137715   1.698   1.792  15.245  0.3828 -1.3051 -0.7377
 8751SOL    HW237716   1.595   1.784  15.343 -1.1148 -0.3776 -0.4329
 8752SOL     OW37717   2.405   1.818   9.214  0.3133 -0.4263  0.1817
 8752SOL    HW137718   2.498   1.839   9.201  0.9316 -2.2301  1.5957
 8752SOL    HW237719   2.391   1.755   9.144  1.2438 -0.3768 -0.0518
 8753SOL     OW37720   4.427   0.619  11.930  0.3092  0.2375 -0.0227
 8753SOL    HW137721   4.471   0.703  11.915 -0.5409  1.0197  1.8095
 8753SOL    HW237722   4.336   0.648  11.936  0.1826 -0.3333  0.7567
 8754SOL     OW37723   4.275   3.740   8.843  0.5156 -0.1921 -0.0887
 8754SOL    HW137724   4.350   3.696   8.883  1.5385 -0.1245 -1.9338
 8754SOL    HW237725   4.262   3.819   8.895 -0.6919  0.0045 -0.6846
 8755SOL     OW37726   0.612   1.342   7.160  0.2633  0.0723  0.4770
 8755SOL    HW137727   0.613   1.388   7.243  0.0535 -0.3670  0.7214
 8755SOL    HW237728   0.524   1.365   7.131 -0.1442 -1.1230  0.7484
 8756SOL     OW37729   2.380   1.009   7.572 -0.1270  0.3363  0.5183
 8756SOL    HW137730   2.412   1.047   7.490 -1.8943 -2.4727 -1.5077
 8756SOL    HW237731   2.452   0.952   7.597 -0.6990 -1.0322 -0.9363
 8757SOL     OW37732   1.040   2.405   7.850  0.1071 -0.1404 -0.0651
 8757SOL    HW137733   1.019   2.385   7.759 -1.5933 -1.7922  0.6999
 8757SOL    HW237734   1.049   2.318   7.888  0.3225 -1.3316 -2.7988
 8758SOL     OW37735   2.928   3.605   8.782  1.0146 -0.6567  0.3807
 8758SOL    HW137736   3.003   3.598   8.841 -0.2340  2.4187  2.3342
 8758SOL    HW237737   2.863   3.656   8.830  0.7527 -0.2944 -0.3659
 8759SOL     OW37738   4.719   2.485   6.070 -0.1888 -0.2365  0.5684
 8759SOL    HW137739   4.693   2.479   6.162  0.0435 -0.0180  0.6483
 8759SOL    HW237740   0.089   2.497   6.080  0.0874 -0.6775 -1.4681
 8760SOL     OW37741   1.460   3.109   2.937  0.0895  0.1733  0.3840
 8760SOL    HW137742   1.423   3.182   2.888  0.8952  0.0130 -0.4459
 8760SOL    HW237743   1.441   3.138   3.027  0.0060 -0.0534  0.4387
 8761SOL     OW37744   0.886   2.537   7.275 -0.0322 -0.0981 -0.4904
 8761SOL    HW137745   0.910   2.628   7.259  0.7572  0.2563  2.5813
 8761SOL    HW237746   0.791   2.544   7.269  0.0370  0.7399 -0.6350
 8762SOL     OW37747   1.432   3.893   4.946 -0.0349 -0.0053 -0.1454
 8762SOL    HW137748   1.341   3.906   4.973 -0.5839 -1.0247 -1.5247
 8762SOL    HW237749   1.417   3.900   4.851 -0.5709 -2.2747 -0.2253
 8763SOL     OW37750   4.527   0.594   6.821  0.0533 -0.2785 -0.3046
 8763SOL    HW137751   4.432   0.590   6.807  0.1338 -1.5729 -0.4283
 8763SOL    HW237752   4.560   0.540   6.749 -0.3283 -0.5864 -0.2494
 8764SOL     OW37753   1.727   1.534  17.556  0.0127  0.7330  0.3255
 8764SOL    HW137754   1.639   1.571  17.556  0.5069  1.9145 -0.1630
 8764SOL    HW237755   1.780   1.613  17.551 -0.0988  0.7377 -0.7368
 8765SOL     OW37756   1.918   1.202   2.964  0.0764  0.1491 -0.4591
 8765SOL    HW137757   1.861   1.143   2.914  0.0758  1.9734 -2.5930
 8765SOL    HW237758   1.845   1.248   3.007 -0.8968 -0.7580 -1.1265
 8766SOL     OW37759   3.925   4.191   1.062  0.8592 -0.2806 -0.4564
 8766SOL    HW137760   3.885   4.190   1.149 -1.3563 -1.1272 -1.4943
 8766SOL    HW237761   4.006   4.239   1.081 -0.2123  0.1552  3.0172
 8767SOL     OW37762   2.641   1.118  15.568  0.5198 -0.0874  0.1409
 8767SOL    HW137763   2.727   1.077  15.573  0.3926 -0.5000 -1.0179
 8767SOL    HW237764   2.632   1.127  15.473 -0.6248 -0.7509  0.1843
 8768SOL     OW37765   4.172   0.819   6.528 -0.0463  0.4361  0.1003
 8768SOL    HW137766   4.087   0.787   6.495 -0.9473  3.1638 -0.2483
 8768SOL    HW237767   4.191   0.863   6.445 -3.3537  2.1084  0.2332
 8769SOL     OW37768   1.156   1.543   3.703 -0.4301  0.8079 -0.0424
 8769SOL    HW137769   1.129   1.629   3.671  1.0641  0.5937 -1.8455
 8769SOL    HW237770   1.091   1.517   3.769 -0.4092 -0.0004 -0.3441
 8770SOL     OW37771   3.586   0.545  12.157 -0.0760 -0.1306 -0.1658
 8770SOL    HW137772   3.578   0.532  12.063  0.8281 -1.4572 -0.0646
 8770SOL    HW237773   3.679   0.568  12.160 -0.5239  1.5052  1.1745
 8771SOL     OW37774   2.637   2.196   6.243 -0.5345 -0.2843 -0.1456
 8771SOL    HW137775   2.604   2.217   6.331  0.2459  1.3220 -0.2347
 8771SOL    HW237776   2.563   2.206   6.184 -0.2702  0.2125 -0.3914
 8772SOL     OW37777   4.036   3.349   7.201  0.5679  0.2320 -0.3326
 8772SOL    HW137778   3.956   3.343   7.253  2.3090 -1.5088  2.1384
 8772SOL    HW237779   4.089   3.287   7.251 -0.1798 -0.2038 -0.0986
 8773SOL     OW37780   0.238   0.179  12.588 -0.4811  0.4458  0.1694
 8773SOL    HW137781   0.195   0.113  12.644  0.1605 -0.0116  0.1201
 8773SOL    HW237782   0.158   0.195  12.537 -0.0501 -0.3490 -0.7644
 8774SOL     OW37783   4.108   3.211   0.800  0.2784  0.3752  0.3126
 8774SOL    HW137784   4.111   3.233   0.893  1.1579 -1.2232  0.6660
 8774SOL    HW237785   4.013   3.197   0.801  0.1702  1.0127 -1.3655
 8775SOL     OW37786   3.282   2.646   9.118 -0.6350  0.1308 -0.2433
 8775SOL    HW137787   3.244   2.728   9.086  2.1184  1.7854  0.6431
 8775SOL    HW237788   3.207   2.587   9.118 -0.3338 -0.2649  0.9956
 8776SOL     OW37789   1.545   0.403   4.528 -0.0073  0.4195 -0.6419
 8776SOL    HW137790   1.510   0.315   4.512 -0.4044  0.8094 -1.9427
 8776SOL    HW237791   1.469   0.441   4.572 -0.8428  0.3962 -2.0644
 8777SOL     OW37792   0.230   4.000   6.031 -0.1153 -0.0727  0.1778
 8777SOL    HW137793   0.160   3.937   6.012  0.8993 -0.4566 -2.1808
 8777SOL    HW237794   0.260   3.956   6.111  2.5529  0.4264 -0.5582
 8778SOL     OW37795   4.703   1.994   1.475 -0.1715  0.2794 -0.4922
 8778SOL    HW137796   0.060   2.025   1.433 -0.5537  3.8103  1.4092
 8778SOL    HW237797   0.006   1.997   1.567 -0.6624 -1.2255 -0.3076
 8779SOL     OW37798   3.073   4.309   5.678 -0.4864 -0.1845  0.9560
 8779SOL    HW137799   3.023   4.276   5.602  1.1336 -3.0666  1.1418
 8779SOL    HW237800   3.102   4.228   5.719 -1.0342  0.1243  1.9581
 8780SOL     OW37801   2.861   2.718   6.643 -0.1780 -0.1241  0.6336
 8780SOL    HW137802   2.854   2.789   6.579 -3.7594 -1.4086 -0.3944
 8780SOL    HW237803   2.901   2.764   6.717  2.9744  0.8031 -1.6781
 8781SOL     OW37804   0.915   2.270  10.810 -0.6025  0.4141  0.0317
 8781SOL    HW137805   0.819   2.266  10.812 -0.5510 -1.0123 -0.2490
 8781SOL    HW237806   0.926   2.287  10.904 -1.4840 -2.5533  0.6614
 8782SOL     OW37807   2.976   2.727   3.552 -0.0848  0.1856  0.4961
 8782SOL    HW137808   2.989   2.690   3.465  1.4049  1.4568  0.1986
 8782SOL    HW237809   2.946   2.816   3.537 -0.8554  0.1315  1.6536
 8783SOL     OW37810   0.122   4.455   5.779  0.1088  0.3201 -0.2626
 8783SOL    HW137811   0.122   4.551   5.771 -2.2044  0.0972 -2.8955
 8783SOL    HW237812   0.193   4.444   5.843 -0.7858  0.0704  0.6798
 8784SOL     OW37813   4.355   2.384   7.258 -0.0822 -0.0562 -0.1301
 8784SOL    HW137814   4.381   2.385   7.351  1.1532  0.2881 -0.4813
 8784SOL    HW237815   4.409   2.453   7.221 -1.2724 -0.5094 -2.6841
 8785SOL     OW37816   2.064   0.937   1.159 -0.2695  0.0939 -0.2537
 8785SOL    HW137817   2.031   0.970   1.075 -1.8676 -3.5788 -1.0608
 8785SOL    HW237818   2.155   0.915   1.142 -1.3400 -3.5927 -1.2918
 8786SOL     OW37819   2.871   4.243   5.853  0.3228 -0.2041  0.1879
 8786SOL    HW137820   2.936   4.263   5.786  0.0122  0.7168  0.1672
 8786SOL    HW237821   2.810   4.185   5.807 -0.4082  2.2806 -1.9926
 8787SOL     OW37822   4.421   4.678   5.256  0.2392  0.3075  0.2953
 8787SOL    HW137823   4.403   4.624   5.332  0.4163  0.3559  0.3715
 8787SOL    HW237824   4.337   4.674   5.210  0.2980 -1.4406  0.3757
 8788SOL     OW37825   3.394   3.123  14.226  0.3553 -0.3267 -0.6397
 8788SOL    HW137826   3.341   3.200  14.247  0.6125 -0.2660 -0.2126
 8788SOL    HW237827   3.453   3.121  14.302  0.8562 -1.1328 -1.0590
 8789SOL     OW37828   3.739   3.726   6.016 -0.1062 -0.2099  0.0849
 8789SOL    HW137829   3.833   3.714   6.024  0.3389  3.5038  0.2506
 8789SOL    HW237830   3.731   3.737   5.921 -1.5630 -1.3923  0.0607
 8790SOL     OW37831   2.565   3.437  15.847 -0.2703 -0.4872  0.2906
 8790SOL    HW137832   2.471   3.423  15.845 -0.2845 -0.7006  2.6714
 8790SOL    HW237833   2.600   3.352  15.822 -1.2403 -1.3138  1.7777
 8791SOL     OW37834   4.305   2.341   8.970  0.0546 -0.1557 -0.0658
 8791SOL    HW137835   4.256   2.424   8.972  0.9068  0.3317  0.5953
 8791SOL    HW237836   4.236   2.279   8.994  0.6981 -0.0197  2.1630
 8792SOL     OW37837   1.325   0.371   0.702  0.0636 -0.1894 -0.4556
 8792SOL    HW137838   1.367   0.318   0.770  1.0255 -0.3028 -1.1414
 8792SOL    HW237839   1.273   0.427   0.760  1.5912  1.6232 -0.8490
 8793SOL     OW37840   1.102   0.227   0.569  0.2452  0.7190  0.2413
 8793SOL    HW137841   1.194   0.217   0.595 -0.1061 -3.6462 -0.1512
 8793SOL    HW237842   1.080   0.141   0.605  0.6880  0.6605  0.3750
 8794SOL     OW37843   3.749   1.263  14.573 -0.2265  0.1567  0.1679
 8794SOL    HW137844   3.712   1.319  14.642 -0.0115  1.8124 -1.0508
 8794SOL    HW237845   3.667   1.246  14.528  0.0952  1.1755 -0.8066
 8795SOL     OW37846   2.375   0.740   1.416  0.7373 -0.3188 -0.2265
 8795SOL    HW137847   2.360   0.654   1.377  1.2133  0.0421 -1.2010
 8795SOL    HW237848   2.458   0.776   1.386  0.3593 -0.8363 -1.8938
 8796SOL     OW37849   1.654   2.555   7.003 -0.1698  0.4578 -0.4170
 8796SOL    HW137850   1.687   2.474   7.042 -1.3182  0.2656  0.1366
 8796SOL    HW237851   1.596   2.518   6.937  0.0311  1.7186 -1.2910
 8797SOL     OW37852   3.461   3.794   5.101 -0.3587 -0.1741  0.4439
 8797SOL    HW137853   3.404   3.871   5.108 -0.2427  0.0413 -0.9077
 8797SOL    HW237854   3.449   3.770   5.009 -1.2905 -0.5885  0.6730
 8798SOL     OW37855   2.772   3.805  15.846 -0.2900 -0.0452  0.3659
 8798SOL    HW137856   2.724   3.771  15.771  1.5888  0.9156 -1.2486
 8798SOL    HW237857   2.790   3.896  15.825  1.1774  0.7125  4.7952
 8799SOL     OW37858   4.288   2.734  16.585  0.0516 -0.1940  0.2779
 8799SOL    HW137859   4.382   2.721  16.603 -0.0060  0.8505  1.3430
 8799SOL    HW237860   4.267   2.641  16.580 -0.5783  0.0058 -0.6077
 8800SOL     OW37861   1.461   0.477   3.812 -0.6642 -0.4022  0.3326
 8800SOL    HW137862   1.518   0.492   3.887 -0.2249  1.2278 -0.3244
 8800SOL    HW237863   1.501   0.534   3.746  0.8570 -0.2600  1.3874
 8801SOL     OW37864   4.036   4.211  11.096  0.0735 -0.7666 -0.3636
 8801SOL    HW137865   4.097   4.283  11.108  0.2807 -1.1389  0.8634
 8801SOL    HW237866   4.064   4.159  11.171 -0.5060 -2.0148 -1.0203
 8802SOL     OW37867   2.041   3.045  11.658 -0.0734  0.0509  0.0157
 8802SOL    HW137868   2.107   2.981  11.686  0.1263  0.5182  0.6145
 8802SOL    HW237869   2.080   3.126  11.689  0.3993  0.8179 -2.5615
 8803SOL     OW37870   4.427   4.289  10.265 -0.3858  0.1264  0.4502
 8803SOL    HW137871   4.375   4.337  10.330  0.5242  1.5212  0.1358
 8803SOL    HW237872   4.425   4.197  10.293  2.0894 -0.5002 -1.3996
 8804SOL     OW37873   0.657   4.490   5.443 -1.1176  0.3675 -0.0681
 8804SOL    HW137874   0.598   4.561   5.466 -1.6644  0.7307 -2.5130
 8804SOL    HW237875   0.659   4.429   5.516 -0.5479 -0.2321 -0.5739
 8805SOL     OW37876   1.902   1.837   2.252 -0.6567  0.2404  0.2046
 8805SOL    HW137877   1.813   1.802   2.245 -0.8128  1.0576 -1.9118
 8805SOL    HW237878   1.933   1.792   2.330 -0.0868  3.1884  1.7030
 8806SOL     OW37879   2.804   1.425   9.506 -0.1523 -0.5410  0.2674
 8806SOL    HW137880   2.765   1.338   9.501 -0.1542 -0.5420  0.2991
 8806SOL    HW237881   2.733   1.479   9.469  1.2278 -0.1617 -1.8308
 8807SOL     OW37882   1.299   3.693   1.348 -0.4257  0.3156 -0.5145
 8807SOL    HW137883   1.388   3.658   1.339 -0.9933 -1.2745  0.0620
 8807SOL    HW237884   1.329   3.784   1.355  0.0923  0.0646  0.5075
 8808SOL     OW37885   3.353   4.616   1.769 -0.0037 -0.0597 -0.2286
 8808SOL    HW137886   3.447   4.611   1.750 -0.3182  0.3479 -1.9441
 8808SOL    HW237887   3.335   4.706   1.742  0.0475  0.1521  0.4617
 8809SOL     OW37888   4.488   2.778   0.595  0.1512 -0.7508  0.3218
 8809SOL    HW137889   4.468   2.789   0.688  0.1864  1.0917  0.1113
 8809SOL    HW237890   4.563   2.835   0.576  0.4132 -1.7698 -1.8129
 8810SOL     OW37891   3.964   1.633   1.442 -0.0656 -0.0575  0.6034
 8810SOL    HW137892   3.898   1.658   1.378  3.1684  2.7328 -1.6845
 8810SOL    HW237893   3.910   1.627   1.520 -2.0377  0.4445 -0.7413
 8811SOL     OW37894   1.136   4.009   9.658 -0.2378  0.3498 -0.4196
 8811SOL    HW137895   1.112   3.958   9.735  1.7672  1.4939  0.9553
 8811SOL    HW237896   1.164   4.089   9.702  0.3348 -1.0280  1.7021
 8812SOL     OW37897   3.316   4.261   3.605 -0.2421 -0.1442  0.3178
 8812SOL    HW137898   3.336   4.196   3.538 -0.6292  1.2582 -1.1439
 8812SOL    HW237899   3.343   4.347   3.572 -1.7833  0.6992  1.2117
 8813SOL     OW37900   3.391   4.430   3.820 -0.1599  0.1455  0.0378
 8813SOL    HW137901   3.354   4.379   3.892  0.9849 -1.4742 -0.5000
 8813SOL    HW237902   3.419   4.359   3.761  1.6591  1.9710 -1.3279
 8814SOL     OW37903   0.791   0.765   6.574 -0.7585 -0.1915  0.0857
 8814SOL    HW137904   0.765   0.778   6.483 -0.2005 -1.7837 -0.3136
 8814SOL    HW237905   0.844   0.685   6.564 -0.1533  0.2050  0.1309
 8815SOL     OW37906   2.222   4.002   8.073  0.2867  0.1153 -0.0723
 8815SOL    HW137907   2.131   4.028   8.087  0.0652 -0.3920 -0.5973
 8815SOL    HW237908   2.217   3.994   7.977  3.0577 -1.8428 -0.0403
 8816SOL     OW37909   4.158   1.000   2.454 -0.2349 -0.2252  0.2004
 8816SOL    HW137910   4.197   1.005   2.367 -0.2731  0.1172  0.2050
 8816SOL    HW237911   4.069   0.971   2.434 -0.7519  1.3255  0.2507
 8817SOL     OW37912   3.571   2.168   8.413  0.1408  0.4742  0.3614
 8817SOL    HW137913   3.618   2.087   8.432 -1.3599 -0.6529 -0.7820
 8817SOL    HW237914   3.608   2.174   8.326  1.5667 -0.4866  0.9057
 8818SOL     OW37915   3.779   0.394   4.586 -0.4903  0.2442  0.6683
 8818SOL    HW137916   3.803   0.482   4.613  0.3737 -0.2942  1.6179
 8818SOL    HW237917   3.735   0.410   4.502  0.4090 -2.9685 -0.4217
 8819SOL     OW37918   2.722   4.242   8.380 -0.5568  0.3405 -0.0516
 8819SOL    HW137919   2.641   4.222   8.427 -0.3340 -1.9057 -0.6250
 8819SOL    HW237920   2.782   4.204   8.444  0.7203 -0.2336 -1.5906
 8820SOL     OW37921   1.448   3.771   5.222 -0.2212 -0.0799 -0.1540
 8820SOL    HW137922   1.532   3.817   5.216  0.5361 -1.4284  0.3184
 8820SOL    HW237923   1.439   3.750   5.129  1.3770 -0.1351 -0.2873
 8821SOL     OW37924   0.604   1.114   3.194 -0.2794  0.3343 -0.1437
 8821SOL    HW137925   0.646   1.175   3.132  1.1655  1.9575  2.4390
 8821SOL    HW237926   0.674   1.050   3.205 -1.1875 -0.3836  1.4382
 8822SOL     OW37927   0.514   2.496  13.881  0.1930 -0.0911 -0.2224
 8822SOL    HW137928   0.577   2.482  13.952 -0.6594 -0.9496  0.3630
 8822SOL    HW237929   0.441   2.440  13.906  0.6156 -0.9636 -0.9523
 8823SOL     OW37930   1.162   2.959   7.435  0.5466  0.0550  0.6457
 8823SOL    HW137931   1.146   3.001   7.350  3.4398 -2.6896 -1.2603
 8823SOL    HW237932   1.143   3.032   7.493 -2.5365 -0.3951  0.2046
 8824SOL     OW37933   0.068   3.848   7.281  0.1476  0.3259  0.3372
 8824SOL    HW137934   0.004   3.892   7.337  0.8858  2.9321 -0.8533
 8824SOL    HW237935   0.031   3.873   7.197  0.7417 -1.6645 -0.5091
 8825SOL     OW37936   4.081   0.458   3.440  0.0584  0.4631 -0.8070
 8825SOL    HW137937   4.111   0.369   3.418  1.4296  0.9215 -0.7962
 8825SOL    HW237938   3.988   0.443   3.455  0.5315  0.3175  1.9923
 8826SOL     OW37939   2.061   3.690   6.914  0.2529 -0.7077  0.5822
 8826SOL    HW137940   1.972   3.665   6.938 -0.0111  1.9542  2.3889
 8826SOL    HW237941   2.097   3.746   6.983 -0.4733  0.0061  0.3781
 8827SOL     OW37942   1.156   2.735  13.688 -0.0594 -0.0284  0.6743
 8827SOL    HW137943   1.083   2.778  13.733 -0.1103  1.1332 -0.5240
 8827SOL    HW237944   1.222   2.738  13.757  1.8519  1.2988 -1.2523
 8828SOL     OW37945   4.129   3.522  13.145  0.3495  0.4960  0.4689
 8828SOL    HW137946   4.043   3.563  13.129  0.6425  1.3689  1.1239
 8828SOL    HW237947   4.186   3.530  13.068 -2.5973 -0.1756 -1.8070
 8829SOL     OW37948   2.614   4.490  11.187  0.1916 -0.7362 -0.4437
 8829SOL    HW137949   2.675   4.419  11.171 -0.2863 -1.1037 -0.6570
 8829SOL    HW237950   2.551   4.434  11.231 -0.3413  1.2004  1.2548
 8830SOL     OW37951   4.281   1.475  14.428 -0.0445 -0.2244  0.1327
 8830SOL    HW137952   4.259   1.521  14.509 -3.4835 -0.9392 -0.4133
 8830SOL    HW237953   4.245   1.388  14.446 -1.6841  0.9975  2.8274
 8831SOL     OW37954   2.952   2.195   1.992  0.4979 -0.4226 -0.7613
 8831SOL    HW137955   2.884   2.137   2.028 -0.1800  0.5087 -0.5189
 8831SOL    HW237956   2.903   2.276   1.976 -4.2266 -3.4864 -2.0249
 8832SOL     OW37957   1.956   3.427   5.209 -0.2918  0.1911 -0.2968
 8832SOL    HW137958   2.050   3.423   5.192 -0.1166 -1.0154  0.9305
 8832SOL    HW237959   1.923   3.408   5.121 -0.7972  2.3918 -0.5853
 8833SOL     OW37960   4.051   3.710   2.563  0.1363  0.1755 -0.7825
 8833SOL    HW137961   3.956   3.697   2.567  0.4553 -1.8500  0.3829
 8833SOL    HW237962   4.080   3.651   2.632  1.3150  0.3721 -1.1144
 8834SOL     OW37963   1.103   4.068   5.957  0.6932 -0.3837 -0.0523
 8834SOL    HW137964   1.185   4.056   5.910  0.2951 -1.3668 -0.4845
 8834SOL    HW237965   1.120   4.057   6.050  1.1320 -1.5960 -0.2762
 8835SOL     OW37966   2.205   3.238  14.655 -0.1999 -0.1743  0.1255
 8835SOL    HW137967   2.126   3.261  14.604  0.9396  1.9302 -0.6791
 8835SOL    HW237968   2.244   3.179  14.591  3.2285  2.2499 -0.0023
 8836SOL     OW37969   0.723   2.229   6.635  0.6497  0.7013  0.5442
 8836SOL    HW137970   0.781   2.277   6.576  0.3167  1.7595  1.0702
 8836SOL    HW237971   0.642   2.235   6.586  0.9502  0.1931 -0.0138
 8837SOL     OW37972   3.605   4.167   4.079  0.5450 -0.5247 -0.4893
 8837SOL    HW137973   3.666   4.195   4.011  1.0000  1.1797  0.5874
 8837SOL    HW237974   3.626   4.244   4.134  0.0400 -0.7705  0.0499
 8838SOL     OW37975   2.471   3.018  11.105  0.1970 -0.5113 -0.4214
 8838SOL    HW137976   2.448   3.010  11.197  4.1434 -2.5256  0.3765
 8838SOL    HW237977   2.448   3.111  11.095  0.2023 -0.2734  1.8450
 8839SOL     OW37978   4.401   3.495   9.130 -0.5036 -0.4147  0.4057
 8839SOL    HW137979   4.468   3.508   9.063 -0.3159  0.1715  0.7046
 8839SOL    HW237980   4.408   3.399   9.133  2.3906 -0.2020  0.2468
 8840SOL     OW37981   4.602   3.367   8.131 -0.5355 -0.1666  0.3286
 8840SOL    HW137982   4.640   3.287   8.095 -1.4454 -0.9430  1.0811
 8840SOL    HW237983   4.536   3.384   8.064  1.7034 -0.8252 -2.0108
 8841SOL     OW37984   0.296   1.928  10.945 -0.0397 -0.3280 -0.6311
 8841SOL    HW137985   0.369   1.989  10.949 -0.0252 -0.3861 -0.0174
 8841SOL    HW237986   0.302   1.899  10.853  0.2892  0.4908 -0.8642
 8842SOL     OW37987   4.603   3.065   7.721 -0.1868 -0.2082 -0.4071
 8842SOL    HW137988   4.649   3.098   7.644 -2.9666  0.2518 -1.8699
 8842SOL    HW237989   4.551   3.144   7.732 -0.0234 -0.1038 -0.3818
 8843SOL     OW37990   2.446   0.731  16.660  0.4993  0.6559  0.2678
 8843SOL    HW137991   2.391   0.703  16.733 -0.7004  0.1595 -0.8328
 8843SOL    HW237992   2.391   0.719  16.583 -0.9378 -1.4090  1.5968
 8844SOL     OW37993   3.978   4.210  16.310 -0.7040 -0.3971 -0.2612
 8844SOL    HW137994   4.014   4.293  16.278 -2.0471 -0.3912 -1.7760
 8844SOL    HW237995   3.981   4.224  16.405  0.3898  3.6432 -0.8866
 8845SOL     OW37996   0.898   3.138   3.606 -0.6980  0.8314 -0.2240
 8845SOL    HW137997   0.919   3.153   3.514  0.3596 -0.4100 -0.1902
 8845SOL    HW237998   0.805   3.117   3.599 -0.1529 -1.5181 -0.4696
 8846SOL     OW37999   2.708   3.480   6.393  0.6296 -0.4689 -0.3686
 8846SOL    HW138000   2.647   3.517   6.329 -0.2630  1.6837  1.7254
 8846SOL    HW238001   2.738   3.401   6.347 -0.4686 -0.5255 -0.9859
 8847SOL     OW38002   2.063   4.056   6.539 -0.3153  0.5265 -0.1591
 8847SOL    HW138003   2.140   4.001   6.529 -0.9529 -0.2299 -0.9020
 8847SOL    HW238004   2.062   4.065   6.635 -0.9096  2.4839 -0.3608
 8848SOL     OW38005   0.892   3.244   6.512  0.5440 -0.8637 -0.5739
 8848SOL    HW138006   0.962   3.303   6.483 -2.4809  0.8918 -4.2503
 8848SOL    HW238007   0.912   3.163   6.465  0.6322 -2.1620  1.7046
 8849SOL     OW38008   3.529   1.852  11.794 -0.1808 -0.4780  0.5721
 8849SOL    HW138009   3.526   1.890  11.706  0.4738  0.1243  0.8190
 8849SOL    HW238010   3.623   1.840  11.804 -0.4587 -1.3022  2.1799
 8850SOL     OW38011   2.027   0.720   9.243  0.9331 -0.4522 -1.1721
 8850SOL    HW138012   2.059   0.685   9.327 -0.7197 -0.8632 -0.7160
 8850SOL    HW238013   2.094   0.780   9.210  1.3327 -0.7552 -0.9263
 8851SOL     OW38014   3.589   3.182   6.542  0.7437 -0.3520 -0.0389
 8851SOL    HW138015   3.549   3.104   6.580  0.3179 -0.9546 -1.7287
 8851SOL    HW238016   3.576   3.241   6.617 -0.7057 -0.7198 -0.0009
 8852SOL     OW38017   3.305   3.208   5.217  0.0758  0.2778  0.1813
 8852SOL    HW138018   3.384   3.261   5.227  0.5943 -0.5096  0.2640
 8852SOL    HW238019   3.273   3.182   5.303 -2.2699  3.0423  0.1343
 8853SOL     OW38020   4.179   3.590   4.011  0.0578 -0.0919  0.4614
 8853SOL    HW138021   4.199   3.682   4.001  0.1277 -0.2275 -0.6291
 8853SOL    HW238022   4.255   3.551   4.053 -0.0836 -3.1590 -2.0782
 8854SOL     OW38023   0.818   2.905  11.893 -0.0125  0.4320  0.2636
 8854SOL    HW138024   0.884   2.946  11.949  1.8635 -1.1589 -0.8008
 8854SOL    HW238025   0.744   2.947  11.937 -0.3550  0.0015  0.0961
 8855SOL     OW38026   1.921   0.329   8.288  0.1067 -0.0871 -0.3490
 8855SOL    HW138027   2.011   0.298   8.273  1.2409  1.5567  3.0757
 8855SOL    HW238028   1.896   0.347   8.197 -2.5130  2.8241  0.9668
 8856SOL     OW38029   2.024   2.784   8.667 -0.2077 -0.5208  0.1401
 8856SOL    HW138030   1.999   2.804   8.757  0.1986 -4.4855  1.1469
 8856SOL    HW238031   2.000   2.691   8.666 -2.5009  0.0553  1.4582
 8857SOL     OW38032   2.366   0.256  10.718  0.7088 -0.6374  0.0557
 8857SOL    HW138033   2.458   0.235  10.730  0.5735 -1.3192 -0.0719
 8857SOL    HW238034   2.344   0.284  10.807  0.8887  0.4316 -0.2381
 8858SOL     OW38035   4.590   3.317   9.781  0.7950  0.4780 -0.2579
 8858SOL    HW138036   4.673   3.366   9.784  1.3604 -0.5441  1.0074
 8858SOL    HW238037   4.571   3.299   9.873  0.8563  0.7294 -0.1955
 8859SOL     OW38038   3.786   3.176  13.530  0.3555 -0.0730 -0.3288
 8859SOL    HW138039   3.746   3.262  13.530 -1.5343 -0.9755  2.7735
 8859SOL    HW238040   3.817   3.173  13.439 -1.9479  0.7479 -1.1335
 8860SOL     OW38041   0.264   4.276   7.248 -0.2766  0.3629  0.5681
 8860SOL    HW138042   0.190   4.315   7.294  0.2458  0.4794  1.3092
 8860SOL    HW238043   0.224   4.267   7.162  0.9251 -0.7601  0.1276
 8861SOL     OW38044   0.069   1.312   6.507  0.3892 -0.4152  0.6210
 8861SOL    HW138045   0.019   1.321   6.426 -0.6769 -2.3313  1.0811
 8861SOL    HW238046   0.134   1.377   6.480  1.0209 -1.9752 -1.6401
 8862SOL     OW38047   1.299   2.836  14.825  0.1342  0.3667 -0.2933
 8862SOL    HW138048   1.306   2.741  14.830 -0.7123  0.3429  0.5986
 8862SOL    HW238049   1.210   2.862  14.851 -0.3413  0.7324 -2.2620
 8863SOL     OW38050   2.510   1.112   7.328 -0.4247  0.5327  0.1720
 8863SOL    HW138051   2.556   1.183   7.371  0.3884 -0.1575  0.4518
 8863SOL    HW238052   2.571   1.066   7.270 -1.0590  0.6674 -0.6041
 8864SOL     OW38053   1.519   3.326  11.915 -0.4756  0.3324 -0.1687
 8864SOL    HW138054   1.542   3.235  11.897  0.0772  0.8231 -1.9700
 8864SOL    HW238055   1.433   3.305  11.952 -0.8182  2.0523 -0.0130
 8865SOL     OW38056   0.301   2.935   5.230 -0.4695  0.1152  0.0571
 8865SOL    HW138057   0.294   2.928   5.135 -1.2200 -0.9014  0.1948
 8865SOL    HW238058   0.397   2.939   5.235 -0.4282  0.7637 -1.2141
 8866SOL     OW38059   3.937   3.541  12.047  0.4902  0.0245  0.1252
 8866SOL    HW138060   3.986   3.581  11.975  1.1169  2.6983  2.0587
 8866SOL    HW238061   3.896   3.462  12.011 -0.4111 -0.0760  1.3701
 8867SOL     OW38062   3.655   3.775  13.979  0.2173 -0.1502 -0.0700
 8867SOL    HW138063   3.640   3.866  14.001  1.2321  0.0466 -0.1946
 8867SOL    HW238064   3.589   3.730  14.034 -0.6585  0.4032 -0.6778
 8868SOL     OW38065   1.471   0.487   1.678  0.7617  0.5025 -0.1165
 8868SOL    HW138066   1.557   0.468   1.715  1.2901 -0.9372 -2.0151
 8868SOL    HW238067   1.485   0.513   1.587  2.9263 -0.9589 -0.1890
 8869SOL     OW38068   0.433   0.001   7.634  0.1305 -0.5843 -0.5843
 8869SOL    HW138069   0.527   0.003   7.648  0.4594 -1.6251 -2.6872
 8869SOL    HW238070   0.437   0.067   7.566 -2.1406  1.6025  1.3678
 8870SOL     OW38071   0.188   0.798   8.241  0.1165  0.3116  0.1195
 8870SOL    HW138072   0.253   0.861   8.271  0.5902  0.9915 -2.4023
 8870SOL    HW238073   0.156   0.839   8.161 -0.4965 -0.5799 -0.0967
 8871SOL     OW38074   3.492   1.283   4.517 -0.1935 -0.4178 -0.0789
 8871SOL    HW138075   3.529   1.253   4.433  0.5217  1.4306 -0.4196
 8871SOL    HW238076   3.568   1.278   4.575  0.6478  0.4049 -1.1046
 8872SOL     OW38077   2.085   1.299  17.057  0.3971 -0.4838  0.2913
 8872SOL    HW138078   2.075   1.394  17.066 -2.1824 -0.7617  0.3860
 8872SOL    HW238079   2.027   1.274  16.984 -0.5812  2.1506  0.1698
 8873SOL     OW38080   2.970   0.833   6.116  0.6050  0.0410  0.1466
 8873SOL    HW138081   3.040   0.891   6.088  0.0875 -0.0333 -1.2559
 8873SOL    HW238082   2.963   0.773   6.042  0.6528 -1.5964  1.4476
 8874SOL     OW38083   0.061   4.711   4.359  0.2540  0.0830  0.1581
 8874SOL    HW138084   0.069   4.626   4.403 -1.3739  0.3399  0.9469
 8874SOL    HW238085   0.154   0.010   4.360  0.2807  0.1143 -2.3775
 8875SOL     OW38086   4.572   4.405   7.829 -0.1065  0.6217  0.0080
 8875SOL    HW138087   4.556   4.499   7.828  0.1389  0.6641  0.0693
 8875SOL    HW238088   4.482   4.371   7.831 -0.1151  0.5954 -0.8830
 8876SOL     OW38089   3.851   2.487  11.686 -0.0051 -0.4710 -0.2794
 8876SOL    HW138090   3.901   2.486  11.604  0.7547  2.9997  0.1535
 8876SOL    HW238091   3.922   2.476  11.749  0.8968 -0.4955 -1.2779
 8877SOL     OW38092   0.354   4.279  14.111  1.0001  0.9824 -0.2941
 8877SOL    HW138093   0.373   4.240  14.025  0.5985 -0.2576  0.1795
 8877SOL    HW238094   0.312   4.197  14.137 -1.5205  2.6593  0.9820
 8878SOL     OW38095   1.800   0.135   4.627 -0.4312  0.0834 -0.2432
 8878SOL    HW138096   1.722   0.130   4.683  0.1715  2.2120  0.7646
 8878SOL    HW238097   1.845   0.195   4.686 -4.0791  3.1972 -0.6205
 8879SOL     OW38098   0.693   1.106   3.552  0.0733  0.4391  0.0274
 8879SOL    HW138099   0.639   1.168   3.503 -0.2638  1.7253  2.0171
 8879SOL    HW238100   0.696   1.142   3.641  1.1264 -1.0805  0.6140
 8880SOL     OW38101   0.933   1.577   6.041  0.6258  0.4020 -0.4138
 8880SOL    HW138102   0.996   1.505   6.041 -0.9000 -0.9573  2.9295
 8880SOL    HW238103   0.892   1.567   5.955 -0.0972 -1.0764  0.0973
 8881SOL     OW38104   2.249   2.528   5.370 -0.2254  0.2725  0.3097
 8881SOL    HW138105   2.330   2.491   5.404  0.5052  1.4460 -0.1726
 8881SOL    HW238106   2.288   2.612   5.346  0.7975 -0.0057  1.0159
 8882SOL     OW38107   0.049   1.875  16.746 -0.3692 -0.0750 -0.8631
 8882SOL    HW138108   0.075   1.784  16.757  0.9704  0.3643 -0.3020
 8882SOL    HW238109   0.131   1.916  16.775 -0.9086  1.3952 -1.4347
 8883SOL     OW38110   0.414   0.350   6.588  0.3142 -0.2537 -0.0390
 8883SOL    HW138111   0.462   0.433   6.578 -2.6052  1.4368 -0.1961
 8883SOL    HW238112   0.339   0.359   6.529  1.1740 -0.4132 -1.1627
 8884SOL     OW38113   0.587   0.293  14.571 -0.2610  0.2538  0.0973
 8884SOL    HW138114   0.537   0.272  14.649 -0.9568 -2.4559 -1.0710
 8884SOL    HW238115   0.679   0.269  14.583  0.3269  2.1349 -0.5956
 8885SOL     OW38116   2.968   0.732   3.294  0.6361  0.5122 -0.3823
 8885SOL    HW138117   3.036   0.678   3.336 -0.5796 -0.6429  0.1239
 8885SOL    HW238118   2.891   0.704   3.344  0.1140  1.2452 -0.7886
 8886SOL     OW38119   3.056   4.164  10.247 -0.5810  0.6732 -0.6889
 8886SOL    HW138120   3.116   4.116  10.190 -0.0981  0.5894 -0.1072
 8886SOL    HW238121   3.075   4.135  10.336  0.4042 -0.4397 -1.2697
 8887SOL     OW38122   3.659   0.249  12.034 -0.5199 -0.4626  0.4297
 8887SOL    HW138123   3.567   0.233  12.052 -0.6675  1.1583  1.0968
 8887SOL    HW238124   3.675   0.333  12.078  1.9738 -0.5173 -0.3831
 8888SOL     OW38125   4.184   1.817   5.211  0.1998 -0.0052  0.3274
 8888SOL    HW138126   4.258   1.848   5.159  0.8340 -0.6395  0.8504
 8888SOL    HW238127   4.218   1.732   5.241 -3.4293 -0.7176  2.3585
 8889SOL     OW38128   2.437   4.134   9.285  0.0966  0.4291  0.1693
 8889SOL    HW138129   2.363   4.195   9.282 -0.3094 -0.0549  0.4771
 8889SOL    HW238130   2.514   4.189   9.271  0.9969 -0.4985  1.4280
 8890SOL     OW38131   4.319   2.960  15.795 -0.6789  0.1369 -0.1480
 8890SOL    HW138132   4.294   2.900  15.866  1.5073  0.1629  0.6548
 8890SOL    HW238133   4.322   3.042  15.845  0.1451  1.0978 -1.7967
 8891SOL     OW38134   1.687   3.274   8.287 -0.4834  0.3119 -0.2692
 8891SOL    HW138135   1.674   3.240   8.376 -0.9916 -1.1711 -0.9209
 8891SOL    HW238136   1.733   3.354   8.313 -0.1108  0.3252 -0.9770
 8892SOL     OW38137   0.970   1.180   7.355 -0.8907  0.2033 -0.3407
 8892SOL    HW138138   0.893   1.232   7.377  0.5529  1.9040  0.6823
 8892SOL    HW238139   0.942   1.125   7.281 -3.6605 -0.4048  1.1358
 8893SOL     OW38140   3.567   4.444   5.536  0.3722 -0.3497 -0.3195
 8893SOL    HW138141   3.562   4.472   5.445 -0.7827  2.3170  0.5779
 8893SOL    HW238142   3.529   4.521   5.577  1.1046  0.7242 -1.6614
 8894SOL     OW38143   2.952   0.104  16.740  0.0241  0.1160 -0.1980
 8894SOL    HW138144   2.870   0.094  16.693 -0.1902  0.7884  0.0302
 8894SOL    HW238145   2.950   0.199  16.745 -1.9268  0.1450 -1.6742
 8895SOL     OW38146   1.846   1.930  13.120  0.3609 -0.2804  0.7984
 8895SOL    HW138147   1.797   1.984  13.182  0.1392  0.7759 -0.3071
 8895SOL    HW238148   1.798   1.948  13.040  1.2717 -1.5805 -0.0353
 8896SOL     OW38149   3.249   0.474  12.345  0.2479  0.1109  0.2442
 8896SOL    HW138150   3.338   0.441  12.350  0.7001  1.0349 -1.6027
 8896SOL    HW238151   3.268   0.567  12.331  1.7042 -0.2066  0.2147
 8897SOL     OW38152   2.990   0.441   0.572 -0.3822  0.1377 -0.3474
 8897SOL    HW138153   2.931   0.498   0.621  0.9468  0.1504  1.2134
 8897SOL    HW238154   3.019   0.380   0.639 -0.1352  2.1188  1.3248
 8898SOL     OW38155   0.006   2.866   7.850 -0.4378 -0.5154 -0.9276
 8898SOL    HW138156   4.682   2.940   7.815 -1.5494  0.3136  2.2880
 8898SOL    HW238157   0.091   2.877   7.808 -1.0110  0.4521 -1.8351
 8899SOL     OW38158   1.479   2.809  11.552 -0.1687 -0.3482 -0.2809
 8899SOL    HW138159   1.487   2.730  11.606  1.7136  0.2389  0.2777
 8899SOL    HW238160   1.542   2.866  11.596 -3.0077  2.8496 -0.3294
 8900SOL     OW38161   1.017   3.495  13.276  0.0027  0.4097 -0.2169
 8900SOL    HW138162   1.004   3.436  13.350 -1.5025 -0.5299 -1.2243
 8900SOL    HW238163   1.108   3.474  13.255 -0.5539 -2.0425 -0.2265
 8901SOL     OW38164   3.640   0.075   7.980  0.6697  1.1130 -0.1073
 8901SOL    HW138165   3.642   0.019   8.058  1.7537 -0.5617 -1.3404
 8901SOL    HW238166   3.570   0.027   7.934  0.0708 -1.0781  3.0386
 8902SOL     OW38167   1.099   3.406   6.450 -0.1541 -0.1879  0.0226
 8902SOL    HW138168   1.166   3.339   6.440 -1.8156 -1.7873 -0.5155
 8902SOL    HW238169   1.148   3.484   6.476 -0.3784  0.3880 -1.2659
 8903SOL     OW38170   4.133   1.596   5.727 -0.0835 -0.0365 -0.2171
 8903SOL    HW138171   4.224   1.593   5.696 -0.2120  1.7196 -0.7174
 8903SOL    HW238172   4.118   1.504   5.749 -0.7931  0.2540  0.5247
 8904SOL     OW38173   0.211   0.870  10.902 -0.1492  0.9563  0.3485
 8904SOL    HW138174   0.228   0.813  10.976 -2.2648 -0.6117 -0.3700
 8904SOL    HW238175   0.117   0.852  10.899  0.4654 -2.0431 -1.2111
 8905SOL     OW38176   4.102   2.682   2.760  0.3514 -0.0074 -0.2519
 8905SOL    HW138177   4.123   2.612   2.698 -1.0841  1.3113 -2.2087
 8905SOL    HW238178   4.190   2.719   2.765  0.4436 -0.3157  0.4445
 8906SOL     OW38179   3.639   2.636   4.644  0.0440  0.5370 -0.1077
 8906SOL    HW138180   3.584   2.559   4.627 -1.0068  1.0969  0.7299
 8906SOL    HW238181   3.628   2.649   4.738  1.2334  1.9519 -0.1720
 8907SOL     OW38182   0.347   0.363  10.331  0.3070  0.4974 -0.4236
 8907SOL    HW138183   0.354   0.282  10.380  0.0561  0.8976  0.2763
 8907SOL    HW238184   0.288   0.420  10.381 -2.2791 -2.4082 -0.1741
 8908SOL     OW38185   2.438   4.576   5.130 -0.1767  0.0814  0.0722
 8908SOL    HW138186   2.505   4.509   5.115 -0.4295  0.1752 -1.5171
 8908SOL    HW238187   2.396   4.552   5.213 -1.7605 -0.7133 -0.9583
 8909SOL     OW38188   1.722   0.025  13.113 -0.6149 -0.2599 -0.5994
 8909SOL    HW138189   1.736   0.039  13.019 -0.4633 -1.9848 -0.8293
 8909SOL    HW238190   1.699   0.114  13.138  0.1397 -0.6202  1.3498
 8910SOL     OW38191   0.667   3.848   7.491  0.2978 -0.0282 -0.0466
 8910SOL    HW138192   0.662   3.886   7.403  1.7240  1.6571  0.6088
 8910SOL    HW238193   0.573   3.832   7.501  0.7579 -3.8905 -1.9447
 8911SOL     OW38194   2.668   1.675   0.761  0.2576 -0.0882  0.8855
 8911SOL    HW138195   2.619   1.596   0.787  1.2909 -1.2107 -0.5565
 8911SOL    HW238196   2.602   1.719   0.707  1.0239 -1.9836 -1.6036
 8912SOL     OW38197   4.310   1.630   0.810 -0.2232  0.2781 -0.1152
 8912SOL    HW138198   4.349   1.717   0.817 -0.1919  0.2823 -0.3459
 8912SOL    HW238199   4.247   1.643   0.740  1.9860 -1.0911 -2.3376
 8913SOL     OW38200   3.498   3.231   0.123 -0.4777 -0.0432  0.6771
 8913SOL    HW138201   3.557   3.281   0.068  1.0608  0.4225  2.7589
 8913SOL    HW238202   3.539   3.144   0.122  0.8809  0.6118 -0.7794
 8914SOL     OW38203   4.528   3.525  12.063 -0.3186  0.2128  0.4756
 8914SOL    HW138204   4.464   3.569  12.118 -1.0296 -2.8958  2.1516
 8914SOL    HW238205   4.533   3.441  12.109  0.8240 -0.9473 -1.7422
 8915SOL     OW38206   4.087   0.089   5.299 -0.6823  0.4617 -0.2480
 8915SOL    HW138207   4.153   0.112   5.365 -1.2579  1.4736 -0.0302
 8915SOL    HW238208   4.045   0.018   5.348 -1.9533  1.6463  0.3960
 8916SOL     OW38209   4.120   1.202   3.421  0.0337 -0.2901  0.2729
 8916SOL    HW138210   4.081   1.216   3.334  0.9833  2.7964  0.3701
 8916SOL    HW238211   4.207   1.240   3.411 -1.9352  3.3566 -2.6508
 8917SOL     OW38212   4.289   1.756   3.747 -0.2844 -0.3289  0.0378
 8917SOL    HW138213   4.322   1.723   3.831 -0.6623 -2.7126 -0.7459
 8917SOL    HW238214   4.264   1.847   3.758  2.5332  0.3732  0.5214
 8918SOL     OW38215   4.299   3.534   1.658  0.1962  0.0656 -0.0849
 8918SOL    HW138216   4.262   3.522   1.746  1.2002  2.5028  0.6694
 8918SOL    HW238217   4.346   3.454   1.638 -0.3159 -0.0344 -0.9197
 8919SOL     OW38218   4.561   3.541   3.634  0.3651  0.1364  0.0465
 8919SOL    HW138219   4.603   3.602   3.573 -0.2641  1.3885  0.8470
 8919SOL    HW238220   4.540   3.609   3.699  3.6396  0.5943  0.6312
 8920SOL     OW38221   2.175   3.253  11.757 -0.1186 -0.1675  0.2697
 8920SOL    HW138222   2.239   3.297  11.813  0.1311  0.6919 -0.6831
 8920SOL    HW238223   2.124   3.322  11.714 -3.3356 -1.2625  2.3134
 8921SOL     OW38224   3.331   0.653   5.168  0.5268 -0.3357 -0.1401
 8921SOL    HW138225   3.245   0.687   5.193  0.7995  0.4112 -0.2327
 8921SOL    HW238226   3.391   0.722   5.195  1.5274 -2.0372  1.9441
 8922SOL     OW38227   2.728   1.383  13.383 -0.1889 -0.0106 -0.0716
 8922SOL    HW138228   2.811   1.371  13.428  0.0761 -0.2271 -0.6132
 8922SOL    HW238229   2.705   1.294  13.355  1.0926 -0.7970  1.4219
 8923SOL     OW38230   3.747   3.795  12.158 -0.2621 -0.0882  1.1304
 8923SOL    HW138231   3.703   3.877  12.138  0.2298 -0.1389 -0.1519
 8923SOL    HW238232   3.815   3.832  12.214  0.7530 -0.7416  0.3463
 8924SOL     OW38233   2.896   0.486   7.574  0.5889  0.8079 -0.2343
 8924SOL    HW138234   2.907   0.531   7.657 -0.5640 -0.6701  0.7313
 8924SOL    HW238235   2.949   0.407   7.584  0.2808  0.5525 -0.5849
 8925SOL     OW38236   1.785   4.514  11.275 -0.5588 -0.5112 -0.2201
 8925SOL    HW138237   1.833   4.433  11.263 -0.7957 -0.7497  0.4166
 8925SOL    HW238238   1.864   4.567  11.288  1.0686 -3.3689  1.4610
 8926SOL     OW38239   4.088   1.981   0.110  0.0764  0.3487 -0.7110
 8926SOL    HW138240   4.075   2.006   0.202  1.8260  0.6562 -0.5424
 8926SOL    HW238241   4.001   1.955   0.080  0.1747  0.3766 -1.0165
 8927SOL     OW38242   1.425   1.778  10.478  0.4633  0.3481 -0.1069
 8927SOL    HW138243   1.378   1.721  10.418  0.0255  1.0939 -0.4708
 8927SOL    HW238244   1.409   1.860  10.431  1.1343  0.2166 -0.5616
 8928SOL     OW38245   4.404   0.153  16.505 -0.3118 -0.4035 -0.2741
 8928SOL    HW138246   4.435   0.222  16.447  1.5562 -1.3662 -0.4225
 8928SOL    HW238247   4.339   0.198  16.559  0.7521  1.0057 -0.1757
 8929SOL     OW38248   2.151   4.373   3.923 -0.2639  0.1837  0.2806
 8929SOL    HW138249   2.143   4.468   3.914 -0.4352  0.2757  1.5213
 8929SOL    HW238250   2.157   4.361   4.017  0.6680 -1.1257  0.0406
 8930SOL     OW38251   3.080   3.046   9.709  0.3032  0.3910 -0.2228
 8930SOL    HW138252   3.174   3.025   9.710  0.3207  0.4966  0.7531
 8930SOL    HW238253   3.081   3.133   9.670  0.8428  0.2833 -0.4612
 8931SOL     OW38254   0.075   4.235   3.779  0.0411 -0.3012 -0.2621
 8931SOL    HW138255   0.047   4.154   3.737 -0.2199 -0.4726  0.2504
 8931SOL    HW238256   0.083   4.294   3.704  0.7416  1.4821  1.2128
 8932SOL     OW38257   4.619   1.140   4.203  0.5452 -0.9826  0.7251
 8932SOL    HW138258   4.588   1.224   4.236  1.9629 -0.7295  1.3844
 8932SOL    HW238259   4.538   1.108   4.162 -0.1340 -0.6697  1.8390
 8933SOL     OW38260   1.188   0.311   7.516 -0.4052  0.2019 -0.1324
 8933SOL    HW138261   1.262   0.264   7.479  0.2176 -1.4723  3.2351
 8933SOL    HW238262   1.192   0.385   7.456 -1.7920  0.2262 -0.2091
 8934SOL     OW38263   3.443   2.014  12.001 -0.0952 -0.1729  0.5585
 8934SOL    HW138264   3.447   1.964  11.920  0.6879 -0.9295  1.0617
 8934SOL    HW238265   3.452   2.101  11.962 -1.4376 -0.7318 -0.9923
 8935SOL     OW38266   2.197   1.808   8.055  0.2908 -0.1047  0.1196
 8935SOL    HW138267   2.215   1.863   7.978 -1.4170  0.3693  0.0667
 8935SOL    HW238268   2.280   1.771   8.087  1.7726  1.4475 -1.9123
 8936SOL     OW38269   1.946   0.810  15.609  0.0120 -0.2822 -0.0600
 8936SOL    HW138270   1.889   0.886  15.610  2.1789  1.3499 -0.3863
 8936SOL    HW238271   1.892   0.744  15.564 -1.4583  1.5800 -1.0285
 8937SOL     OW38272   1.414   4.317  16.473  0.4578  0.1972  0.4409
 8937SOL    HW138273   1.319   4.324  16.475  0.4372  0.3766 -1.5928
 8937SOL    HW238274   1.444   4.356  16.555  0.0897 -0.9755  1.1348
 8938SOL     OW38275   1.437   2.977   1.852  0.3419  0.3548  0.4025
 8938SOL    HW138276   1.468   3.038   1.785  0.5483 -1.9303 -1.5827
 8938SOL    HW238277   1.378   2.921   1.803  0.5686 -0.0077  0.5433
 8939SOL     OW38278   4.126   2.564   0.017  0.1419  0.1269 -0.2548
 8939SOL    HW138279   4.150   2.637  17.658  1.7756  1.1042  1.7246
 8939SOL    HW238280   4.195   2.506  17.682  0.7640  0.1069  1.1223
 8940SOL     OW38281   1.663   4.624   5.453  0.6051 -0.4653  0.3374
 8940SOL    HW138282   1.569   4.641   5.455  0.6471 -0.2444  0.4594
 8940SOL    HW238283   1.665   4.532   5.427 -1.1721 -0.5355  0.4254
 8941SOL     OW38284   2.518   1.434   0.783  0.2705 -0.1375 -0.2791
 8941SOL    HW138285   2.578   1.363   0.760 -0.6193 -1.5215  1.6938
 8941SOL    HW238286   2.449   1.380   0.821 -0.3204  1.1277  0.4273
 8942SOL     OW38287   2.685   1.823   2.769  0.6501 -0.2283 -0.0161
 8942SOL    HW138288   2.698   1.834   2.674 -0.1155 -0.8068 -0.1937
 8942SOL    HW238289   2.732   1.743   2.791 -0.3018 -1.0056 -0.7974
 8943SOL     OW38290   1.422   3.793  17.066 -0.1389  0.0879  0.3123
 8943SOL    HW138291   1.357   3.815  17.133  1.2991 -0.0323  1.7680
 8943SOL    HW238292   1.417   3.698  17.072 -3.1400  0.3250  1.6986
 8944SOL     OW38293   2.536   0.985  11.133  0.6311  0.1221 -0.0795
 8944SOL    HW138294   2.492   1.068  11.153 -0.8934 -0.9155  0.8065
 8944SOL    HW238295   2.626   1.015  11.146  1.4043 -1.2346 -2.2455
 8945SOL     OW38296   2.248   4.242   9.042 -0.0911 -0.0880 -0.0127
 8945SOL    HW138297   2.159   4.271   9.060  0.2659  1.0405 -0.0172
 8945SOL    HW238298   2.286   4.297   9.112  0.9011 -0.0810 -0.5572
 8946SOL     OW38299   2.148   0.648  13.459  0.7689 -0.2555 -0.1511
 8946SOL    HW138300   2.141   0.727  13.406 -1.2394 -0.8407 -0.7700
 8946SOL    HW238301   2.099   0.672  13.538  0.3577  3.2703 -1.4897
 8947SOL     OW38302   2.057   3.698  14.036 -0.0474  0.1536  0.4599
 8947SOL    HW138303   1.990   3.634  14.060 -0.9879  0.8919 -0.2042
 8947SOL    HW238304   2.003   3.768  14.001 -1.8641 -1.8483 -0.7664
 8948SOL     OW38305   1.664   3.703   3.999 -0.0119  0.1763 -0.2357
 8948SOL    HW138306   1.676   3.772   4.065  0.6377 -1.2376  1.1036
 8948SOL    HW238307   1.710   3.739   3.922 -0.8875  1.0900 -0.3361
 8949SOL     OW38308   4.173   0.474   6.948  0.1073 -0.2611 -0.3928
 8949SOL    HW138309   4.193   0.546   6.889 -0.7986 -0.0466 -0.4233
 8949SOL    HW238310   4.236   0.481   7.020 -1.0211  2.5194  0.3031
 8950SOL     OW38311   0.771   2.299   3.976 -0.4757 -0.1470 -0.4399
 8950SOL    HW138312   0.680   2.273   3.964 -0.2873 -1.3532  0.7089
 8950SOL    HW238313   0.815   2.215   3.993 -0.3414  0.0062 -0.0487
 8951SOL     OW38314   4.241   3.383   2.575  0.0953  0.2513 -0.2052
 8951SOL    HW138315   4.233   3.430   2.492  2.1449 -0.8251 -1.0184
 8951SOL    HW238316   4.202   3.298   2.554  1.2911 -0.2282 -0.4690
 8952SOL     OW38317   3.701   3.638  15.734 -0.0440 -0.8895  0.2796
 8952SOL    HW138318   3.732   3.550  15.711 -0.1007 -0.7302 -0.4173
 8952SOL    HW238319   3.757   3.665  15.807  0.5301  0.3772 -0.6334
 8953SOL     OW38320   0.572   2.746  12.608  0.6037  0.2382  0.3894
 8953SOL    HW138321   0.584   2.773  12.517 -1.2510  0.2720  0.1590
 8953SOL    HW238322   0.509   2.677  12.592  2.1532 -1.4563  1.5476
 8954SOL     OW38323   0.463   3.288   3.323  0.4992 -0.2939  0.4980
 8954SOL    HW138324   0.529   3.289   3.253  1.7337 -0.8489  1.6438
 8954SOL    HW238325   0.439   3.196   3.317 -1.1802  0.1837  0.0751
 8955SOL     OW38326   2.631   3.679   8.076  0.0592 -0.3282 -0.0314
 8955SOL    HW138327   2.676   3.721   8.002 -0.7355  3.2324  1.5387
 8955SOL    HW238328   2.604   3.592   8.045 -0.8601 -0.7683  2.0079
 8956SOL     OW38329   2.357   2.664  15.077 -0.0395 -0.2728 -0.4905
 8956SOL    HW138330   2.416   2.723  15.030 -0.8460  1.6807  0.9283
 8956SOL    HW238331   2.410   2.585  15.084  0.5329  0.1156 -0.4437
 8957SOL     OW38332   3.269   4.023   8.489  0.2480 -0.3395  0.2446
 8957SOL    HW138333   3.336   3.958   8.469 -0.3957 -1.3451  1.4056
 8957SOL    HW238334   3.218   4.017   8.409 -1.0042 -1.3843  1.1080
 8958SOL     OW38335   0.086   0.016   5.786 -0.0224  0.0540  0.1506
 8958SOL    HW138336   0.019   0.074   5.822 -0.5167  0.3497 -1.2588
 8958SOL    HW238337   0.163   0.036   5.840  0.7021 -1.2051 -0.4199
 8959SOL     OW38338   3.023   4.473   4.034 -0.5106  0.2405  0.2932
 8959SOL    HW138339   3.035   4.528   4.111 -1.0933 -0.7033  1.0561
 8959SOL    HW238340   2.928   4.468   4.026 -0.5616  2.2433 -0.3596
 8960SOL     OW38341   0.601   3.143   5.164  0.3178 -0.3268 -0.5634
 8960SOL    HW138342   0.633   3.226   5.128  0.3258 -0.1446 -0.1417
 8960SOL    HW238343   0.571   3.179   5.248 -0.1215 -0.2047 -0.7739
 8961SOL     OW38344   4.669   1.554   4.855 -0.0091  0.5397  0.1581
 8961SOL    HW138345   4.594   1.503   4.885  1.0780 -0.6847  0.7988
 8961SOL    HW238346   0.014   1.523   4.913 -0.6995  1.0213  1.2370
 8962SOL     OW38347   0.183   4.334  16.859  0.0950 -0.5275  0.9917
 8962SOL    HW138348   0.129   4.274  16.807  0.9802 -1.1934  0.8546
 8962SOL    HW238349   0.129   4.413  16.865  0.7854 -0.1182  1.8146
 8963SOL     OW38350   3.093   4.240  12.108  0.0792  0.1463  0.0570
 8963SOL    HW138351   3.185   4.219  12.089  0.1885  0.5044  0.1945
 8963SOL    HW238352   3.105   4.318  12.161 -0.6479  1.0604 -1.1315
 8964SOL     OW38353   0.427   3.523   3.094  0.3406 -0.6468  0.3746
 8964SOL    HW138354   0.334   3.525   3.074  0.8660  1.5625 -1.7902
 8964SOL    HW238355   0.468   3.597   3.050 -0.0836 -0.6301  0.0098
 8965SOL     OW38356   1.416   3.350   4.638 -0.4721  0.0660  0.0884
 8965SOL    HW138357   1.436   3.420   4.701  0.2887 -1.1767  1.2185
 8965SOL    HW238358   1.477   3.357   4.565 -0.6606  1.1227  0.0262
 8966SOL     OW38359   2.011   0.044   0.991  0.2199 -0.2093 -0.0389
 8966SOL    HW138360   2.069   0.019   0.920 -1.3068 -0.2286 -1.2841
 8966SOL    HW238361   2.053   4.720   1.062 -0.6971 -0.9210  0.0231
 8967SOL     OW38362   0.071   0.867   8.584 -0.0509 -0.0375 -0.3338
 8967SOL    HW138363   0.096   0.782   8.549  0.5927 -0.1433  0.3566
 8967SOL    HW238364   0.158   0.908   8.587 -0.1634  0.2321 -0.8858
 8968SOL     OW38365   2.394   1.644   4.113 -0.3377 -0.2249  0.0097
 8968SOL    HW138366   2.318   1.667   4.167 -0.2478 -3.3123  1.4310
 8968SOL    HW238367   2.362   1.634   4.023 -1.4663 -1.5716  0.5700
 8969SOL     OW38368   4.151   1.136  16.625  0.0062  0.2139  0.4533
 8969SOL    HW138369   4.148   1.170  16.714  0.0126  0.0116  0.5300
 8969SOL    HW238370   4.195   1.053  16.645  0.6885  0.1349 -1.3847
 8970SOL     OW38371   2.787   4.134   3.018  0.0641  0.3470  0.1553
 8970SOL    HW138372   2.831   4.219   3.010  0.9505  0.0521  1.9510
 8970SOL    HW238373   2.766   4.131   2.925 -0.2588 -2.5692  0.3266
 8971SOL     OW38374   2.640   1.656  10.967  0.6007  0.0318  0.3892
 8971SOL    HW138375   2.657   1.748  10.984  0.7941  0.3563 -1.6265
 8971SOL    HW238376   2.587   1.666  10.889  0.1621  0.8786  0.8005
 8972SOL     OW38377   2.066   0.793   7.891  0.3566 -0.0173  0.1072
 8972SOL    HW138378   2.127   0.863   7.866  0.8900 -0.5719 -0.1337
 8972SOL    HW238379   2.079   0.808   7.985  0.9248 -1.2796  0.2247
 8973SOL     OW38380   4.307   1.869  12.372  0.2404 -0.1269 -0.3094
 8973SOL    HW138381   4.401   1.879  12.357  0.2983 -1.4604 -0.8440
 8973SOL    HW238382   4.266   1.930  12.311  1.1458  1.9044  1.1016
 8974SOL     OW38383   3.475   3.157   3.855  0.6658 -0.2224  0.3588
 8974SOL    HW138384   3.521   3.086   3.900  0.8696 -0.8607 -0.8559
 8974SOL    HW238385   3.427   3.122   3.781  1.6111  1.4461 -1.0384
 8975SOL     OW38386   4.350   2.044  13.907 -0.2147 -0.0303 -0.1303
 8975SOL    HW138387   4.376   1.952  13.909  0.5841  0.2024  0.3248
 8975SOL    HW238388   4.255   2.038  13.900 -0.2910  0.4871  0.3872
 8976SOL     OW38389   1.220   0.728   2.787 -0.1097 -0.2073  0.0937
 8976SOL    HW138390   1.138   0.735   2.738 -1.9544 -3.1631  2.7660
 8976SOL    HW238391   1.193   0.778   2.864 -0.2390  0.6049 -0.4822
 8977SOL     OW38392   3.746   4.002   8.450  0.2060  0.0701 -0.5106
 8977SOL    HW138393   3.706   4.004   8.363  2.5618 -0.2497 -1.5960
 8977SOL    HW238394   3.676   4.030   8.508 -1.1662 -3.1352 -0.5825
 8978SOL     OW38395   3.637   1.388   7.710 -0.4015 -0.0383  0.3369
 8978SOL    HW138396   3.609   1.469   7.667 -0.4665  0.2547  0.9242
 8978SOL    HW238397   3.728   1.372   7.684 -0.4871  0.0258  0.0004
 8979SOL     OW38398   2.421   1.114   6.352 -0.1840 -0.2439  0.6737
 8979SOL    HW138399   2.355   1.047   6.337 -0.4719 -0.1631  1.6143
 8979SOL    HW238400   2.486   1.080   6.290  1.6464  1.2089  1.7891
 8980SOL     OW38401   3.762   1.887   6.674  0.0101  0.1511  0.6910
 8980SOL    HW138402   3.685   1.930   6.635 -0.4144 -1.2243  0.0198
 8980SOL    HW238403   3.811   1.865   6.595  0.6936 -0.8785  1.4125
 8981SOL     OW38404   1.702   2.269   2.794  0.1258  0.3602 -0.0218
 8981SOL    HW138405   1.695   2.190   2.741 -0.4070  0.6942 -0.4562
 8981SOL    HW238406   1.789   2.248   2.829 -0.4965  0.0721  1.3078
 8982SOL     OW38407   1.654   1.987   4.927  0.2950 -0.1205  0.1675
 8982SOL    HW138408   1.679   1.908   4.975  0.2910  0.2487  0.7814
 8982SOL    HW238409   1.607   2.048   4.984 -0.2471 -2.3870  2.1455
 8983SOL     OW38410   2.998   3.176   7.221 -0.3042 -0.3366 -0.1804
 8983SOL    HW138411   3.002   3.257   7.273 -0.6614 -1.9070  2.3023
 8983SOL    HW238412   2.956   3.205   7.140  0.4986  0.3072 -0.3598
 8984SOL     OW38413   3.747   3.277   5.057 -0.6948  0.2588  0.1633
 8984SOL    HW138414   3.776   3.187   5.072 -0.0803  0.4614  0.2172
 8984SOL    HW238415   3.655   3.261   5.037 -0.8728  3.4366 -1.5608
 8985SOL     OW38416   3.148   1.865   9.455  0.0494  0.3007 -0.1083
 8985SOL    HW138417   3.110   1.807   9.522  0.2236 -2.5742 -2.4974
 8985SOL    HW238418   3.074   1.926   9.454  0.8918  1.2736 -1.7685
 8986SOL     OW38419   4.085   1.083  12.176  0.3412 -0.3369 -0.4966
 8986SOL    HW138420   3.992   1.078  12.198  0.3824  0.4090 -0.1715
 8986SOL    HW238421   4.117   1.137  12.249 -1.2331 -0.5244  0.3365
 8987SOL     OW38422   2.289   1.561   5.094 -0.0251 -0.3976  0.4668
 8987SOL    HW138423   2.301   1.633   5.155 -3.1994  1.1370 -0.7133
 8987SOL    HW238424   2.256   1.617   5.024  0.0507 -0.9931 -0.0555
 8988SOL     OW38425   1.427   3.076   7.244  0.4763 -0.0492  0.2614
 8988SOL    HW138426   1.421   3.170   7.230 -0.8955 -0.3566 -1.2634
 8988SOL    HW238427   1.338   3.049   7.222  1.3571 -2.7091 -0.0439
 8989SOL     OW38428   1.368   0.216   4.838 -0.3780 -0.5873  0.0598
 8989SOL    HW138429   1.333   0.198   4.751 -0.4566 -2.0857  0.4059
 8989SOL    HW238430   1.305   0.273   4.882 -0.1727  0.9662 -1.6787
 8990SOL     OW38431   2.716   0.059  17.255 -0.0499 -0.3910 -0.1778
 8990SOL    HW138432   2.775   0.121  17.212  1.6801 -0.4483  2.1497
 8990SOL    HW238433   2.643   0.121  17.254 -0.4866 -0.8988  0.1975
 8991SOL     OW38434   4.199   2.865   2.445 -0.2735  0.3641  0.1296
 8991SOL    HW138435   4.238   2.787   2.484  1.9507  0.6061 -1.6315
 8991SOL    HW238436   4.109   2.834   2.441  0.3601 -1.1429 -2.2576
 8992SOL     OW38437   0.012   1.765   5.949 -0.3772 -0.0222 -0.6567
 8992SOL    HW138438   0.016   1.756   5.854 -2.6515 -0.0009 -0.7715
 8992SOL    HW238439   0.017   1.860   5.955  2.4593 -0.1521 -1.2682
 8993SOL     OW38440   0.421   3.824   5.038 -0.3493 -0.2537 -0.2590
 8993SOL    HW138441   0.470   3.748   5.070  0.1593  0.1442 -0.1115
 8993SOL    HW238442   0.413   3.800   4.945 -0.8966 -1.7124  0.1627
 8994SOL     OW38443   1.331   2.872  14.533 -0.1755  0.9144  0.1286
 8994SOL    HW138444   1.260   2.936  14.528 -1.1289  0.0787  2.7149
 8994SOL    HW238445   1.365   2.894  14.620 -1.3790 -1.0034  1.0834
 8995SOL     OW38446   3.702   3.922   5.200 -0.4000  0.2905 -0.6935
 8995SOL    HW138447   3.748   3.905   5.118  1.8093 -1.5762  0.9505
 8995SOL    HW238448   3.626   3.868   5.179  0.4902 -1.5315  0.7695
 8996SOL     OW38449   2.953   2.573   6.002  0.0250  0.5268 -0.2959
 8996SOL    HW138450   3.040   2.572   5.964 -0.2117 -2.2023 -0.7802
 8996SOL    HW238451   2.966   2.571   6.097  2.7517 -0.0315 -0.6874
 8997SOL     OW38452   1.705   0.084   2.071  0.4488  0.2992 -0.2198
 8997SOL    HW138453   1.798   0.105   2.058  0.3380  0.6422 -0.4586
 8997SOL    HW238454   1.684   0.140   2.147 -0.3363  1.4232 -1.2679
 8998SOL     OW38455   2.763   2.451   2.934  0.2234 -0.9716  0.1687
 8998SOL    HW138456   2.675   2.489   2.924 -0.1779 -1.7790  0.6042
 8998SOL    HW238457   2.756   2.359   2.962  1.3294 -0.6535  1.4567
 8999SOL     OW38458   3.608   2.501   5.414 -0.1040  0.1832  0.2878
 8999SOL    HW138459   3.648   2.427   5.459 -0.8060 -0.0057  0.5908
 8999SOL    HW238460   3.674   2.571   5.413  0.4968 -0.3865  0.1340
 9000SOL     OW38461   1.119   1.468   3.255  0.2295 -0.1788 -0.4870
 9000SOL    HW138462   1.202   1.507   3.283  1.1498 -1.2514 -1.7087
 9000SOL    HW238463   1.133   1.374   3.249 -0.6986 -0.2613 -1.2338
 9001SOL     OW38464   3.938   3.599   7.110  0.1644  0.0698  0.2149
 9001SOL    HW138465   3.997   3.643   7.172  3.2059 -1.8950 -1.2856
 9001SOL    HW238466   3.978   3.513   7.115 -1.4891 -0.6804  0.6266
 9002SOL     OW38467   3.398   0.925   7.199  0.1963 -0.7950  0.2995
 9002SOL    HW138468   3.344   1.000   7.224 -0.8200 -1.8439  1.2564
 9002SOL    HW238469   3.409   0.939   7.105  1.5576  0.7166  0.6912
 9003SOL     OW38470   3.147   2.268   6.154 -0.2636  0.7433 -0.5222
 9003SOL    HW138471   3.219   2.241   6.211 -1.1133 -0.0128  0.1859
 9003SOL    HW238472   3.140   2.355   6.194 -2.0577 -0.6931  2.3363
 9004SOL     OW38473   1.142   2.287   4.891 -0.3236  0.2805  0.3524
 9004SOL    HW138474   1.155   2.217   4.827 -0.8401  0.4663  0.0462
 9004SOL    HW238475   1.172   2.362   4.839  1.3625 -0.8018 -0.2452
 9005SOL     OW38476   0.582   4.171   3.273 -0.0297  0.6096 -0.2429
 9005SOL    HW138477   0.638   4.098   3.249 -0.0096  0.0488  1.4893
 9005SOL    HW238478   0.511   4.119   3.312 -2.3002  2.9785 -1.1733
 9006SOL     OW38479   3.267   0.386   7.584  0.2931  0.0644  0.2077
 9006SOL    HW138480   3.309   0.320   7.640  0.4645 -1.7478 -2.0745
 9006SOL    HW238481   3.178   0.352   7.585  0.0844  0.6046 -0.8102
 9007SOL     OW38482   0.595   4.392   7.510 -0.1172  0.1730  0.1794
 9007SOL    HW138483   0.539   4.338   7.564  0.3403 -1.7084 -1.1992
 9007SOL    HW238484   0.659   4.325   7.483  0.0371  0.9186 -1.3353
 9008SOL     OW38485   4.293   2.212   7.689 -0.2877 -0.8448  0.1596
 9008SOL    HW138486   4.251   2.262   7.760 -1.1136  1.0112 -1.6399
 9008SOL    HW238487   4.224   2.169   7.638  0.7419 -1.0246 -1.0770
 9009SOL     OW38488   2.372   4.648   8.301 -0.1268  0.7432 -0.3590
 9009SOL    HW138489   2.455   4.673   8.343 -1.0018  1.5108  0.9039
 9009SOL    HW238490   2.384   4.554   8.314  0.4662  0.7890 -0.5792
 9010SOL     OW38491   3.614   1.087   4.874  0.7097 -0.1680  1.0029
 9010SOL    HW138492   3.594   0.999   4.906  2.2265 -1.2510 -1.0327
 9010SOL    HW238493   3.700   1.107   4.911  1.1476  1.4204 -0.9125
 9011SOL     OW38494   4.326   1.042   2.241 -0.3866  0.0342  0.1911
 9011SOL    HW138495   4.360   0.961   2.202 -1.6490 -1.5339  2.3485
 9011SOL    HW238496   4.387   1.103   2.201  0.0049  0.4122  1.3915
 9012SOL     OW38497   2.535   1.872   3.016  0.4895  0.2061  0.3672
 9012SOL    HW138498   2.496   1.793   3.054  0.9918 -0.5703 -0.7286
 9012SOL    HW238499   2.570   1.844   2.931 -1.0100  1.1143 -0.5502
 9013SOL     OW38500   2.321   4.527  13.117 -0.5833 -0.6773  0.3694
 9013SOL    HW138501   2.337   4.460  13.183 -0.0723  2.3364  3.2816
 9013SOL    HW238502   2.307   4.606  13.169 -1.6521 -2.0199  2.0841
 9014SOL     OW38503   2.332   0.286  14.276 -0.5705 -0.6349  0.8911
 9014SOL    HW138504   2.300   0.204  14.239  2.9951 -0.0179 -3.5503
 9014SOL    HW238505   2.421   0.259  14.300 -0.2661 -0.5494 -0.1332
 9015SOL     OW38506   1.234   0.047   5.858  0.1216 -0.6892 -0.2745
 9015SOL    HW138507   1.297   0.090   5.800  0.3873  0.9024  1.1858
 9015SOL    HW238508   1.288   0.002   5.923 -0.1163  1.5368  1.4884
 9016SOL     OW38509   0.650   2.233   2.604 -0.2592 -0.3565 -0.4684
 9016SOL    HW138510   0.644   2.327   2.586  0.1145  0.3369  3.0500
 9016SOL    HW238511   0.656   2.234   2.700 -1.7812  0.8018 -0.3827
 9017SOL     OW38512   3.283   2.946   7.801 -0.7041  0.1088 -0.1151
 9017SOL    HW138513   3.250   2.881   7.863  0.0104  0.4306  0.5987
 9017SOL    HW238514   3.356   2.987   7.848 -1.0999  0.9731 -0.2493
 9018SOL     OW38515   2.509   4.332  12.821 -0.3363 -0.3383 -0.3703
 9018SOL    HW138516   2.486   4.425  12.820  1.1751  0.0161 -1.8132
 9018SOL    HW238517   2.577   4.346  12.887 -2.0701  1.1713  1.1003
 9019SOL     OW38518   0.081   0.485   3.452  0.4393  0.1618  0.8257
 9019SOL    HW138519   0.019   0.502   3.523  0.0683  1.8214  0.0904
 9019SOL    HW238520   0.098   0.391   3.465 -0.9557 -0.3666 -1.1396
 9020SOL     OW38521   4.108   3.816  11.206  0.2390 -0.4001  0.2002
 9020SOL    HW138522   4.084   3.879  11.274 -1.3374  0.4589 -1.1296
 9020SOL    HW238523   4.192   3.856  11.184  0.0826 -1.1682 -1.7996
 9021SOL     OW38524   2.631   1.241  13.696 -0.3542 -0.4627 -0.2940
 9021SOL    HW138525   2.697   1.309  13.700 -1.5921  0.5880  2.2533
 9021SOL    HW238526   2.684   1.171  13.657 -0.7240  0.5812 -2.6559
 9022SOL     OW38527   0.682   1.135   7.705  0.3405  0.1797 -0.4237
 9022SOL    HW138528   0.621   1.110   7.636 -0.8761  1.6094  0.1472
 9022SOL    HW238529   0.749   1.066   7.702 -0.9568 -1.0458 -1.1531
 9023SOL     OW38530   3.441   3.821   3.187 -0.6911 -0.4324  0.3199
 9023SOL    HW138531   3.530   3.837   3.155 -1.2139  0.9269 -0.4846
 9023SOL    HW238532   3.387   3.827   3.108 -1.7989  3.4304  1.3529
 9024SOL     OW38533   2.730   1.556   3.694  0.3668 -0.5031 -0.3325
 9024SOL    HW138534   2.751   1.478   3.642 -1.1819 -2.1509  1.5376
 9024SOL    HW238535   2.786   1.609   3.637  1.3402 -0.6399  0.5127
 9025SOL     OW38536   0.613   4.586   6.550 -0.3240 -0.0165 -0.3581
 9025SOL    HW138537   0.663   4.533   6.488  2.6359 -1.5268  3.3147
 9025SOL    HW238538   0.683   4.623   6.604 -1.2521  1.7673 -0.3977
 9026SOL     OW38539   2.761   0.383   9.334 -0.0786  0.9007 -0.5807
 9026SOL    HW138540   2.810   0.308   9.369  0.6693  0.4913 -2.5408
 9026SOL    HW238541   2.813   0.391   9.254 -1.3419 -1.5865 -1.6434
 9027SOL     OW38542   0.315   0.029   1.649  0.2699 -0.2364 -0.3590
 9027SOL    HW138543   0.395   0.082   1.653 -0.5848  1.1142 -1.0197
 9027SOL    HW238544   0.346   4.693   1.581  2.7930  0.8909 -0.2337
 9028SOL     OW38545   1.174   3.099   5.378 -0.4747 -0.3292 -0.0151
 9028SOL    HW138546   1.256   3.050   5.386 -0.6063 -0.1053  2.7730
 9028SOL    HW238547   1.148   3.108   5.287  1.9190 -0.8130 -0.7658
 9029SOL     OW38548   2.317   2.934  11.307 -0.7895  0.5895  0.5569
 9029SOL    HW138549   2.345   2.843  11.321 -2.8510 -0.3404 -1.5357
 9029SOL    HW238550   2.222   2.929  11.307 -0.7687  0.1196 -0.3196
 9030SOL     OW38551   0.920   3.968   4.142  0.0290  0.3950  0.0821
 9030SOL    HW138552   0.895   3.876   4.129 -0.7295  0.5515  0.4559
 9030SOL    HW238553   0.843   3.996   4.191 -0.1030  0.4449 -0.1497
 9031SOL     OW38554   3.817   4.203  15.195  0.0677 -0.0295 -0.5213
 9031SOL    HW138555   3.840   4.295  15.184  2.2881 -0.7489 -1.9025
 9031SOL    HW238556   3.802   4.192  15.101  2.7162  0.5512 -0.9957
 9032SOL     OW38557   0.234   3.354   7.440 -0.0535 -0.0176  0.2827
 9032SOL    HW138558   0.232   3.259   7.450  0.2734 -0.0439  0.0805
 9032SOL    HW238559   0.180   3.378   7.515  2.6565  1.7275  1.6794
 9033SOL     OW38560   3.376   1.063   8.302 -0.2236  0.0074  0.0645
 9033SOL    HW138561   3.290   1.023   8.295  0.5153 -1.4568 -0.6474
 9033SOL    HW238562   3.426   1.017   8.235  1.4292  1.5624  0.2224
 9034SOL     OW38563   4.473   0.335   1.948 -0.0741  0.2029  0.5464
 9034SOL    HW138564   4.429   0.266   1.898 -2.9854  2.5528 -0.1083
 9034SOL    HW238565   4.504   0.391   1.877  0.7877 -2.1731 -0.9527
 9035SOL     OW38566   3.150   2.101   5.492 -0.2982  0.1445  0.0403
 9035SOL    HW138567   3.084   2.152   5.538  0.2846  0.1414  0.8719
 9035SOL    HW238568   3.125   2.109   5.400 -1.5008  1.8162  0.5002
 9036SOL     OW38569   4.703   4.165   7.863  0.0961 -0.1204 -1.0496
 9036SOL    HW138570   4.679   4.257   7.846  0.1717 -0.4174 -2.7917
 9036SOL    HW238571   0.020   4.145   7.779 -0.0327  0.4521 -1.2528
 9037SOL     OW38572   0.990   1.106   2.692  0.1572  0.5597  0.1596
 9037SOL    HW138573   0.957   1.192   2.665  1.7653  0.9597 -0.5581
 9037SOL    HW238574   1.077   1.104   2.650 -0.2325  3.6412 -0.7853
 9038SOL     OW38575   3.677   2.075   8.157  0.1313 -0.5020  0.1244
 9038SOL    HW138576   3.655   2.002   8.099  1.6211 -2.0220  1.4608
 9038SOL    HW238577   3.714   2.139   8.097  0.2340  1.2143  2.0057
 9039SOL     OW38578   1.543   2.548   9.373 -0.4417 -0.0187 -0.1105
 9039SOL    HW138579   1.566   2.460   9.400  0.0007 -0.4086 -1.7222
 9039SOL    HW238580   1.531   2.579   9.462  1.5717  1.7754 -0.4761
 9040SOL     OW38581   1.964   3.983   5.204 -0.2720 -0.1335 -0.1375
 9040SOL    HW138582   2.059   3.997   5.209 -0.2324  0.7794 -2.8230
 9040SOL    HW238583   1.925   4.018   5.284 -2.1007  3.1097 -2.4163
 9041SOL     OW38584   4.657   0.019   2.906 -0.0620  0.3142  0.2342
 9041SOL    HW138585   4.607   0.039   2.827 -1.3831  2.6541  1.6696
 9041SOL    HW238586   4.653   4.648   2.898  1.1134  0.1554  1.4944
 9042SOL     OW38587   2.557   1.086   1.605 -0.2237 -0.2497 -0.2808
 9042SOL    HW138588   2.546   1.128   1.690 -1.7631  1.4851 -1.3259
 9042SOL    HW238589   2.499   1.137   1.548 -0.9705 -0.9719 -0.1711
 9043SOL     OW38590   2.499   4.210  13.581 -0.3239 -0.5099 -0.0055
 9043SOL    HW138591   2.523   4.168  13.664 -0.5895 -2.0037 -0.6908
 9043SOL    HW238592   2.406   4.189  13.570 -0.3958 -0.5332  0.6653
 9044SOL     OW38593   3.935   3.901  12.303 -0.0010  0.4916 -0.1933
 9044SOL    HW138594   3.988   3.975  12.273  0.3633  0.0835 -0.5515
 9044SOL    HW238595   3.887   3.942  12.375 -2.2169 -1.3509 -0.6325
 9045SOL     OW38596   3.698   3.667   9.241 -0.7332  0.3644 -0.2516
 9045SOL    HW138597   3.747   3.737   9.286 -0.0389 -1.5629  1.9523
 9045SOL    HW238598   3.628   3.656   9.304 -1.2653  1.2818 -0.6816
 9046SOL     OW38599   2.772   4.362  15.442  0.1472  1.2449 -0.0544
 9046SOL    HW138600   2.732   4.397  15.521  0.7807  3.5499 -0.7568
 9046SOL    HW238601   2.734   4.274  15.436  2.0636  0.3037  1.6853
 9047SOL     OW38602   3.453   3.453   3.483 -0.6514  0.0654 -0.1805
 9047SOL    HW138603   3.395   3.459   3.406 -0.6635 -1.4547 -0.2856
 9047SOL    HW238604   3.486   3.543   3.474  0.6087 -0.2854  0.9014
 9048SOL     OW38605   0.394   1.593   7.949 -0.2968 -0.4633  0.3839
 9048SOL    HW138606   0.419   1.501   7.951 -0.1789 -0.3672  4.4873
 9048SOL    HW238607   0.451   1.625   8.019  0.2753  1.2841 -0.8935
 9049SOL     OW38608   0.011   1.134   5.780  0.2423  0.4475  0.6015
 9049SOL    HW138609   0.073   1.083   5.728  0.7550  1.6738  0.0172
 9049SOL    HW238610   0.073   1.161   5.848  0.7153  1.7947 -0.3655
 9050SOL     OW38611   2.384   0.640   0.101 -0.1448 -0.3562 -0.2674
 9050SOL    HW138612   2.303   0.686   0.124  1.1724  1.6930  0.3477
 9050SOL    HW238613   2.351   0.583   0.032  0.7362  0.0430 -1.0181
 9051SOL     OW38614   0.074   4.212   5.153 -0.2423  0.0048 -0.5574
 9051SOL    HW138615   0.003   4.157   5.118  1.6822 -2.6880 -0.1603
 9051SOL    HW238616   0.141   4.146   5.169  1.0941  1.9311  1.6290
 9052SOL     OW38617   0.205   3.641  10.229  0.5373  0.0445  0.3729
 9052SOL    HW138618   0.152   3.680  10.159  0.7196 -0.5915 -0.1126
 9052SOL    HW238619   0.235   3.721  10.272 -1.2812  2.0373 -1.9935
 9053SOL     OW38620   4.576   2.339   4.271  0.2488 -0.0798 -0.2286
 9053SOL    HW138621   4.666   2.309   4.279  0.8716  2.1747  1.2091
 9053SOL    HW238622   4.592   2.429   4.243 -2.0398 -0.2980 -2.2076
 9054SOL     OW38623   4.278   2.858   7.549 -0.0036 -0.4786  0.6748
 9054SOL    HW138624   4.361   2.843   7.593  1.8869  2.1193 -2.0133
 9054SOL    HW238625   4.316   2.891   7.467 -2.6438 -1.5726 -1.0073
 9055SOL     OW38626   0.621   3.764   6.172 -0.5034  0.8144  0.0149
 9055SOL    HW138627   0.660   3.737   6.255  1.0480 -0.4860 -1.1411
 9055SOL    HW238628   0.691   3.805   6.120 -0.6200  0.9773 -0.0149
 9056SOL     OW38629   0.810   2.967   6.845 -0.1100  0.2339  0.0654
 9056SOL    HW138630   0.776   2.962   6.934 -0.4425  0.8001 -0.0287
 9056SOL    HW238631   0.803   3.062   6.833 -0.9537  0.1075 -0.4412
 9057SOL     OW38632   3.755   0.288   8.174  0.3854 -0.9389 -0.5384
 9057SOL    HW138633   3.836   0.335   8.156 -0.7379  0.9947 -0.5495
 9057SOL    HW238634   3.768   0.216   8.112  2.5524 -0.7762 -0.2859
 9058SOL     OW38635   1.800   1.757  11.340 -0.0353  0.0853 -0.3011
 9058SOL    HW138636   1.867   1.718  11.396 -1.3227 -0.6094  0.7653
 9058SOL    HW238637   1.720   1.712  11.367  0.7682 -1.3667 -0.3591
 9059SOL     OW38638   4.248   0.466   1.456 -0.2900  0.1651 -0.3610
 9059SOL    HW138639   4.230   0.494   1.367 -3.4616 -1.1664 -0.1476
 9059SOL    HW238640   4.213   0.378   1.466  0.4417 -0.2193 -1.2357
 9060SOL     OW38641   1.531   4.409   3.625  0.6855  0.8332  0.5039
 9060SOL    HW138642   1.589   4.340   3.592 -0.9672 -0.8652  1.1484
 9060SOL    HW238643   1.520   4.373   3.713 -0.9941 -2.0814 -0.8965
 9061SOL     OW38644   2.695   0.406  14.132  0.1683 -0.3219 -0.0203
 9061SOL    HW138645   2.648   0.334  14.090 -0.1167  0.1121 -0.4410
 9061SOL    HW238646   2.668   0.390  14.223  0.1580  0.3228  0.0879
 9062SOL     OW38647   0.634   2.829  14.846 -0.1291  0.0701 -0.1251
 9062SOL    HW138648   0.627   2.762  14.914  0.3007 -1.5392 -1.6925
 9062SOL    HW238649   0.551   2.826  14.799  0.1341  1.6374 -0.6777
 9063SOL     OW38650   1.331   2.241   8.089  0.3238  0.1008 -0.3426
 9063SOL    HW138651   1.305   2.222   7.999  1.5702 -0.1742 -0.6431
 9063SOL    HW238652   1.300   2.331   8.100 -0.6180 -0.2469 -0.2310
 9064SOL     OW38653   0.617   4.433   3.243  0.0342 -0.1898  0.1368
 9064SOL    HW138654   0.612   4.337   3.243 -0.3550 -0.1739  1.1155
 9064SOL    HW238655   0.550   4.459   3.306 -0.5825 -0.3540 -0.4608
 9065SOL     OW38656   1.488   4.019  16.553 -0.3312  0.4792 -0.2381
 9065SOL    HW138657   1.443   3.972  16.623 -1.7295 -0.1209 -1.5325
 9065SOL    HW238658   1.430   4.094  16.549 -1.5495 -0.4726 -0.5250
 9066SOL     OW38659   3.392   3.104   8.354  0.3147  0.2420  0.2929
 9066SOL    HW138660   3.369   3.177   8.412  2.5669  1.1203  0.0690
 9066SOL    HW238661   3.314   3.098   8.299  0.3382 -3.2318  0.6114
 9067SOL     OW38662   1.204   1.362  13.295  0.5714 -0.2054  0.0649
 9067SOL    HW138663   1.239   1.279  13.326 -0.6014 -0.5040  0.5840
 9067SOL    HW238664   1.222   1.417  13.371  1.2504 -1.0194  0.4890
 9068SOL     OW38665   0.158   3.793   5.298  0.2549 -0.0105  0.0232
 9068SOL    HW138666   0.202   3.813   5.381 -0.0977 -1.4915  0.5740
 9068SOL    HW238667   0.165   3.698   5.289 -0.6310 -0.1477  0.7615
 9069SOL     OW38668   1.860   3.482   8.403 -0.1089  0.7621 -0.5821
 9069SOL    HW138669   1.854   3.501   8.497  0.1288 -3.2176  0.2232
 9069SOL    HW238670   1.955   3.472   8.395  0.0888  0.7770  1.6175
 9070SOL     OW38671   3.122   4.711  10.104 -0.7515 -0.2146 -0.8486
 9070SOL    HW138672   3.130   4.673  10.192  1.8047 -1.8426 -1.8028
 9070SOL    HW238673   3.111   4.625  10.065 -2.0931  0.1049 -1.1736
 9071SOL     OW38674   4.558   3.058   9.694  0.2037 -0.3397  0.3107
 9071SOL    HW138675   4.596   3.014   9.770  0.1342  1.8474  1.5899
 9071SOL    HW238676   4.563   3.146   9.731  2.3587 -0.1947 -0.3359
 9072SOL     OW38677   4.042   0.809   2.113  0.0487  0.0381 -0.1173
 9072SOL    HW138678   3.973   0.745   2.097 -0.6295  0.3487  1.5501
 9072SOL    HW238679   4.109   0.767   2.167  0.3714  1.4199  0.5597
 9073SOL     OW38680   0.860   3.864   6.036 -0.3474 -0.4665 -0.2418
 9073SOL    HW138681   0.829   3.816   5.960 -0.2026  2.4952 -2.1817
 9073SOL    HW238682   0.917   3.931   5.997  1.0073 -2.0375 -0.9736
 9074SOL     OW38683   1.004   4.610   7.966 -0.0675 -0.1267  0.0664
 9074SOL    HW138684   1.055   4.650   7.895  2.8989 -2.5499  0.7978
 9074SOL    HW238685   1.070   4.615   8.036  1.3770 -0.0950 -1.2841
 9075SOL     OW38686   4.529   0.959  13.972 -0.2001 -0.2397 -0.8641
 9075SOL    HW138687   4.468   0.931  13.904 -0.7135 -0.7604 -0.1835
 9075SOL    HW238688   4.462   0.985  14.034  1.4688  1.0632  0.3739
 9076SOL     OW38689   3.906   0.179  10.424 -0.0052 -0.4622 -0.4730
 9076SOL    HW138690   3.928   0.182  10.331  0.6311 -2.7789 -0.3984
 9076SOL    HW238691   3.814   0.203  10.422  0.0505 -0.1670  0.3238
 9077SOL     OW38692   4.501   0.804  16.355  1.0445 -0.1652 -0.2758
 9077SOL    HW138693   4.549   0.888  16.361  0.3212  0.1771  0.8653
 9077SOL    HW238694   4.516   0.762  16.440  0.6226  2.6084  1.1692
 9078SOL     OW38695   4.199   1.494   2.039  0.2429  0.3682 -0.1341
 9078SOL    HW138696   4.273   1.542   2.078  1.0994 -0.3922 -0.8252
 9078SOL    HW238697   4.151   1.556   1.984 -0.3290  1.4073  1.5295
 9079SOL     OW38698   1.137   2.413   2.546 -0.4382 -0.7404  0.0414
 9079SOL    HW138699   1.048   2.447   2.543  0.1641  0.7348 -1.5377
 9079SOL    HW238700   1.192   2.489   2.524  0.3861 -0.7254  2.1214
 9080SOL     OW38701   3.499   1.042   6.559  0.2959 -0.3844 -0.3479
 9080SOL    HW138702   3.477   1.127   6.598 -1.0248 -0.6261 -0.5414
 9080SOL    HW238703   3.539   1.071   6.477 -0.5264  1.6714 -0.0320
 9081SOL     OW38704   1.919   0.376   6.090 -0.0034 -0.1258  0.1539
 9081SOL    HW138705   1.839   0.324   6.098 -0.0280 -0.4099 -1.9086
 9081SOL    HW238706   1.959   0.346   6.009 -0.1264 -0.2921  0.1533
 9082SOL     OW38707   3.363   1.172  16.138  0.1740  0.1788 -0.2298
 9082SOL    HW138708   3.296   1.220  16.187 -0.9937  0.4039 -2.0183
 9082SOL    HW238709   3.443   1.225  16.141  2.0015 -2.6807  1.1486
 9083SOL     OW38710   0.601   2.257   7.142  0.0034 -0.9517  0.4080
 9083SOL    HW138711   0.582   2.215   7.226  1.1427 -1.6063  0.3357
 9083SOL    HW238712   0.567   2.193   7.080  1.6564  0.2051 -1.6665
 9084SOL     OW38713   1.545   3.388   5.015  0.2264  0.2194  0.3319
 9084SOL    HW138714   1.570   3.479   5.000 -2.2372  0.6648 -1.1828
 9084SOL    HW238715   1.449   3.387   5.014  0.2243 -0.0022  0.5563
 9085SOL     OW38716   4.711   0.814   8.857  0.0278  0.4111  0.1305
 9085SOL    HW138717   0.027   0.822   8.770  0.1824 -0.1687  0.1517
 9085SOL    HW238718   0.050   0.860   8.911 -1.1872  2.7732 -0.4522
 9086SOL     OW38719   3.207   0.964   3.632  0.2667 -0.4637 -0.2029
 9086SOL    HW138720   3.125   0.935   3.674 -0.1732  1.3481  0.1995
 9086SOL    HW238721   3.182   1.050   3.598  1.7315  0.0911  0.1514
 9087SOL     OW38722   4.657   1.663   7.478  0.2811 -0.8219 -0.1550
 9087SOL    HW138723   4.718   1.636   7.409  1.1845 -0.7485  0.6302
 9087SOL    HW238724   4.670   1.758   7.480  0.6493 -0.9041  1.5414
 9088SOL     OW38725   1.881   3.488   0.486 -0.3490  0.0335  0.0042
 9088SOL    HW138726   1.878   3.450   0.398 -0.9567 -0.4694  0.2441
 9088SOL    HW238727   1.911   3.406   0.526 -1.0375 -0.0159  0.4156
 9089SOL     OW38728   0.166   3.898   6.524 -0.1371  0.2349 -0.2210
 9089SOL    HW138729   0.182   3.827   6.462  0.3362  1.0025 -0.9793
 9089SOL    HW238730   0.247   3.894   6.576  0.5429  0.0569 -1.3009
 9090SOL     OW38731   0.302   4.369   5.989 -0.3753 -0.6940 -0.3603
 9090SOL    HW138732   0.381   4.345   6.037 -0.7872 -0.2227  0.5533
 9090SOL    HW238733   0.238   4.358   6.060 -1.2320  0.7069 -0.9026
 9091SOL     OW38734   1.765   3.384   9.036 -0.1219 -0.3860 -0.0257
 9091SOL    HW138735   1.734   3.463   9.080  1.8185 -0.5930  1.7036
 9091SOL    HW238736   1.852   3.390   9.075 -0.3890  0.1089  0.4881
 9092SOL     OW38737   0.567   1.907   5.839 -0.7245 -0.4310  0.4893
 9092SOL    HW138738   0.574   1.993   5.798 -0.7331 -0.5761  0.1848
 9092SOL    HW238739   0.658   1.877   5.831 -0.9584 -1.5404  2.0006
 9093SOL     OW38740   0.920   2.755   6.142  0.2346 -0.1376 -0.0074
 9093SOL    HW138741   0.939   2.845   6.171 -2.0805 -0.1395  1.4690
 9093SOL    HW238742   0.827   2.759   6.122  0.1246  1.1103  0.7390
 9094SOL     OW38743   1.832   4.513   3.783  0.0766 -0.0068  0.2430
 9094SOL    HW138744   1.834   4.424   3.820 -2.2123 -0.2511 -0.2194
 9094SOL    HW238745   1.815   4.494   3.691  0.5720 -0.7243  0.2995
 9095SOL     OW38746   0.251   3.607   7.792 -0.3388  0.5013 -0.5618
 9095SOL    HW138747   0.172   3.647   7.829 -1.2232 -1.2178 -0.5940
 9095SOL    HW238748   0.206   3.541   7.740 -2.5854  2.6932 -1.4208
 9096SOL     OW38749   4.459   1.912   3.923 -0.4004  0.1025 -0.3131
 9096SOL    HW138750   4.477   1.926   3.830 -0.3705  1.6151 -0.0836
 9096SOL    HW238751   4.480   1.999   3.958 -1.1175  1.1145 -2.4106
 9097SOL     OW38752   0.319   4.114   7.468 -0.4427  0.1595 -0.2903
 9097SOL    HW138753   0.228   4.092   7.490  0.3572 -0.1765  2.6596
 9097SOL    HW238754   0.312   4.131   7.374 -2.3243 -0.0158 -0.1890
 9098SOL     OW38755   3.566   3.272   5.484 -0.1096 -0.2988  0.2355
 9098SOL    HW138756   3.588   3.321   5.405 -0.4311 -1.0138 -0.3028
 9098SOL    HW238757   3.605   3.326   5.552  0.1920 -2.7976  2.0487
 9099SOL     OW38758   1.316   4.062   3.805 -0.4825  0.2730 -0.7357
 9099SOL    HW138759   1.311   4.143   3.855  0.3489  0.2243 -0.5734
 9099SOL    HW238760   1.244   4.008   3.838  0.2981 -0.5987 -0.4508
 9100SOL     OW38761   2.676   0.238   0.167 -0.7883 -0.0212 -0.0616
 9100SOL    HW138762   2.643   0.282   0.089  2.7927  1.1779 -0.8954
 9100SOL    HW238763   2.702   0.320   0.207  2.2912 -0.9854 -0.0627
 9101SOL     OW38764   1.371   1.002   6.693  0.1680 -0.1403 -0.2029
 9101SOL    HW138765   1.312   1.006   6.618 -0.6353  1.9854  0.5410
 9101SOL    HW238766   1.397   1.094   6.706  1.4600 -0.6612  1.0078
 9102SOL     OW38767   0.349   2.462   7.807 -0.0562  0.0111  0.0861
 9102SOL    HW138768   0.364   2.494   7.896 -2.0002  0.9910  0.0810
 9102SOL    HW238769   0.279   2.526   7.793  0.0020 -0.2389 -1.2911
 9103SOL     OW38770   1.593   2.800   2.183 -0.3648 -0.1217  0.1371
 9103SOL    HW138771   1.654   2.727   2.175 -0.9673 -0.5493 -0.6647
 9103SOL    HW238772   1.613   2.823   2.274 -0.1310  0.2150 -0.0002
 9104SOL     OW38773   4.443   4.322   3.793 -0.4328  0.5203  0.0222
 9104SOL    HW138774   4.511   4.377   3.831  0.2659  0.9152 -1.7905
 9104SOL    HW238775   4.368   4.382   3.786  0.1175  1.0256 -1.5583
 9105SOL     OW38776   2.211   0.693   6.173  0.1110 -0.5292 -0.0190
 9105SOL    HW138777   2.252   0.691   6.086  1.5053 -0.7669  0.6435
 9105SOL    HW238778   2.292   0.692   6.224  0.7242 -0.2033 -0.9777
 9106SOL     OW38779   4.611   3.228   8.488  0.1275 -0.6494 -0.4874
 9106SOL    HW138780   4.664   3.225   8.568 -1.0635  0.3105  0.3290
 9106SOL    HW238781   4.676   3.214   8.420  2.0523  0.8503  1.0365
 9107SOL     OW38782   2.942   0.351  16.808  0.2860  0.1850 -0.2354
 9107SOL    HW138783   3.027   0.336  16.850  0.4910  0.4787 -0.5447
 9107SOL    HW238784   2.980   0.408  16.741  1.0614 -0.1534 -0.0866
 9108SOL     OW38785   0.809   2.462  13.306  0.1087 -0.0433  0.0789
 9108SOL    HW138786   0.774   2.426  13.388 -2.2871 -0.2563 -1.0340
 9108SOL    HW238787   0.882   2.514  13.338 -1.6057  1.6447  1.2066
 9109SOL     OW38788   4.546   2.843   9.258 -0.1506  0.4583 -0.2789
 9109SOL    HW138789   4.543   2.875   9.168  0.1674 -0.0402 -0.4664
 9109SOL    HW238790   4.641   2.835   9.271  0.0909 -0.6629 -2.7571
 9110SOL     OW38791   0.709   3.436   3.801 -0.3563 -0.1271 -0.0516
 9110SOL    HW138792   0.761   3.456   3.723 -0.6885  0.4223 -0.1293
 9110SOL    HW238793   0.623   3.419   3.762 -0.1139  2.5017 -1.7227
 9111SOL     OW38794   0.907   2.043   7.778 -0.3168 -0.4610 -0.0431
 9111SOL    HW138795   0.932   2.103   7.708 -0.8711  0.2007  0.3230
 9111SOL    HW238796   0.914   1.964   7.725  1.3016 -1.0539  1.0471
 9112SOL     OW38797   0.858   3.684   4.931  0.9473 -0.9798 -0.1884
 9112SOL    HW138798   0.848   3.697   4.837 -0.9701  0.8408  0.2486
 9112SOL    HW238799   0.794   3.614   4.944  0.9908 -0.7524  1.2539
 9113SOL     OW38800   1.156   4.549   3.728 -0.2550 -0.0939  0.6270
 9113SOL    HW138801   1.173   4.610   3.800  0.0883  0.0276  0.4447
 9113SOL    HW238802   1.088   4.494   3.765  1.2913 -0.7948  2.4186
 9114SOL     OW38803   3.384   3.230   7.721  0.2541  0.5371 -0.1923
 9114SOL    HW138804   3.331   3.304   7.693 -1.4432 -0.2451  0.9100
 9114SOL    HW238805   3.399   3.180   7.641 -0.3133  2.2400 -1.3568
 9115SOL     OW38806   1.452   1.558   6.561 -0.2789 -0.2650 -0.2805
 9115SOL    HW138807   1.438   1.629   6.497 -1.3237  0.6292  0.9168
 9115SOL    HW238808   1.387   1.582   6.627  0.3410 -2.5734  1.1557
 9116SOL     OW38809   2.300   3.229  17.643  0.2952 -0.1066  0.4210
 9116SOL    HW138810   2.217   3.270  17.621 -0.9735 -1.6004  2.4055
 9116SOL    HW238811   2.268   3.171   0.015 -1.0376  0.3267  0.1595
 9117SOL     OW38812   1.952   3.130   8.306  0.2985 -0.4754  0.0239
 9117SOL    HW138813   1.958   3.121   8.402  2.3739  1.9384  0.1109
 9117SOL    HW238814   1.926   3.221   8.295  3.3555  0.5022  1.0386
 9118SOL     OW38815   1.163   2.942   0.430  0.4394 -0.7798 -0.2119
 9118SOL    HW138816   1.080   2.944   0.383  1.4411 -0.2648 -1.9585
 9118SOL    HW238817   1.139   2.987   0.511  0.8848 -3.2433  1.2935
 9119SOL     OW38818   0.281   1.845  15.882  0.0469  0.0690 -0.0864
 9119SOL    HW138819   0.291   1.932  15.922  0.0597  0.0828 -0.1201
 9119SOL    HW238820   0.365   1.827  15.842 -0.3932 -1.5940 -0.2683
 9120SOL     OW38821   0.006   2.818  10.894 -1.0941 -0.1991  0.1005
 9120SOL    HW138822   0.027   2.889  10.955  0.2798 -0.9004  0.4594
 9120SOL    HW238823   4.721   2.745  10.955  0.1900 -0.4606 -0.0186
 9121SOL     OW38824   3.786   3.673   2.591 -0.6334  0.2021 -0.1957
 9121SOL    HW138825   3.766   3.723   2.512  0.4267  1.8611  0.5969
 9121SOL    HW238826   3.698   3.638   2.608 -1.3367  1.4827 -1.1748
 9122SOL     OW38827   0.232   1.880   0.966 -0.0051 -0.3272  0.0591
 9122SOL    HW138828   0.239   1.971   0.996  2.0108 -0.0987 -1.1195
 9122SOL    HW238829   0.314   1.844   1.000 -1.0311 -3.2381 -0.5881
 9123SOL     OW38830   3.846   3.647   8.036  0.2671  0.2700 -0.2319
 9123SOL    HW138831   3.859   3.583   8.105  2.9697 -0.5210 -1.4798
 9123SOL    HW238832   3.763   3.618   7.997  0.4181 -0.4288 -0.0256
 9124SOL     OW38833   3.498   3.225  17.392 -0.2097  0.5657  0.1448
 9124SOL    HW138834   3.499   3.262  17.480  0.0383  0.4390  0.1943
 9124SOL    HW238835   3.514   3.304  17.341  0.9860  0.8015  0.8723
 9125SOL     OW38836   1.055   0.922  14.337  0.0624  0.0641 -0.0211
 9125SOL    HW138837   1.104   0.885  14.264 -1.0904 -1.3275 -0.0920
 9125SOL    HW238838   0.997   0.984  14.292 -1.7105  0.0896  2.2722
 9126SOL     OW38839   0.721   0.927   9.488 -0.1539  0.0667 -0.1319
 9126SOL    HW138840   0.761   0.981   9.557  0.8444  0.9657 -1.4175
 9126SOL    HW238841   0.702   0.982   9.412  2.5498  0.6125 -0.4245
 9127SOL     OW38842   1.815   2.364   4.092  0.1574  0.3163 -0.5710
 9127SOL    HW138843   1.853   2.445   4.058 -0.0194 -0.6581 -3.0255
 9127SOL    HW238844   1.872   2.347   4.167  1.1243 -0.3760 -1.4597
 9128SOL     OW38845   0.440   2.696   6.278  0.3770 -0.2302  0.0919
 9128SOL    HW138846   0.455   2.788   6.300  1.0524 -0.4093  0.3972
 9128SOL    HW238847   0.525   2.662   6.307 -0.0679 -1.1400  0.3307
 9129SOL     OW38848   1.598   2.925  15.169 -0.2961  0.6810  0.0488
 9129SOL    HW138849   1.615   2.883  15.084 -1.9387  0.6865 -0.2841
 9129SOL    HW238850   1.505   2.903  15.182  0.0065 -1.2713 -0.9756
 9130SOL     OW38851   3.164   3.253   9.280 -0.3318  0.9671 -0.5233
 9130SOL    HW138852   3.129   3.294   9.201 -0.6675 -0.0746 -0.9094
 9130SOL    HW238853   3.205   3.174   9.245  0.9183  1.4579 -0.1700
 9131SOL     OW38854   2.243   3.184  10.845 -0.9401 -0.2519 -0.3991
 9131SOL    HW138855   2.323   3.215  10.888  0.0024 -0.6777 -1.8726
 9131SOL    HW238856   2.185   3.212  10.916 -1.3153  0.6133 -1.0464
 9132SOL     OW38857   3.170   1.730   3.372 -0.5635 -0.0479  0.1034
 9132SOL    HW138858   3.248   1.784   3.381 -0.1666 -1.2740  3.9021
 9132SOL    HW238859   3.122   1.780   3.306  1.3820 -1.6599 -2.5668
 9133SOL     OW38860   0.292   2.807   0.969  0.1415 -0.3334  0.1259
 9133SOL    HW138861   0.371   2.765   1.004 -0.1262 -1.8754 -1.1665
 9133SOL    HW238862   0.293   2.771   0.881 -0.0062  2.1364 -0.8947
 9134SOL     OW38863   3.062   4.079   7.735 -0.4034  0.4575  0.3528
 9134SOL    HW138864   3.074   4.007   7.797 -2.4700 -0.8733 -0.8089
 9134SOL    HW238865   3.085   4.029   7.657  0.7748 -1.1028  1.7026
 9135SOL     OW38866   1.536   0.589   3.339 -0.4097  0.2791 -0.5115
 9135SOL    HW138867   1.484   0.663   3.370 -0.8439  0.0421 -0.6652
 9135SOL    HW238868   1.626   0.618   3.349 -0.8614  1.7070 -0.6371
 9136SOL     OW38869   1.662   1.734  16.961  0.4476 -0.3426 -0.0995
 9136SOL    HW138870   1.584   1.718  17.015  1.4062 -1.4707  0.9370
 9136SOL    HW238871   1.640   1.819  16.923  0.1485 -1.1619 -1.7444
 9137SOL     OW38872   4.704   0.904  16.947  0.5590 -0.1580 -0.3702
 9137SOL    HW138873   4.719   0.829  17.005 -1.1005 -1.2200 -1.3310
 9137SOL    HW238874   4.611   0.906  16.927  0.5799 -0.8638 -0.5307
 9138SOL     OW38875   4.430   3.339   8.877  0.0257  0.0162 -0.1676
 9138SOL    HW138876   4.507   3.315   8.825 -0.3437  1.5131 -1.4077
 9138SOL    HW238877   4.387   3.401   8.818 -1.9650  0.8719  2.1937
 9139SOL     OW38878   1.915   3.061  17.628 -0.5018 -0.8152  0.0992
 9139SOL    HW138879   1.959   3.131  17.676 -2.6838  0.3961  0.3619
 9139SOL    HW238880   1.986   3.031  17.571  0.1773 -1.4521  1.2888
 9140SOL     OW38881   1.450   0.950  15.267 -0.3369  0.7677 -0.0331
 9140SOL    HW138882   1.427   1.034  15.307 -1.7550 -0.4663  1.7439
 9140SOL    HW238883   1.440   0.880  15.331 -0.1424  0.1719 -0.6517
 9141SOL     OW38884   3.205   1.170   2.625  0.0632 -0.2010 -0.4710
 9141SOL    HW138885   3.282   1.173   2.568  0.2179  1.2056 -0.1851
 9141SOL    HW238886   3.149   1.237   2.585  1.1377 -0.4780 -2.4505
 9142SOL     OW38887   2.983   1.641   9.183  0.7232 -0.6537  0.7396
 9142SOL    HW138888   3.012   1.717   9.233  0.3739 -0.8303  1.2073
 9142SOL    HW238889   2.891   1.626   9.202  0.4108 -0.6264 -0.7614
 9143SOL     OW38890   4.064   3.197   3.835  0.1898 -0.1541 -0.0710
 9143SOL    HW138891   4.076   3.117   3.886 -1.9884 -0.7443 -0.4993
 9143SOL    HW238892   4.032   3.264   3.896 -2.3393  0.5427 -2.1864
 9144SOL     OW38893   2.244   4.679   8.830  0.2392  0.2035 -0.3850
 9144SOL    HW138894   2.154   4.671   8.859  0.8636 -1.0804  1.2069
 9144SOL    HW238895   2.252   0.050   8.842 -0.2165  0.3095 -0.9394
 9145SOL     OW38896   3.249   2.370   7.575 -0.3504  0.0142  0.2151
 9145SOL    HW138897   3.243   2.441   7.511  0.4292  0.6885  0.8863
 9145SOL    HW238898   3.218   2.291   7.532 -2.2446 -0.8453  3.1588
 9146SOL     OW38899   3.103   3.581   1.665  0.1323  0.2319  0.0996
 9146SOL    HW138900   3.133   3.639   1.595  1.3198 -2.0666 -1.3016
 9146SOL    HW238901   3.063   3.647   1.722 -0.7700  0.9264 -1.3223
 9147SOL     OW38902   2.361   1.285   0.953 -0.1306 -0.3004  0.2234
 9147SOL    HW138903   2.293   1.292   1.021  1.0455 -0.5012  1.4255
 9147SOL    HW238904   2.349   1.193   0.930 -0.0755 -0.4546  0.7966
 9148SOL     OW38905   1.675   3.041   7.088 -0.5563 -0.6792  0.1780
 9148SOL    HW138906   1.711   2.955   7.113  0.4762 -0.2337  0.2433
 9148SOL    HW238907   1.588   3.046   7.126 -1.4912 -1.6223 -1.8576
 9149SOL     OW38908   1.063   4.658   2.682  0.4247  0.2493 -0.2617
 9149SOL    HW138909   1.077   4.603   2.605 -0.7338 -2.1027  1.1992
 9149SOL    HW238910   1.110   4.602   2.745 -0.3659 -1.1835 -0.9429
 9150SOL     OW38911   1.337   4.722   8.123 -0.6511  0.2027 -0.3227
 9150SOL    HW138912   1.260   4.689   8.170 -0.5765 -1.3901 -1.3179
 9150SOL    HW238913   1.339   4.670   8.043  0.9818  0.6175 -0.5397
 9151SOL     OW38914   4.069   1.656   3.363  0.0877 -0.1075  0.1195
 9151SOL    HW138915   4.095   1.735   3.411  2.6068 -0.7528 -0.2203
 9151SOL    HW238916   4.041   1.601   3.437  0.8322  1.1379  1.3229
 9152SOL     OW38917   3.572   4.437   8.359  0.1572 -0.3146  0.2549
 9152SOL    HW138918   3.583   4.380   8.283 -1.5964  0.9553 -0.9165
 9152SOL    HW238919   3.501   4.389   8.402  1.4933 -0.9656  1.7650
 9153SOL     OW38920   2.401   2.870   3.614 -0.0537  0.4886  0.3115
 9153SOL    HW138921   2.437   2.787   3.645  0.4849  0.3013 -0.8039
 9153SOL    HW238922   2.313   2.837   3.597 -0.1116  1.0427 -0.4728
 9154SOL     OW38923   1.661   2.277   4.537  0.1112  0.0787 -0.0787
 9154SOL    HW138924   1.675   2.275   4.443  0.3458 -4.2962  0.0330
 9154SOL    HW238925   1.579   2.326   4.539  0.9882  1.6224 -2.2413
 9155SOL     OW38926   3.155   0.052   8.329 -0.8627 -0.2015 -0.2882
 9155SOL    HW138927   3.080   0.036   8.273 -0.9827  0.6480 -0.3668
 9155SOL    HW238928   3.209   4.698   8.314  0.9373  0.6459  1.6347
 9156SOL     OW38929   3.410   4.365   7.263  0.7207 -0.7599  0.0077
 9156SOL    HW138930   3.476   4.391   7.200 -1.2092 -2.2684 -2.6457
 9156SOL    HW238931   3.338   4.333   7.209  0.5422  1.8934 -1.3211
 9157SOL     OW38932   2.707   2.795  17.509 -0.2688  0.0357 -0.3833
 9157SOL    HW138933   2.745   2.710  17.530  1.2857  1.1081  1.1457
 9157SOL    HW238934   2.711   2.839  17.594 -0.3201  3.1153 -1.9739
 9158SOL     OW38935   3.127   0.574   2.255 -0.0516  0.4737  0.4622
 9158SOL    HW138936   3.049   0.575   2.199  0.6209  0.2722 -0.4835
 9158SOL    HW238937   3.198   0.625   2.216 -0.1067  0.6843  0.6425
 9159SOL     OW38938   1.024   0.062   3.318  0.1740 -0.5174  0.6160
 9159SOL    HW138939   1.060   0.150   3.307  2.7875 -1.6044  0.4295
 9159SOL    HW238940   0.942   0.087   3.361  0.0717 -0.7624  0.5646
 9160SOL     OW38941   3.595   0.460   7.234 -0.3309  0.1972 -0.5707
 9160SOL    HW138942   3.574   0.530   7.172 -3.0815 -0.6508 -0.5886
 9160SOL    HW238943   3.572   0.503   7.317  0.6319  1.4742 -0.9503
 9161SOL     OW38944   3.206   3.728   1.453  0.0987  0.6870 -0.2600
 9161SOL    HW138945   3.294   3.748   1.485  0.2664 -1.1915  0.4512
 9161SOL    HW238946   3.213   3.797   1.387 -2.3106 -0.6066 -1.8606
 9162SOL     OW38947   0.451   3.096   5.713 -0.3221  0.3063  0.3780
 9162SOL    HW138948   0.398   3.050   5.648 -0.9963  1.9266 -0.2215
 9162SOL    HW238949   0.496   3.018   5.746  0.7583  1.1189  0.8377
 9163SOL     OW38950   2.488   4.186  11.121  0.4436  1.0083  0.2673
 9163SOL    HW138951   2.435   4.266  11.118  0.3853  0.8918 -2.4233
 9163SOL    HW238952   2.428   4.116  11.095  1.4848 -0.0056  0.5545
 9164SOL     OW38953   3.403   3.056   6.728 -0.8172 -0.3802  0.5569
 9164SOL    HW138954   3.477   3.049   6.789  1.5625  3.2047 -1.9696
 9164SOL    HW238955   3.334   3.032   6.790 -0.7030  0.7059  1.1050
 9165SOL     OW38956   0.680   3.118   3.164 -0.4276 -0.2916  0.0511
 9165SOL    HW138957   0.610   3.059   3.135 -1.2134  0.4026  0.5352
 9165SOL    HW238958   0.713   3.155   3.082  0.4850 -1.6366 -0.1957
 9166SOL     OW38959   2.893   3.146   6.744  0.3715  0.1770  0.1541
 9166SOL    HW138960   2.858   3.097   6.819 -0.7763  1.6517  0.5741
 9166SOL    HW238961   2.830   3.128   6.674  0.0812  1.7649  0.0210
 9167SOL     OW38962   1.108   3.152   8.875 -0.2910  0.2668 -0.2221
 9167SOL    HW138963   1.157   3.233   8.887 -1.1586  0.9870 -1.6059
 9167SOL    HW238964   1.113   3.124   8.966 -0.0021 -0.3859 -0.4360
 9168SOL     OW38965   0.504   3.868  16.073  0.1754  0.4712 -0.6145
 9168SOL    HW138966   0.491   3.921  16.152 -0.9855 -0.1095 -0.4237
 9168SOL    HW238967   0.449   3.922  16.017  0.1448 -1.3957 -2.3789
 9169SOL     OW38968   2.172   3.912   7.073  0.4406 -0.3886 -0.2531
 9169SOL    HW138969   2.260   3.877   7.081 -0.0704 -1.6433 -0.1502
 9169SOL    HW238970   2.177   3.981   7.139 -0.2522 -0.3317 -0.2593
 9170SOL     OW38971   2.167   0.119   5.681  0.1631 -0.0960  0.3611
 9170SOL    HW138972   2.104   0.054   5.713  1.7225 -1.3144  0.9039
 9170SOL    HW238973   2.113   0.151   5.608 -0.8179  0.7634  1.4560
 9171SOL     OW38974   2.771   1.815   8.628  0.9265 -0.4723 -0.0657
 9171SOL    HW138975   2.822   1.745   8.588  0.7751 -0.1160 -0.8882
 9171SOL    HW238976   2.798   1.798   8.718  0.9860 -1.1289 -0.2120
 9172SOL     OW38977   1.517   0.994   2.574 -0.3662  0.1121  0.0696
 9172SOL    HW138978   1.580   1.055   2.536  0.6805 -0.4971  0.8049
 9172SOL    HW238979   1.445   1.011   2.513 -0.4663  1.0874  0.4498
 9173SOL     OW38980   3.394   1.068   8.813 -0.7982  0.1802 -0.3358
 9173SOL    HW138981   3.373   1.085   8.905  0.5015 -0.4940  0.0918
 9173SOL    HW238982   3.341   0.993   8.784  1.9248 -1.4858 -1.0571
 9174SOL     OW38983   2.653   0.510   2.969  0.6259  0.1102 -0.2518
 9174SOL    HW138984   2.635   0.433   3.023  1.2204 -0.4024 -0.7865
 9174SOL    HW238985   2.747   0.529   2.971  0.9644 -1.5849 -0.7594
 9175SOL     OW38986   3.286   3.629   0.856  0.0225  0.1087  0.5191
 9175SOL    HW138987   3.263   3.702   0.913  2.1742  0.9701  0.2614
 9175SOL    HW238988   3.285   3.559   0.922  1.3783 -0.8911 -0.4961
 9176SOL     OW38989   4.381   1.858   7.570 -0.1868 -0.3857  0.1712
 9176SOL    HW138990   4.294   1.820   7.584  1.3372 -3.8111  0.2801
 9176SOL    HW238991   4.438   1.781   7.563 -1.5039 -1.4069  0.5968
 9177SOL     OW38992   0.703   0.508  16.642  0.0669 -0.6063 -0.0006
 9177SOL    HW138993   0.781   0.544  16.602  0.2942 -0.3210  0.6997
 9177SOL    HW238994   0.679   0.584  16.695 -2.4241 -0.8281 -0.7994
 9178SOL     OW38995   3.250   0.685   7.345  0.4064  0.2672  0.2856
 9178SOL    HW138996   3.211   0.614   7.294 -0.9914  0.2800  1.3396
 9178SOL    HW238997   3.264   0.744   7.271  1.2912 -0.3062  0.0028
 9179SOL     OW38998   0.906   2.406   5.854  0.1182  0.7160 -0.0243
 9179SOL    HW138999   0.896   2.500   5.837 -0.2845  0.2456 -2.3322
 9179SOL    HW239000   0.854   2.373   5.781 -1.3358  3.4785 -0.2748
 9180SOL     OW39001   3.382   2.294   4.064  0.3102  0.2507  0.1456
 9180SOL    HW139002   3.379   2.339   3.980  1.2914 -0.8106 -0.4643
 9180SOL    HW239003   3.298   2.249   4.062  0.0142  0.8317 -0.2380
 9181SOL     OW39004   4.608   2.129   6.773 -0.4033  0.1616 -0.0002
 9181SOL    HW139005   4.684   2.078   6.747  0.3677  1.1642  0.2976
 9181SOL    HW239006   4.554   2.058   6.808  0.0580 -0.5179 -0.6531
 9182SOL     OW39007   0.266   0.849  11.823  0.4053 -0.4380 -0.3037
 9182SOL    HW139008   0.287   0.755  11.820 -0.5645 -0.6265 -1.2982
 9182SOL    HW239009   0.273   0.864  11.917  1.3920  2.6254 -0.8819
 9183SOL     OW39010   2.459   3.094   7.670 -0.5269 -0.3759 -0.4040
 9183SOL    HW139011   2.427   3.004   7.673  0.8035 -0.7873  0.9705
 9183SOL    HW239012   2.505   3.091   7.754 -0.8962 -0.1468 -0.1935
 9184SOL     OW39013   3.444   2.897  10.184  0.3232  0.7033  0.2932
 9184SOL    HW139014   3.482   2.969  10.133 -0.3515  0.7013 -0.2200
 9184SOL    HW239015   3.514   2.879  10.246 -0.1511 -0.0305  0.6175
 9185SOL     OW39016   3.611   0.616   1.483  0.8202  0.5410 -0.1554
 9185SOL    HW139017   3.585   0.686   1.543 -0.7027  2.0063 -2.5007
 9185SOL    HW239018   3.664   0.565   1.544  1.9303  3.0764  0.9922
 9186SOL     OW39019   4.351   1.309  17.608  0.0864 -0.0633 -0.0851
 9186SOL    HW139020   4.285   1.247  17.640 -1.1461  0.3673 -1.7932
 9186SOL    HW239021   4.401   1.255  17.545 -0.5601 -1.4515  0.5972
 9187SOL     OW39022   3.825   4.595   3.987  0.2612  0.0907 -0.0206
 9187SOL    HW139023   3.825   4.657   3.914 -1.4992 -0.6069 -0.6030
 9187SOL    HW239024   3.783   4.654   4.050  1.9132  0.1175  1.0847
 9188SOL     OW39025   2.555   4.107   3.242  0.2976 -0.1942 -0.2375
 9188SOL    HW139026   2.606   4.045   3.190  0.1463  0.6117 -1.3386
 9188SOL    HW239027   2.622   4.166   3.277 -1.0201 -0.3465  2.5727
 9189SOL     OW39028   2.558   4.511   7.253 -0.0015 -0.6628 -0.1278
 9189SOL    HW139029   2.644   4.515   7.295  0.0509  0.4924 -0.3558
 9189SOL    HW239030   2.552   4.604   7.234  1.1496 -1.0103 -2.1801
 9190SOL     OW39031   0.849   3.700   6.956  0.5019 -0.4094  0.3184
 9190SOL    HW139032   0.791   3.657   7.019  1.2615  0.2681  1.4702
 9190SOL    HW239033   0.924   3.730   7.008 -0.0547  1.9893 -0.2949
 9191SOL     OW39034   1.719   3.189   5.040  0.0016  0.5433 -0.2064
 9191SOL    HW139035   1.733   3.175   4.946  1.7059 -1.4556  0.3397
 9191SOL    HW239036   1.656   3.260   5.034  0.0234  0.5641 -0.1851
 9192SOL     OW39037   2.731   0.958   8.865  0.0788 -1.0103  0.1232
 9192SOL    HW139038   2.789   0.936   8.793 -0.8051 -0.7247 -0.6772
 9192SOL    HW239039   2.727   1.053   8.857  3.8141 -0.7512  1.6645
 9193SOL     OW39040   1.268   2.576   1.329  0.5618 -0.3950  0.2307
 9193SOL    HW139041   1.337   2.584   1.264 -0.0393  3.0276 -0.0085
 9193SOL    HW239042   1.248   2.669   1.338 -1.2063 -0.5585 -2.0981
 9194SOL     OW39043   4.576   4.488   2.925 -0.0243  0.7990 -0.0646
 9194SOL    HW139044   4.538   4.424   2.864 -0.7477  2.0362 -0.9081
 9194SOL    HW239045   4.512   4.502   2.994 -0.7089  3.0634 -1.1424
 9195SOL     OW39046   1.299   3.428  11.596  0.0778  0.1326  0.4302
 9195SOL    HW139047   1.210   3.459  11.611 -0.7173 -1.6590 -0.5955
 9195SOL    HW239048   1.312   3.468  11.510 -0.2602 -0.1991  0.2236
 9196SOL     OW39049   2.085   0.659   5.597  0.1075 -0.1247  0.0000
 9196SOL    HW139050   2.048   0.571   5.607  2.3852 -1.0347  0.4133
 9196SOL    HW239051   2.008   0.707   5.565 -1.1022 -1.9451  0.1851
 9197SOL     OW39052   2.782   3.932  11.356 -0.3016  0.1584 -0.2177
 9197SOL    HW139053   2.830   3.905  11.277  1.2187 -0.8218  1.0468
 9197SOL    HW239054   2.777   3.856  11.414  2.3527  0.4680  0.4342
 9198SOL     OW39055   3.838   3.273   6.453  0.0209 -0.3978 -0.1602
 9198SOL    HW139056   3.874   3.185   6.441  0.4634  0.0098 -1.7627
 9198SOL    HW239057   3.747   3.247   6.465 -0.3468  1.1992  0.4662
 9199SOL     OW39058   4.227   1.712  11.292 -0.2173 -0.0202 -0.2417
 9199SOL    HW139059   4.318   1.689  11.276 -0.1327  1.0262 -1.1914
 9199SOL    HW239060   4.182   1.631  11.266  1.9111 -0.5467 -2.2628
 9200SOL     OW39061   4.583   0.931   8.448 -0.4911  1.0521  0.0418
 9200SOL    HW139062   4.656   0.925   8.510 -1.2676 -2.4812  0.6229
 9200SOL    HW239063   4.581   0.841   8.413 -1.4201  1.7169 -1.6280
 9201SOL     OW39064   3.957   4.071  15.879  0.0212  0.7914 -0.5485
 9201SOL    HW139065   3.967   4.046  15.971  0.7792 -0.0417 -0.8550
 9201SOL    HW239066   4.046   4.099  15.856  0.1129  1.4890  0.6418
 9202SOL     OW39067   1.036   2.985  12.582  0.6449 -0.1456 -0.0857
 9202SOL    HW139068   0.955   2.989  12.532  0.8215 -0.0590 -0.3644
 9202SOL    HW239069   1.026   2.896  12.615 -2.2138 -0.3116 -1.4163
 9203SOL     OW39070   2.263   1.124   8.033 -0.1155 -0.1855  0.1132
 9203SOL    HW139071   2.243   1.175   7.955  1.2986 -1.3190 -0.9979
 9203SOL    HW239072   2.308   1.192   8.084 -3.2118  1.5084  0.5675
 9204SOL     OW39073   0.660   0.324  16.135  0.0090  0.0430  0.5031
 9204SOL    HW139074   0.707   0.375  16.070 -0.4573  1.1428  1.0283
 9204SOL    HW239075   0.640   0.381  16.210  1.0437  2.0611 -0.7538
 9205SOL     OW39076   0.102   2.698   2.482  0.3329  0.6121  0.4188
 9205SOL    HW139077   0.147   2.625   2.526 -2.4785 -0.8973  0.7840
 9205SOL    HW239078   0.014   2.692   2.517  0.5317 -0.0511  0.8068
 9206SOL     OW39079   4.540   4.664   7.952  0.0356 -0.0291  0.0942
 9206SOL    HW139080   4.614   4.723   7.939 -1.6156  1.8007 -0.8760
 9206SOL    HW239081   4.482   0.004   7.992 -2.0099 -3.4115  2.5825
 9207SOL     OW39082   0.757   1.564   8.710 -1.4645  0.0509  0.1129
 9207SOL    HW139083   0.773   1.475   8.742  0.0623 -0.5162 -2.1839
 9207SOL    HW239084   0.663   1.566   8.690 -1.6101 -0.0787  0.7768
 9208SOL     OW39085   0.206   3.349   9.204 -0.1137 -0.6587  0.0237
 9208SOL    HW139086   0.216   3.263   9.247 -1.9911 -0.8038  0.1674
 9208SOL    HW239087   0.255   3.396   9.272  1.5536 -0.1688 -1.5223
 9209SOL     OW39088   3.304   0.140   1.948  0.0498  0.0353  0.1877
 9209SOL    HW139089   3.360   0.067   1.973 -1.3323 -0.1429  2.7942
 9209SOL    HW239090   3.301   0.189   2.031 -0.6471 -0.8027  0.6570
 9210SOL     OW39091   3.430   0.364   8.055  0.1691  0.2619 -0.0577
 9210SOL    HW139092   3.466   0.330   8.136 -1.0382  1.2287  0.8787
 9210SOL    HW239093   3.493   0.436   8.050  1.1779 -0.6703 -0.7367
 9211SOL     OW39094   1.539   2.275   7.349 -0.5179 -0.4072  0.0988
 9211SOL    HW139095   1.540   2.367   7.324 -1.2293 -0.9028 -1.7727
 9211SOL    HW239096   1.449   2.260   7.380 -1.5819  1.6500 -1.9827
 9212SOL     OW39097   3.811   2.423   8.081 -0.1325  0.0912  0.4846
 9212SOL    HW139098   3.773   2.346   8.037 -1.3080  1.1736 -0.3999
 9212SOL    HW239099   3.791   2.492   8.019  0.3058 -0.3821 -0.1773
 9213SOL     OW39100   3.480   4.314   9.003  0.3526 -0.3754 -0.0438
 9213SOL    HW139101   3.525   4.399   8.996  2.0672 -1.3625 -0.9206
 9213SOL    HW239102   3.403   4.331   9.058  1.0335 -0.9172  1.0771
 9214SOL     OW39103   3.639   3.440   5.723 -0.2636 -0.4751 -0.2449
 9214SOL    HW139104   3.661   3.533   5.729 -1.0597 -0.2678 -0.5803
 9214SOL    HW239105   3.685   3.411   5.802  0.5082  0.0887 -0.4820
 9215SOL     OW39106   3.600   3.027  17.234 -0.1806 -0.3230 -0.3021
 9215SOL    HW139107   3.655   2.963  17.281 -0.1457  0.8323  1.1950
 9215SOL    HW239108   3.562   3.077  17.305 -0.5869 -2.7649  1.2095
 9216SOL     OW39109   0.087   1.546   0.711 -0.0205  0.3019  0.4471
 9216SOL    HW139110   0.027   1.554   0.636 -3.1121 -1.5415  2.7426
 9216SOL    HW239111   0.124   1.459   0.697 -0.0915  0.4215 -0.4751
 9217SOL     OW39112   0.924   0.856  13.103  0.0830 -0.0456 -0.3501
 9217SOL    HW139113   0.895   0.777  13.057 -0.5823  0.9733 -1.6786
 9217SOL    HW239114   0.842   0.902  13.121 -1.6384 -3.3126  0.0888
 9218SOL     OW39115   1.087   0.853  11.364  0.1525  0.2620  0.3138
 9218SOL    HW139116   1.094   0.947  11.346 -1.4946  0.0296 -1.5077
 9218SOL    HW239117   0.992   0.847  11.376  0.2672 -0.9841  0.5968
 9219SOL     OW39118   3.459   0.777  11.969  0.8641  0.2242  0.8898
 9219SOL    HW139119   3.428   0.867  11.968 -0.8653 -0.3481  3.4218
 9219SOL    HW239120   3.399   0.748  12.037 -0.5030  0.3167 -0.2757
 9220SOL     OW39121   4.085   1.946   8.720  0.1108  0.4706  0.0047
 9220SOL    HW139122   4.123   1.900   8.645  0.4033  1.0559 -0.1995
 9220SOL    HW239123   4.070   1.889   8.796  0.7786 -2.5354 -2.0915
 9221SOL     OW39124   0.738   0.678   9.978  1.0041 -0.6811  0.0380
 9221SOL    HW139125   0.692   0.668   9.895  0.2090 -2.3028  0.6711
 9221SOL    HW239126   0.731   0.594  10.022 -0.6918 -0.2069  0.6887
 9222SOL     OW39127   0.745   2.783   8.391 -0.0022 -0.0619  0.2091
 9222SOL    HW139128   0.758   2.713   8.327 -1.9583  0.5545 -0.8639
 9222SOL    HW239129   0.834   2.796   8.423  0.4443  0.4290 -1.2500
 9223SOL     OW39130   4.210   3.868  16.553 -0.5167  0.0593  0.1052
 9223SOL    HW139131   4.228   3.887  16.645 -0.4644 -1.9575  0.5075
 9223SOL    HW239132   4.191   3.774  16.557 -1.6862  0.2560 -0.7151
 9224SOL     OW39133   0.952   0.646   2.654  0.5591 -0.2046  0.1108
 9224SOL    HW139134   0.957   0.578   2.586 -1.3399  1.3582 -1.6170
 9224SOL    HW239135   0.950   0.722   2.596  0.4817  0.3020  0.7837
 9225SOL     OW39136   2.516   3.240   4.266 -0.0948  0.0558  0.1958
 9225SOL    HW139137   2.562   3.324   4.264 -0.4172  0.2343  0.3320
 9225SOL    HW239138   2.578   3.188   4.318 -0.9142 -0.5082  0.6060
 9226SOL     OW39139   4.362   0.892   2.641 -0.2239  0.4160  0.4786
 9226SOL    HW139140   4.296   0.916   2.577  0.9138 -0.0305 -0.8521
 9226SOL    HW239141   4.316   0.824   2.691  0.5393  0.6790  1.5617
 9227SOL     OW39142   2.112   0.501   2.875 -0.4538 -0.0808  0.1905
 9227SOL    HW139143   2.074   0.413   2.870 -1.0686  0.2856 -1.7171
 9227SOL    HW239144   2.029   0.548   2.884  0.2271  1.3742 -1.0972
 9228SOL     OW39145   1.841   1.378   5.120  0.5098 -0.1024  0.7279
 9228SOL    HW139146   1.833   1.446   5.187  0.1845 -0.0414  0.6282
 9228SOL    HW239147   1.756   1.376   5.076  0.2265  0.8233  1.2386
 9229SOL     OW39148   3.552   2.086   3.983 -0.1535  0.1359 -0.2780
 9229SOL    HW139149   3.490   2.159   3.981 -0.6398 -0.2279  1.5003
 9229SOL    HW239150   3.551   2.075   3.888  2.3265  0.1352 -0.3053
 9230SOL     OW39151   3.302   1.939   2.236 -0.0520 -0.6899 -0.2167
 9230SOL    HW139152   3.365   1.885   2.189  0.6678  0.3676 -0.4511
 9230SOL    HW239153   3.247   1.971   2.165 -1.1954 -0.7279  0.6438
 9231SOL     OW39154   3.362   1.406   3.087 -0.2763 -0.5709  0.1723
 9231SOL    HW139155   3.448   1.447   3.099 -1.0047  0.9798 -0.0236
 9231SOL    HW239156   3.340   1.444   3.003  1.2422 -0.9475 -0.3990
 9232SOL     OW39157   2.023   0.374  15.230  0.1774  0.3152  0.9148
 9232SOL    HW139158   1.948   0.360  15.172  0.3886 -1.9549  1.1897
 9232SOL    HW239159   1.979   0.348  15.311 -2.4258 -1.9064 -1.2205
 9233SOL     OW39160   1.593   4.105   6.080 -0.3441 -0.4127 -0.0543
 9233SOL    HW139161   1.624   4.031   6.133 -0.5641  0.7656  1.7351
 9233SOL    HW239162   1.595   4.071   5.991  0.0260 -0.6383  0.0392
 9234SOL     OW39163   0.789   3.692   3.106  0.6448  0.2072 -0.0468
 9234SOL    HW139164   0.811   3.683   3.013  0.3890  3.2093 -0.3992
 9234SOL    HW239165   0.824   3.610   3.139  0.7386 -0.1881 -1.1387
 9235SOL     OW39166   1.220   2.592   3.318 -0.0689  0.7210  0.7393
 9235SOL    HW139167   1.178   2.601   3.404  0.7032  1.4352  1.0354
 9235SOL    HW239168   1.266   2.675   3.312 -0.6564  0.9977 -0.0300
 9236SOL     OW39169   3.235   0.111   5.747 -0.6458 -0.4687 -0.2018
 9236SOL    HW139170   3.171   0.042   5.763 -0.3773 -0.9328 -1.1450
 9236SOL    HW239171   3.291   0.070   5.681  0.9906  0.8023  0.3952
 9237SOL     OW39172   3.005   3.045  16.095 -0.4413 -0.1712 -0.2341
 9237SOL    HW139173   3.031   3.089  16.014  0.4601 -1.1458 -0.4884
 9237SOL    HW239174   3.086   2.994  16.102 -0.1444  0.6239  2.0194
 9238SOL     OW39175   1.823   3.776   2.246 -0.0430  0.8273  0.6010
 9238SOL    HW139176   1.730   3.780   2.270 -0.4904 -0.7599 -0.9042
 9238SOL    HW239177   1.812   3.731   2.162  0.4021 -2.0247  2.0836
 9239SOL     OW39178   2.181   0.792   6.844  0.4727 -0.2218  0.0236
 9239SOL    HW139179   2.243   0.811   6.774  1.0320 -1.6343  0.1244
 9239SOL    HW239180   2.145   0.879   6.863 -0.1638 -0.9641  2.3208
 9240SOL     OW39181   2.784   0.476   5.204 -0.8703  0.1290 -0.5829
 9240SOL    HW139182   2.783   0.486   5.299 -0.4560  0.3359 -0.6007
 9240SOL    HW239183   2.858   0.528   5.172  1.8004 -2.0011  2.1740
 9241SOL     OW39184   3.184   1.703   3.904  0.4145  0.4295  0.7431
 9241SOL    HW139185   3.101   1.738   3.936 -0.9395 -1.0257 -1.1640
 9241SOL    HW239186   3.158   1.617   3.872 -0.3710  1.5839 -1.7170
 9242SOL     OW39187   2.769   0.617   0.573 -0.3379  0.7970  0.1073
 9242SOL    HW139188   2.683   0.656   0.588 -0.4058  0.1425  1.4023
 9242SOL    HW239189   2.826   0.693   0.566 -0.0351  0.3447 -2.6261
 9243SOL     OW39190   0.092   3.627   4.059  0.8179 -0.4789 -0.6050
 9243SOL    HW139191   0.120   3.544   4.098  1.5772  0.2738  0.4550
 9243SOL    HW239192   0.032   3.663   4.124 -1.4093 -0.9008 -2.4365
 9244SOL     OW39193   0.939   3.450   3.171 -0.1397 -0.3608 -0.5976
 9244SOL    HW139194   0.955   3.396   3.093  0.0566  1.0486 -1.5394
 9244SOL    HW239195   0.880   3.398   3.225  0.6230  0.4568  1.0170
 9245SOL     OW39196   3.845   0.239   0.545  0.1520  0.1132 -0.6358
 9245SOL    HW139197   3.896   0.162   0.569 -0.2403  0.1540  0.3450
 9245SOL    HW239198   3.923   0.294   0.535  0.7140 -0.1285  2.2942
 9246SOL     OW39199   4.624   0.712   2.238 -0.1648  0.1064 -0.0737
 9246SOL    HW139200   4.597   0.699   2.329 -1.3072  0.8577 -0.3039
 9246SOL    HW239201   4.695   0.648   2.233 -0.3987 -0.1672  0.0874
 9247SOL     OW39202   0.817   3.864   1.694  0.1446  0.0790 -0.6221
 9247SOL    HW139203   0.882   3.927   1.724  2.5453 -1.8058 -1.8459
 9247SOL    HW239204   0.860   3.778   1.692  1.1321  0.5859 -1.2013
 9248SOL     OW39205   1.907   0.585   4.433 -0.4581 -0.1402  0.2773
 9248SOL    HW139206   1.940   0.674   4.438 -0.0816 -0.2856  0.4095
 9248SOL    HW239207   1.981   0.525   4.447 -0.1124 -0.4767 -2.7905
 9249SOL     OW39208   1.299   2.376  15.414 -0.2639 -0.5085 -0.0448
 9249SOL    HW139209   1.325   2.429  15.338 -1.5041 -0.8652 -0.7167
 9249SOL    HW239210   1.243   2.313  15.369 -3.0025  0.8261  1.5222
 9250SOL     OW39211   2.003   0.516  15.653 -0.0589 -0.1846  0.4205
 9250SOL    HW139212   2.018   0.447  15.718 -3.2012  0.0565  1.4317
 9250SOL    HW239213   1.956   0.470  15.584  0.3429  0.5596 -0.3452
 9251SOL     OW39214   0.984   2.181   7.549  0.4369  0.1248  0.3380
 9251SOL    HW139215   0.927   2.154   7.477  1.7865 -3.2899  0.5508
 9251SOL    HW239216   0.984   2.275   7.532 -0.8089 -0.2539 -1.6907
 9252SOL     OW39217   1.647   2.989   6.537  0.6265  0.0125  0.2468
 9252SOL    HW139218   1.567   2.993   6.483  2.4522  2.1058 -2.3318
 9252SOL    HW239219   1.647   2.896   6.557  0.7521  0.3828  1.9716
 9253SOL     OW39220   2.806   1.397   8.981 -0.3687  0.2737 -0.4843
 9253SOL    HW139221   2.773   1.328   8.923 -1.7270  0.5877 -0.1026
 9253SOL    HW239222   2.811   1.337   9.056 -2.5622  0.1133 -0.4499
 9254SOL     OW39223   2.030   4.646  13.318 -0.4714  0.1788 -0.0083
 9254SOL    HW139224   2.022   4.664  13.225  1.3358 -3.1462 -0.8129
 9254SOL    HW239225   2.017   4.551  13.315  0.1286  0.0274  2.2576
 9255SOL     OW39226   4.525   2.659   4.762 -0.0735  0.6642  0.3863
 9255SOL    HW139227   4.599   2.714   4.734  0.3518 -0.8180 -1.4394
 9255SOL    HW239228   4.457   2.695   4.705 -1.4801 -0.6649  1.2504
 9256SOL     OW39229   3.665   1.862  14.683 -0.6395 -0.6303 -0.0446
 9256SOL    HW139230   3.654   1.783  14.631  2.3373  0.7922 -2.8596
 9256SOL    HW239231   3.760   1.866  14.693 -0.5859 -0.5715 -0.5459
 9257SOL     OW39232   3.609   1.395   5.409 -0.0802  0.4301 -0.1701
 9257SOL    HW139233   3.550   1.467   5.385  0.1283  0.1456 -1.5524
 9257SOL    HW239234   3.549   1.320   5.402 -0.0992  0.5671 -1.4595
 9258SOL     OW39235   2.894   3.100   2.743 -0.0369  0.7581 -0.2425
 9258SOL    HW139236   2.841   3.037   2.792  1.6768  0.1680  0.8380
 9258SOL    HW239237   2.924   3.049   2.668  0.0483  0.3179  0.0936
 9259SOL     OW39238   4.268   0.851   9.357  0.3061  0.0878 -0.1606
 9259SOL    HW139239   4.353   0.813   9.378  0.3232  0.4085  0.3529
 9259SOL    HW239240   4.293   0.920   9.295  1.0878 -0.8996 -0.9463
 9260SOL     OW39241   1.177   4.588  12.224  0.3449  0.7332  0.1435
 9260SOL    HW139242   1.116   4.527  12.182  2.0626  0.4872 -2.0185
 9260SOL    HW239243   1.236   4.607  12.151  1.1429  1.7625  1.0447
 9261SOL     OW39244   2.343   3.576  13.070 -1.0474 -0.3784 -0.2690
 9261SOL    HW139245   2.429   3.539  13.093 -0.5840  0.3909 -0.7748
 9261SOL    HW239246   2.372   3.655  13.026  1.5479 -0.3949  1.3850
 9262SOL     OW39247   0.773   1.100   8.865  0.5524  0.1486 -0.2462
 9262SOL    HW139248   0.693   1.066   8.905  0.2093 -0.2612 -1.2867
 9262SOL    HW239249   0.797   1.173   8.922  1.7198 -0.9967  0.6997
 9263SOL     OW39250   3.409   3.076   7.505 -0.7046 -0.1071  0.0625
 9263SOL    HW139251   3.347   3.030   7.448  1.0241  0.6495 -2.4357
 9263SOL    HW239252   3.487   3.023   7.494 -1.3984 -0.7295 -1.9773
 9264SOL     OW39253   3.662   0.231   8.689  0.4792  0.0528 -0.1900
 9264SOL    HW139254   3.593   0.166   8.682 -0.3895  1.1759 -2.2142
 9264SOL    HW239255   3.741   0.178   8.701  0.1535 -0.1353  1.0918
 9265SOL     OW39256   4.297   3.387   7.614 -0.1863 -0.1175 -0.0972
 9265SOL    HW139257   4.332   3.308   7.654 -0.0088 -0.1790 -0.3749
 9265SOL    HW239258   4.321   3.369   7.523  0.4804  0.7302 -0.0879
 9266SOL     OW39259   3.459   3.179   3.560 -0.1031  0.2324 -0.3946
 9266SOL    HW139260   3.483   3.262   3.520 -1.2288 -0.6205 -2.8049
 9266SOL    HW239261   3.364   3.180   3.545 -0.3639 -0.6790  1.2162
 9267SOL     OW39262   0.484   3.302   7.949  0.5382  0.4287  0.0542
 9267SOL    HW139263   0.501   3.247   8.026 -0.0559 -0.2714 -0.3100
 9267SOL    HW239264   0.435   3.377   7.983  0.3254 -0.2527  1.2482
 9268SOL     OW39265   2.346   0.967   2.890 -0.4486 -0.0295 -0.1604
 9268SOL    HW139266   2.420   0.907   2.881  0.8834  1.4886  0.5932
 9268SOL    HW239267   2.328   0.977   2.984  0.7722 -0.8932  0.1781
 9269SOL     OW39268   1.236   4.234   1.662 -0.0850  0.3853 -0.0135
 9269SOL    HW139269   1.245   4.314   1.610 -1.6045  0.4977 -0.1045
 9269SOL    HW239270   1.320   4.237   1.708 -1.0992  1.7027  1.7534
 9270SOL     OW39271   0.266   1.427  10.862 -0.0489  0.7478  0.0800
 9270SOL    HW139272   0.258   1.333  10.848  1.2594  0.6813 -0.2355
 9270SOL    HW239273   0.211   1.456  10.790 -3.1784 -1.9190  1.4477
 9271SOL     OW39274   4.188   4.065   6.949 -0.5897 -0.3266  0.9312
 9271SOL    HW139275   4.095   4.085   6.940 -0.8627 -1.3602  1.4127
 9271SOL    HW239276   4.211   4.155   6.973 -1.6946 -0.1041  1.1459
 9272SOL     OW39277   0.303   2.473  15.966 -0.0565  0.3108 -0.1859
 9272SOL    HW139278   0.237   2.425  16.015  0.3117  0.0470  0.0469
 9272SOL    HW239279   0.271   2.466  15.876 -1.0983 -1.5874  0.3381
 9273SOL     OW39280   3.135   1.488   3.745  0.7502  0.2397  0.4435
 9273SOL    HW139281   3.173   1.493   3.658 -1.7470  0.5696 -0.6169
 9273SOL    HW239282   3.102   1.398   3.751  0.7565  0.2756  1.0624
 9274SOL     OW39283   1.604   3.613  13.510  0.2312  0.0761 -0.0118
 9274SOL    HW139284   1.554   3.677  13.560  0.5493  0.5572 -0.3030
 9274SOL    HW239285   1.645   3.569  13.585 -0.3187  0.1688  0.3377
 9275SOL     OW39286   3.289   0.770   4.109  0.5495 -0.5305  0.1415
 9275SOL    HW139287   3.196   0.745   4.116  0.7781 -1.2421  0.5843
 9275SOL    HW239288   3.320   0.737   4.025 -0.7771 -1.8200  0.1575
 9276SOL     OW39289   2.358   2.844   6.447 -0.0527 -0.1913  0.0248
 9276SOL    HW139290   2.377   2.763   6.495  0.4976  0.4881  0.9517
 9276SOL    HW239291   2.433   2.894   6.480 -0.0203 -0.7418  0.7921
 9277SOL     OW39292   0.765   3.810   6.696 -0.1288  0.0629  0.2784
 9277SOL    HW139293   0.811   3.790   6.777  1.8551  1.5688 -0.4779
 9277SOL    HW239294   0.679   3.777   6.722 -0.0559  0.8738  1.5447
 9278SOL     OW39295   2.898   0.992   6.950  0.2047 -0.4937  0.2251
 9278SOL    HW139296   2.852   0.926   6.899 -2.7298  1.7452 -0.0057
 9278SOL    HW239297   2.887   1.074   6.902  0.0273 -2.3598 -2.8636
 9279SOL     OW39298   2.711   2.816  14.518  0.0317 -0.2179 -0.0241
 9279SOL    HW139299   2.634   2.872  14.528  0.5317  0.0695  2.3662
 9279SOL    HW239300   2.768   2.861  14.582 -1.0727  0.0802  0.7499
 9280SOL     OW39301   3.605   2.852   3.090 -1.0962 -0.0776 -0.0215
 9280SOL    HW139302   3.641   2.941   3.102  0.1117 -0.3256 -1.8032
 9280SOL    HW239303   3.520   2.868   3.129  0.1684  0.7513  2.3841
 9281SOL     OW39304   2.634   0.560  16.612  0.0491 -0.1969  0.2299
 9281SOL    HW139305   2.715   0.609  16.599 -0.0121 -0.2025 -0.1809
 9281SOL    HW239306   2.579   0.635  16.635  0.7852  0.6142 -0.6507
 9282SOL     OW39307   4.304   4.059   9.222 -0.3170  0.6255 -0.0960
 9282SOL    HW139308   4.208   4.054   9.226 -0.1761 -1.3290  0.4441
 9282SOL    HW239309   4.316   4.125   9.290  0.3275 -0.1241  0.4990
 9283SOL     OW39310   3.858   3.845   9.376 -0.3869  0.0483  0.1098
 9283SOL    HW139311   3.837   3.928   9.419 -3.9046  0.2345 -2.0059
 9283SOL    HW239312   3.951   3.838   9.400 -0.6178  0.5127  1.1283
 9284SOL     OW39313   2.518   1.057   1.925  0.2942  0.0090 -0.3149
 9284SOL    HW139314   2.439   1.109   1.908 -0.5755 -1.0895  0.3820
 9284SOL    HW239315   2.493   0.992   1.991 -0.9601 -1.4311 -2.2112
 9285SOL     OW39316   2.826   4.572   9.529  0.2045  0.1294  0.4376
 9285SOL    HW139317   2.806   4.610   9.443  2.0832  0.6071  0.1961
 9285SOL    HW239318   2.759   4.505   9.527 -1.5233  1.8645  0.5085
 9286SOL     OW39319   3.551   1.470   4.905 -0.0474  0.1428 -0.3742
 9286SOL    HW139320   3.572   1.542   4.845  2.0972  0.4621  0.7647
 9286SOL    HW239321   3.616   1.480   4.975 -0.3368 -2.5926  0.2955
 9287SOL     OW39322   4.653   4.057   9.175  0.7854  0.8510  0.3005
 9287SOL    HW139323   4.613   3.974   9.150 -1.1862  1.1204  2.5476
 9287SOL    HW239324   4.695   4.077   9.091 -2.5241 -0.6997 -1.7397
 9288SOL     OW39325   4.010   2.625   0.269  0.1125 -0.3110 -0.0441
 9288SOL    HW139326   4.059   2.698   0.308  0.4314 -0.0172 -1.0105
 9288SOL    HW239327   4.061   2.604   0.192 -0.1858  1.6770 -0.7838
 9289SOL     OW39328   1.549   2.957   3.662  0.2395 -0.2662 -0.0316
 9289SOL    HW139329   1.498   2.946   3.582  1.1985  0.8275 -0.7877
 9289SOL    HW239330   1.489   3.021   3.699 -1.6843 -0.6554 -2.4493
 9290SOL     OW39331   4.437   1.219  16.235 -0.0888  0.0450  0.4169
 9290SOL    HW139332   4.464   1.130  16.213 -0.7847 -0.8061  3.0634
 9290SOL    HW239333   4.361   1.191  16.285 -1.0225  0.4591 -0.7858
 9291SOL     OW39334   4.541   2.012  12.055 -0.3550  0.1491 -0.1840
 9291SOL    HW139335   4.492   2.087  12.088 -0.2795  0.5109 -0.8921
 9291SOL    HW239336   4.612   2.012  12.119 -0.4557  0.0720 -0.0708
 9292SOL     OW39337   3.140   1.656   4.243 -0.2511  0.0876 -0.0163
 9292SOL    HW139338   3.053   1.651   4.281 -0.3917 -0.8969 -0.4556
 9292SOL    HW239339   3.120   1.614   4.159 -0.4362 -1.6794  0.8964
 9293SOL     OW39340   3.084   1.538  13.429 -0.0711 -0.4592  0.6050
 9293SOL    HW139341   3.031   1.612  13.461 -1.2607 -0.1297 -2.0551
 9293SOL    HW239342   3.073   1.562  13.337  2.0276  0.4787  0.6147
 9294SOL     OW39343   2.655   0.447  14.940 -0.0799  0.3663  0.3151
 9294SOL    HW139344   2.734   0.416  14.985 -0.9792 -1.3788  0.6744
 9294SOL    HW239345   2.689   0.532  14.914  1.3896 -0.4895 -0.5978
 9295SOL     OW39346   4.340   0.555   0.152 -0.0571  0.1226  0.0139
 9295SOL    HW139347   4.367   0.602   0.232  1.6408 -0.6050 -0.1389
 9295SOL    HW239348   4.274   0.497   0.190 -0.7174  1.4399  0.8700
 9296SOL     OW39349   3.949   2.923  13.489  0.1554 -0.5609  0.0259
 9296SOL    HW139350   3.916   2.999  13.442 -0.6437  0.4282  2.1828
 9296SOL    HW239351   4.026   2.906  13.435 -0.1959 -1.2975 -0.2501
 9297SOL     OW39352   0.397   3.996  13.630 -0.1321 -0.1317  0.2752
 9297SOL    HW139353   0.408   3.902  13.622  0.8458  0.0656 -0.7306
 9297SOL    HW239354   0.312   3.981  13.671 -0.7781 -1.4130 -1.5168
 9298SOL     OW39355   3.197   3.447   3.883 -0.4744 -0.2811  0.1914
 9298SOL    HW139356   3.236   3.434   3.969  0.0371 -1.0771 -0.1626
 9298SOL    HW239357   3.190   3.358   3.848  0.2602  1.0951 -3.3878
 9299SOL     OW39358   3.417   4.709   6.137 -0.6947  0.0996 -0.5634
 9299SOL    HW139359   3.352   0.054   6.146  0.2188  1.0575 -1.1516
 9299SOL    HW239360   3.482   0.032   6.084 -0.7569 -0.9494 -1.5788
 9300SOL     OW39361   1.935   2.883  12.294 -0.6276  0.4366  0.4970
 9300SOL    HW139362   1.844   2.881  12.323 -0.5117  1.1127  0.9095
 9300SOL    HW239363   1.922   2.925  12.209 -0.7190 -1.4593 -0.4388
 9301SOL     OW39364   2.395   3.104   7.240  0.1921  0.1945  0.2572
 9301SOL    HW139365   2.424   3.032   7.184  2.7446  2.0162 -0.7981
 9301SOL    HW239366   2.415   3.182   7.187  0.3159  0.5554  0.8341
 9302SOL     OW39367   4.381   4.302  11.277  0.0121 -0.2025 -0.2043
 9302SOL    HW139368   4.324   4.327  11.349  3.1589 -1.1143  2.5742
 9302SOL    HW239369   4.321   4.308  11.202  1.4135 -1.0300 -1.3981
 9303SOL     OW39370   3.317   0.155   1.554  0.3048  0.3510  0.9274
 9303SOL    HW139371   3.359   0.082   1.509 -0.0979 -0.4170  1.7944
 9303SOL    HW239372   3.245   0.172   1.492  3.4042 -0.5917 -2.9270
 9304SOL     OW39373   4.138   1.328   8.276  0.0407 -0.1270 -0.1748
 9304SOL    HW139374   4.200   1.396   8.250 -0.2158  0.0849 -0.2313
 9304SOL    HW239375   4.136   1.334   8.372  1.8289 -1.1195 -0.0809
 9305SOL     OW39376   4.404   0.521  10.575 -0.2585  0.2787 -0.1507
 9305SOL    HW139377   4.385   0.552  10.487  0.2911  0.7115 -0.1141
 9305SOL    HW239378   4.333   0.457  10.588  2.0005 -1.7973  1.9958
 9306SOL     OW39379   4.070   2.456   6.340  0.0061  0.0160  0.0987
 9306SOL    HW139380   4.109   2.411   6.265  2.1057  1.5436  0.2711
 9306SOL    HW239381   4.141   2.431   6.400 -0.6705 -1.3022  0.3546
 9307SOL     OW39382   4.591   1.251   8.993 -0.2552 -0.2675  0.4799
 9307SOL    HW139383   4.586   1.185   9.062 -0.1687 -0.1306  0.6147
 9307SOL    HW239384   4.498   1.267   8.979  0.6562  2.7736 -2.1499
 9308SOL     OW39385   0.601   0.168  10.111 -0.0395  0.2662 -0.0367
 9308SOL    HW139386   0.637   0.093  10.063 -0.5392 -0.5453  0.8673
 9308SOL    HW239387   0.507   0.156  10.120  0.1046 -1.3546 -0.6081
 9309SOL     OW39388   4.669   1.454   2.500 -0.6111 -0.7366 -0.6316
 9309SOL    HW139389   4.671   1.541   2.460 -1.0169 -0.5676 -0.2832
 9309SOL    HW239390   4.634   1.476   2.586  1.5576 -4.3000  1.1283
 9310SOL     OW39391   3.146   3.101   5.029  0.5164  0.3022  0.9411
 9310SOL    HW139392   3.200   3.141   5.097  2.8930  2.2012 -2.0625
 9310SOL    HW239393   3.176   3.010   5.024  1.4244  0.6357  0.4323
 9311SOL     OW39394   2.018   0.054   5.333 -0.5162 -0.3163 -0.0297
 9311SOL    HW139395   1.991   4.713   5.269  0.2129  0.4252 -1.0796
 9311SOL    HW239396   1.976   0.017   5.411 -2.1592  1.6146  0.0106
 9312SOL     OW39397   2.687   0.097   9.287 -0.4107  0.0442 -0.1766
 9312SOL    HW139398   2.760   0.113   9.347  1.8196  1.1024 -3.1944
 9312SOL    HW239399   2.730   0.040   9.223  0.1049  1.2434 -0.8835
 9313SOL     OW39400   0.414   3.491   9.636  0.0924  0.4727  0.2331
 9313SOL    HW139401   0.354   3.565   9.633 -0.2864  0.1326 -0.6801
 9313SOL    HW239402   0.425   3.470   9.729  0.2939 -0.4141  0.0084
 9314SOL     OW39403   0.364   2.603  12.558  0.0150 -0.0956 -0.0590
 9314SOL    HW139404   0.328   2.579  12.643  0.1317 -1.3453 -0.3611
 9314SOL    HW239405   0.287   2.587  12.504 -0.3066 -1.2501  0.7590
 9315SOL     OW39406   0.216   0.401   3.194  0.2834  0.1542 -0.3950
 9315SOL    HW139407   0.175   0.319   3.166 -0.3950  0.6356 -0.8134
 9315SOL    HW239408   0.164   0.415   3.273  1.4067  0.2444  0.3250
 9316SOL     OW39409   2.113   1.013   3.153  0.1035  0.1142 -0.0843
 9316SOL    HW139410   2.034   0.958   3.161  0.3269  0.0842  2.1425
 9316SOL    HW239411   2.077   1.064   3.080 -0.4702 -0.6006 -0.3053
 9317SOL     OW39412   3.083   3.326   6.554  0.0707  0.1429  0.3715
 9317SOL    HW139413   3.032   3.274   6.616 -1.6119  1.4675  0.0786
 9317SOL    HW239414   3.174   3.323   6.584 -0.0033 -3.0975  0.3021
 9318SOL     OW39415   1.124   1.715   1.601  0.5851  0.4724  0.0154
 9318SOL    HW139416   1.070   1.701   1.680  2.2748  0.5828  1.1775
 9318SOL    HW239417   1.203   1.676   1.637  0.6723  0.0648 -0.6259
 9319SOL     OW39418   3.913   3.505   4.533 -0.1934  0.1463  0.0127
 9319SOL    HW139419   3.880   3.437   4.474  0.0713  1.1675 -1.3176
 9319SOL    HW239420   3.872   3.489   4.618 -0.2557 -1.3355 -0.3043
 9320SOL     OW39421   1.956   2.151  16.354 -0.3414  0.4310  0.2956
 9320SOL    HW139422   1.961   2.233  16.307 -0.4516 -0.2385 -0.8731
 9320SOL    HW239423   1.862   2.132  16.361 -0.7576  2.8468  1.1823
 9321SOL     OW39424   2.141   3.044   9.299 -0.1424 -0.4208 -0.2467
 9321SOL    HW139425   2.111   2.970   9.246 -1.2751 -0.1033 -0.0470
 9321SOL    HW239426   2.198   3.092   9.239  2.8726 -1.5510  1.7097
 9322SOL     OW39427   1.573   3.878   4.376 -0.0057  0.2725 -0.1343
 9322SOL    HW139428   1.548   3.786   4.380  0.6192  0.0533 -1.3498
 9322SOL    HW239429   1.488   3.919   4.393 -0.2412  0.2144 -1.2290
 9323SOL     OW39430   2.582   3.841   3.946  0.0015  0.4347  0.8379
 9323SOL    HW139431   2.524   3.903   3.991  1.0846  2.1196 -0.0818
 9323SOL    HW239432   2.603   3.894   3.869 -1.6299  0.6730  0.5546
 9324SOL     OW39433   2.348   4.149  13.930  0.0776  0.2323  0.3545
 9324SOL    HW139434   2.312   4.077  13.983  0.4788  0.0552  0.3848
 9324SOL    HW239435   2.442   4.136  13.923 -0.0698 -1.6665  1.7333
 9325SOL     OW39436   1.794   2.486  16.764  0.0252  0.2867 -0.1326
 9325SOL    HW139437   1.883   2.460  16.738 -0.3589  0.1559 -1.2951
 9325SOL    HW239438   1.800   2.578  16.793 -0.2193  0.6664 -1.2866
 9326SOL     OW39439   3.804   3.361   8.033 -0.1489  0.8758 -0.2219
 9326SOL    HW139440   3.881   3.307   8.016 -1.0928 -0.8156  0.9369
 9326SOL    HW239441   3.744   3.318   7.972 -2.3079  0.1197  2.4213
 9327SOL     OW39442   3.269   3.909   3.819 -0.2106 -0.2089  0.2635
 9327SOL    HW139443   3.280   3.870   3.906 -1.2420  0.2794  0.6049
 9327SOL    HW239444   3.250   3.840   3.755 -0.0347 -0.7157  0.7467
 9328SOL     OW39445   4.157   1.180  12.440 -0.2561  0.7672  0.0493
 9328SOL    HW139446   4.245   1.211  12.462 -0.2007  1.2338 -0.8281
 9328SOL    HW239447   4.111   1.227  12.509 -0.5341 -0.4968  0.7317
 9329SOL     OW39448   4.227   4.180  14.456  0.2135  0.3677 -0.1445
 9329SOL    HW139449   4.202   4.244  14.523 -2.5991  0.3154 -1.1578
 9329SOL    HW239450   4.227   4.097  14.502  2.8996  0.5262  0.1521
 9330SOL     OW39451   3.150   2.419  17.324 -0.0458  0.0105  0.8124
 9330SOL    HW139452   3.167   2.429  17.230 -0.1133  0.2154  0.8221
 9330SOL    HW239453   3.218   2.361  17.357  1.3658  1.0023 -0.3550
 9331SOL     OW39454   2.223   4.047   5.028  0.2491  0.0715 -0.2738
 9331SOL    HW139455   2.154   4.103   4.992 -2.3667 -2.6699  0.4580
 9331SOL    HW239456   2.293   4.086   4.976  1.2635  1.1515  1.9436
 9332SOL     OW39457   0.971   2.563   1.693  0.1838 -0.3481 -0.0318
 9332SOL    HW139458   0.970   2.621   1.617 -0.6037 -0.7715 -0.3433
 9332SOL    HW239459   0.936   2.480   1.660  0.5365  0.0082 -1.3050
 9333SOL     OW39460   0.244   0.611   7.945 -0.1541 -0.0957  0.5494
 9333SOL    HW139461   0.276   0.701   7.941 -1.5699  0.4871  2.7598
 9333SOL    HW239462   0.157   0.625   7.981 -0.2967 -0.6745  0.4371
 9334SOL     OW39463   2.257   3.950   2.480  0.2172  0.0595 -0.2772
 9334SOL    HW139464   2.168   3.916   2.470  0.3146 -0.1203 -0.5542
 9334SOL    HW239465   2.234   4.032   2.437 -0.9603  0.1719  0.5734
 9335SOL     OW39466   1.691   2.983   1.974  0.5527  0.0207  0.7024
 9335SOL    HW139467   1.677   2.932   2.054 -0.8115  0.6590  0.8604
 9335SOL    HW239468   1.602   2.984   1.939  0.8832 -0.4582 -0.1455
 9336SOL     OW39469   3.722   0.028   4.933 -0.0568 -0.0017 -0.1981
 9336SOL    HW139470   3.630   0.052   4.933  0.1484  0.7734  0.5917
 9336SOL    HW239471   3.762   0.110   4.960  0.3915 -1.1683  2.6805
 9337SOL     OW39472   2.844   3.508  11.216 -0.2607  0.1761  0.2384
 9337SOL    HW139473   2.937   3.502  11.192 -0.9569 -1.2350 -2.0803
 9337SOL    HW239474   2.823   3.418  11.242 -0.8797  0.7197  1.6084
 9338SOL     OW39475   1.914   0.087   3.561  0.2720 -0.0311 -0.0881
 9338SOL    HW139476   1.964   0.024   3.613  0.1328  0.0318  0.1191
 9338SOL    HW239477   1.835   0.046   3.526  0.9077 -1.0535 -0.3443
 9339SOL     OW39478   0.381   1.158  16.207  0.2471  0.1054  0.1436
 9339SOL    HW139479   0.445   1.121  16.146  0.2280  0.0984  0.1282
 9339SOL    HW239480   0.322   1.200  16.145 -0.8592 -1.9372 -0.1675
 9340SOL     OW39481   2.525   4.437   0.996 -0.6435 -0.0653 -0.1555
 9340SOL    HW139482   2.596   4.374   0.986 -0.8743 -0.4427  0.5621
 9340SOL    HW239483   2.531   4.483   0.912  2.4399  2.4918  1.4836
 9341SOL     OW39484   1.364   3.351   7.182  0.2087  0.3662  0.1843
 9341SOL    HW139485   1.453   3.388   7.179  0.3358  0.0273 -0.2551
 9341SOL    HW239486   1.342   3.378   7.271 -1.1761 -0.0737 -0.0417
 9342SOL     OW39487   1.134   2.756   4.299 -0.0927  0.3091 -0.2793
 9342SOL    HW139488   1.160   2.729   4.211 -0.9805 -2.0550  0.1849
 9342SOL    HW239489   1.077   2.685   4.328 -1.2995  1.3174 -0.1896
 9343SOL     OW39490   4.025   4.472   1.580 -0.2799 -0.0224 -0.2209
 9343SOL    HW139491   3.933   4.472   1.606  0.0349  0.7445  0.9156
 9343SOL    HW239492   4.037   4.386   1.539 -1.2375 -0.9499  1.4920
 9344SOL     OW39493   2.753   3.604   4.040 -0.2688  0.1168 -0.3261
 9344SOL    HW139494   2.689   3.672   4.021  2.4258  2.5225 -0.7615
 9344SOL    HW239495   2.829   3.650   4.076  0.4087 -0.7657 -0.6291
 9345SOL     OW39496   1.647   2.067  10.549  0.1440  0.4045  0.4977
 9345SOL    HW139497   1.731   2.106  10.524 -1.1011  2.2382 -0.8171
 9345SOL    HW239498   1.595   2.118  10.487 -1.6848  0.0616  1.7316
 9346SOL     OW39499   1.469   0.036   5.002 -0.2852 -0.0734 -0.0058
 9346SOL    HW139500   1.428   0.101   4.944 -1.6747 -0.0625  1.0049
 9346SOL    HW239501   1.430   0.074   5.080  0.0783  1.4501 -0.5495
 9347SOL     OW39502   2.205   0.734   5.023  0.5237 -0.4209  0.2199
 9347SOL    HW139503   2.273   0.755   4.958 -0.0436  0.4159 -0.1019
 9347SOL    HW239504   2.141   0.803   5.006 -0.5404 -1.9322 -1.8458
 9348SOL     OW39505   0.317   4.433  12.112  0.5319  0.1514  0.1820
 9348SOL    HW139506   0.294   4.347  12.075  0.5970  0.5867 -0.8688
 9348SOL    HW239507   0.410   4.440  12.092 -0.1667 -1.1051 -3.6078
 9349SOL     OW39508   1.840   1.842   2.930  0.2706 -0.6056  0.3287
 9349SOL    HW139509   1.773   1.887   2.983  1.6265 -0.6779  2.0964
 9349SOL    HW239510   1.806   1.863   2.843  1.6791 -1.3330 -0.3972
 9350SOL     OW39511   4.446   1.809   9.400 -0.4092 -0.0938  0.4288
 9350SOL    HW139512   4.494   1.823   9.481 -0.2225  0.3453  0.2440
 9350SOL    HW239513   4.449   1.896   9.361  0.0434 -0.4993 -0.4492
 9351SOL     OW39514   0.020   1.740   8.486  0.2605 -0.1080  0.3623
 9351SOL    HW139515   4.667   1.773   8.532 -0.4774 -2.0382  0.5208
 9351SOL    HW239516   4.714   1.761   8.397 -0.8911 -1.1680  0.5069
 9352SOL     OW39517   1.313   4.587  13.239 -0.7829 -0.0546  0.3572
 9352SOL    HW139518   1.344   4.506  13.199 -1.0644  1.0187 -1.9948
 9352SOL    HW239519   1.395   4.606  13.284  1.0265 -3.3180 -1.5630
 9353SOL     OW39520   0.760   1.287   3.039  0.3885 -0.4628  0.0189
 9353SOL    HW139521   0.706   1.307   2.963  1.1197  1.0371 -0.1065
 9353SOL    HW239522   0.836   1.240   3.005  2.3967  1.1589  2.2717
 9354SOL     OW39523   1.588   1.451   4.944  0.1971  0.0207  0.7396
 9354SOL    HW139524   1.519   1.426   5.005 -2.2783  4.3030 -0.3058
 9354SOL    HW239525   1.540   1.457   4.861  0.9671  0.4580  0.3252
 9355SOL     OW39526   0.859   2.243   1.267 -0.4175 -0.4714 -0.4463
 9355SOL    HW139527   0.836   2.229   1.359  1.7179  0.2854  0.2055
 9355SOL    HW239528   0.944   2.199   1.269 -0.0006  0.1648 -5.0060
 9356SOL     OW39529   1.418   1.563   3.489  0.0835 -0.0827 -0.0012
 9356SOL    HW139530   1.407   1.516   3.407 -0.9842  0.8067 -0.3734
 9356SOL    HW239531   1.389   1.652   3.466  0.2395  0.5732  2.2607
 9357SOL     OW39532   2.454   2.988   6.770  0.5505 -0.2682  1.2066
 9357SOL    HW139533   2.386   3.054   6.786  1.1726  1.0210 -1.3856
 9357SOL    HW239534   2.400   2.910   6.764  0.4045 -0.1745  1.3114
 9358SOL     OW39535   1.905   1.972   1.496 -0.0177 -0.4294 -0.2778
 9358SOL    HW139536   1.945   1.978   1.583 -0.1493 -1.0731 -0.1766
 9358SOL    HW239537   1.868   2.060   1.487 -0.3936 -0.7923 -2.2527
 9359SOL     OW39538   2.367   4.107   6.917 -1.1485 -0.0775  0.2808
 9359SOL    HW139539   2.373   4.196   6.953  3.4976 -0.1458 -0.3213
 9359SOL    HW239540   2.368   4.133   6.825  1.6842 -0.8843  0.0960
 9360SOL     OW39541   1.683   3.882  13.726  0.1268 -0.2072 -0.1837
 9360SOL    HW139542   1.638   3.901  13.644  0.9006 -0.9968 -0.7950
 9360SOL    HW239543   1.679   3.968  13.768 -1.4026 -0.4886  0.2206
 9361SOL     OW39544   2.779   1.096   5.919 -1.0160 -0.2669  0.0361
 9361SOL    HW139545   2.810   1.149   5.992 -0.0938 -1.7292  0.7056
 9361SOL    HW239546   2.845   1.119   5.854 -1.1790  0.5923  0.1748
 9362SOL     OW39547   3.114   2.839   9.007  0.9568 -0.3550  0.5147
 9362SOL    HW139548   3.089   2.924   8.969  0.8456 -1.5722 -2.1071
 9362SOL    HW239549   3.041   2.829   9.069  0.3172 -1.2706 -0.3954
 9363SOL     OW39550   3.926   0.549   7.102 -0.8092 -0.3278 -0.0589
 9363SOL    HW139551   3.972   0.470   7.131 -0.6538 -0.2146  0.0087
 9363SOL    HW239552   3.924   0.538   7.007  0.5432  1.0955 -0.2629
 9364SOL     OW39553   4.713   1.761   0.862  0.2253 -0.0487 -0.3650
 9364SOL    HW139554   0.066   1.804   0.899  0.8080  0.7605 -2.5562
 9364SOL    HW239555   0.026   1.684   0.817 -0.5257  0.2991 -1.5853
 9365SOL     OW39556   1.352   4.037   4.421  0.0006  1.0191  0.1169
 9365SOL    HW139557   1.335   4.130   4.438 -0.8352  1.2464 -1.9346
 9365SOL    HW239558   1.297   4.018   4.345 -0.2610 -0.4346  0.6699
 9366SOL     OW39559   1.623   2.339   3.716 -0.1500 -0.4908 -0.4563
 9366SOL    HW139560   1.600   2.432   3.726  0.4206 -0.4209  0.1476
 9366SOL    HW239561   1.620   2.328   3.620  0.8924 -4.4551 -0.0253
 9367SOL     OW39562   2.682   3.407   7.302 -0.7655  0.1287 -0.3472
 9367SOL    HW139563   2.711   3.360   7.223  0.2638 -0.3049  0.2923
 9367SOL    HW239564   2.732   3.370   7.374  1.7902  0.3978 -1.9515
 9368SOL     OW39565   0.447   1.951   3.580  0.4086 -0.6487 -0.3419
 9368SOL    HW139566   0.395   1.942   3.500 -0.8805 -2.3678  0.6869
 9368SOL    HW239567   0.417   2.036   3.610 -0.2286 -0.6800 -0.8932
 9369SOL     OW39568   1.159   4.460   7.118 -0.4023  0.3255  0.0656
 9369SOL    HW139569   1.202   4.452   7.203 -1.4429  0.9339  0.6588
 9369SOL    HW239570   1.201   4.540   7.085  0.0570  0.7307  1.6231
 9370SOL     OW39571   0.253   2.568  13.998 -0.4326  0.0924 -0.3634
 9370SOL    HW139572   0.293   2.581  13.912  0.2517 -3.5762 -0.6169
 9370SOL    HW239573   0.172   2.530  13.965 -1.1181  0.1710  1.2379
 9371SOL     OW39574   1.718   3.517   6.632  0.3080  0.0072  0.3894
 9371SOL    HW139575   1.792   3.568   6.600  1.5011 -2.2592 -0.4873
 9371SOL    HW239576   1.754   3.454   6.695 -0.3984  0.9082  1.6875
 9372SOL     OW39577   2.060   2.843   6.012  0.2433 -0.4052  0.1202
 9372SOL    HW139578   1.979   2.895   6.011  1.2503  1.2114  1.7030
 9372SOL    HW239579   2.105   2.879   6.089  0.7545 -0.0893 -0.3226
 9373SOL     OW39580   3.523   0.852   1.360 -0.3531  0.6909 -0.2246
 9373SOL    HW139581   3.430   0.855   1.379 -0.0762  1.4612  0.9580
 9373SOL    HW239582   3.539   0.758   1.373 -0.4476  0.7207  0.1125
 9374SOL     OW39583   0.859   1.566   3.996 -0.3602 -0.3544  0.1028
 9374SOL    HW139584   0.942   1.568   4.044 -1.2171  1.7206  1.4519
 9374SOL    HW239585   0.854   1.471   3.982  0.2625 -0.1633 -1.5418
 9375SOL     OW39586   4.687   4.663  12.885 -0.1629 -0.1633  0.1291
 9375SOL    HW139587   0.034   0.003  12.885  0.0061 -0.3429 -0.7159
 9375SOL    HW239588   4.670   4.679  12.792 -0.7057  1.2328  0.4646
 9376SOL     OW39589   4.379   0.986   4.395 -0.4672 -0.4615 -0.1647
 9376SOL    HW139590   4.395   1.015   4.305 -1.4274  0.6198  0.0217
 9376SOL    HW239591   4.283   0.994   4.392 -0.3905  0.1823 -1.1951
 9377SOL     OW39592   3.411   2.973   4.643 -0.2469  0.8468 -0.3591
 9377SOL    HW139593   3.326   2.968   4.601  0.7033  0.9602 -2.2958
 9377SOL    HW239594   3.461   2.918   4.583 -1.3562  1.3881 -1.7906
 9378SOL     OW39595   4.265   4.525   3.792 -0.0757 -0.1835  0.4021
 9378SOL    HW139596   4.214   4.544   3.871  0.3502  1.1743  0.3536
 9378SOL    HW239597   4.196   4.520   3.726  0.0078  0.3197  0.2795
 9379SOL     OW39598   2.632   1.740   4.428  0.4126  0.1741 -0.3039
 9379SOL    HW139599   2.612   1.830   4.399 -1.0231 -0.1766 -0.3952
 9379SOL    HW239600   2.547   1.702   4.447  0.0348  0.6956 -0.9248
 9380SOL     OW39601   0.040   0.805   9.600  0.5896  0.1399  0.2161
 9380SOL    HW139602   0.087   0.872   9.649  0.5263  0.0912  0.3438
 9380SOL    HW239603   0.012   0.751   9.675 -0.6094 -1.5085 -1.4157
 9381SOL     OW39604   2.412   1.248   3.648  0.0802  0.0200 -0.1072
 9381SOL    HW139605   2.330   1.277   3.687  0.4706  0.4383  0.4053
 9381SOL    HW239606   2.406   1.288   3.561 -1.2528 -1.1031 -0.5276
 9382SOL     OW39607   2.414   1.770   0.716 -0.0893  0.0924  0.2954
 9382SOL    HW139608   2.336   1.794   0.766 -0.0962  1.4333 -0.3585
 9382SOL    HW239609   2.421   1.860   0.684 -0.3403 -0.6447 -1.8700
 9383SOL     OW39610   1.898   2.162  17.677  0.4738  0.3914  0.1726
 9383SOL    HW139611   1.842   2.195   0.049  1.7018 -2.5437  2.5231
 9383SOL    HW239612   1.833   2.163  17.606  0.2700 -2.3679  0.3446
 9384SOL     OW39613   0.188   1.552   3.850  0.3257 -0.2917 -0.0900
 9384SOL    HW139614   0.264   1.499   3.827  2.2500  1.0907  3.0665
 9384SOL    HW239615   0.135   1.489   3.899  2.6917 -0.3587  2.3460
 9385SOL     OW39616   4.570   1.673   4.049 -0.5156  0.2993  0.4268
 9385SOL    HW139617   4.523   1.598   4.014  0.3711  0.4737 -1.1736
 9385SOL    HW239618   4.511   1.749   4.048 -0.9716 -0.1625 -4.9516
 9386SOL     OW39619   2.022   0.893   5.935  0.2749 -0.3718 -0.2571
 9386SOL    HW139620   2.082   0.952   5.979 -1.9518  2.9019 -1.6004
 9386SOL    HW239621   2.076   0.814   5.933  1.8086  0.7268 -1.0905
 9387SOL     OW39622   3.740   4.131   4.803 -0.0699  0.6873 -0.5064
 9387SOL    HW139623   3.778   4.185   4.871  1.6411 -1.5015  0.2932
 9387SOL    HW239624   3.781   4.167   4.724  0.4122 -1.0853 -1.0701
 9388SOL     OW39625   2.723   3.842   1.001 -0.0473  0.2281  0.4839
 9388SOL    HW139626   2.812   3.867   1.025 -0.9034  0.5416  3.2609
 9388SOL    HW239627   2.744   3.758   0.959  1.0467 -0.5575  2.6054
 9389SOL     OW39628   2.456   1.489   4.355  0.0774 -0.5671 -0.5864
 9389SOL    HW139629   2.391   1.540   4.307 -0.4753  0.3941  1.1635
 9389SOL    HW239630   2.396   1.429   4.399 -1.5577  0.8024 -0.9350
 9390SOL     OW39631   4.010   0.173   8.461 -0.2170 -0.3347 -0.5162
 9390SOL    HW139632   4.030   0.247   8.404 -1.7773  1.6902  1.5435
 9390SOL    HW239633   4.097   0.135   8.471 -0.6747 -1.3000 -0.2320
 9391SOL     OW39634   1.285   4.592   6.118 -0.6731 -0.5140 -0.2585
 9391SOL    HW139635   1.327   4.582   6.203  0.5533  2.7221 -0.4786
 9391SOL    HW239636   1.288   4.505   6.079 -1.1060 -1.3648  1.6250
 9392SOL     OW39637   4.108   3.699   9.825 -0.0168 -0.0398 -0.5183
 9392SOL    HW139638   4.138   3.730   9.739 -1.0882 -1.0462 -1.2506
 9392SOL    HW239639   4.167   3.626   9.842  0.8093  1.0887  1.4637
 9393SOL     OW39640   2.711   3.908   7.654  0.4214 -0.0581  0.4258
 9393SOL    HW139641   2.638   3.944   7.703  1.5162  2.1129  0.4563
 9393SOL    HW239642   2.733   3.988   7.607  0.7091  0.4915  1.4971
 9394SOL     OW39643   2.631   3.997   4.537  0.2326  0.1599 -0.1283
 9394SOL    HW139644   2.555   3.984   4.594  0.9997  0.0605  0.8835
 9394SOL    HW239645   2.696   3.946   4.585  1.0552  0.1209 -1.2902
 9395SOL     OW39646   0.315   3.345   2.456  0.1657 -0.4919  0.4018
 9395SOL    HW139647   0.245   3.302   2.406  0.1559  0.2115 -0.1823
 9395SOL    HW239648   0.272   3.361   2.540 -1.6635 -2.9096 -0.0658
 9396SOL     OW39649   1.016   0.144  12.292 -0.3052  0.1658  0.5867
 9396SOL    HW139650   0.996   0.051  12.302 -1.2926  0.1255 -1.7329
 9396SOL    HW239651   1.104   0.143  12.329  0.1277 -0.4217 -0.4624
 9397SOL     OW39652   3.665   2.447   3.538  0.2331 -0.9430  0.6478
 9397SOL    HW139653   3.709   2.452   3.623  0.6674  1.0206  0.3135
 9397SOL    HW239654   3.584   2.398   3.555 -0.4533  0.4723  1.4426
 9398SOL     OW39655   3.055   2.213   5.744  0.2492 -0.1174 -0.1620
 9398SOL    HW139656   2.980   2.270   5.765  0.5023 -0.5389  1.9163
 9398SOL    HW239657   3.107   2.227   5.823 -1.3199  1.1630  0.6548
 9399SOL     OW39658   2.295   0.239   1.886 -0.4120  0.3297 -0.4835
 9399SOL    HW139659   2.295   0.266   1.978 -1.2500 -0.1532 -0.3421
 9399SOL    HW239660   2.387   0.246   1.864  0.8252 -2.8250  3.6568
 9400SOL     OW39661   1.350   2.361   5.730  0.0838 -0.5601 -0.4761
 9400SOL    HW139662   1.285   2.425   5.701  0.8574  0.2467 -0.4382
 9400SOL    HW239663   1.400   2.336   5.653  2.1253  0.7638  0.4168
 9401SOL     OW39664   0.670   2.584   0.149 -0.8737  0.0031  0.3713
 9401SOL    HW139665   0.654   2.552   0.237  0.2826 -1.2406  0.1381
 9401SOL    HW239666   0.611   2.533   0.094  2.4293 -2.3100 -1.0608
 9402SOL     OW39667   3.044   2.816   8.430 -0.1967  0.2326  0.4175
 9402SOL    HW139668   2.982   2.795   8.500  0.8018 -0.0391  1.2101
 9402SOL    HW239669   3.089   2.894   8.464 -1.0854  1.7407 -1.8539
 9403SOL     OW39670   0.367   0.639  17.521 -0.3549 -0.1414 -0.0904
 9403SOL    HW139671   0.375   0.730  17.493 -0.9184 -0.7220 -2.1303
 9403SOL    HW239672   0.453   0.609  17.493 -1.0982 -2.7346  0.4484
 9404SOL     OW39673   3.840   1.138  12.286  0.3991  0.1507  0.2136
 9404SOL    HW139674   3.799   1.080  12.222 -0.4156  0.1913  0.6886
 9404SOL    HW239675   3.798   1.218  12.255 -2.3349 -1.6680 -0.8490
 9405SOL     OW39676   1.215   3.764   7.500 -0.0086  0.2707 -0.3675
 9405SOL    HW139677   1.120   3.764   7.514  0.5224  0.1350  3.1148
 9405SOL    HW239678   1.225   3.697   7.433 -0.5976  0.4092 -0.5983
 9406SOL     OW39679   1.774   4.210   3.951 -0.5012  0.0160  0.0891
 9406SOL    HW139680   1.850   4.152   3.948  0.0706  0.7923 -0.6905
 9406SOL    HW239681   1.808   4.274   4.014  1.0238 -0.7517  0.0337
 9407SOL     OW39682   3.058   1.614   7.931  0.3730  0.3350 -0.0399
 9407SOL    HW139683   3.150   1.589   7.940  0.6423  0.4368 -2.4932
 9407SOL    HW239684   3.061   1.706   7.908 -0.3411  0.8192  1.8008
 9408SOL     OW39685   0.023   3.327   0.442  0.2079 -0.1512 -0.1756
 9408SOL    HW139686   0.028   3.231   0.435  0.1449 -0.2830  1.6686
 9408SOL    HW239687   4.667   3.346   0.492 -0.3225  1.4198 -1.6423
 9409SOL     OW39688   1.692   2.570   6.302  0.3683  0.2007  0.3852
 9409SOL    HW139689   1.614   2.518   6.284  0.8594  0.8748 -3.7616
 9409SOL    HW239690   1.697   2.622   6.222 -2.1244  0.4009  0.3770
 9410SOL     OW39691   0.098   3.617   0.406 -0.2979 -0.7861 -0.3424
 9410SOL    HW139692   0.074   3.526   0.426  6.3818 -1.8514  2.5088
 9410SOL    HW239693   0.017   3.649   0.366 -0.1136  1.6993  1.3094
 9411SOL     OW39694   1.039   3.982   3.841 -0.1461 -0.5656  0.2744
 9411SOL    HW139695   1.000   3.900   3.813 -2.2177  1.2120 -2.0976
 9411SOL    HW239696   1.010   4.048   3.777  2.0803 -0.9378 -1.1298
 9412SOL     OW39697   3.824   3.935   1.806 -0.1840 -0.1299 -0.1428
 9412SOL    HW139698   3.827   4.028   1.782  0.3953  0.3670  1.8368
 9412SOL    HW239699   3.806   3.937   1.900 -0.2913 -1.1797 -0.1440
 9413SOL     OW39700   3.494   3.970   8.142 -0.3611  0.1035  0.2821
 9413SOL    HW139701   3.411   3.961   8.096 -0.9262 -1.8125  1.6779
 9413SOL    HW239702   3.478   3.913   8.217 -1.0402 -0.9889 -0.6783
 9414SOL     OW39703   0.137   3.386   9.766 -0.0179 -0.1627  0.6606
 9414SOL    HW139704   0.182   3.304   9.745 -3.2071 -2.1455  1.5589
 9414SOL    HW239705   0.212   3.439   9.792 -2.4367  2.4923  2.1233
 9415SOL     OW39706   0.520   2.207   5.170 -0.0793 -0.7220  0.0909
 9415SOL    HW139707   0.434   2.238   5.200 -0.6976 -0.9877 -1.4024
 9415SOL    HW239708   0.529   2.265   5.095 -0.6045 -0.0853  0.5211
 9416SOL     OW39709   0.560   3.842   8.284  0.1380  0.3417 -0.0962
 9416SOL    HW139710   0.515   3.895   8.350  1.4245  0.7216  0.4838
 9416SOL    HW239711   0.559   3.752   8.315  1.1070 -0.3047 -1.8968
 9417SOL     OW39712   2.732   4.643   8.309  0.3718 -0.6679 -0.2019
 9417SOL    HW139713   2.749   4.561   8.262 -0.6926 -1.2685  0.4564
 9417SOL    HW239714   2.802   4.699   8.276 -2.5550  2.0592 -1.7870
 9418SOL     OW39715   2.950   3.624   3.548 -0.5079 -0.1958 -0.1983
 9418SOL    HW139716   2.908   3.654   3.468  1.0351  0.4976 -0.7404
 9418SOL    HW239717   3.026   3.681   3.553  0.4903 -1.5348 -0.3189
 9419SOL     OW39718   0.490   3.564   6.358 -0.3095 -0.4004 -0.3127
 9419SOL    HW139719   0.397   3.587   6.368 -0.0766  0.3968  0.0667
 9419SOL    HW239720   0.531   3.643   6.395  0.1992 -0.3445 -1.0079
 9420SOL     OW39721   4.129   1.444   5.380 -0.1106  0.2155  0.1454
 9420SOL    HW139722   4.038   1.473   5.391 -0.4001 -0.9219  0.7696
 9420SOL    HW239723   4.175   1.527   5.376  0.9974 -0.4309 -0.4860
 9421SOL     OW39724   2.807   3.998   6.766  0.1521 -0.8458 -0.3546
 9421SOL    HW139725   2.788   4.056   6.692  1.3493 -0.3463 -0.2723
 9421SOL    HW239726   2.766   3.917   6.735 -2.4649 -0.1692  1.3344
 9422SOL     OW39727   3.479   0.998   3.667 -0.0972  0.2664 -0.0539
 9422SOL    HW139728   3.508   1.079   3.625  2.5547  0.8572  2.9464
 9422SOL    HW239729   3.384   1.002   3.663 -0.2231 -1.0269  1.8425
 9423SOL     OW39730   2.293   1.084  14.075  0.0171  0.1359 -0.3450
 9423SOL    HW139731   2.231   1.012  14.094 -0.8427  1.6334  2.5079
 9423SOL    HW239732   2.287   1.137  14.154  1.1519 -1.2833  0.7086
 9424SOL     OW39733   0.315   3.193   6.128  0.5852  0.2569 -0.4460
 9424SOL    HW139734   0.376   3.267   6.123  0.8081  0.1659  1.1698
 9424SOL    HW239735   0.375   3.119   6.133 -0.2423 -0.3207  0.8182
 9425SOL     OW39736   4.375   1.280   8.819  0.1362 -0.1654 -0.2405
 9425SOL    HW139737   4.465   1.311   8.806 -0.1164  1.2240  1.3590
 9425SOL    HW239738   4.355   1.283   8.726 -2.4735  1.3746  0.4010
 9426SOL     OW39739   1.914   2.189   6.431  0.1768  0.3413 -0.5709
 9426SOL    HW139740   1.916   2.268   6.377 -0.5222  0.6328 -0.1752
 9426SOL    HW239741   1.861   2.218   6.505  0.0293  0.8545 -0.8752
 9427SOL     OW39742   0.561   3.604   2.845  0.5723  0.0803 -0.6448
 9427SOL    HW139743   0.518   3.677   2.801 -3.6005 -1.7471  0.4017
 9427SOL    HW239744   0.650   3.635   2.829  1.2878 -0.6936  1.9067
 9428SOL     OW39745   3.210   4.512   6.257 -0.1615  0.0718  0.0969
 9428SOL    HW139746   3.242   4.480   6.173 -2.6070  0.3975 -0.9583
 9428SOL    HW239747   3.157   4.589   6.234 -1.9018 -1.2226 -0.2151
 9429SOL     OW39748   2.364   0.041  12.572  0.2602  0.1883 -0.1710
 9429SOL    HW139749   2.392   0.075  12.656 -0.9399 -0.1575  0.3771
 9429SOL    HW239750   2.438   0.075  12.523 -0.0735  1.5133  0.2492
 9430SOL     OW39751   2.688   2.813   4.297 -0.1306  0.4486 -0.1638
 9430SOL    HW139752   2.722   2.893   4.338  0.1314  0.5955 -0.6723
 9430SOL    HW239753   2.740   2.742   4.335 -1.2796 -0.5734 -0.5248
 9431SOL     OW39754   0.990   2.667  11.134  0.2142 -0.2399  0.3891
 9431SOL    HW139755   1.030   2.680  11.049  0.9799 -0.0782  0.7718
 9431SOL    HW239756   0.934   2.592  11.116 -0.9443  0.7326 -0.0288
 9432SOL     OW39757   1.536   3.476   9.210 -0.2804  0.3329 -0.1736
 9432SOL    HW139758   1.449   3.441   9.232  0.1112  0.9201  2.2787
 9432SOL    HW239759   1.565   3.521   9.289 -1.0488 -1.4299  1.1163
 9433SOL     OW39760   0.659   4.167   9.411  0.1438 -0.2874 -0.2266
 9433SOL    HW139761   0.608   4.241   9.380  0.9306 -0.0480 -0.9412
 9433SOL    HW239762   0.603   4.092   9.391 -1.2475  0.1745  1.9298
 9434SOL     OW39763   0.666   1.753  14.979 -0.0976 -0.4002 -0.4156
 9434SOL    HW139764   0.663   1.720  14.889 -2.0170 -3.7665  0.8569
 9434SOL    HW239765   0.757   1.763  15.007 -0.2068 -0.7136  0.0577
 9435SOL     OW39766   4.217   1.392   7.049 -0.4193 -0.4866 -0.3093
 9435SOL    HW139767   4.143   1.336   7.073 -2.0668  1.4984 -0.7718
 9435SOL    HW239768   4.237   1.415   7.140  0.0056 -4.2011  0.5411
 9436SOL     OW39769   2.413   2.685  11.322  0.1918 -0.1838 -0.2947
 9436SOL    HW139770   2.403   2.623  11.395 -1.4101  1.6827  1.0613
 9436SOL    HW239771   2.495   2.658  11.281 -0.3228  0.9070 -2.0252
 9437SOL     OW39772   2.518   3.421  14.057  0.7402 -0.1627 -0.3381
 9437SOL    HW139773   2.455   3.385  14.119  2.3268 -1.0353  0.7412
 9437SOL    HW239774   2.592   3.448  14.112  0.6775  0.1879 -0.4241
 9438SOL     OW39775   1.188   0.428   7.982  0.0251  0.1094 -0.4585
 9438SOL    HW139776   1.181   0.388   7.895 -0.0874  1.4704 -1.0656
 9438SOL    HW239777   1.221   0.515   7.962 -1.9809  1.1612  0.8825
 9439SOL     OW39778   4.046   3.709   6.016  0.1171 -0.9192  0.4992
 9439SOL    HW139779   4.079   3.625   6.047 -1.7650 -0.9277  2.4991
 9439SOL    HW239780   4.090   3.770   6.076 -2.2202 -0.3409  1.6114
 9440SOL     OW39781   3.925   1.824   2.154  0.0666 -0.2480 -0.4845
 9440SOL    HW139782   3.877   1.787   2.229 -1.2167 -1.5602 -1.9576
 9440SOL    HW239783   3.990   1.885   2.189  1.0012 -2.2785  1.3360
 9441SOL     OW39784   0.007   1.753  17.128  0.3010  0.4853  0.3996
 9441SOL    HW139785   4.702   1.832  17.082  3.0602  0.9448 -0.6019
 9441SOL    HW239786   4.673   1.757  17.204 -0.6948 -0.8619 -0.2926
 9442SOL     OW39787   4.348   0.199   7.240  0.1885  0.0320  0.1984
 9442SOL    HW139788   4.392   0.221   7.158  0.6373  0.0373  0.4444
 9442SOL    HW239789   4.400   0.250   7.302  2.8643 -2.4274 -0.0519
 9443SOL     OW39790   0.391   1.371   3.738  0.7556  0.2119  0.3480
 9443SOL    HW139791   0.436   1.378   3.822 -0.7363 -0.4303  1.1995
 9443SOL    HW239792   0.334   1.294   3.742 -0.3902  1.0444 -0.0274
 9444SOL     OW39793   0.513   3.710  15.851  0.3834 -0.0235  0.4158
 9444SOL    HW139794   0.606   3.687  15.857  1.0361  2.3747 -0.6778
 9444SOL    HW239795   0.497   3.768  15.926  0.4310  0.9578 -0.3375
 9445SOL     OW39796   0.378   3.423   3.864 -0.0502  0.4856  0.4806
 9445SOL    HW139797   0.396   3.507   3.824 -0.8504  0.1458 -0.5898
 9445SOL    HW239798   0.394   3.446   3.956  3.4415  2.1758 -0.5728
 9446SOL     OW39799   2.228   3.018   5.768 -0.1813  0.1937  0.1775
 9446SOL    HW139800   2.135   3.038   5.781 -0.3884 -1.0100  0.5883
 9446SOL    HW239801   2.274   3.003   5.851  1.1966  1.8997 -0.2562
 9447SOL     OW39802   2.810   2.800   7.545  0.3211 -0.3410  0.4108
 9447SOL    HW139803   2.831   2.891   7.525  3.9953 -0.4880  3.6849
 9447SOL    HW239804   2.715   2.804   7.535  0.5795 -0.4170 -1.9720
 9448SOL     OW39805   1.727   2.787   7.158 -0.6630  0.1555 -0.1647
 9448SOL    HW139806   1.712   2.705   7.111 -1.5379  0.7594 -0.9239
 9448SOL    HW239807   1.807   2.778   7.209  0.3193  0.4176 -1.6583
 9449SOL     OW39808   1.966   3.217  14.419  0.3891 -0.0971  0.1763
 9449SOL    HW139809   1.917   3.187  14.495  2.7156 -0.4010  1.5569
 9449SOL    HW239810   1.894   3.223  14.356 -0.3149 -0.7604  0.9190
 9450SOL     OW39811   2.977   1.036   0.643 -0.6914 -0.5710  0.0949
 9450SOL    HW139812   3.031   1.115   0.644  3.4279 -3.4247  0.4496
 9450SOL    HW239813   2.893   1.067   0.607  0.2785  0.2321 -1.4739
 9451SOL     OW39814   3.240   4.363   0.309 -0.3283  0.3821 -0.2677
 9451SOL    HW139815   3.173   4.373   0.241  0.2738  0.1669 -0.8886
 9451SOL    HW239816   3.303   4.427   0.275  0.6281 -0.0235  0.7526
 9452SOL     OW39817   4.161   0.639   2.305 -0.3734  0.4545 -0.0235
 9452SOL    HW139818   4.205   0.628   2.390 -0.8011 -2.5940 -0.1763
 9452SOL    HW239819   4.208   0.576   2.249  0.9763  1.2498  0.2102
 9453SOL     OW39820   1.420   0.797  15.476 -0.1423  0.5141 -0.3054
 9453SOL    HW139821   1.431   0.706  15.451  0.1097  0.9694 -1.8287
 9453SOL    HW239822   1.385   0.790  15.565  1.3042  2.8186  0.4520
 9454SOL     OW39823   1.747   4.307   4.889 -0.1375 -0.4325 -0.1001
 9454SOL    HW139824   1.670   4.326   4.835 -0.5194 -2.2121 -0.1774
 9454SOL    HW239825   1.796   4.389   4.890 -1.0847  0.1207  3.6162
 9455SOL     OW39826   3.524   3.833   0.983  0.2755  0.4472  0.6438
 9455SOL    HW139827   3.578   3.785   0.920 -0.2185  0.6567  0.0608
 9455SOL    HW239828   3.440   3.858   0.944 -0.5705  0.1174  2.2441
 9456SOL     OW39829   0.102   2.283   4.263 -0.4877  0.1393 -0.2323
 9456SOL    HW139830   0.170   2.270   4.329  1.0476 -2.6418 -2.3711
 9456SOL    HW239831   0.155   2.320   4.192 -0.0858 -0.6682 -0.3499
 9457SOL     OW39832   1.070   2.377   5.150 -0.1534  0.1172  0.2286
 9457SOL    HW139833   1.067   2.344   5.060  2.1659  3.3129 -0.9941
 9457SOL    HW239834   0.977   2.363   5.166 -0.0400  0.6245  1.2873
 9458SOL     OW39835   3.220   0.332  11.542 -0.2681 -0.0366  0.5082
 9458SOL    HW139836   3.244   0.425  11.548  1.5342 -0.4752  0.0606
 9458SOL    HW239837   3.134   0.336  11.500  0.6081 -1.1628 -1.3482
 9459SOL     OW39838   0.933   2.423  14.137 -0.8389 -0.1016 -0.8630
 9459SOL    HW139839   0.938   2.387  14.226  2.5665  1.0619 -0.5483
 9459SOL    HW239840   0.941   2.347  14.080 -1.0726 -0.7166 -0.0828
 9460SOL     OW39841   1.808   4.302   5.148  0.0906 -0.3115  0.1525
 9460SOL    HW139842   1.742   4.325   5.214 -2.0906 -1.9731 -1.4413
 9460SOL    HW239843   1.746   4.305   5.075  0.5266 -0.9211 -0.2362
 9461SOL     OW39844   3.316   3.448   1.052  0.4040  0.0502  0.0001
 9461SOL    HW139845   3.234   3.404   1.074  1.0039  0.4479  3.1122
 9461SOL    HW239846   3.374   3.375   1.076 -0.1422 -0.5162 -0.4044
 9462SOL     OW39847   3.887   0.512   2.704 -0.1611  0.2517 -0.6908
 9462SOL    HW139848   3.921   0.423   2.693 -0.7052 -0.0607  0.1498
 9462SOL    HW239849   3.865   0.543   2.616 -0.5110 -0.7768 -0.9647
 9463SOL     OW39850   1.278   1.953   4.888  0.7053  0.2301  0.2726
 9463SOL    HW139851   1.353   1.974   4.833 -0.0293  3.0683  0.3106
 9463SOL    HW239852   1.300   2.016   4.957 -1.1392  1.7545 -0.5255
 9464SOL     OW39853   0.757   4.152   3.965  0.0686 -0.5439 -0.6537
 9464SOL    HW139854   0.846   4.120   3.947  1.1545  1.3719  1.2849
 9464SOL    HW239855   0.782   4.241   3.988  0.0190 -0.2227 -1.8878
 9465SOL     OW39856   1.382   4.601   2.636 -0.4018 -0.2278  0.5557
 9465SOL    HW139857   1.439   4.525   2.640  2.5770  2.0083  1.1884
 9465SOL    HW239858   1.303   4.574   2.589 -0.3630 -1.7543  1.3814
 9466SOL     OW39859   3.142   0.291   7.190 -0.1234 -0.6563 -0.6112
 9466SOL    HW139860   3.129   0.376   7.150  1.7801 -0.2130 -0.3011
 9466SOL    HW239861   3.235   0.278   7.171 -0.0592  2.2017 -2.1382
 9467SOL     OW39862   1.307   0.345   2.556  0.5834 -0.0166  0.2371
 9467SOL    HW139863   1.356   0.287   2.498  0.4542 -0.1719  0.2839
 9467SOL    HW239864   1.218   0.323   2.530  1.2895  0.8273 -2.8422
 9468SOL     OW39865   1.321   2.818   2.215  0.8356 -0.1626  0.3072
 9468SOL    HW139866   1.335   2.902   2.172  1.9011  0.2905  1.5284
 9468SOL    HW239867   1.385   2.765   2.167 -0.3449 -1.0923 -0.2258
 9469SOL     OW39868   1.360   0.164   4.271 -0.0357 -0.3137 -0.1084
 9469SOL    HW139869   1.365   0.226   4.199 -0.2689  0.0412  0.1809
 9469SOL    HW239870   1.268   0.137   4.259 -0.4809  1.5806 -0.8611
 9470SOL     OW39871   4.294   3.383  17.411  0.7410  0.2279  0.2666
 9470SOL    HW139872   4.353   3.359  17.339 -0.3675 -1.7148 -0.0226
 9470SOL    HW239873   4.336   3.332  17.481  1.4297 -1.1251 -1.1261
 9471SOL     OW39874   0.138   3.384   7.685 -0.0756  0.6843  0.1269
 9471SOL    HW139875   0.043   3.376   7.682 -0.0408  0.0943  0.5961
 9471SOL    HW239876   0.179   3.298   7.686  0.0814  0.7331 -2.0377
 9472SOL     OW39877   4.615   1.526  13.508 -0.0296 -0.0120  0.1711
 9472SOL    HW139878   4.640   1.440  13.475  1.7468  1.1364 -1.4399
 9472SOL    HW239879   4.641   1.585  13.437  0.7607  0.9437  1.2461
 9473SOL     OW39880   0.812   0.976   4.522 -0.0635  0.0346  0.1005
 9473SOL    HW139881   0.809   1.058   4.571 -0.0319 -0.1529  0.4168
 9473SOL    HW239882   0.717   0.961   4.524 -0.1240  0.4902  0.9047
 9474SOL     OW39883   0.881   0.105   4.110 -0.1452 -0.3366 -0.6142
 9474SOL    HW139884   0.804   0.112   4.167  0.6634  0.0840  0.4268
 9474SOL    HW239885   0.870   0.184   4.057 -0.2492  2.2887  3.3794
 9475SOL     OW39886   0.521   0.691  12.115 -0.2625 -0.2760  0.1277
 9475SOL    HW139887   0.519   0.787  12.114 -0.3670 -0.3169 -1.7244
 9475SOL    HW239888   0.430   0.669  12.098 -1.4678  4.2262  0.7248
 9476SOL     OW39889   1.218   1.078   6.500  0.3950 -0.3271 -0.0629
 9476SOL    HW139890   1.152   1.015   6.527 -2.4121  1.9140 -1.6134
 9476SOL    HW239891   1.155   1.140   6.463 -1.9992 -1.8373  1.5148
 9477SOL     OW39892   2.511   1.792   8.841  0.1561  0.1231  0.2946
 9477SOL    HW139893   2.539   1.884   8.839 -0.6121  0.3537  0.1431
 9477SOL    HW239894   2.592   1.744   8.826  1.3734  2.1415  0.4272
 9478SOL     OW39895   2.877   2.107   5.453  0.4319  0.2336 -0.2037
 9478SOL    HW139896   2.910   2.032   5.502  2.0991  0.4267 -1.0167
 9478SOL    HW239897   2.902   2.083   5.364  0.4421  1.3405 -0.4980
 9479SOL     OW39898   4.115   4.067   5.019  0.2953  1.0185  0.1017
 9479SOL    HW139899   4.191   4.043   4.966 -1.4825 -0.7276 -1.6446
 9479SOL    HW239900   4.086   3.985   5.058  0.9498 -0.7511 -3.1188
 9480SOL     OW39901   2.234   2.430   1.258 -0.1110  0.3502  0.4769
 9480SOL    HW139902   2.235   2.522   1.233  2.0491 -0.1031 -1.2060
 9480SOL    HW239903   2.150   2.433   1.303  0.2106 -0.6150  1.1326
 9481SOL     OW39904   4.084   2.309   2.734 -0.0564  0.0688 -0.5542
 9481SOL    HW139905   4.091   2.387   2.678  0.9482 -0.1185 -0.6725
 9481SOL    HW239906   4.088   2.240   2.668  0.8728 -1.0817  0.6974
 9482SOL     OW39907   0.227   2.021   8.652  0.8827 -0.5274 -0.2260
 9482SOL    HW139908   0.172   1.947   8.679 -0.0767 -0.1344 -1.1174
 9482SOL    HW239909   0.277   1.970   8.588  0.6511 -2.4242  1.0945
 9483SOL     OW39910   3.353   4.271  11.993 -0.2342  0.4576 -0.4607
 9483SOL    HW139911   3.389   4.289  11.906 -1.2900 -0.3201 -1.0683
 9483SOL    HW239912   3.424   4.303  12.048  1.7317  0.4059 -2.9275
 9484SOL     OW39913   1.448   3.649   3.085  0.3287 -0.0222 -0.2900
 9484SOL    HW139914   1.420   3.700   3.009  1.1759 -1.9496 -1.9082
 9484SOL    HW239915   1.365   3.626   3.125  1.0617 -1.7100  0.2533
 9485SOL     OW39916   1.495   2.590   1.172  0.3411  0.4027  0.2566
 9485SOL    HW139917   1.443   2.563   1.096  1.1212  2.8774 -1.1593
 9485SOL    HW239918   1.572   2.632   1.135  0.3157 -0.1259 -0.3957
 9486SOL     OW39919   0.910   4.069   8.271 -0.2950  0.7264  0.2663
 9486SOL    HW139920   0.969   4.072   8.196 -0.0769 -2.8297  0.2827
 9486SOL    HW239921   0.855   3.999   8.236  0.0314  0.6144 -0.0227
 9487SOL     OW39922   4.185   0.630   0.607  0.3458  0.2848 -0.4656
 9487SOL    HW139923   4.162   0.723   0.616  1.5935  0.4422  1.0546
 9487SOL    HW239924   4.252   0.627   0.676 -0.8792  5.0323  0.9606
 9488SOL     OW39925   0.793   1.629   5.810 -0.5472 -0.2918 -0.0635
 9488SOL    HW139926   0.864   1.649   5.749  1.6608 -1.1293  2.2445
 9488SOL    HW239927   0.725   1.604   5.747  2.5161  0.0188 -3.4524
 9489SOL     OW39928   2.392   3.015   2.911  0.0257  0.3128  0.5601
 9489SOL    HW139929   2.377   3.084   2.975 -1.7797 -0.3055  0.7974
 9489SOL    HW239930   2.329   3.039   2.844  0.4503 -0.6530 -0.1847
 9490SOL     OW39931   0.006   4.302   1.925  0.4386 -1.2312 -0.4488
 9490SOL    HW139932   0.002   4.226   1.984 -1.0646 -0.3520  0.5685
 9490SOL    HW239933   4.663   4.363   1.954  1.6210 -0.8069  1.4448
 9491SOL     OW39934   2.907   2.274  16.964  0.9439 -0.1073 -0.1240
 9491SOL    HW139935   2.964   2.259  16.889 -0.2318 -3.2048 -0.4198
 9491SOL    HW239936   2.899   2.185  16.998  1.4568  0.1357  0.6144
 9492SOL     OW39937   2.900   2.572  16.118 -0.1740  0.1821 -0.2548
 9492SOL    HW139938   2.955   2.516  16.063  0.6416  0.9540 -0.2184
 9492SOL    HW239939   2.905   2.526  16.202  2.7092  0.1254 -0.4404
 9493SOL     OW39940   1.892   1.068   9.082 -0.4029 -0.4356  0.1525
 9493SOL    HW139941   1.982   1.036   9.072  1.1603  3.7729  0.8564
 9493SOL    HW239942   1.878   1.117   9.001  0.4792 -1.6914 -0.7689
 9494SOL     OW39943   4.530   1.934   4.658  0.4118 -0.5466  0.1839
 9494SOL    HW139944   4.521   1.948   4.752 -0.9081  1.4361 -0.2289
 9494SOL    HW239945   4.436   1.939   4.641  0.5785 -0.5014 -0.7318
 9495SOL     OW39946   3.299   3.319   3.047  0.1081  0.0514  0.7134
 9495SOL    HW139947   3.324   3.231   3.022  0.9322  0.0264  1.6101
 9495SOL    HW239948   3.208   3.313   3.017  0.6474 -1.7578 -0.5707
 9496SOL     OW39949   0.334   2.695  12.228 -0.3843  0.2445  0.3855
 9496SOL    HW139950   0.310   2.771  12.280  1.1844  0.0706  1.3569
 9496SOL    HW239951   0.421   2.719  12.197 -0.3873  1.0556  0.9910
 9497SOL     OW39952   0.426   4.383   2.923  0.6132 -0.2061  0.4540
 9497SOL    HW139953   0.361   4.314   2.940  0.1548  0.0974 -0.0894
 9497SOL    HW239954   0.388   4.455   2.972 -0.1051  0.4403 -1.0537
 9498SOL     OW39955   1.727   3.525  16.472  0.2667 -0.5298  0.7597
 9498SOL    HW139956   1.655   3.487  16.523 -0.1730  0.5299  0.9114
 9498SOL    HW239957   1.780   3.543  16.550  0.9232  0.9212 -0.0253
 9499SOL     OW39958   3.502   2.019  17.660  0.0089 -0.0715  0.6416
 9499SOL    HW139959   3.424   1.994   0.011  0.3919 -1.1289  0.7226
 9499SOL    HW239960   3.522   1.942  17.605  0.3935  1.8058 -1.8486
 9500SOL     OW39961   1.533   3.676  12.684 -0.4173 -0.7597 -0.0508
 9500SOL    HW139962   1.510   3.693  12.593  3.1436  2.1349 -0.4266
 9500SOL    HW239963   1.465   3.725  12.730  1.1763 -0.4884  2.0419
 9501SOL     OW39964   0.505   4.376  10.488  0.2109 -0.5121  0.1592
 9501SOL    HW139965   0.562   4.423  10.428 -2.0557  2.4045  0.3254
 9501SOL    HW239966   0.574   4.331  10.537  0.3738 -0.8294 -0.3514
 9502SOL     OW39967   0.035   1.156  16.480  0.0275  0.1356 -0.0814
 9502SOL    HW139968   4.682   1.140  16.534  0.6638 -0.6926  0.5992
 9502SOL    HW239969   0.086   1.087  16.523 -0.0860 -1.3440 -2.3106
 9503SOL     OW39970   2.693   4.101   1.138 -0.2612 -0.3193 -0.3669
 9503SOL    HW139971   2.756   4.030   1.123  0.8122 -0.0244  2.6032
 9503SOL    HW239972   2.614   4.054   1.161 -0.4068 -0.0130 -0.2412
 9504SOL     OW39973   3.421   0.159  11.810 -0.5304  0.2401  0.1336
 9504SOL    HW139974   3.329   0.146  11.790 -0.4316 -1.1000  0.5585
 9504SOL    HW239975   3.442   0.083  11.864 -1.3467  0.0937  0.2400
 9505SOL     OW39976   1.089   0.477  15.830 -0.1511 -0.1811 -0.0396
 9505SOL    HW139977   1.154   0.474  15.760  0.2912  0.1936  0.3468
 9505SOL    HW239978   1.157   0.450  15.892  0.6303 -0.8978 -1.2195
 9506SOL     OW39979   0.617   3.578   4.025 -0.4337 -0.1545  0.0281
 9506SOL    HW139980   0.677   3.606   4.094  1.5245  0.2870 -1.8619
 9506SOL    HW239981   0.669   3.547   3.951  0.5197 -0.5459  0.8591
 9507SOL     OW39982   1.139   3.452   8.306  0.0801 -0.0053 -0.1891
 9507SOL    HW139983   1.227   3.488   8.296 -0.0056  0.2910  0.1328
 9507SOL    HW239984   1.136   3.380   8.243 -2.1979  0.4687 -0.6353
 9508SOL     OW39985   4.033   2.059   4.004  0.5185  0.1216 -0.2020
 9508SOL    HW139986   4.112   2.081   3.955  0.4383  0.7754 -0.0392
 9508SOL    HW239987   4.057   2.105   4.085 -2.2341 -1.9705  1.7924
 9509SOL     OW39988   1.422   0.008   5.461  1.0223 -0.5491 -0.2897
 9509SOL    HW139989   1.367   0.065   5.407  1.9294  1.2585  0.7013
 9509SOL    HW239990   1.418   0.059   5.541  2.4684  1.8670 -1.7594
 9510SOL     OW39991   2.357   0.585   7.449 -0.7890  0.4116  0.7886
 9510SOL    HW139992   2.316   0.511   7.495  1.6833 -0.7034  1.1905
 9510SOL    HW239993   2.395   0.624   7.527 -2.7340  3.0901  0.4158
 9511SOL     OW39994   1.499   3.907   8.778 -0.2199 -0.0743  0.1647
 9511SOL    HW139995   1.504   4.002   8.773 -3.5509  0.0871 -0.1448
 9511SOL    HW239996   1.507   3.893   8.873  1.4816 -1.2582 -0.1413
 9512SOL     OW39997   0.261   2.084   7.483 -0.1084 -0.3075 -0.6352
 9512SOL    HW139998   0.289   2.030   7.557 -2.9017  0.1397  0.7653
 9512SOL    HW239999   0.166   2.073   7.488  0.0810 -0.8779  1.6721
 9513SOL     OW40000   1.669   0.239   8.812 -0.5371 -0.5304  0.2658
 9513SOL    HW140001   1.626   0.253   8.897 -2.0728 -0.8769 -0.4443
 9513SOL    HW240002   1.647   0.146   8.806  1.2718 -1.1739  3.6861
 9514SOL     OW40003   1.200   0.751   9.179  0.0752 -0.1953  0.3030
 9514SOL    HW140004   1.238   0.822   9.126  1.0490 -0.9136  0.0226
 9514SOL    HW240005   1.199   0.686   9.108 -0.9667  2.9969 -2.6156
 9515SOL     OW40006   3.737   0.815   4.630 -0.5288  0.8080  0.7286
 9515SOL    HW140007   3.681   0.849   4.700  0.9416  1.1718  1.7123
 9515SOL    HW240008   3.704   0.726   4.622  2.0412 -0.1808  1.3070
 9516SOL     OW40009   0.822   3.411   0.879 -0.2482 -0.3056 -0.2623
 9516SOL    HW140010   0.752   3.408   0.945 -0.1037 -2.2891 -0.2167
 9516SOL    HW240011   0.864   3.325   0.881 -0.8173 -0.5480  1.7694
 9517SOL     OW40012   4.595   0.456   3.895  0.1623  0.5140  0.3620
 9517SOL    HW140013   4.613   0.446   3.988 -1.4405  2.5551  0.9014
 9517SOL    HW240014   4.500   0.461   3.900  0.0788 -0.6061 -0.1231
 9518SOL     OW40015   0.494   1.700  10.454 -0.8023 -0.3401  0.2126
 9518SOL    HW140016   0.405   1.670  10.469 -2.1150  2.6723 -1.7065
 9518SOL    HW240017   0.543   1.652  10.521  2.3224  1.4780 -0.7888
 9519SOL     OW40018   1.405   4.646   7.311 -0.3856 -0.3452 -0.2547
 9519SOL    HW140019   1.471   4.624   7.245 -1.7063 -0.8008 -1.4170
 9519SOL    HW240020   1.404   4.576   7.377 -0.8559 -1.4143 -1.3836
 9520SOL     OW40021   0.119   3.666   2.654 -1.1122 -0.0140  0.0182
 9520SOL    HW140022   0.048   3.715   2.612 -0.2845  1.4289  0.3068
 9520SOL    HW240023   0.067   3.586   2.662 -2.2638  0.6593 -0.7224
 9521SOL     OW40024   1.850   1.201   3.949 -0.4662 -0.3100  0.2072
 9521SOL    HW140025   1.756   1.218   3.942 -0.6520 -0.3074  2.6247
 9521SOL    HW240026   1.875   1.206   3.857  2.1475  2.3737  1.0911
 9522SOL     OW40027   2.359   2.066   6.731  0.1892 -0.2061 -0.9861
 9522SOL    HW140028   2.382   2.130   6.664 -0.5666  0.8234 -0.2577
 9522SOL    HW240029   2.413   2.110   6.796  0.2468 -1.5338 -0.1439
 9523SOL     OW40030   4.368   3.043   2.881 -0.1599 -0.5786  0.3618
 9523SOL    HW140031   4.308   2.973   2.855  1.9124 -2.7096  1.3053
 9523SOL    HW240032   4.313   3.107   2.925  0.7643 -0.2285  1.0101
 9524SOL     OW40033   2.496   4.301   5.516  0.3431  0.3137  0.4501
 9524SOL    HW140034   2.436   4.273   5.447  0.4694  0.6097  0.2221
 9524SOL    HW240035   2.571   4.334   5.466 -0.1844 -2.0392 -1.8577
 9525SOL     OW40036   2.925   0.779  13.257  0.1303  0.7435 -0.1367
 9525SOL    HW140037   2.983   0.727  13.312  1.6637 -0.4545 -2.9107
 9525SOL    HW240038   2.953   0.868  13.278  0.5778  0.9637 -1.6607
 9526SOL     OW40039   2.444   3.890   6.142  0.4919  0.1320  0.3942
 9526SOL    HW140040   2.497   3.955   6.096  1.6522 -1.6812 -0.8649
 9526SOL    HW240041   2.521   3.862   6.192 -0.9381  0.5780  2.8539
 9527SOL     OW40042   1.788   0.673   3.368  0.2691 -0.1168 -0.4741
 9527SOL    HW140043   1.779   0.762   3.334 -0.2227 -0.0261 -0.1070
 9527SOL    HW240044   1.862   0.683   3.427 -1.3522  0.3215  1.4600
 9528SOL     OW40045   4.074   1.979  14.002 -0.0184  0.3090 -0.6614
 9528SOL    HW140046   4.085   1.941  14.089  1.2235  2.5650  0.1646
 9528SOL    HW240047   4.052   2.070  14.024 -2.5576 -0.8187  1.3937
 9529SOL     OW40048   2.788   3.325   6.153 -0.4640 -0.6256 -0.0622
 9529SOL    HW140049   2.780   3.396   6.090 -0.5442 -0.4908  0.0993
 9529SOL    HW240050   2.866   3.278   6.121 -0.1127 -0.4779  0.5820
 9530SOL     OW40051   4.353   1.757  12.858  0.0882 -0.0099 -0.0188
 9530SOL    HW140052   4.445   1.744  12.836  0.3479  0.4087  0.7827
 9530SOL    HW240053   4.320   1.679  12.903 -2.3782 -0.3902 -2.5543
 9531SOL     OW40054   0.318   1.778  17.012 -0.0403 -0.1222  0.1508
 9531SOL    HW140055   0.226   1.763  17.037  0.0637  0.7596  1.0570
 9531SOL    HW240056   0.335   1.838  17.084  1.3295 -0.7339  0.3253
 9532SOL     OW40057   4.636   4.536   3.833  0.4651  0.1714  0.0131
 9532SOL    HW140058   4.710   4.527   3.773 -0.7971 -2.4056 -1.1744
 9532SOL    HW240059   4.683   4.554   3.915 -1.1446  1.8435  0.5753
 9533SOL     OW40060   4.043   2.281   3.579  0.0940 -0.1490 -0.7470
 9533SOL    HW140061   4.113   2.343   3.596  0.2785 -0.6209  0.2260
 9533SOL    HW240062   4.023   2.325   3.497  0.3281 -0.9014 -1.1997
 9534SOL     OW40063   4.715   2.846   8.409 -0.0237 -0.1872 -0.3301
 9534SOL    HW140064   4.680   2.911   8.348 -0.6677 -1.4235 -1.2934
 9534SOL    HW240065   0.070   2.821   8.361 -1.3440 -0.4271 -2.3509
 9535SOL     OW40066   4.225   3.437   3.790 -0.6879  0.4348 -0.5915
 9535SOL    HW140067   4.222   3.347   3.824 -2.8253 -0.8700 -4.1302
 9535SOL    HW240068   4.213   3.482   3.873 -2.2848 -1.4485  0.2070
 9536SOL     OW40069   0.485   0.652   3.183  0.2610  0.5373  0.0805
 9536SOL    HW140070   0.448   0.615   3.103  1.5184 -1.7682  0.5832
 9536SOL    HW240071   0.568   0.607   3.201 -0.8526 -1.5580 -0.0250
 9537SOL     OW40072   4.079   2.316   9.512  0.6951 -0.1967  0.7884
 9537SOL    HW140073   4.085   2.410   9.494  1.1952 -0.7661 -2.0444
 9537SOL    HW240074   4.108   2.272   9.432  2.6415  0.4680  1.1368
 9538SOL     OW40075   1.521   0.745   0.818  0.3773 -0.2656 -0.1864
 9538SOL    HW140076   1.558   0.709   0.738 -0.4411 -1.7141  0.0841
 9538SOL    HW240077   1.558   0.833   0.813  0.7940 -0.5224 -1.6593
 9539SOL     OW40078   1.775   0.037   8.217 -0.0270  0.3293 -0.0049
 9539SOL    HW140079   1.742   0.032   8.307  1.2366  1.4039  0.5232
 9539SOL    HW240080   1.791   0.131   8.211 -0.1228  0.4394  1.3305
 9540SOL     OW40081   0.814   2.067   4.933  0.4260  0.3888 -0.0415
 9540SOL    HW140082   0.816   2.161   4.949  0.0262  0.3571  0.1978
 9540SOL    HW240083   0.897   2.039   4.971 -0.6377 -2.4286  0.2649
 9541SOL     OW40084   0.766   4.337  13.531 -0.0079 -0.3552 -0.0103
 9541SOL    HW140085   0.776   4.287  13.450 -1.7102 -1.0672  0.2075
 9541SOL    HW240086   0.681   4.376  13.510  1.9718  3.1679 -1.5499
 9542SOL     OW40087   1.701   2.060  11.279 -0.5540 -0.1184 -0.1397
 9542SOL    HW140088   1.730   1.995  11.343  0.1811 -0.6959 -1.0713
 9542SOL    HW240089   1.610   2.041  11.257 -0.3507 -0.5458 -0.5925
 9543SOL     OW40090   2.723   4.077   7.990 -0.7242  0.0061  0.0266
 9543SOL    HW140091   2.672   4.045   8.065  1.8674 -0.7814  1.4510
 9543SOL    HW240092   2.783   4.139   8.030  0.2988 -0.8588 -0.1649
 9544SOL     OW40093   2.027   1.499  15.319  0.1754  0.2288 -0.4048
 9544SOL    HW140094   2.092   1.430  15.332  1.9580  2.2344  1.2613
 9544SOL    HW240095   2.082   1.572  15.290 -3.1895  3.2241  0.7275
 9545SOL     OW40096   3.535   3.596   6.138 -0.0109 -0.4222 -0.3629
 9545SOL    HW140097   3.523   3.524   6.076 -1.1777  0.2800 -0.9507
 9545SOL    HW240098   3.581   3.654   6.077 -1.1035  1.5009  0.6346
 9546SOL     OW40099   1.247   1.392   2.908 -0.3681 -0.5935  0.0884
 9546SOL    HW140100   1.265   1.321   2.847  1.7078 -1.4104  1.6739
 9546SOL    HW240101   1.334   1.422   2.932 -0.2318  0.0783 -1.2189
 9547SOL     OW40102   2.715   0.710   8.600  0.2600  0.1351  0.6395
 9547SOL    HW140103   2.740   0.740   8.513 -2.1689 -1.0568 -0.4547
 9547SOL    HW240104   2.626   0.745   8.608 -0.7499 -2.4773  0.7460
 9548SOL     OW40105   1.727   2.253   3.194 -0.2151  0.3562 -0.6861
 9548SOL    HW140106   1.748   2.334   3.149  1.0681 -1.1893 -2.8524
 9548SOL    HW240107   1.797   2.241   3.258 -1.3896  3.0510  1.0931
 9549SOL     OW40108   3.926   3.761  14.109 -0.3858  0.2744  0.7071
 9549SOL    HW140109   3.853   3.754  14.047 -1.1403  2.3745  1.3360
 9549SOL    HW240110   3.937   3.679  14.156  1.0162  0.5044  0.7619
 9550SOL     OW40111   4.275   0.012   9.326  0.3120 -0.3133  0.1957
 9550SOL    HW140112   4.273   4.694   9.412 -0.3601  1.5325  1.0811
 9550SOL    HW240113   4.313   0.096   9.352  0.9458 -1.1360  1.8987
 9551SOL     OW40114   4.080   0.980   7.914  0.1081 -0.3642 -0.7968
 9551SOL    HW140115   4.147   0.946   7.855  1.8960 -1.5182  1.8790
 9551SOL    HW240116   4.032   1.047   7.865 -0.0894  1.6538  2.1700
 9552SOL     OW40117   1.359   1.082   7.737  0.2154 -0.1827  0.0967
 9552SOL    HW140118   1.394   1.162   7.774 -1.0425 -0.3541  1.6362
 9552SOL    HW240119   1.314   1.113   7.658 -0.3775 -0.0500  0.4908
 9553SOL     OW40120   0.996   2.397  10.583 -0.0282 -0.3980 -0.1786
 9553SOL    HW140121   0.978   2.342  10.506 -0.7239 -0.2614 -0.1133
 9553SOL    HW240122   0.975   2.345  10.660 -1.2968  2.0664  1.1353
 9554SOL     OW40123   3.012   1.894  12.905  0.1400 -0.0746  0.3175
 9554SOL    HW140124   3.095   1.901  12.858 -0.1159  0.4994 -0.0496
 9554SOL    HW240125   2.994   1.800  12.911  0.0329 -0.1469 -1.0602
 9555SOL     OW40126   1.776   0.170  10.140  0.6148 -0.5017  0.1648
 9555SOL    HW140127   1.761   0.217  10.222  1.4851  0.4644 -0.2327
 9555SOL    HW240128   1.710   0.102  10.151  0.8065 -0.7173 -0.0169
 9556SOL     OW40129   0.072   4.047   5.731  0.0936  0.1778  0.3491
 9556SOL    HW140130   0.131   3.988   5.684  2.2392  2.4096  0.2527
 9556SOL    HW240131   0.066   4.117   5.666  1.6105 -0.9992 -1.0360
 9557SOL     OW40132   1.475   4.311   1.247  0.6542  0.4044 -0.2660
 9557SOL    HW140133   1.492   4.283   1.337 -0.0107  0.5298 -0.1025
 9557SOL    HW240134   1.430   4.394   1.261  0.4803  0.1845  0.4740
 9558SOL     OW40135   4.003   4.105   9.257 -0.2138  0.3540 -0.4566
 9558SOL    HW140136   3.915   4.143   9.258  0.2198  1.3420 -0.5347
 9558SOL    HW240137   3.991   4.044   9.184 -0.0583  0.4331 -0.5455
 9559SOL     OW40138   3.250   3.880   0.949  0.5988 -0.8473  0.1665
 9559SOL    HW140139   3.218   3.940   1.016 -1.4972 -0.9320 -0.7302
 9559SOL    HW240140   3.214   3.927   0.873  2.8696  0.7246  0.0879
 9560SOL     OW40141   3.767   3.356   6.052 -0.2262 -0.0701 -0.6779
 9560SOL    HW140142   3.681   3.399   6.053 -0.7725 -1.2528  1.1739
 9560SOL    HW240143   3.753   3.271   6.092 -0.5546  0.7281  0.9215
 9561SOL     OW40144   1.179   1.201   3.303 -0.3064  0.5327 -0.7015
 9561SOL    HW140145   1.161   1.108   3.289  2.1014 -0.3410  2.0758
 9561SOL    HW240146   1.231   1.203   3.383 -1.1838 -0.6218 -0.1111
 9562SOL     OW40147   3.993   1.627   9.265  0.5769  0.1273  0.3799
 9562SOL    HW140148   4.073   1.575   9.258  0.0690 -0.8187  1.5433
 9562SOL    HW240149   4.038   1.711   9.262  1.0072 -0.1287 -0.2202
 9563SOL     OW40150   3.591   1.260   2.645 -0.0478  0.2608  0.3552
 9563SOL    HW140151   3.533   1.244   2.571 -0.5257  1.5799  0.4554
 9563SOL    HW240152   3.622   1.350   2.630 -1.2564  0.7391  0.7378
 9564SOL     OW40153   2.941   2.718   7.180  0.1778 -0.2743 -0.1679
 9564SOL    HW140154   2.942   2.654   7.252  3.4715  0.8957  0.8295
 9564SOL    HW240155   3.006   2.679   7.121 -0.2354  1.4676 -1.7457
 9565SOL     OW40156   0.493   4.675   1.456  0.9802  0.4732  0.0620
 9565SOL    HW140157   0.508   4.710   1.368 -1.5875 -1.9533 -1.3261
 9565SOL    HW240158   0.531   4.588   1.447  0.4275  0.2687 -0.3022
 9566SOL     OW40159   2.173   2.143   7.791 -0.0270  0.6222  0.0931
 9566SOL    HW140160   2.090   2.154   7.744  0.6678  0.4304 -1.1703
 9566SOL    HW240161   2.182   2.048   7.794  0.3797  0.6498 -0.2702
 9567SOL     OW40162   0.647   3.112   9.702  0.4506 -0.7720 -0.1369
 9567SOL    HW140163   0.644   3.068   9.787  2.0566  1.7328  1.1967
 9567SOL    HW240164   0.715   3.176   9.722  0.7501 -1.1425  0.0380
 9568SOL     OW40165   2.208   0.062  16.774  0.4099  0.1050 -0.8858
 9568SOL    HW140166   2.196   0.016  16.690  0.0119 -0.3074 -0.5998
 9568SOL    HW240167   2.257   4.721  16.825  1.5179  0.7429 -1.1376
   4.72394   4.72394  17.69744
