Membrane in water
40167
    1TCq1    O1    1   3.555   1.958  10.585  0.4546 -0.0160  0.2439
    1TCq1    C1    2   3.508   1.872  10.668  0.0898 -0.3809  0.4628
    1TCq1    O2    3   3.389   1.870  10.695  0.0770  0.6110 -0.2157
    1TCq1    C2    4   3.590   1.754  10.681 -0.4381 -0.6119 -0.1399
    1TCq1    C3    5   3.672   1.712  10.585  0.6226  0.5800  0.1615
    1TCq1    C4    6   3.695   1.578  10.564  0.0685 -0.4523  0.0937
    1TCq1    C5    7   3.639   1.488  10.643  0.0976  0.3769  0.1049
    1TCq1    C6    8   3.570   1.525  10.750  0.8579 -0.0496  0.3011
    1TCq1    C7    9   3.534   1.655  10.765 -0.6516 -0.4041 -0.3377
    1TCq1    C8   10   3.520   1.427  10.844 -0.0288 -0.3079  0.3778
    1TCq1    O4   11   3.452   1.471  10.933  0.0003  0.6241  0.6878
    1TCq1    C9   12   3.776   1.541  10.454 -0.0720  1.2317 -0.2759
    1TCq1    O5   13   3.783   1.619  10.351  0.5035  0.3930 -0.4067
    1TCq1    O6   14   3.843   1.429  10.457 -0.1483  0.3464 -0.0261
    1TCq1    H1   15   3.653   1.958  10.588  0.4256 -0.2331  0.9665
    1TCq1    H2   16   3.722   1.777  10.514  0.3240 -0.9053 -1.4130
    1TCq1    H3   17   3.662   1.383  10.627 -1.9710  0.2529 -2.0596
    1TCq1    H4   18   3.462   1.687  10.840 -3.0038 -0.4344 -2.5772
    2MPD2     C   19   3.411   0.983  11.057 -0.2983  0.4652 -0.0690
    2MPD2    C1   20   3.442   1.107  11.117  0.4778 -0.0196  0.6135
    2MPD2    C2   21   3.489   1.213  11.037 -0.9143  0.4031 -0.1730
    2MPD2    C3   22   3.503   1.190  10.900 -0.2311 -0.6954 -0.5305
    2MPD2    C4   23   3.476   1.067  10.846  0.2882 -0.3837 -0.6877
    2MPD2    C5   24   3.419   0.971  10.921  0.1383 -0.1862 -0.1239
    2MPD2     H   25   3.516   1.309  11.079 -0.3461  0.5952 -0.9763
    2MPD2    H1   26   3.497   1.049  10.741  2.2205  1.2461 -0.5766
    2MPD2    H2   27   3.368   0.898  11.108 -0.9873  0.2013 -1.0737
    2MPD2    H3   28   3.403   0.872  10.881  3.5830 -1.2199  1.0250
    2MPD2     N   29   3.537   1.295  10.810 -0.5545 -0.0943 -0.5297
    2MPD2    H5   30   3.577   1.262  10.723 -0.4129 -2.7938  0.5581
    2MPD2    N1   31   3.413   1.138  11.252  0.3898  0.0044  0.9194
    2MPD2    H7   32   3.446   1.225  11.292  1.3569  0.1927 -0.3167
    3TCq1    O1   33   3.717   3.283  10.783 -0.3790 -0.2386  0.3880
    3TCq1    C1   34   3.675   3.335  10.666  0.1713 -0.5532 -0.3459
    3TCq1    O2   35   3.710   3.294  10.556  0.3342 -0.3608 -0.0512
    3TCq1    C2   36   3.573   3.439  10.686 -0.3077 -0.0477 -0.2250
    3TCq1    C3   37   3.567   3.518  10.791  0.1605  0.6310 -0.5418
    3TCq1    C4   38   3.448   3.583  10.814  0.7060  0.4100 -0.4414
    3TCq1    C5   39   3.347   3.579  10.732 -0.4292  0.6001  0.5250
    3TCq1    C6   40   3.372   3.514  10.610  1.1836 -0.1923  0.0380
    3TCq1    C7   41   3.484   3.442  10.588  0.1319  0.3681 -0.0075
    3TCq1    C8   42   3.262   3.440  10.550  0.0109  0.6816 -0.3739
    3TCq1    O4   43   3.278   3.388  10.441  0.3040 -0.5164  0.0005
    3TCq1    C9   44   3.434   3.654  10.939  0.1461  0.1554  0.7806
    3TCq1    O5   45   3.344   3.740  10.952 -0.4604  0.6307  0.4864
    3TCq1    O6   46   3.536   3.656  11.014  0.3216 -0.4146 -0.2949
    3TCq1    H1   47   3.648   3.301  10.851 -2.4510 -3.4073 -0.9082
    3TCq1    H2   48   3.640   3.508  10.870 -1.4106 -1.1992  0.6709
    3TCq1    H3   49   3.254   3.619  10.770  0.0852  1.4832  0.8563
    3TCq1    H4   50   3.485   3.374  10.505 -2.0928  0.5108 -0.1744
    4MPD2     C   51   2.793   3.253  10.532 -0.3331  0.3025  0.8400
    4MPD2    C1   52   2.791   3.354  10.623 -0.4181 -0.4241 -0.7081
    4MPD2    C2   53   2.912   3.410  10.648  0.2115 -0.0656 -0.3510
    4MPD2    C3   54   3.031   3.377  10.589  0.1124 -0.3059 -0.0085
    4MPD2    C4   55   3.030   3.273  10.490 -0.5622 -0.4148  0.1777
    4MPD2    C5   56   2.906   3.218  10.464 -0.5303 -0.5338  0.2641
    4MPD2     H   57   2.925   3.497  10.711 -2.6535 -0.5129  0.8521
    4MPD2    H1   58   3.121   3.236  10.445  0.0349 -0.1881  1.1899
    4MPD2    H2   59   2.705   3.206  10.489  2.7132 -1.9915 -2.8906
    4MPD2    H3   60   2.904   3.141  10.389  0.9128 -2.0615  1.7993
    4MPD2     N   61   3.146   3.446  10.628 -0.1344 -0.5586  0.1026
    4MPD2    H5   62   3.137   3.515  10.703 -0.7414 -0.0797 -0.4078
    4MPD2    N1   63   2.680   3.395  10.694  0.3676  0.1142 -0.0181
    4MPD2    H7   64   2.691   3.460  10.771  0.6388  2.4751 -2.0423
    5TCq1    O1   65   4.035   3.840  12.214  0.0612 -0.0468 -0.6415
    5TCq1    C1   66   4.007   3.902  12.100 -0.9817  0.5629  0.4619
    5TCq1    O2   67   4.069   3.881  11.996  0.4343  0.3691  0.0798
    5TCq1    C2   68   3.859   3.906  12.102 -0.1405  0.2073 -0.0377
    5TCq1    C3   69   3.793   3.966  12.204 -0.3454  0.8523  0.3860
    5TCq1    C4   70   3.659   3.976  12.189 -0.2809  0.0060  0.4952
    5TCq1    C5   71   3.592   3.938  12.076  0.0191 -0.0863  0.0545
    5TCq1    C6   72   3.664   3.879  11.975 -0.1222 -0.0603 -0.1835
    5TCq1    C7   73   3.796   3.863  11.990  0.2221  0.3562 -0.7941
    5TCq1    C8   74   3.590   3.823  11.857  0.1655 -0.5281  0.0349
    5TCq1    O4   75   3.654   3.793  11.758  0.8061  0.0350 -0.5470
    5TCq1    C9   76   3.581   4.041  12.304  0.2676  0.5314 -0.3593
    5TCq1    O5   77   3.646   4.082  12.401 -0.5563  0.8928  0.6920
    5TCq1    O6   78   3.452   4.057  12.292  0.0139 -0.0229 -0.7909
    5TCq1    H1   79   3.965   3.839  12.283  0.1158  0.8330 -0.5741
    5TCq1    H2   80   3.843   4.002  12.292 -1.3712  0.1803  1.2469
    5TCq1    H3   81   3.485   3.951  12.080  0.2324  1.8097 -0.4555
    5TCq1    H4   82   3.847   3.803  11.915 -1.7015 -0.5156 -1.4022
    6MPD2     C   83   3.229   3.729  11.860 -0.3946  0.0316 -0.7688
    6MPD2    C1   84   3.357   3.740  11.804  0.1800 -0.2033  0.1277
    6MPD2    C2   85   3.380   3.699  11.674  0.5444  0.8060 -0.5089
    6MPD2    C3   86   3.268   3.658  11.602  0.4354 -0.4955  0.3921
    6MPD2    C4   87   3.142   3.657  11.649 -0.0944  0.3565  0.1235
    6MPD2    C5   88   3.126   3.693  11.779 -0.3548 -0.4281 -0.5104
    6MPD2     H   89   3.473   3.700  11.618  0.9406 -0.0746  0.1357
    6MPD2    H1   90   3.046   3.637  11.603 -0.9033 -0.7293  2.2805
    6MPD2    H2   91   3.207   3.756  11.963  0.5161  0.2829 -0.6468
    6MPD2    H3   92   3.026   3.701  11.821 -0.3381  0.7014 -0.6829
    6MPD2     N   93   3.295   3.598  11.477 -0.1940 -0.1508 -0.2493
    6MPD2    H5   94   3.392   3.608  11.451  0.1946  0.2482  1.3318
    6MPD2    N1   95   3.459   3.800  11.887  0.1326  0.2376 -0.3237
    6MPD2    H7   96   3.437   3.815  11.985 -2.5055 -2.9302 -0.4314
    7TCq1    O1   97   0.229   3.552  13.079 -0.4766  0.4746  0.0256
    7TCq1    C1   98   0.181   3.673  13.120 -0.2592  0.3822 -0.2624
    7TCq1    O2   99   0.095   3.741  13.066 -0.0832 -0.3954  0.4020
    7TCq1    C2  100   0.290   3.730  13.197 -0.4644 -0.4696  0.5502
    7TCq1    C3  101   0.316   3.861  13.183 -0.8605  0.6620  0.7240
    7TCq1    C4  102   0.425   3.918  13.256 -0.6637 -0.3046  0.2865
    7TCq1    C5  103   0.491   3.836  13.348  0.0370  1.4883 -0.1160
    7TCq1    C6  104   0.453   3.707  13.364 -0.2993  0.3391  0.3929
    7TCq1    C7  105   0.354   3.651  13.290 -0.6869  0.2926 -0.1698
    7TCq1    C8  106   0.543   3.618  13.436 -0.4138  0.9933  0.8417
    7TCq1    O4  107   0.511   3.500  13.439 -0.3659  0.1603 -0.3794
    7TCq1    C9  108   0.465   4.055  13.250  0.3453 -0.6094  0.3190
    7TCq1    O5  109   0.390   4.140  13.197 -0.7276 -0.0406 -0.1717
    7TCq1    O6  110   0.560   4.087  13.328 -0.3131  0.4309 -0.0248
    7TCq1    H1  111   0.307   3.513  13.124 -0.7438 -1.8579 -1.5093
    7TCq1    H2  112   0.239   3.920  13.135 -0.0982 -1.6498 -3.3148
    7TCq1    H3  113   0.585   3.876  13.387  0.0473  0.5193  0.8754
    7TCq1    H4  114   0.312   3.551  13.302  1.1142 -0.4704 -0.1404
    8MPD2     C  115   0.963   3.512  13.711  0.0161  0.4871 -0.0181
    8MPD2    C1  116   0.858   3.426  13.673  0.1260  0.3901  1.0525
    8MPD2    C2  117   0.752   3.479  13.602 -0.4441  0.6423 -0.2829
    8MPD2    C3  118   0.742   3.617  13.587  0.7227  0.0620  0.1192
    8MPD2    C4  119   0.844   3.706  13.637 -0.4828 -0.3821  0.8543
    8MPD2    C5  120   0.953   3.647  13.693  0.1850 -0.1763  0.1891
    8MPD2     H  121   0.669   3.415  13.572 -0.7349  1.8859 -2.1331
    8MPD2    H1  122   0.821   3.811  13.621 -0.2966 -0.6580 -1.2109
    8MPD2    H2  123   1.052   3.479  13.763 -1.2465  0.5555  2.1801
    8MPD2    H3  124   1.033   3.715  13.720 -0.4379  0.3276  0.7825
    8MPD2     N  125   0.644   3.681  13.505  0.2949 -0.2560 -0.7733
    8MPD2    H5  126   0.649   3.782  13.494 -0.2651 -0.2436 -0.9331
    8MPD2    N1  127   0.855   3.285  13.702 -0.7558  0.5185  0.6957
    8MPD2    H7  128   0.781   3.237  13.652  1.9420 -0.4851 -2.3760
    9TCq1    O1  129   4.099   2.085  10.971 -0.4786 -0.6430 -0.1984
    9TCq1    C1  130   4.010   2.158  11.035 -0.0163 -0.2307 -0.2259
    9TCq1    O2  131   4.034   2.255  11.106  0.1342 -0.2363  0.3828
    9TCq1    C2  132   3.884   2.146  10.971  0.1298 -0.6357  0.2265
    9TCq1    C3  133   3.824   2.024  10.986 -0.2857 -0.6476 -0.1813
    9TCq1    C4  134   3.682   2.030  10.976 -0.4143  1.1475  0.0939
    9TCq1    C5  135   3.614   2.146  10.940  0.2584 -0.2695  0.7594
    9TCq1    C6  136   3.686   2.266  10.926  0.2002  0.1020 -0.0748
    9TCq1    C7  137   3.820   2.264  10.944  0.2634  0.0866  0.2331
    9TCq1    C8  138   3.618   2.396  10.935 -0.1507 -0.2289 -0.1073
    9TCq1    O4  139   3.682   2.500  10.914 -0.0489  0.4124 -0.3077
    9TCq1    C9  140   3.609   1.911  11.007  0.0044  0.0456  0.2740
    9TCq1    O5  141   3.482   1.929  11.012  0.0214 -0.5613  0.0242
    9TCq1    O6  142   3.673   1.804  11.027  0.3259 -0.2647  0.3864
    9TCq1    H1  143   4.064   2.033  10.896 -1.2412  0.0806 -0.3331
    9TCq1    H2  144   3.872   1.932  11.018 -2.3818 -1.7847 -0.2716
    9TCq1    H3  145   3.507   2.132  10.926  0.5433  0.7459 -2.4148
    9TCq1    H4  146   3.878   2.355  10.941  2.2600 -1.1241  2.0873
   10MPD2     C  147   3.424   2.603  10.992  0.0815 -0.4462 -0.2944
   10MPD2    C1  148   3.393   2.470  10.975  0.0306  0.4563  0.1376
   10MPD2    C2  149   3.273   2.418  11.017 -0.2039 -0.1719 -0.3552
   10MPD2    C3  150   3.192   2.499  11.094  0.6485 -0.3919 -0.1543
   10MPD2    C4  151   3.218   2.635  11.103 -0.1538  0.1487 -0.2839
   10MPD2    C5  152   3.334   2.682  11.057  0.2685  0.7844 -0.2233
   10MPD2     H  153   3.258   2.311  11.014 -0.8828 -0.0101 -3.4743
   10MPD2    H1  154   3.155   2.702  11.160 -0.2623  0.9065 -1.2942
   10MPD2    H2  155   3.521   2.646  10.969 -0.2720  0.3532 -0.2699
   10MPD2    H3  156   3.356   2.786  11.077 -1.2409  0.5404  2.6984
   10MPD2     N  157   3.081   2.450  11.170  0.4918  0.3791  0.6864
   10MPD2    H5  158   3.032   2.519  11.225 -0.2314 -0.1002  0.6469
   10MPD2    N1  159   3.484   2.374  10.929  0.4490 -0.3583 -0.1095
   10MPD2    H7  160   3.452   2.278  10.923  0.4346 -0.3260 -0.6037
   11TCq1    O1  161   4.532   1.494  14.145  0.0258 -0.1195 -0.7704
   11TCq1    C1  162   4.534   1.557  14.259  0.9153  1.0914  0.2926
   11TCq1    O2  163   4.580   1.507  14.361  0.0769  0.4510 -0.1003
   11TCq1    C2  164   4.475   1.690  14.259  0.3202  0.2374  0.0455
   11TCq1    C3  165   4.513   1.789  14.353 -0.3978  0.1427 -0.4760
   11TCq1    C4  166   4.439   1.904  14.349  0.1397  0.1304 -0.0430
   11TCq1    C5  167   4.330   1.922  14.267 -0.3299 -1.0005  0.4426
   11TCq1    C6  168   4.294   1.813  14.191  0.4122  0.3051  0.4688
   11TCq1    C7  169   4.370   1.706  14.175  0.8145  1.1308 -0.4912
   11TCq1    C8  170   4.164   1.819  14.117 -0.1340 -0.4461  0.1379
   11TCq1    O4  171   4.110   1.710  14.097  0.3230 -0.1428  0.3075
   11TCq1    C9  172   4.471   2.013  14.439  0.8068 -0.2320  0.0751
   11TCq1    O5  173   4.403   2.119  14.428  0.5124 -0.4982  0.1970
   11TCq1    O6  174   4.533   1.969  14.540  0.2643  0.1335 -0.2989
   11TCq1    H1  175   4.490   1.546  14.073 -0.2505  0.0003 -0.5204
   11TCq1    H2  176   4.594   1.774  14.424 -2.0821 -1.8124  1.0338
   11TCq1    H3  177   4.270   2.012  14.278  0.6151 -0.0961 -1.9220
   11TCq1    H4  178   4.316   1.632  14.118 -1.3591  2.2668  0.0517
   12MPD2     C  179   3.964   2.120  14.024 -1.0084  0.5566 -0.0675
   12MPD2    C1  180   3.993   1.985  14.027 -0.2519 -0.3320 -0.0598
   12MPD2    C2  181   3.907   1.891  13.964 -0.3684 -0.5750 -0.1904
   12MPD2    C3  182   3.799   1.938  13.890  0.2695 -0.0948  0.1640
   12MPD2    C4  183   3.766   2.069  13.904  0.1474  0.7107  0.9479
   12MPD2    C5  184   3.850   2.166  13.959 -0.5273 -0.4846 -0.5459
   12MPD2     H  185   3.926   1.784  13.959  2.1254 -0.0717 -1.4302
   12MPD2    H1  186   3.672   2.105  13.865 -0.4358 -2.8097 -0.9214
   12MPD2    H2  187   4.028   2.195  14.069  0.0868 -0.6467  0.3664
   12MPD2    H3  188   3.830   2.273  13.954  1.5457 -0.1579 -1.8739
   12MPD2     N  189   3.704   1.845  13.838  0.0477 -1.0642  0.4759
   12MPD2    H5  190   3.728   1.748  13.854  0.0612 -0.6914  2.7177
   12MPD2    N1  191   4.115   1.947  14.094 -0.0434  0.3084  0.0690
   12MPD2    H7  192   4.173   2.027  14.119  0.8760 -0.2713 -0.2182
   13TCq1    O1  193   3.723   1.836  10.201 -0.3343 -0.5328 -0.3446
   13TCq1    C1  194   3.599   1.870  10.234 -0.8270 -0.4328 -0.2884
   13TCq1    O2  195   3.540   1.974  10.232 -0.4834  0.1624 -0.1738
   13TCq1    C2  196   3.535   1.744  10.204  0.2668 -0.3760  0.5666
   13TCq1    C3  197   3.557   1.677  10.093 -0.0876 -0.3492 -0.2631
   13TCq1    C4  198   3.492   1.562  10.076  0.3467 -0.3432  0.7931
   13TCq1    C5  199   3.411   1.507  10.170  0.7373  0.0701  0.3810
   13TCq1    C6  200   3.381   1.584  10.284  0.9947 -0.0654  0.5177
   13TCq1    C7  201   3.444   1.707  10.300  0.4378  0.1018  0.2500
   13TCq1    C8  202   3.357   1.519  10.410 -0.1742 -0.4177  0.0625
   13TCq1    O4  203   3.354   1.587  10.511 -0.0199 -0.1183  0.4432
   13TCq1    C9  204   3.509   1.499   9.952 -0.2355  0.1284 -0.1345
   13TCq1    O5  205   3.493   1.374   9.946 -0.4077 -0.0832 -0.4139
   13TCq1    O6  206   3.566   1.561   9.854  0.5257  0.2568 -0.3097
   13TCq1    H1  207   3.738   1.752  10.250  1.4948  0.0391  0.0756
   13TCq1    H2  208   3.622   1.714  10.014 -0.1396  0.1226 -0.0888
   13TCq1    H3  209   3.358   1.418  10.139  1.8908 -0.5785  0.2592
   13TCq1    H4  210   3.425   1.771  10.385  0.1824  0.1474  0.1592
   14MPD2     C  211   3.232   1.174  10.441  0.1906  0.5117 -0.7386
   14MPD2    C1  212   3.268   1.299  10.483  0.2101 -0.3736  0.1838
   14MPD2    C2  213   3.255   1.329  10.618  0.1628 -0.2718  0.4664
   14MPD2    C3  214   3.212   1.235  10.705 -0.3140 -0.5283 -0.6045
   14MPD2    C4  215   3.206   1.101  10.662  0.4287  0.4808  0.6621
   14MPD2    C5  216   3.213   1.070  10.528 -0.0283 -0.1836  0.4285
   14MPD2     H  217   3.258   1.433  10.647  3.5234  0.0584 -1.1199
   14MPD2    H1  218   3.197   1.016  10.729 -1.2518  0.2242  0.1082
   14MPD2    H2  219   3.229   1.146  10.336  0.7211 -1.3232 -0.2712
   14MPD2    H3  220   3.208   0.971  10.483  2.5423  0.2017 -0.6823
   14MPD2     N  221   3.183   1.287  10.834  0.0197 -0.4940 -0.2122
   14MPD2    H5  222   3.203   1.384  10.857 -1.2026 -0.3446  0.2133
   14MPD2    N1  223   3.320   1.387  10.386 -0.3325 -0.5413  0.1621
   14MPD2    H7  224   3.327   1.356  10.289  0.0497 -0.3679  0.1327
   15TCq1    O1  225   4.059   0.669   2.575 -0.3973 -0.0415 -0.3218
   15TCq1    C1  226   4.111   0.636   2.454 -0.4923 -0.5597 -0.1449
   15TCq1    O2  227   4.215   0.570   2.451  0.3609  0.3362 -0.3425
   15TCq1    C2  228   4.076   0.722   2.341 -0.0711  0.3106  0.0080
   15TCq1    C3  229   3.976   0.815   2.355 -0.2764 -0.1719  0.2981
   15TCq1    C4  230   3.940   0.876   2.234 -0.6862 -0.3232 -0.3017
   15TCq1    C5  231   3.996   0.841   2.118  0.5196  0.8232 -0.7043
   15TCq1    C6  232   4.096   0.753   2.117  0.3398 -0.0057  0.0255
   15TCq1    C7  233   4.143   0.692   2.228  0.6573  0.4734  0.3664
   15TCq1    C8  234   4.177   0.734   1.992  0.1892 -0.0580  0.6174
   15TCq1    O4  235   4.276   0.662   1.995 -0.4052  0.5059  0.2582
   15TCq1    C9  236   3.819   0.961   2.233 -0.0287 -0.0555  0.3726
   15TCq1    O5  237   3.775   0.995   2.122  0.1739  0.0541  0.3218
   15TCq1    O6  238   3.776   1.006   2.342  0.3173 -0.4915 -0.3309
   15TCq1    H1  239   3.975   0.715   2.554  0.9524  1.4415 -2.5402
   15TCq1    H2  240   3.925   0.844   2.446 -1.4766  0.0311 -0.4327
   15TCq1    H3  241   3.958   0.892   2.030 -1.0035 -0.7634 -0.9788
   15TCq1    H4  242   4.218   0.614   2.224  0.4547  0.2461  0.9170
   16MPD2     C  243   4.103   0.854   1.643 -0.6013 -0.6625  0.7556
   16MPD2    C1  244   4.178   0.797   1.748  0.1888  0.0460  0.1035
   16MPD2    C2  245   4.303   0.741   1.715 -0.2226  0.2619  0.0761
   16MPD2    C3  246   4.344   0.746   1.583  0.4569 -0.1468 -0.6292
   16MPD2    C4  247   4.272   0.807   1.481 -0.7523  0.7379  0.2937
   16MPD2    C5  248   4.148   0.852   1.517  1.0625  0.3889 -0.5025
   16MPD2     H  249   4.372   0.712   1.794  1.1869  1.0728 -0.8468
   16MPD2    H1  250   4.308   0.819   1.379  0.1582 -1.9482  0.3002
   16MPD2    H2  251   4.014   0.913   1.665 -1.7842 -1.4370 -2.0050
   16MPD2    H3  252   4.091   0.901   1.439  0.2930  1.6217  0.8264
   16MPD2     N  253   4.473   0.692   1.564  0.0858  0.1214  0.1582
   16MPD2    H5  254   4.510   0.638   1.642 -1.9003 -3.0868 -1.0913
   16MPD2    N1  255   4.122   0.796   1.880 -0.3739  1.0124 -0.0232
   16MPD2    H7  256   4.041   0.856   1.887 -1.5640 -1.0071  3.4243
   17TCq1    O1  257   2.916   0.852   9.893 -0.3904  0.1349 -0.3953
   17TCq1    C1  258   2.958   0.726   9.919  0.0661  0.4264 -0.5379
   17TCq1    O2  259   2.911   0.617   9.887  0.3013 -0.6325 -0.4321
   17TCq1    C2  260   3.050   0.736  10.032 -0.1287 -0.3137 -0.2255
   17TCq1    C3  261   3.039   0.650  10.139 -0.2023 -0.0377 -0.9368
   17TCq1    C4  262   3.117   0.662  10.243 -0.7981  0.3370  0.1824
   17TCq1    C5  263   3.204   0.769  10.258  0.0501 -0.6762 -0.7867
   17TCq1    C6  264   3.208   0.864  10.158  0.1335  0.6313  0.1243
   17TCq1    C7  265   3.138   0.843  10.038 -0.1148 -0.6975  0.1617
   17TCq1    C8  266   3.309   0.967  10.151 -0.6882  0.0819  0.2736
   17TCq1    O4  267   3.283   1.069  10.092 -0.0068  0.2378 -0.2065
   17TCq1    C9  268   3.109   0.572  10.348 -0.4062 -0.1480 -0.9724
   17TCq1    O5  269   3.047   0.468  10.322 -0.0823 -0.4223 -0.3811
   17TCq1    O6  270   3.204   0.582  10.429 -0.0403  0.4654 -0.0487
   17TCq1    H1  271   2.946   0.906   9.969 -1.1186 -0.3537  0.2376
   17TCq1    H2  272   2.954   0.583  10.142  1.4448 -2.2179 -3.4460
   17TCq1    H3  273   3.255   0.790  10.352  0.0543 -1.2178 -0.6725
   17TCq1    H4  274   3.144   0.922   9.965  2.5766 -0.8535  0.2244
   18MPD2     C  275   3.534   1.150  10.205 -0.4940  0.3015 -0.0236
   18MPD2    C1  276   3.536   1.018  10.235 -0.6779  0.0682  0.4655
   18MPD2    C2  277   3.649   0.957  10.272 -0.1824  0.7412  0.5254
   18MPD2    C3  278   3.759   1.036  10.295 -0.4039 -0.5885 -0.1173
   18MPD2    C4  279   3.754   1.171  10.277  0.2823  0.2307 -0.3566
   18MPD2    C5  280   3.640   1.231  10.236 -0.4550 -0.7891  0.2607
   18MPD2     H  281   3.658   0.849  10.266  0.1879  0.7155  1.6060
   18MPD2    H1  282   3.842   1.232  10.294  0.0921  1.1469 -2.7437
   18MPD2    H2  283   3.443   1.201  10.174 -0.0277  1.7747  1.0183
   18MPD2    H3  284   3.647   1.338  10.222 -1.4793 -0.9253 -1.2401
   18MPD2     N  285   3.882   0.989  10.338 -0.5119 -0.5418  0.1330
   18MPD2    H5  286   3.958   1.055  10.349 -0.0998 -0.5893 -2.3196
   18MPD2    N1  287   3.421   0.936  10.215  0.5773 -0.3020  0.3131
   18MPD2    H7  288   3.431   0.839  10.245 -1.5360 -0.0776  1.7205
   19TMC2    C1  289   0.082   1.492  13.807  0.3886  0.3190 -0.0169
   19TMC2    C2  290   0.064   1.519  13.674  1.0111  0.2276 -0.1155
   19TMC2    C3  291   4.670   1.480  13.616 -0.0674 -0.3010  0.2847
   19TMC2    C4  292   0.006   1.400  13.877  0.0543 -1.1177 -0.0851
   19TMC2    C5  293   4.626   1.343  13.801  0.2932 -0.8083  0.2054
   19TMC2    C6  294   4.602   1.377  13.669 -0.8103 -0.3593  1.2977
   19TMC2     C  295   0.195   1.556  13.861 -0.3586  0.9971  0.4250
   19TMC2     O  296   0.258   1.638  13.797 -0.2766  0.0197 -0.2197
   19TMC2     H  297   0.127   1.597  13.633  0.1898  0.0940 -1.6163
   19TMC2    H1  298   0.024   1.388  13.984 -2.1705  1.8374  0.6283
   19TMC2    H2  299   4.512   1.342  13.621 -0.0018 -1.6215  0.7069
   19TMC2    C7  300   4.547   1.233  13.857  0.1385  0.3277  0.4197
   19TMC2    C8  301   4.620   1.536  13.489 -0.2391  0.2342  0.2735
   19TMC2    O1  302   4.459   1.200  13.782  0.3264  0.2453 -0.3506
   19TMC2    O2  303   4.527   1.482  13.432  0.5931  0.2547  0.2294
   19TMC2    O5  304   4.714   1.610  13.430  0.2187  0.1783 -0.4112
   19TMC2    H5  305   0.018   1.680  13.493  1.1162  0.0097 -0.6094
   20MPD2     C  306   0.426   1.659  14.035 -0.4761 -0.0829 -0.1066
   20MPD2    C1  307   0.345   1.550  14.063  0.0268 -0.9142  0.4419
   20MPD2    C2  308   0.380   1.476  14.174 -0.3306  0.4199 -0.0169
   20MPD2    C3  309   0.492   1.509  14.254  0.0067 -0.5324  0.1820
   20MPD2    C4  310   0.568   1.614  14.214  0.6816 -0.6486 -0.6887
   20MPD2    C5  311   0.533   1.691  14.113 -0.7297  0.3045  0.1612
   20MPD2     H  312   0.316   1.392  14.197  1.6061 -0.6267  1.6194
   20MPD2    H1  313   0.650   1.650  14.275 -1.2384 -0.6120  1.8721
   20MPD2    H2  314   0.411   1.719  13.946 -2.6111  0.7351  0.8288
   20MPD2    H3  315   0.579   1.788  14.094 -1.0354  0.3612 -0.3037
   20MPD2     N  316   0.519   1.436  14.371 -0.7655  0.1601  0.4610
   20MPD2    H5  317   0.600   1.463  14.427 -0.0027 -1.7589  0.2890
   20MPD2    N1  318   0.236   1.506  13.987 -0.1312  0.1232 -0.5165
   20MPD2    H7  319   0.184   1.431  14.032  0.1686  1.2979  1.8236
   21MPD2     C  320   2.693   1.614  13.959  0.6102  0.6820 -0.2492
   21MPD2    C1  321   2.749   1.656  14.074 -0.3215 -0.0150 -0.1327
   21MPD2    C2  322   2.668   1.693  14.175  0.0396 -0.2061  0.2796
   21MPD2    C3  323   2.530   1.707  14.158 -0.1306  0.1107  0.9655
   21MPD2    C4  324   2.480   1.692  14.036  1.2901 -0.3089 -0.2474
   21MPD2    C5  325   2.563   1.640  13.940  0.1843 -0.5360 -0.1514
   21MPD2     H  326   2.716   1.713  14.270 -1.5767  0.3024  0.9995
   21MPD2    H1  327   2.378   1.696  14.000  0.5747 -1.0420  1.6842
   21MPD2    H2  328   2.753   1.572  13.879  1.5681  1.5617  0.0081
   21MPD2    H3  329   2.516   1.618  13.845 -2.1402 -0.0980  0.8879
   21MPD2     N  330   2.447   1.743  14.260  0.3867  0.4310 -0.2057
   21MPD2    H5  331   2.356   1.778  14.229  0.0089  1.3406  1.9487
   21MPD2    N1  332   2.884   1.657  14.104  0.2365  0.3221  0.0237
   21MPD2    H7  333   2.904   1.700  14.194 -1.4843  3.4616 -1.0873
   22TCq2    C1  334   2.469   1.723  14.392 -0.7785 -0.5288  0.1776
   22TCq2    O2  335   2.560   1.652  14.434 -0.2828 -0.1878 -0.1404
   22TCq2    C2  336   2.375   1.790  14.482  0.0724  0.3220  0.7673
   22TCq2    C3  337   2.422   1.778  14.614 -0.5207 -0.6570 -0.6987
   22TCq2    C4  338   2.374   1.869  14.706 -0.1738 -0.5597 -0.0698
   22TCq2    C5  339   2.281   1.960  14.663 -0.6879 -0.2958 -0.2524
   22TCq2    C6  340   2.237   1.967  14.535  0.6345 -0.1543  0.3312
   22TCq2    C7  341   2.283   1.881  14.441  0.1755 -0.0661  0.1573
   22TCq2    C8  342   2.151   2.079  14.501 -0.1786  0.1819  0.3188
   22TCq2    O4  343   2.069   2.069  14.413  0.4962  0.4872  0.1685
   22TCq2    C9  344   2.427   1.870  14.845 -0.4960 -0.8376 -0.4957
   22TCq2    O5  345   2.448   1.985  14.899  0.1202 -0.2857 -0.1055
   22TCq2    O6  346   2.468   1.759  14.888 -0.6093  0.3494 -0.1519
   22TCq2    H2  347   2.504   1.714  14.645 -1.1200 -1.5089 -0.8817
   22TCq2    H3  348   2.247   2.026  14.742  0.7717  1.9302 -1.4985
   22TCq2    H4  349   2.252   1.889  14.337 -1.6595  0.2119  0.7164
   23MPD2     C  350   4.187   2.740  14.836 -0.1533  0.2275  0.2982
   23MPD2    C1  351   4.258   2.835  14.905 -0.0793  0.2474 -0.3625
   23MPD2    C2  352   4.335   2.924  14.831  0.1686 -0.3491 -0.3754
   23MPD2    C3  353   4.344   2.917  14.687 -0.7297 -0.0489 -0.1036
   23MPD2    C4  354   4.267   2.831  14.625 -0.1376 -0.0966  0.2952
   23MPD2    C5  355   4.199   2.736  14.699 -0.4322  0.8838 -0.0479
   23MPD2     H  356   4.397   2.994  14.886  0.9049  0.4014 -2.1611
   23MPD2    H1  357   4.264   2.826  14.516  0.4632  1.7083  0.1864
   23MPD2    H2  358   4.112   2.673  14.878 -0.0411  0.0057  0.1476
   23MPD2    H3  359   4.136   2.667  14.645  0.8972 -0.2357 -0.1796
   23MPD2     N  360   4.419   3.007  14.603 -0.1097 -0.4614  0.3835
   23MPD2    H5  361   4.415   2.999  14.502  1.4272 -1.8691  0.4242
   23MPD2    N1  362   4.252   2.841  15.047 -0.2213  0.0422  0.1783
   23MPD2    H7  363   4.305   2.911  15.098  0.3712  0.1184 -0.5446
   24TCq2    C1  364   4.482   3.115  14.659  0.3804  0.6049 -0.2239
   24TCq2    O2  365   4.483   3.161  14.772  0.2105 -0.3127  0.0096
   24TCq2    C2  366   4.532   3.199  14.553  0.6400 -0.0201 -0.1451
   24TCq2    C3  367   4.556   3.152  14.432 -0.0841  0.0818  0.2575
   24TCq2    C4  368   4.552   3.235  14.323 -0.2523 -0.1169  1.0110
   24TCq2    C5  369   4.524   3.368  14.342 -0.5611  0.0613  0.4697
   24TCq2    C6  370   4.497   3.418  14.468  0.3506 -0.2546  0.4517
   24TCq2    C7  371   4.517   3.334  14.571 -0.0015 -0.3853 -0.2517
   24TCq2    C8  372   4.382   3.506  14.477  0.1382  0.2802 -0.4417
   24TCq2    O4  373   4.303   3.502  14.383  0.0435  0.3884  0.2763
   24TCq2    C9  374   4.590   3.192  14.193 -0.2043 -0.5444 -0.0576
   24TCq2    O5  375   4.585   3.066  14.172  0.4657  0.4990 -0.2986
   24TCq2    O6  376   4.593   3.282  14.108  0.1620 -0.5991  0.8580
   24TCq2    H2  377   4.590   3.053  14.405  0.3640 -0.1949  1.8342
   24TCq2    H3  378   4.495   3.427  14.256  0.4247 -1.2354 -0.7406
   24TCq2    H4  379   4.511   3.363  14.676 -0.4633  0.7417 -0.5887
   25TMC2    C1  380   3.256   0.435  11.482 -0.4244 -0.0796 -0.4425
   25TMC2    C2  381   3.328   0.548  11.456 -0.5462  0.6120 -0.2464
   25TMC2    C3  382   3.292   0.666  11.518  1.0452 -0.3560  1.0114
   25TMC2    C4  383   3.144   0.434  11.558 -0.1119  0.2715  0.7287
   25TMC2    C5  384   3.109   0.554  11.607 -0.6806 -0.4082 -0.3698
   25TMC2    C6  385   3.181   0.675  11.595  0.0544  0.6869  0.1926
   25TMC2     C  386   3.266   0.325  11.392  0.7099  0.0876  0.0482
   25TMC2     O  387   3.370   0.307  11.332  0.1499 -0.1018 -0.3055
   25TMC2     H  388   3.418   0.537  11.398  0.2256 -0.8006  1.2128
   25TMC2    H1  389   3.087   0.350  11.595 -3.4956  1.5838 -1.4398
   25TMC2    H2  390   3.146   0.756  11.657  0.5164  1.4314 -0.5267
   25TMC2    C7  391   3.007   0.549  11.708 -0.4802  0.1323 -0.6472
   25TMC2    C8  392   3.398   0.717  11.601  0.4762 -0.4124  0.0468
   25TMC2    O1  393   3.022   0.462  11.792  0.0434  0.1801  0.0072
   25TMC2    O2  394   3.359   0.754  11.711 -0.1883  0.4844  0.0078
   25TMC2    O5  395   3.517   0.654  11.582  0.2287 -0.0531 -0.4855
   25TMC2    H5  396   3.530   0.662  11.485 -0.2413 -0.5520 -0.5910
   26MPD2     C  397   3.055   4.666  11.134  0.3064  0.8020 -0.2752
   26MPD2    C1  398   2.960   0.009  11.202  0.7611  0.6138  0.3706
   26MPD2    C2  399   2.991   0.116  11.282  0.4986  0.0644  0.3477
   26MPD2    C3  400   3.121   0.148  11.298  0.2774  0.2651 -0.0701
   26MPD2    C4  401   3.220   0.072  11.243 -0.6901  0.0843 -0.1110
   26MPD2    C5  402   3.184   4.691  11.166 -0.1494 -0.0537 -0.1677
   26MPD2     H  403   2.907   0.168  11.327 -0.4201 -0.0230 -1.2626
   26MPD2    H1  404   3.325   0.087  11.263 -0.5151 -0.3284 -0.7064
   26MPD2    H2  405   3.027   4.578  11.078  0.1905  1.1556 -0.7716
   26MPD2    H3  406   3.258   4.624  11.122 -1.3657 -1.9074  0.6244
   26MPD2     N  407   3.140   0.262  11.369  0.4908 -0.0343  0.2613
   26MPD2    H5  408   3.051   0.297  11.404 -0.8302 -3.3997  0.2669
   26MPD2    N1  409   2.828   4.681  11.179 -0.1855 -0.6708 -0.6127
   26MPD2    H7  410   2.804   4.625  11.098  0.2127 -2.7229  0.6708
   27TMC2    C1  411   1.368   2.775  12.221  0.3282  0.3353  1.1271
   27TMC2    C2  412   1.386   2.862  12.121 -0.1440  0.5342 -0.6462
   27TMC2    C3  413   1.509   2.924  12.110  0.4702 -0.3045  0.3967
   27TMC2    C4  414   1.470   2.742  12.311  0.7627 -0.0646 -0.0907
   27TMC2    C5  415   1.577   2.825  12.315  0.2569  0.0844  0.4336
   27TMC2    C6  416   1.603   2.915  12.213 -0.5357  0.4912  0.6556
   27TMC2     C  417   1.297   2.655  12.191 -0.0150 -0.3215 -0.2072
   27TMC2     O  418   1.296   2.615  12.076 -0.0112  0.1880 -0.1979
   27TMC2     H  419   1.317   2.893  12.044 -1.3090 -0.2382  0.0896
   27TMC2    H1  420   1.456   2.678  12.397  1.6961 -0.5200 -0.2825
   27TMC2    H2  421   1.697   2.967  12.207 -0.8412  1.2004  2.0294
   27TMC2    C7  422   1.694   2.753  12.358 -0.2551  0.1684  0.7592
   27TMC2    C8  423   1.531   3.035  12.021  1.4929 -0.0475  0.1948
   27TMC2    O1  424   1.699   2.630  12.341 -0.0186  0.0291 -0.1253
   27TMC2    O2  425   1.504   3.031  11.902  0.0043  0.2782  0.3868
   27TMC2    O5  426   1.592   3.142  12.080  0.1711  0.6176  0.5176
   27TMC2    H5  427   1.576   3.140  12.177  0.2483 -0.7102  0.5019
   28MPD2     C  428   1.090   2.215  12.366 -0.5630  0.1575  0.3223
   28MPD2    C1  429   1.081   2.311  12.464 -0.1405  0.2302  0.0188
   28MPD2    C2  430   1.124   2.440  12.436  0.5180  0.0382  0.1982
   28MPD2    C3  431   1.191   2.471  12.319 -0.1791  0.7442  0.0612
   28MPD2    C4  432   1.198   2.373  12.217  0.0177  0.5171 -0.6430
   28MPD2    C5  433   1.146   2.244  12.249  0.5856 -0.1274  0.0670
   28MPD2     H  434   1.115   2.519  12.510 -1.4570  0.5075 -0.5454
   28MPD2    H1  435   1.246   2.391  12.121 -1.5155  0.9808 -1.3341
   28MPD2    H2  436   1.059   2.112  12.383  0.8172 -0.1676  0.8977
   28MPD2    H3  437   1.139   2.169  12.171  0.8476 -1.5066  1.3762
   28MPD2     N  438   1.246   2.598  12.306  0.5724 -0.2082  0.4006
   28MPD2    H5  439   1.249   2.654  12.390  0.9711  1.1316 -0.5125
   28MPD2    N1  440   1.019   2.274  12.591  0.6518 -0.6578  0.0077
   28MPD2    H7  441   0.989   2.177  12.594 -1.1993 -0.0853 -0.1930
   29MPD2     C  442   0.941   4.654  13.890  0.2650  0.2371 -0.0963
   29MPD2    C1  443   1.041   4.676  13.986  0.5465 -0.0593  0.1818
   29MPD2    C2  444   1.028   0.070  14.057  0.2942  0.4544  0.1531
   29MPD2    C3  445   0.920   0.162  14.040 -0.0897 -0.5086 -0.4334
   29MPD2    C4  446   0.817   0.125  13.962 -0.0678  0.5784  0.0525
   29MPD2    C5  447   0.830   0.011  13.887 -0.1413 -0.2176 -1.2425
   29MPD2     H  448   1.111   0.101  14.119 -0.8687  1.4054  1.2243
   29MPD2    H1  449   0.729   0.188  13.958 -1.5457 -1.5609 -0.8377
   29MPD2    H2  450   0.934   4.563  13.833 -2.4069 -0.2742  1.0598
   29MPD2    H3  451   0.751   4.708  13.818 -1.4352  0.7721 -0.1281
   29MPD2     N  452   0.935   0.276  14.116 -0.5060  0.0224 -0.1712
   29MPD2    H5  453   1.022   0.280  14.169 -0.2614 -1.6420 -0.4723
   29MPD2    N1  454   1.151   4.591  14.001 -0.0967  0.0190 -0.4390
   29MPD2    H7  455   1.218   4.619  14.071 -0.4347  0.4402 -0.2890
   30TCq2    C1  456   0.832   0.355  14.154  0.6157  0.1655 -0.2254
   30TCq2    O2  457   0.713   0.338  14.143  0.0600 -0.0341  0.1410
   30TCq2    C2  458   0.867   0.461  14.256  0.0294 -0.1271 -0.1585
   30TCq2    C3  459   0.764   0.526  14.324  0.1174  0.5740  0.1298
   30TCq2    C4  460   0.792   0.617  14.418  0.3942 -0.2881  0.2094
   30TCq2    C5  461   0.928   0.654  14.438  0.4117  0.3336 -0.7177
   30TCq2    C6  462   1.023   0.584  14.366  0.6421  0.3799  0.2693
   30TCq2    C7  463   1.002   0.486  14.278 -0.3503  1.1090  0.0371
   30TCq2    C8  464   1.150   0.646  14.364 -0.4045 -0.1593  0.6692
   30TCq2    O4  465   1.195   0.678  14.478  1.2307 -0.3370  0.3837
   30TCq2    C9  466   0.682   0.683  14.484 -0.2183  0.1435  0.5815
   30TCq2    O5  467   0.706   0.796  14.522  0.0620  0.1265 -0.2919
   30TCq2    O6  468   0.569   0.638  14.459  0.5096 -0.2209  0.1685
   30TCq2    H2  469   0.661   0.497  14.309 -0.4165  1.9066  1.1752
   30TCq2    H3  470   0.954   0.728  14.512 -1.4749 -0.8901  1.1831
   30TCq2    H4  471   1.076   0.453  14.206 -0.7724  0.3194 -0.0407
   31MPD2     C  472   3.975   3.951  15.070 -0.1060 -0.2140  0.2304
   31MPD2    C1  473   3.846   4.012  15.075  0.1685 -0.7682 -0.4616
   31MPD2    C2  474   3.746   3.944  15.143  0.2463 -0.2734 -0.7481
   31MPD2    C3  475   3.770   3.817  15.196 -0.8665  0.3634 -0.2304
   31MPD2    C4  476   3.896   3.772  15.210 -0.8709  0.5940  0.4162
   31MPD2    C5  477   3.997   3.841  15.150  0.1253 -0.7313  0.3365
   31MPD2     H  478   3.646   3.986  15.145  0.0757 -0.8440  3.2358
   31MPD2    H1  479   3.914   3.673  15.251  1.5595  1.2510  0.9468
   31MPD2    H2  480   4.062   3.980  15.012 -0.7059  1.9337  0.3757
   31MPD2    H3  481   4.096   3.798  15.147  0.9464  1.2346 -0.2783
   31MPD2     N  482   3.669   3.731  15.248  0.0210  0.5099  0.1672
   31MPD2    H5  483   3.695   3.635  15.265  0.6899  0.3818 -1.5482
   31MPD2    N1  484   3.832   4.139  15.021  0.1411 -0.0929 -0.1625
   31MPD2    H7  485   3.898   4.171  14.950  2.2956  0.3816  2.0620
   32TCq2    C1  486   3.537   3.751  15.244 -0.1161 -0.1065 -0.1103
   32TCq2    O2  487   3.476   3.854  15.222 -0.1885  0.1253  0.0528
   32TCq2    C2  488   3.462   3.628  15.274  0.1492 -0.1120  0.7326
   32TCq2    C3  489   3.324   3.636  15.294  0.2440 -0.1629 -0.4591
   32TCq2    C4  490   3.255   3.525  15.331 -0.5780  0.5296 -0.3043
   32TCq2    C5  491   3.320   3.416  15.386  0.5058 -0.4719 -0.0163
   32TCq2    C6  492   3.456   3.424  15.393 -1.0175  0.4249 -0.1906
   32TCq2    C7  493   3.522   3.524  15.334 -0.0483 -0.1948 -0.3046
   32TCq2    C8  494   3.523   3.359  15.503 -0.5937  0.3839  0.3854
   32TCq2    O4  495   3.637   3.313  15.479 -0.1526  0.3155  0.0789
   32TCq2    C9  496   3.112   3.528  15.343 -0.0369  0.1297  0.0762
   32TCq2    O5  497   3.055   3.422  15.374  0.7251  0.0148 -0.1295
   32TCq2    O6  498   3.051   3.633  15.303 -0.4545 -0.2681  0.2205
   32TCq2    H2  499   3.272   3.725  15.262  2.2586  0.3072 -2.4272
   32TCq2    H3  500   3.272   3.344  15.452 -0.8949  0.2610 -0.2290
   32TCq2    H4  501   3.628   3.533  15.357 -0.0142 -1.8631  0.1997
   33MPD2     C  502   4.231   1.364  10.161 -0.2987 -0.5150  0.7371
   33MPD2    C1  503   4.306   1.253  10.135  0.0876  0.5412 -0.4567
   33MPD2    C2  504   4.391   1.258  10.030  0.0353 -0.3117 -0.0435
   33MPD2    C3  505   4.404   1.370   9.947 -0.2720  0.1734 -0.8344
   33MPD2    C4  506   4.324   1.477   9.964  0.7124  0.3447  0.5363
   33MPD2    C5  507   4.242   1.477  10.074 -0.5210  1.2943 -0.3266
   33MPD2     H  508   4.456   1.175  10.006 -0.0066 -1.5260  4.0769
   33MPD2    H1  509   4.309   1.558   9.894 -1.4556  0.8388  1.5717
   33MPD2    H2  510   4.164   1.364  10.247 -1.7698 -0.8543 -0.4144
   33MPD2    H3  511   4.168   1.556  10.081 -0.5223  1.4039 -1.6229
   33MPD2     N  512   4.483   1.364   9.833  0.2137 -0.5351 -0.3355
   33MPD2    H5  513   4.443   1.423   9.761  0.8536  0.6732  0.2988
   33MPD2    N1  514   4.291   1.140  10.225 -0.3278 -0.3630 -0.4229
   33MPD2    H7  515   4.227   1.154  10.302 -0.8707 -0.9343 -0.7655
   34TCq2    C1  516   4.604   1.313   9.826 -0.4501  0.4776  0.2069
   34TCq2    O2  517   4.674   1.269   9.921 -0.1912  0.1420 -0.3368
   34TCq2    C2  518   4.654   1.308   9.695 -0.1987 -0.2345  0.0283
   34TCq2    C3  519   0.065   1.310   9.674  0.8547 -0.1421  0.0566
   34TCq2    C4  520   0.117   1.316   9.549 -0.2803 -0.4583 -0.4826
   34TCq2    C5  521   0.041   1.346   9.438  0.0781 -0.8063  0.9006
   34TCq2    C6  522   4.629   1.363   9.464 -0.4453  0.0172  0.3295
   34TCq2    C7  523   4.576   1.341   9.589 -0.1680  0.9033  0.0009
   34TCq2    C8  524   4.542   1.411   9.361 -0.6260 -0.4159 -0.8982
   34TCq2    O4  525   4.463   1.496   9.395 -0.1201  0.4072  0.4810
   34TCq2    C9  526   0.262   1.299   9.535 -1.0241 -0.1812  0.2694
   34TCq2    O5  527   0.314   1.329   9.417  0.2876  0.4633 -0.2064
   34TCq2    O6  528   0.325   1.250   9.635 -0.0289  0.6097  0.5511
   34TCq2    H2  529   0.132   1.273   9.751  1.3394  3.3785  1.2924
   34TCq2    H3  530   0.072   1.357   9.334 -1.0118  0.1767  0.6758
   34TCq2    H4  531   4.467   1.344   9.594 -0.1755  1.1140 -0.2813
   35MPD2     C  532   0.947   2.975  12.043  1.8118 -0.2418 -0.3033
   35MPD2    C1  533   0.950   2.838  12.020 -0.9516 -0.5084 -0.0854
   35MPD2    C2  534   0.950   2.795  11.887  0.3752 -0.7733 -0.0147
   35MPD2    C3  535   0.925   2.881  11.781 -0.2355  0.2715 -0.2871
   35MPD2    C4  536   0.897   3.009  11.818 -0.0511 -0.4325 -1.0027
   35MPD2    C5  537   0.916   3.061  11.942 -0.0062  0.3689 -0.0297
   35MPD2     H  538   0.968   2.689  11.870  0.1424 -1.2904  2.9257
   35MPD2    H1  539   0.877   3.087  11.746 -0.2075  0.8934  0.4858
   35MPD2    H2  540   0.947   3.016  12.143 -2.0859 -1.6992  0.3149
   35MPD2    H3  541   0.910   3.166  11.968  0.0559  0.6343 -1.0612
   35MPD2     N  542   0.916   2.832  11.650  0.7634  0.2298 -0.1284
   35MPD2    H5  543   0.943   2.735  11.637  2.1234  0.1033  3.5371
   35MPD2    N1  544   0.956   2.748  12.128 -0.5112 -0.0195 -0.4176
   35MPD2    H7  545   0.944   2.793  12.218  1.8559  1.0456 -0.6454
   36TCq2    C1  546   0.898   2.910  11.534 -0.4526 -0.2614 -0.6309
   36TCq2    O2  547   0.903   3.031  11.525 -0.1220  0.3918 -0.0472
   36TCq2    C2  548   0.916   2.833  11.416  0.7051 -0.0383  0.1066
   36TCq2    C3  549   0.954   2.909  11.309  0.2318  0.3978 -0.0111
   36TCq2    C4  550   0.899   2.888  11.189  0.0880  0.1190 -0.1264
   36TCq2    C5  551   0.800   2.799  11.166  0.2292  0.0271  0.1008
   36TCq2    C6  552   0.771   2.718  11.276 -0.2107  0.0083  0.2559
   36TCq2    C7  553   0.830   2.726  11.398 -1.0222 -0.0121 -0.3352
   36TCq2    C8  554   0.687   2.607  11.247  0.2909  0.5216 -0.6843
   36TCq2    O4  555   0.685   2.515  11.330  0.2094 -0.0134  0.0695
   36TCq2    C9  556   0.927   2.980  11.083  0.0694  0.2449 -0.7109
   36TCq2    O5  557   1.018   3.062  11.090  0.1426  0.0297  0.2990
   36TCq2    O6  558   0.838   2.973  10.991 -0.1322  0.2930 -0.4627
   36TCq2    H2  559   1.025   2.989  11.329 -0.9552  1.4701 -0.0814
   36TCq2    H3  560   0.776   2.783  11.062  3.2659  0.7040 -0.7038
   36TCq2    H4  561   0.791   2.648  11.462  0.3008 -2.4897 -2.5761
   37TMC2    C1  562   2.125   3.525  11.361 -0.5982  0.8793 -0.4478
   37TMC2    C2  563   2.114   3.658  11.335  0.3065  0.7588 -0.3598
   37TMC2    C3  564   2.221   3.721  11.283  1.4112 -0.0174  0.3382
   37TMC2    C4  565   2.232   3.457  11.311 -0.2943  0.0153  0.1431
   37TMC2    C5  566   2.338   3.529  11.259 -0.4962  0.0892 -0.3911
   37TMC2    C6  567   2.335   3.664  11.247 -0.6411 -0.0969  0.0920
   37TMC2     C  568   2.022   3.471  11.450  0.3748 -0.2248 -0.0938
   37TMC2     O  569   1.934   3.544  11.472  0.4639  0.2743 -0.1065
   37TMC2     H  570   2.028   3.713  11.370  1.3602  1.4668  1.1127
   37TMC2    H1  571   2.228   3.348  11.310  2.9208 -0.1282  1.3752
   37TMC2    H2  572   2.429   3.712  11.220  0.7728 -3.0442 -0.1390
   37TMC2    C7  573   2.468   3.466  11.234  0.5343 -0.3401 -0.3137
   37TMC2    C8  574   2.209   3.869  11.296  0.2115 -0.4456  1.2505
   37TMC2    O1  575   2.565   3.539  11.221  0.4387 -0.6294  0.2385
   37TMC2    O2  576   2.137   3.928  11.379 -0.9146 -0.3894  1.0632
   37TMC2    O5  577   2.296   3.924  11.206 -0.5504  0.2868 -0.4745
   37TMC2    H5  578   2.335   3.854  11.150 -0.1145  0.5362 -0.4826
   38MPD2     C  579   1.860   3.162  11.831  0.3108 -0.1681 -0.3131
   38MPD2    C1  580   1.992   3.148  11.811  0.6653  0.2691 -0.1848
   38MPD2    C2  581   2.063   3.221  11.713 -0.7414 -0.0747 -0.0181
   38MPD2    C3  582   1.992   3.304  11.626 -0.0832 -0.0279  0.3004
   38MPD2    C4  583   1.859   3.312  11.637 -0.2147 -0.3261  0.1649
   38MPD2    C5  584   1.799   3.241  11.739  0.8341  0.3452  0.0191
   38MPD2     H  585   2.171   3.217  11.708 -0.6120  2.1211  1.2527
   38MPD2    H1  586   1.791   3.358  11.566  0.8228  0.3423 -0.3892
   38MPD2    H2  587   1.797   3.110  11.902 -1.5334  1.0054 -1.0997
   38MPD2    H3  588   1.693   3.259  11.754  0.3260 -1.4669 -1.4973
   38MPD2     N  589   2.066   3.368  11.532  0.7310 -0.7227  0.1196
   38MPD2    H5  590   2.162   3.337  11.524 -0.1616 -3.1629 -1.4034
   38MPD2    N1  591   2.072   3.062  11.887 -0.0653 -0.0927 -0.5444
   38MPD2    H7  592   2.173   3.066  11.883 -0.1255 -1.6946 -4.1733
   39MPD2     C  593   0.879   0.270   1.608 -0.0152  0.0006 -0.1404
   39MPD2    C1  594   0.769   0.253   1.684  0.0909 -0.4258  0.8675
   39MPD2    C2  595   0.651   0.213   1.615 -0.8061 -0.1925 -0.0809
   39MPD2    C3  596   0.634   0.210   1.481  0.1451 -0.0688 -0.1403
   39MPD2    C4  597   0.744   0.233   1.404 -0.6551 -0.0377  0.6165
   39MPD2    C5  598   0.860   0.265   1.467 -0.9287 -0.7255  0.7395
   39MPD2     H  599   0.563   0.201   1.678 -0.3342 -1.3683  0.3616
   39MPD2    H1  600   0.731   0.239   1.297  0.6380 -2.2264  0.3442
   39MPD2    H2  601   0.978   0.295   1.644  0.0507 -0.8889  0.2877
   39MPD2    H3  602   0.949   0.264   1.405 -0.4850  0.1434  1.3637
   39MPD2     N  603   0.510   0.180   1.414  0.0810 -0.2746  0.0135
   39MPD2    H5  604   0.502   0.167   1.314  0.2654  0.3638 -0.0868
   39MPD2    N1  605   0.772   0.267   1.823  0.0662 -0.0375  0.2222
   39MPD2    H7  606   0.856   0.310   1.860 -0.8320 -0.9330  3.3786
   40TCq2    C1  607   0.678   0.221   1.908  0.2004  0.4783 -0.9860
   40TCq2    O2  608   0.597   0.129   1.882 -0.1851  0.3223 -0.0159
   40TCq2    C2  609   0.704   0.255   2.051  0.1120  0.6029  0.2649
   40TCq2    C3  610   0.593   0.243   2.129 -0.1772  0.2753  0.0150
   40TCq2    C4  611   0.594   0.285   2.256 -0.0423  0.4728 -0.3568
   40TCq2    C5  612   0.709   0.343   2.304  0.4645  0.2269  0.0887
   40TCq2    C6  613   0.817   0.362   2.221 -2.0519  0.3057  0.3254
   40TCq2    C7  614   0.820   0.316   2.088  0.3761  0.0884  0.4041
   40TCq2    C8  615   0.934   0.403   2.297 -0.6576 -0.1809 -0.2250
   40TCq2    O4  616   0.947   0.360   2.412  0.3974 -0.0883 -0.2623
   40TCq2    C9  617   0.487   0.256   2.355  0.1857 -0.5547 -0.1475
   40TCq2    O5  618   0.379   0.218   2.304  0.0500 -0.4488  0.1767
   40TCq2    O6  619   0.486   0.308   2.473  0.6481 -0.3378 -0.6513
   40TCq2    H2  620   0.499   0.203   2.091 -0.4618  1.2908 -0.3447
   40TCq2    H3  621   0.710   0.372   2.408 -1.8400  0.0729  0.1572
   40TCq2    H4  622   0.913   0.301   2.034 -0.5618  0.2335 -1.2502
   41TMC2    C1  623   4.538   2.977  13.789 -0.0552  0.3173 -0.3308
   41TMC2    C2  624   4.624   3.077  13.841  0.2477  0.1430  0.4583
   41TMC2    C3  625   4.661   3.178  13.749 -0.1147  0.4400 -0.1125
   41TMC2    C4  626   4.494   2.982  13.660 -0.2629 -0.3943  0.0088
   41TMC2    C5  627   4.544   3.077  13.574 -0.7017  0.1429 -0.8568
   41TMC2    C6  628   4.630   3.176  13.615 -0.3331  0.4630 -0.6484
   41TMC2     C  629   4.495   2.857  13.867  0.7246 -0.2102  0.3065
   41TMC2     O  630   4.444   2.771  13.793  0.3121 -0.0742  0.7512
   41TMC2     H  631   4.667   3.065  13.939 -0.1470 -0.0340  0.6072
   41TMC2    H1  632   4.422   2.911  13.622 -0.1022  0.1895 -1.3732
   41TMC2    H2  633   4.661   3.257  13.551  0.1617 -0.6953 -1.8644
   41TMC2    C7  634   4.494   3.078  13.439  0.5108 -0.7996  0.5176
   41TMC2    C8  635   0.029   3.287  13.783  0.1235  0.1810 -0.2375
   41TMC2    O1  636   4.387   3.025  13.426  0.1799  0.3503  0.0368
   41TMC2    O2  637   0.091   3.337  13.690 -0.0926  0.1334  0.0417
   41TMC2    O5  638   0.061   3.286  13.916 -0.1100 -0.0548 -0.3208
   41TMC2    H5  639   4.707   3.280  13.976  0.7982  1.4816  0.9696
   42MPD2     C  640   4.360   2.660  14.051 -0.4934 -0.3337  0.9478
   42MPD2    C1  641   4.449   2.759  14.089  0.5314 -0.0840  0.1982
   42MPD2    C2  642   4.480   2.772  14.222  0.3078 -0.7325 -0.2760
   42MPD2    C3  643   4.439   2.684  14.315 -0.2568 -0.2521  0.4146
   42MPD2    C4  644   4.356   2.580  14.272  0.8907  0.3455 -0.4799
   42MPD2    C5  645   4.313   2.572  14.143  0.0675 -0.2708  0.0018
   42MPD2     H  646   4.561   2.844  14.234 -0.6081  0.3079 -0.3400
   42MPD2    H1  647   4.334   2.498  14.339  0.4702 -0.2808 -1.3794
   42MPD2    H2  648   4.328   2.654  13.948  2.7949 -1.6457  0.0047
   42MPD2    H3  649   4.253   2.490  14.106  1.1311 -1.0521  0.0305
   42MPD2     N  650   4.500   2.678  14.450  0.6624  0.6669  0.4072
   42MPD2    H5  651   4.466   2.612  14.519  3.1280 -0.5766  0.4300
   42MPD2    N1  652   4.504   2.862  14.005 -0.1094 -0.0705 -0.2077
   42MPD2    H7  653   4.564   2.935  14.045 -0.1870 -0.4391  0.5965
   43MPD2     C  654   0.511   1.146   0.894  0.3572 -0.0134  0.2538
   43MPD2    C1  655   0.609   1.088   0.973 -0.5531 -0.1686 -0.3238
   43MPD2    C2  656   0.575   1.081   1.107  0.4082 -0.3350 -0.6453
   43MPD2    C3  657   0.447   1.119   1.152  0.5161  0.4828  1.0070
   43MPD2    C4  658   0.347   1.148   1.064 -0.2630 -0.2179  0.5184
   43MPD2    C5  659   0.379   1.166   0.934  0.2122  0.2246 -0.1999
   43MPD2     H  660   0.644   1.045   1.182  1.0294  0.0435 -1.0327
   43MPD2    H1  661   0.247   1.174   1.096  0.0266  0.9003  0.5341
   43MPD2    H2  662   0.536   1.179   0.794  0.8657 -0.5340  0.2138
   43MPD2    H3  663   0.308   1.204   0.861  1.8222 -0.7963 -2.3056
   43MPD2     N  664   0.408   1.117   1.290  0.1937  0.4417 -0.1384
   43MPD2    H5  665   0.315   1.152   1.312 -0.2656 -0.8896  0.0517
   43MPD2    N1  666   0.741   1.053   0.928  0.0650 -0.3265 -0.7065
   43MPD2    H7  667   0.796   1.004   0.998  0.6229  2.0481  0.5095
   44TCq2    C1  668   0.442   1.017   1.869 -0.9160 -0.3463  1.1053
   44TCq2    O2  669   0.564   1.014   1.884  0.9086  0.1946  0.6829
   44TCq2    C2  670   0.375   1.067   1.750  0.4532 -0.2640  0.6190
   44TCq2    C3  671   0.266   1.141   1.761 -0.3448 -0.0718 -0.2468
   44TCq2    C4  672   0.224   1.201   1.651  0.0725  0.0709  0.3089
   44TCq2    C5  673   0.291   1.184   1.530  0.1076 -0.1406  0.0413
   44TCq2    C6  674   0.415   1.120   1.528 -0.2294 -0.5042  0.7854
   44TCq2    C7  675   0.461   1.062   1.641 -0.3162 -0.2464  0.6329
   44TCq2    C8  676   0.490   1.104   1.400  0.4732 -0.5559 -0.2605
   44TCq2    O4  677   0.610   1.093   1.401  0.0647 -0.2007 -0.2730
   44TCq2    C9  678   0.096   1.269   1.664  0.2593  0.2197 -0.3434
   44TCq2    O5  679   0.047   1.305   1.554  0.1783  0.1317  0.2535
   44TCq2    O6  680   0.044   1.268   1.780  0.8001  0.2562 -0.1642
   44TCq2    H2  681   0.217   1.142   1.857  2.9147 -2.3606  1.4410
   44TCq2    H3  682   0.258   1.245   1.447  0.6846 -0.8943 -0.7507
   44TCq2    H4  683   0.557   1.013   1.650  0.3333  1.1715  1.4419
   45TMC2    C1  684   2.371   2.715   9.748  0.3484  0.0803 -0.2327
   45TMC2    C2  685   2.464   2.643   9.814 -0.0963 -0.3100  0.2490
   45TMC2    C3  686   2.495   2.674   9.943  0.3064 -0.3293  0.1555
   45TMC2    C4  687   2.319   2.828   9.810  0.1064  0.4076 -0.2289
   45TMC2    C5  688   2.365   2.861   9.933  0.2200  0.1774 -0.5800
   45TMC2    C6  689   2.443   2.782  10.008  0.5993 -0.5269 -0.3203
   45TMC2     C  690   2.299   2.654   9.635 -0.6264  0.0886  0.0827
   45TMC2     O  691   2.325   2.538   9.614  0.4871 -0.1066 -0.4352
   45TMC2     H  692   2.488   2.551   9.761  0.5546 -0.3387  0.5935
   45TMC2    H1  693   2.238   2.888   9.770  0.9829  0.0791 -2.5070
   45TMC2    H2  694   2.501   2.824  10.089  3.0084  0.0257 -2.3154
   45TMC2    C7  695   2.338   2.997   9.983  0.1632  0.0826  0.3251
   45TMC2    C8  696   2.552   2.569  10.028 -0.3725  0.0217 -0.0995
   45TMC2    O1  697   2.349   3.025  10.099  0.0597  0.4468  0.0460
   45TMC2    O2  698   2.648   2.502  10.001 -0.1144  0.6793 -0.2299
   45TMC2    O5  699   2.491   2.587  10.147  0.7396  0.1978  0.7139
   45TMC2    H5  700   2.404   2.630  10.137  0.4159 -0.2896  1.4186
   46MPD2     C  701   2.118   2.553   9.429 -0.3347  0.1752 -0.1600
   46MPD2    C1  702   2.137   2.688   9.460 -0.4869 -0.2372  0.4016
   46MPD2    C2  703   2.070   2.788   9.384  0.5281  0.5465  0.9782
   46MPD2    C3  704   1.986   2.753   9.277  0.4411 -0.0310 -0.5762
   46MPD2    C4  705   1.978   2.620   9.249 -0.0768 -0.3000  0.6509
   46MPD2    C5  706   2.043   2.519   9.320 -0.6647  0.1481 -0.2103
   46MPD2     H  707   2.091   2.892   9.407  2.1648 -0.0858  2.3629
   46MPD2    H1  708   1.908   2.580   9.176 -0.8609 -0.6984  1.6281
   46MPD2    H2  709   2.152   2.469   9.489  2.5911 -0.3306 -2.5230
   46MPD2    H3  710   2.018   2.415   9.302  0.1674  0.2626 -2.0086
   46MPD2     N  711   1.901   2.845   9.222  0.2194  0.1895 -0.1389
   46MPD2    H5  712   1.909   2.938   9.261 -2.7535 -0.0459  0.9831
   46MPD2    N1  713   2.212   2.737   9.567 -0.3124  0.0095  0.0690
   46MPD2    H7  714   2.237   2.836   9.567  0.4805 -0.1892 -0.9422
   47TMC2    C1  715   4.102   2.776   9.499  0.4136 -0.1987 -1.4307
   47TMC2    C2  716   4.106   2.731   9.370 -0.0639 -0.0968  0.2493
   47TMC2    C3  717   4.037   2.807   9.272  0.5083 -0.5582 -0.1857
   47TMC2    C4  718   4.007   2.867   9.543  0.2179 -0.9494  0.4560
   47TMC2    C5  719   3.939   2.937   9.449  0.3919 -0.5936  0.9293
   47TMC2    C6  720   3.953   2.906   9.312 -0.2104 -0.4172  0.0204
   47TMC2     C  721   4.156   2.683   9.604 -0.2028  0.0353 -0.0470
   47TMC2     O  722   4.117   2.702   9.720 -0.0592  0.1413  0.5940
   47TMC2     H  723   4.168   2.649   9.336 -1.4618 -0.1944 -2.0370
   47TMC2    H1  724   3.991   2.874   9.650 -1.4951  0.8901  0.0914
   47TMC2    H2  725   3.887   2.944   9.235 -2.2066  0.3728  2.1164
   47TMC2    C7  726   3.845   3.039   9.495  0.0649 -0.0757  0.0977
   47TMC2    C8  727   4.023   2.743   9.146  0.0470 -0.3025 -0.1127
   47TMC2    O1  728   3.759   3.078   9.415  0.0503  0.1627  1.0068
   47TMC2    O2  729   4.064   2.625   9.138  0.3423 -0.7449 -0.2720
   47TMC2    O5  730   4.055   2.841   9.061  0.3569  0.1528  0.6198
   47TMC2    H5  731   4.052   2.934   9.091 -0.1484  0.3163  0.0461
   48MPD2     C  732   4.322   2.528   9.785  0.6065  0.1536  0.6246
   48MPD2    C1  733   4.332   2.528   9.653 -0.2401  0.2881  0.0583
   48MPD2    C2  734   4.414   2.432   9.598  0.1162 -0.3994 -0.2455
   48MPD2    C3  735   4.489   2.343   9.674 -0.0191  0.6950  0.0076
   48MPD2    C4  736   4.472   2.353   9.811 -0.5355  0.0121  0.3203
   48MPD2    C5  737   4.388   2.440   9.867  0.1390  1.6536  0.1187
   48MPD2     H  738   4.426   2.437   9.491  2.7993  0.1328  0.0853
   48MPD2    H1  739   4.522   2.291   9.884  1.2617  0.5965 -0.4210
   48MPD2    H2  740   4.260   2.598   9.839 -0.0689 -2.0784  2.7529
   48MPD2    H3  741   4.387   2.456   9.975 -0.2545  0.1791  0.3388
   48MPD2     N  742   4.589   2.263   9.610 -0.3366 -0.0234 -0.4583
   48MPD2    H5  743   4.580   2.250   9.510  0.1468 -0.0869 -0.4952
   48MPD2    N1  744   4.255   2.605   9.563  0.2689  0.6473 -0.3250
   48MPD2    H7  745   4.267   2.592   9.464 -0.1842  1.1366 -0.4425
   49MPD2     C  746   3.085   1.525  10.040 -0.3495  0.1794  0.5931
   49MPD2    C1  747   3.063   1.408   9.970  0.0764  0.0377 -0.5093
   49MPD2    C2  748   3.012   1.294  10.035  0.0629 -0.2331  0.5952
   49MPD2    C3  749   2.991   1.297  10.173  0.1213  0.7499  0.6038
   49MPD2    C4  750   3.023   1.411  10.242  0.7167  0.2765  0.1036
   49MPD2    C5  751   3.068   1.518  10.174 -0.2084  0.5160  0.0477
   49MPD2     H  752   2.969   1.206   9.987 -1.1143 -0.6700  2.4741
   49MPD2    H1  753   3.006   1.427  10.348  0.2904 -1.2035  0.2591
   49MPD2    H2  754   3.125   1.621  10.007  0.7466 -1.0105 -1.5572
   49MPD2    H3  755   3.088   1.609  10.230  2.4206  0.4217 -0.7484
   49MPD2     N  756   2.942   1.185  10.250 -0.3649 -0.6989 -0.3472
   49MPD2    H5  757   2.928   1.201  10.350  1.2184  0.8011 -0.3555
   49MPD2    N1  758   3.086   1.397   9.834  0.0311  0.3057 -0.3189
   49MPD2    H7  759   3.062   1.304   9.800  2.5197 -0.9387  1.3858
   50TCq2    C1  760   3.146   1.490   9.752  0.3945  0.3486 -0.2174
   50TCq2    O2  761   3.195   1.600   9.783  0.0533  0.0059  0.1080
   50TCq2    C2  762   3.149   1.452   9.614 -0.3297 -0.2178 -1.3813
   50TCq2    C3  763   3.215   1.536   9.533 -1.0570  0.8820  0.1452
   50TCq2    C4  764   3.197   1.527   9.399 -0.0174  0.3239 -0.1210
   50TCq2    C5  765   3.122   1.427   9.345  0.1986 -0.0891  0.6138
   50TCq2    C6  766   3.055   1.337   9.429  0.2417 -0.4801 -0.5370
   50TCq2    C7  767   3.055   1.362   9.568 -0.1540 -0.2901 -0.6836
   50TCq2    C8  768   2.965   1.237   9.372  0.1091 -0.0222 -0.3675
   50TCq2    O4  769   2.967   1.222   9.250  0.2149  0.2231  0.3585
   50TCq2    C9  770   3.268   1.619   9.315  0.6381  0.4197  0.6208
   50TCq2    O5  771   3.231   1.626   9.197 -0.3049  0.2748  0.1633
   50TCq2    O6  772   3.335   1.714   9.370  0.1297 -0.4029 -0.8759
   50TCq2    H2  773   3.276   1.617   9.573 -0.0595  0.8330 -1.3060
   50TCq2    H3  774   3.117   1.413   9.237 -1.5775 -0.1819  0.7088
   50TCq2    H4  775   2.972   1.328   9.628  1.6059 -2.4340  0.5602
   51MPD2     C  776   2.160   4.099   1.744  0.8034  0.3961  1.0966
   51MPD2    C1  777   2.268   4.107   1.646  0.5613  0.1205  0.2687
   51MPD2    C2  778   2.393   4.153   1.697 -0.5076 -0.1693 -0.1556
   51MPD2    C3  779   2.425   4.137   1.829  0.6921  0.6039 -0.1708
   51MPD2    C4  780   2.333   4.080   1.915 -0.0710  0.5453 -0.6314
   51MPD2    C5  781   2.207   4.064   1.869  0.4409  0.0199  0.9452
   51MPD2     H  782   2.467   4.199   1.631 -1.5697 -0.5034 -1.5758
   51MPD2    H1  783   2.362   4.059   2.018  0.2138 -0.2696 -0.8790
   51MPD2    H2  784   2.058   4.068   1.725  1.2440 -0.9978  1.0128
   51MPD2    H3  785   2.137   4.035   1.946  1.0517  1.9088  2.2147
   51MPD2     N  786   2.547   4.182   1.879 -0.1673 -0.3660  0.3860
   51MPD2    H5  787   2.547   4.177   1.980  2.2131 -1.1484  0.3423
   51MPD2    N1  788   2.253   4.092   1.509 -0.1977 -0.3665 -0.4319
   51MPD2    H7  789   2.329   4.105   1.443  0.1721  0.4028  0.1458
   52TCq2    C1  790   2.646   4.256   1.815 -0.2787 -0.1871 -0.1778
   52TCq2    O2  791   2.647   4.288   1.697  0.0071  0.8172 -0.1741
   52TCq2    C2  792   2.748   4.303   1.917  0.0676  0.8828 -0.6109
   52TCq2    C3  793   2.781   4.232   2.033  0.4130  0.0890 -0.6704
   52TCq2    C4  794   2.867   4.292   2.117 -0.0611 -0.1983 -0.3392
   52TCq2    C5  795   2.916   4.416   2.092 -0.7832  0.2634 -0.0446
   52TCq2    C6  796   2.874   4.480   1.977  0.5281  0.1857 -0.3773
   52TCq2    C7  797   2.793   4.424   1.884  0.1967  0.5590 -0.6250
   52TCq2    C8  798   2.927   4.616   1.954 -0.3135  0.3182  0.2547
   52TCq2    O4  799   2.866   4.665   1.865 -0.0170 -0.5432  0.3629
   52TCq2    C9  800   2.916   4.226   2.238  0.6897  0.2634 -0.1022
   52TCq2    O5  801   2.857   4.116   2.261  0.4939  0.0274  0.2544
   52TCq2    O6  802   3.021   4.276   2.287 -0.1817 -0.3953  0.2878
   52TCq2    H2  803   2.745   4.133   2.058 -2.2745  1.6888  1.8366
   52TCq2    H3  804   2.995   4.459   2.152  0.5173 -2.5718  0.2901
   52TCq2    H4  805   2.754   4.485   1.803 -1.0560  2.3136  1.2887
   53TMC2    C1  806   3.089   3.168  11.502  0.6753 -0.1833  0.2285
   53TMC2    C2  807   3.224   3.188  11.492  0.0897  0.1075 -0.1271
   53TMC2    C3  808   3.293   3.257  11.587 -0.1400  0.1074 -0.4724
   53TMC2    C4  809   3.018   3.210  11.607  0.7287  0.3321  0.0447
   53TMC2    C5  810   3.095   3.279  11.702  0.3522  0.2770 -0.1574
   53TMC2    C6  811   3.226   3.299  11.698  0.3561  0.1909  0.5545
   53TMC2     C  812   3.017   3.145  11.377  0.4383  0.1696 -0.2373
   53TMC2     O  813   3.080   3.081  11.291  0.0773 -0.0910  0.0224
   53TMC2     H  814   3.278   3.150  11.405 -1.0346 -0.3085 -0.6475
   53TMC2    H1  815   2.911   3.191  11.614  0.4975  1.0302 -1.6306
   53TMC2    H2  816   3.268   3.384  11.751 -0.0981  0.6126  0.2408
   53TMC2    C7  817   3.025   3.320  11.820  0.0727 -0.3632  0.1247
   53TMC2    C8  818   3.434   3.270  11.580  1.0505  0.1552  0.2460
   53TMC2    O1  819   2.904   3.335  11.807  0.5036  0.5565  0.0698
   53TMC2    O2  820   3.488   3.309  11.478  0.3505  0.4423 -0.4323
   53TMC2    O5  821   3.482   3.289  11.695  0.5025  0.2535  0.4096
   53TMC2    H5  822   3.441   3.242  11.771  0.5588  0.4823  0.5848
   54MPD2     C  823   2.796   3.076  11.197 -0.1263 -0.2809  0.6035
   54MPD2    C1  824   2.795   3.189  11.276 -0.5283 -0.3114  1.0691
   54MPD2    C2  825   2.697   3.277  11.263  0.2805  0.4076 -0.0838
   54MPD2    C3  826   2.580   3.243  11.197  0.4130 -0.3135  0.8753
   54MPD2    C4  827   2.571   3.120  11.133 -0.3009 -0.2773  0.4678
   54MPD2    C5  828   2.681   3.039  11.132  1.0338  0.4118  0.3486
   54MPD2     H  829   2.709   3.369  11.320  2.5264 -1.2996  2.1975
   54MPD2    H1  830   2.483   3.083  11.082  1.1701 -3.6264  0.3891
   54MPD2    H2  831   2.879   3.007  11.188  0.6822  0.4545  2.4410
   54MPD2    H3  832   2.678   2.949  11.071  1.6998  1.7574 -1.6597
   54MPD2     N  833   2.463   3.327  11.203 -0.0009  0.5689  0.2819
   54MPD2    H5  834   2.370   3.286  11.190 -0.0086  0.8372 -0.4953
   54MPD2    N1  835   2.896   3.214  11.369 -0.3747 -0.0068  0.3545
   54MPD2    H7  836   2.886   3.284  11.442 -0.7387 -0.2960  0.5813
   55MPD2     C  837   3.848   0.493  17.424  0.5245 -0.2416  0.4043
   55MPD2    C1  838   3.815   0.463  17.556  0.7405  0.6375  0.2892
   55MPD2    C2  839   3.704   0.522  17.608 -0.1202  0.0466 -0.5400
   55MPD2    C3  840   3.632   0.620  17.535 -0.0178  0.1677 -0.2746
   55MPD2    C4  841   3.675   0.655  17.402  0.4458 -0.4417 -0.2298
   55MPD2    C5  842   3.780   0.584  17.348 -0.0662  0.0356  0.8681
   55MPD2     H  843   3.662   0.485   0.008  1.2532 -2.0722 -0.7671
   55MPD2    H1  844   3.625   0.728  17.338 -1.0793  0.0520  1.5248
   55MPD2    H2  845   3.930   0.438  17.378  0.7413 -1.0875  1.8004
   55MPD2    H3  846   3.808   0.612  17.248 -1.0754 -1.4306  0.1614
   55MPD2     N  847   3.526   0.688  17.596 -0.5983 -0.3661 -0.1185
   55MPD2    H5  848   3.507   0.664  17.693  0.2005 -0.1162  0.1016
   55MPD2    N1  849   3.890   0.362  17.621 -0.4004  0.4372  0.0353
   55MPD2    H7  850   3.962   0.320  17.563  0.3362 -0.5802  1.6730
   56TCq2    C1  851   3.872   0.317   0.054 -0.9855  0.0928 -0.5299
   56TCq2    O2  852   3.796   0.345   0.147  0.6760  0.8301 -0.2261
   56TCq2    C2  853   3.968   0.225   0.099  0.7515  0.8544 -0.4976
   56TCq2    C3  854   4.053   0.167   0.007 -0.6051 -0.2094  1.0536
   56TCq2    C4  855   4.165   0.098   0.051 -0.2168  0.0188  0.3402
   56TCq2    C5  856   4.191   0.078   0.180 -0.5449  0.3206  0.5593
   56TCq2    C6  857   4.099   0.125   0.271 -0.6614 -0.4764  0.7322
   56TCq2    C7  858   3.989   0.207   0.238  0.1621 -0.2927  0.0070
   56TCq2    C8  859   4.099   0.062   0.406  0.3902 -0.2793 -0.8546
   56TCq2    O4  860   4.199   0.002   0.435  0.3660  0.3030  0.0033
   56TCq2    C9  861   4.246   0.032  17.646 -0.2734  0.9151  0.0350
   56TCq2    O5  862   4.328   4.659  17.676 -0.3298  0.6459 -0.3718
   56TCq2    O6  863   4.240   0.082  17.532 -0.1388 -0.8941  0.3605
   56TCq2    H2  864   4.030   0.160  17.595  0.1909  1.0162  0.7884
   56TCq2    H3  865   4.279   0.018   0.201 -0.7038 -0.5446 -1.2228
   56TCq2    H4  866   3.932   0.258   0.314  1.4477  1.2884 -0.0908
   57TMC2    C1  867   2.963   1.997  13.349 -0.5410  0.6506 -0.1169
   57TMC2    C2  868   2.939   2.027  13.217  0.7997 -0.1135  0.6180
   57TMC2    C3  869   3.027   2.006  13.122  0.5076 -0.4491 -0.2551
   57TMC2    C4  870   3.088   1.956  13.381  0.7861  0.2802 -0.4210
   57TMC2    C5  871   3.173   1.932  13.279  0.5424 -0.4804  0.3972
   57TMC2    C6  872   3.151   1.960  13.146 -0.0362  0.3951  0.7146
   57TMC2     C  873   2.850   2.017  13.439 -0.3507 -0.4441  0.4442
   57TMC2     O  874   2.749   2.077  13.398 -0.3200 -0.6112 -0.2263
   57TMC2     H  875   2.843   2.065  13.183  1.5630  0.3506 -0.9755
   57TMC2    H1  876   3.128   1.939  13.480  3.5474 -2.1280 -1.9439
   57TMC2    H2  877   3.218   1.944  13.062  1.1558  0.3138  1.6720
   57TMC2    C7  878   3.280   1.836  13.308  0.6357  0.1344 -0.2998
   57TMC2    C8  879   2.984   2.026  12.983 -0.5048  0.1520 -0.2334
   57TMC2    O1  880   3.315   1.818  13.419  0.1836  0.2543 -0.5210
   57TMC2    O2  881   2.867   2.005  12.945 -0.2593  0.9663  0.0852
   57TMC2    O5  882   3.079   2.095  12.911 -0.2717 -0.9903  0.0123
   57TMC2    H5  883   3.162   2.096  12.962 -1.1374  0.9840  1.3921
   58MPD2     C  884   2.748   2.203  13.909  0.7763 -0.0701  0.2911
   58MPD2    C1  885   2.700   2.243  13.786 -0.6372  0.4795 -0.1263
   58MPD2    C2  886   2.752   2.179  13.674  0.0223 -0.1593 -0.0402
   58MPD2    C3  887   2.838   2.069  13.681 -0.8396  0.2048  0.6774
   58MPD2    C4  888   2.895   2.047  13.801 -0.7404 -0.5282  0.1270
   58MPD2    C5  889   2.854   2.112  13.912  0.2887 -0.1460 -0.4644
   58MPD2     H  890   2.714   2.210  13.577 -0.3769  1.4397  0.6225
   58MPD2    H1  891   2.965   1.965  13.813 -0.3777 -0.4073 -1.1145
   58MPD2    H2  892   2.728   2.252  14.004  4.0230  0.0125  0.9080
   58MPD2    H3  893   2.902   2.095  14.007  3.5933 -1.3113 -2.3541
   58MPD2     N  894   2.883   2.000  13.571  0.0407 -0.3552 -0.0087
   58MPD2    H5  895   2.955   1.928  13.580  1.0783  0.8874  1.4798
   58MPD2    N1  896   2.614   2.354  13.757  0.1397 -0.2732 -0.3248
   58MPD2    H7  897   2.583   2.372  13.662 -0.9173  0.6740  0.1930
   59MPD2     C  898   0.566   1.820  13.342 -0.4036 -0.1751  0.4361
   59MPD2    C1  899   0.649   1.825  13.235  0.1240 -0.2606  0.1663
   59MPD2    C2  900   0.752   1.920  13.240  0.5628  0.3930  0.0225
   59MPD2    C3  901   0.784   1.983  13.360  0.5829 -0.6713  0.3202
   59MPD2    C4  902   0.699   1.964  13.470 -0.0529  0.0018 -0.0370
   59MPD2    C5  903   0.592   1.891  13.451 -0.9562  0.6824  0.0855
   59MPD2     H  904   0.819   1.924  13.154 -1.3958  1.7866 -1.4337
   59MPD2    H1  905   0.708   2.018  13.563  1.1669 -0.7288  0.2730
   59MPD2    H2  906   0.472   1.766  13.343 -0.4460 -0.0929  1.2187
   59MPD2    H3  907   0.523   1.877  13.533 -0.6150 -1.3040  0.0256
   59MPD2     N  908   0.897   2.072  13.377 -0.2518 -0.5444  0.2257
   59MPD2    H5  909   0.912   2.102  13.473  0.6366 -2.8829  0.8100
   59MPD2    N1  910   0.629   1.757  13.111 -0.4711  0.6146  0.7778
   59MPD2    H7  911   0.699   1.776  13.040 -0.7033 -0.5749  0.2300
   60TCq2    C1  912   0.522   1.669  13.087  0.1916  0.3725  0.4081
   60TCq2    O2  913   0.459   1.613  13.177 -0.1399  0.5546  0.1076
   60TCq2    C2  914   0.500   1.637  12.952  0.2489 -0.0305  0.2747
   60TCq2    C3  915   0.397   1.543  12.923 -0.1229 -0.7105 -0.4828
   60TCq2    C4  916   0.375   1.515  12.791 -0.2984 -0.2079  0.3128
   60TCq2    C5  917   0.444   1.574  12.687  0.2415 -0.2038  1.3057
   60TCq2    C6  918   0.540   1.665  12.726  0.2547  0.4331  0.4232
   60TCq2    C7  919   0.574   1.702  12.856  0.2139  0.8447 -0.7464
   60TCq2    C8  920   0.633   1.673  12.624 -0.1021 -0.2371 -0.4008
   60TCq2    O4  921   0.675   1.563  12.580 -0.3673 -0.2284  0.3717
   60TCq2    C9  922   0.277   1.420  12.756 -0.0248  0.2166  0.1620
   60TCq2    O5  923   0.279   1.371  12.640  0.3345 -0.1307  0.1696
   60TCq2    O6  924   0.196   1.383  12.843  0.0763  0.4711  0.1796
   60TCq2    H2  925   0.353   1.491  13.007 -0.8916  0.5601 -0.1110
   60TCq2    H3  926   0.420   1.541  12.587 -0.2164  1.0983  0.9922
   60TCq2    H4  927   0.661   1.760  12.882  0.5220  0.8108 -1.6935
   61MPD2     C  928   0.348   2.910  14.799 -0.2809 -0.2125 -0.5591
   61MPD2    C1  929   0.387   3.015  14.878 -0.1100  0.2948  0.3164
   61MPD2    C2  930   0.466   3.118  14.819 -0.4568 -0.1574  0.0723
   61MPD2    C3  931   0.500   3.105  14.689 -0.5897  0.0407  0.0045
   61MPD2    C4  932   0.469   2.996  14.618  1.1229 -0.1433 -0.3920
   61MPD2    C5  933   0.400   2.893  14.670  0.2847  0.4041  0.0001
   61MPD2     H  934   0.494   3.210  14.869  1.8212 -2.0852  2.3536
   61MPD2    H1  935   0.511   2.985  14.519  1.8614 -0.4181 -0.0483
   61MPD2    H2  936   0.294   2.826  14.842  0.5467 -1.0134 -1.0722
   61MPD2    H3  937   0.346   2.813  14.620  2.3185 -0.9057 -0.1167
   61MPD2     N  938   0.578   3.203  14.614 -0.5111  0.4390 -0.1576
   61MPD2    H5  939   0.591   3.194  14.514 -1.1814  2.2717 -0.4184
   61MPD2    N1  940   0.339   3.035  15.010  0.5825  0.4767  0.1112
   61MPD2    H7  941   0.372   3.119  15.056 -1.1703  1.0404  0.3220
   62TCq2    C1  942   0.260   2.947  15.084 -0.6653 -0.0841  0.0069
   62TCq2    O2  943   0.229   2.828  15.057  0.5236 -0.1697  0.0852
   62TCq2    C2  944   0.208   3.011  15.201 -0.4550 -0.0017  0.3710
   62TCq2    C3  945   0.153   2.933  15.307 -0.2147  0.1383  0.8296
   62TCq2    C4  946   0.110   3.008  15.417  0.2710 -0.7783  1.0962
   62TCq2    C5  947   0.119   3.142  15.420 -0.0713 -0.4080 -0.0508
   62TCq2    C6  948   0.158   3.215  15.315  0.1596  0.4130 -0.0201
   62TCq2    C7  949   0.207   3.150  15.203  0.3647 -0.1364  0.3368
   62TCq2    C8  950   0.159   3.357  15.310 -0.1726  0.6142  0.0170
   62TCq2    O4  951   0.237   3.407  15.227 -0.5202  0.2750  0.4062
   62TCq2    C9  952   0.072   2.933  15.539 -0.2016 -0.6981 -0.3962
   62TCq2    O5  953   0.072   2.807  15.538  0.0976 -0.4937  0.5890
   62TCq2    O6  954   0.070   3.003  15.642  0.5457 -0.2010 -0.1517
   62TCq2    H2  955   0.152   2.824  15.308  2.1289  0.1180  0.3654
   62TCq2    H3  956   0.091   3.192  15.512  0.1883 -0.4385  0.0462
   62TCq2    H4  957   0.235   3.205  15.114 -1.0454  0.1100  0.0345
   63TMC2    C1  958   4.667   3.135  11.242 -0.4789 -0.5348  0.2058
   63TMC2    C2  959   0.039   3.089  11.334 -1.1069 -0.2896  0.2675
   63TMC2    C3  960   0.142   3.173  11.353  0.6601  0.2450  0.0138
   63TMC2    C4  961   4.679   3.244  11.166  0.1962 -0.2152  0.3350
   63TMC2    C5  962   0.073   3.316  11.184  0.0162  0.0972 -0.1129
   63TMC2    C6  963   0.169   3.279  11.270 -0.5206 -0.1116  0.5608
   63TMC2     C  964   4.564   3.036  11.215  0.6960 -0.3850  0.1599
   63TMC2     O  965   4.596   2.926  11.254  0.3633 -0.1915  0.2202
   63TMC2     H  966   0.017   3.009  11.404  1.6576 -3.0358 -2.0402
   63TMC2    H1  967   4.612   3.264  11.083  0.3155  1.0440  0.5476
   63TMC2    H2  968   0.263   3.333  11.275 -1.0638  0.9803 -1.0091
   63TMC2    C7  969   0.084   3.425  11.094 -1.0327  0.6470  0.0909
   63TMC2    C8  970   0.198   3.180  11.490  0.3016 -0.1599  0.1419
   63TMC2    O1  971   0.004   3.421  10.998 -0.1022 -0.1455  0.0540
   63TMC2    O2  972   0.184   3.084  11.568 -0.1030 -0.0051  0.0097
   63TMC2    O5  973   0.294   3.273  11.491  0.5282 -0.0036  0.6698
   63TMC2    H5  974   0.263   3.353  11.443  0.1709  0.0433  0.9768
   64MPD2     C  975   4.130   2.847  11.039  0.1080  0.3718  0.5981
   64MPD2    C1  976   4.257   2.787  11.045  0.4798 -0.0906 -0.2155
   64MPD2    C2  977   4.366   2.856  11.097 -0.1271 -0.3738 -0.1691
   64MPD2    C3  978   4.344   2.991  11.139  0.2828  0.0351  0.8008
   64MPD2    C4  979   4.215   3.043  11.133 -0.6418 -0.0848  0.2674
   64MPD2    C5  980   4.107   2.970  11.086  0.5184 -0.1340 -0.0928
   64MPD2     H  981   4.463   2.810  11.106  0.3824  0.4781 -1.2418
   64MPD2    H1  982   4.189   3.142  11.168 -1.1008  0.2279 -0.9701
   64MPD2    H2  983   4.044   2.803  10.989  2.0359 -0.4151 -2.0193
   64MPD2    H3  984   4.008   3.015  11.081  0.2761 -0.8517 -1.4981
   64MPD2     N  985   4.448   3.079  11.178 -0.1093 -0.3807  1.0685
   64MPD2    H5  986   4.428   3.178  11.173  0.0382 -0.4202 -0.1366
   64MPD2    N1  987   4.282   2.662  10.978  0.2038 -0.4260  0.2763
   64MPD2    H7  988   4.379   2.639  10.958  0.6752  0.3812  1.6636
   65MPD2     C  989   0.985   3.438  15.193 -0.1495 -0.2648  0.8003
   65MPD2    C1  990   0.985   3.338  15.096  0.0763 -0.0668 -0.2968
   65MPD2    C2  991   1.021   3.208  15.138  0.0372  0.1703  0.0165
   65MPD2    C3  992   1.041   3.176  15.275 -0.1486 -0.3069  0.5569
   65MPD2    C4  993   1.028   3.281  15.368  0.0956  0.6286  0.0299
   65MPD2    C5  994   1.007   3.409  15.326  0.7398 -0.0403 -0.8037
   65MPD2     H  995   1.034   3.124  15.070  1.6055  0.6049 -0.2271
   65MPD2    H1  996   1.036   3.263  15.474 -0.1752  0.3806  0.0080
   65MPD2    H2  997   0.962   3.540  15.162  0.1947 -1.0257 -1.9172
   65MPD2    H3  998   1.007   3.479  15.408  0.5506  0.5832 -1.3400
   65MPD2     N  999   1.053   3.050  15.320 -0.1071 -0.1679 -0.1729
   65MPD2    H5 1000   1.053   3.033  15.420 -0.7357  0.7911 -0.0020
   65MPD2    N1 1001   0.957   3.376  14.960 -0.2949  0.1290  0.4715
   65MPD2    H7 1002   0.988   3.469  14.935  0.8758 -0.3535  0.1204
   66TCq2    C1 1003   0.919   3.307  14.851  0.6668  0.7299 -0.5890
   66TCq2    O2 1004   0.926   3.337  14.729 -0.5696 -0.3283 -0.2955
   66TCq2    C2 1005   0.883   3.164  14.864 -0.1172 -0.2182 -0.3116
   66TCq2    C3 1006   0.909   3.089  14.752  0.4062  0.7757  0.1335
   66TCq2    C4 1007   0.855   2.964  14.747  0.2552  0.7152  0.5810
   66TCq2    C5 1008   0.782   2.907  14.848  0.4993  0.1034 -0.5824
   66TCq2    C6 1009   0.747   2.991  14.954  0.0214  0.4464  0.2545
   66TCq2    C7 1010   0.802   3.123  14.970 -0.4513 -0.4169 -0.1734
   66TCq2    C8 1011   0.681   2.922  15.055  0.4614  0.1453  0.7962
   66TCq2    O4 1012   0.672   2.798  15.046 -0.2968 -0.0496 -0.3646
   66TCq2    C9 1013   0.892   2.877  14.635  0.4923  1.0988 -0.8788
   66TCq2    O5 1014   0.856   2.756  14.633  1.3174  0.0172 -0.5537
   66TCq2    O6 1015   0.950   2.922  14.533  0.6867  0.7913 -0.3742
   66TCq2    H2 1016   0.981   3.114  14.674  0.8082  1.3273  0.6840
   66TCq2    H3 1017   0.745   2.806  14.836 -0.9157  0.5565 -0.0453
   66TCq2    H4 1018   0.767   3.190  15.048  0.8774 -0.9525  0.8815
   67MPD2     C 1019   0.771   1.915  13.886  0.3016  0.6882  0.9809
   67MPD2    C1 1020   0.721   2.035  13.939 -0.0960 -0.0055  0.0742
   67MPD2    C2 1021   0.590   2.076  13.911 -0.6182 -0.4050 -0.4370
   67MPD2    C3 1022   0.503   1.998  13.844  0.8304  0.3717  0.3319
   67MPD2    C4 1023   0.557   1.879  13.801  0.1748 -0.5838  0.1934
   67MPD2    C5 1024   0.685   1.837  13.816  0.0947 -0.3750 -0.1110
   67MPD2     H 1025   0.556   2.175  13.940 -0.0051 -0.3575  0.1198
   67MPD2    H1 1026   0.495   1.810  13.746  1.0275  0.1252 -1.6261
   67MPD2    H2 1027   0.869   1.876  13.912  0.5807  0.1640 -0.8987
   67MPD2    H3 1028   0.733   1.751  13.771  3.8823  2.6034 -1.6829
   67MPD2     N 1029   0.369   2.022  13.813  0.4069 -0.4145 -0.1510
   67MPD2    H5 1030   0.321   1.948  13.762 -0.0661 -1.2155  1.4514
   67MPD2    N1 1031   0.791   2.115  14.032 -0.0789  0.0319  0.2386
   67MPD2    H7 1032   0.739   2.196  14.065 -1.0930  0.0677 -1.4060
   68TCq2    C1 1033   0.919   2.091  14.084  0.2121  0.1142  0.4669
   68TCq2    O2 1034   1.000   2.008  14.042 -0.4321 -0.1599 -1.0598
   68TCq2    C2 1035   0.958   2.177  14.192 -0.5031  0.0950  0.0651
   68TCq2    C3 1036   0.882   2.285  14.225 -0.1223  0.3514  0.4213
   68TCq2    C4 1037   0.922   2.354  14.333  0.1761  0.4303  0.2028
   68TCq2    C5 1038   1.039   2.333  14.394 -0.2097 -0.1558 -0.3493
   68TCq2    C6 1039   1.110   2.224  14.357 -0.2658  0.2736 -0.2370
   68TCq2    C7 1040   1.067   2.141  14.262  0.2046 -0.0664  0.3380
   68TCq2    C8 1041   1.233   2.197  14.430  0.2273 -1.2250  0.0449
   68TCq2    O4 1042   1.314   2.118  14.391  0.3280 -0.3379 -0.1224
   68TCq2    C9 1043   0.834   2.460  14.385  0.2009  0.2671  0.3973
   68TCq2    O5 1044   0.890   2.539  14.472  0.3240 -0.2104 -0.0824
   68TCq2    O6 1045   0.710   2.473  14.365 -0.1757 -0.8892 -0.4247
   68TCq2    H2 1046   0.782   2.303  14.187 -0.6755 -0.8842  1.2981
   68TCq2    H3 1047   1.075   2.407  14.465  1.2348 -2.3009  1.1448
   68TCq2    H4 1048   1.132   2.058  14.236 -0.0993 -0.2978  0.3017
   69TMC2    C1 1049   3.565   3.766  12.757  0.7931  0.4933  0.3366
   69TMC2    C2 1050   3.621   3.878  12.815  0.0399 -0.5589  0.5157
   69TMC2    C3 1051   3.710   3.946  12.732  0.5709 -0.2016 -0.2706
   69TMC2    C4 1052   3.590   3.731  12.623  0.1353 -0.0241  0.0375
   69TMC2    C5 1053   3.690   3.791  12.561  0.8239  0.7821  0.1588
   69TMC2    C6 1054   3.753   3.903  12.606 -0.5171 -0.2066  0.3987
   69TMC2     C 1055   3.508   3.669  12.843  0.0513 -0.2999  0.2562
   69TMC2     O 1056   3.457   3.578  12.785 -0.9605 -0.7813 -0.0822
   69TMC2     H 1057   3.588   3.912  12.912 -2.1919 -0.9702 -0.1037
   69TMC2    H1 1058   3.560   3.633  12.586  0.1557  0.3332 -0.9254
   69TMC2    H2 1059   3.826   3.952  12.542 -2.2407  0.5513 -0.9771
   69TMC2    C7 1060   3.726   3.749  12.429  0.7454 -0.1031  0.0204
   69TMC2    C8 1061   3.724   4.081  12.764  0.9609  0.6800  0.9285
   69TMC2    O1 1062   3.839   3.746  12.395  0.4239 -0.1366  0.1963
   69TMC2    O2 1063   3.728   4.132  12.875  0.8200  0.2894  0.0499
   69TMC2    O5 1064   3.709   4.148  12.645  0.2422 -0.2696  0.5791
   69TMC2    H5 1065   3.704   4.087  12.568  0.4618  2.0347 -1.2561
   70MPD2     C 1066   3.581   3.626  13.204  0.2279  0.0078  0.2061
   70MPD2    C1 1067   3.521   3.597  13.081  0.1717  0.7458  0.3960
   70MPD2    C2 1068   3.418   3.503  13.077  0.4450 -0.3259 -0.5338
   70MPD2    C3 1069   3.378   3.435  13.186 -0.3417 -0.0330  0.0279
   70MPD2    C4 1070   3.439   3.467  13.308  0.0485 -0.2248  0.0056
   70MPD2    C5 1071   3.545   3.556  13.309  0.7684  0.5923 -0.0047
   70MPD2     H 1072   3.363   3.495  12.984 -1.2304 -0.1094  0.4423
   70MPD2    H1 1073   3.420   3.407  13.396 -0.1038 -0.8642 -0.4643
   70MPD2    H2 1074   3.651   3.709  13.208  0.9651 -0.4787 -2.8894
   70MPD2    H3 1075   3.598   3.571  13.402  0.1219 -0.5139  0.5515
   70MPD2     N 1076   3.279   3.336  13.190 -0.0007 -0.1705 -0.1518
   70MPD2    H5 1077   3.264   3.292  13.281  2.5061  0.1650  0.4261
   70MPD2    N1 1078   3.555   3.685  12.971  0.0877 -0.0617 -0.2166
   70MPD2    H7 1079   3.619   3.759  12.997  0.1846 -0.9879  2.1951
   71TMC2    C1 1080   0.918   4.651   1.786  0.0225 -0.0512  0.1916
   71TMC2    C2 1081   1.043   4.670   1.851 -0.2363  0.1639  0.0214
   71TMC2    C3 1082   1.045   4.669   1.986 -0.5395 -0.5063 -0.3237
   71TMC2    C4 1083   0.810   4.609   1.866 -0.4714 -0.0512  0.4296
   71TMC2    C5 1084   0.823   4.608   2.004  0.6839  0.1513 -0.3038
   71TMC2    C6 1085   0.935   4.647   2.067  0.6951 -0.7236  0.4701
   71TMC2     C 1086   0.897   4.631   1.639  0.4028  0.3397 -0.8562
   71TMC2     O 1087   0.778   4.620   1.607 -0.1419 -0.6214  0.0940
   71TMC2     H 1088   1.131   4.710   1.800  0.9007 -1.2860  0.8332
   71TMC2    H1 1089   0.719   4.578   1.815  0.9958 -3.3163 -0.2133
   71TMC2    H2 1090   0.952   4.645   2.174 -2.0382  0.4056  0.9221
   71TMC2    C7 1091   0.718   4.551   2.085 -0.1487  0.3886  0.2623
   71TMC2    C8 1092   1.144   0.036   2.042 -0.3047  0.1485  0.1663
   71TMC2    O1 1093   0.739   4.573   2.204 -0.8766 -0.1745 -0.0042
   71TMC2    O2 1094   1.135   0.154   2.080 -0.0180 -0.3875 -0.4099
   71TMC2    O5 1095   1.259   4.696   2.026 -0.6105  0.4665 -0.7629
   71TMC2    H5 1096   1.247   4.599   2.028  0.9070  0.2727 -1.3264
   72MPD2     C 1097   1.094   4.488   1.185 -0.2667 -0.3391  0.1447
   72MPD2    C1 1098   0.969   4.527   1.226  0.3125  0.2963 -0.1300
   72MPD2    C2 1099   0.942   4.558   1.355 -0.2144 -0.4748 -0.7596
   72MPD2    C3 1100   1.042   4.556   1.448  0.2030 -0.3743  0.1720
   72MPD2    C4 1101   1.167   4.520   1.406 -0.5753 -0.9368  0.3163
   72MPD2    C5 1102   1.197   4.483   1.279 -0.0408  0.1305 -0.9976
   72MPD2     H 1103   0.845   4.591   1.390 -0.0745  0.0697 -0.8928
   72MPD2    H1 1104   1.252   4.527   1.473  0.9160 -0.6733 -1.6118
   72MPD2    H2 1105   1.126   4.462   1.085  1.8363 -1.4719  1.1009
   72MPD2    H3 1106   1.296   4.450   1.252  0.4455  2.8503 -2.5792
   72MPD2     N 1107   1.024   4.595   1.585 -0.0489  0.1110  0.5561
   72MPD2    H5 1108   1.108   4.593   1.642  0.0930  0.4508  0.3542
   72MPD2    N1 1109   0.857   4.535   1.143  0.0949 -0.3687  0.1097
   72MPD2    H7 1110   0.771   4.574   1.178 -1.0783  0.5491 -3.7752
   73TMC2    C1 1111   4.717   0.907  13.591 -0.3770  0.5153  0.0667
   73TMC2    C2 1112   4.584   0.926  13.613  0.0389  0.5678 -0.2370
   73TMC2    C3 1113   4.534   0.873  13.734 -0.4452 -0.0521 -0.1320
   73TMC2    C4 1114   0.075   0.843  13.681  0.0796  0.1882  0.3477
   73TMC2    C5 1115   0.033   0.811  13.809 -0.5912  0.5616  0.5589
   73TMC2    C6 1116   4.620   0.818  13.830 -0.2407 -0.4480 -0.5057
   73TMC2     C 1117   0.067   1.021  13.540  0.8106 -0.6294 -0.6487
   73TMC2     O 1118   0.185   1.020  13.578  0.3117 -0.0641  0.2813
   73TMC2     H 1119   4.520   0.965  13.535 -1.9070  1.8103  2.0211
   73TMC2    H1 1120   0.172   0.819  13.639  0.6915  1.7395  0.8793
   73TMC2    H2 1121   4.580   0.772  13.919 -0.0928  0.5239  0.0680
   73TMC2    C7 1122   0.117   0.865  13.918 -0.4555 -0.3149  0.6370
   73TMC2    C8 1123   4.393   0.862  13.719 -0.2377 -0.6751  0.6682
   73TMC2    O1 1124   0.094   0.846  14.035  0.5154  0.5838  0.4386
   73TMC2    O2 1125   4.326   0.939  13.652 -0.0445  0.2259  0.8592
   73TMC2    O5 1126   4.351   0.802  13.829  0.8591 -0.5670  0.0194
   73TMC2    H5 1127   4.421   0.758  13.881  0.4037 -1.6515 -0.2801
   74MPD2     C 1128   0.166   1.393  13.225 -0.1588  0.1230  0.3041
   74MPD2    C1 1129   0.221   1.376  13.352 -0.1096  0.5140  0.6203
   74MPD2    C2 1130   0.160   1.277  13.428  0.0147  1.2864 -0.3206
   74MPD2    C3 1131   0.055   1.204  13.369 -0.4680  0.2565  0.7560
   74MPD2    C4 1132   4.712   1.245  13.253  0.3047  0.6735  0.2178
   74MPD2    C5 1133   0.049   1.347  13.189 -0.3711 -0.0096  0.1431
   74MPD2     H 1134   0.199   1.246  13.524  3.4784 -0.1238 -2.2038
   74MPD2    H1 1135   4.620   1.199  13.220 -0.1379  1.2100  0.7002
   74MPD2    H2 1136   0.203   1.482  13.176  2.0968 -0.2725  1.2689
   74MPD2    H3 1137   0.006   1.386  13.097 -1.8515 -1.6673  0.1177
   74MPD2     N 1138   0.000   1.097  13.438  0.1284 -0.2732  0.3794
   74MPD2    H5 1139   4.643   1.054  13.394  0.6718  0.7846 -1.6591
   74MPD2    N1 1140   0.329   1.455  13.393  0.8292 -0.2464 -0.0805
   74MPD2    H7 1141   0.385   1.503  13.322  0.2777  0.1772 -0.2237
   75TCq2    C1 1142   0.307   2.146  13.838 -0.2916  0.1989  0.4849
   75TCq2    O2 1143   0.356   2.251  13.878 -0.1585 -0.1223  0.4643
   75TCq2    C2 1144   0.166   2.144  13.787 -0.8958 -0.8072 -0.3084
   75TCq2    C3 1145   0.129   2.035  13.711  0.3876 -0.4086  0.3824
   75TCq2    C4 1146   0.024   2.049  13.626  0.0087 -0.3561  0.5545
   75TCq2    C5 1147   4.677   2.167  13.610  0.2453 -0.0309  0.1488
   75TCq2    C6 1148   0.004   2.274  13.671  0.2920  0.2117  0.1221
   75TCq2    C7 1149   0.104   2.267  13.774 -0.0386 -0.3735 -0.4735
   75TCq2    C8 1150   4.692   2.402  13.630 -0.3639 -0.3534  0.1343
   75TCq2    O4 1151   4.709   2.494  13.708 -0.5002 -0.2675  0.4787
   75TCq2    C9 1152   4.699   1.923  13.571 -0.3452  0.1857 -0.3335
   75TCq2    O5 1153   4.595   1.928  13.498 -0.2394  0.0599  0.1538
   75TCq2    O6 1154   0.041   1.814  13.583  0.5637  0.4506  0.2203
   75TCq2    H2 1155   0.159   1.936  13.746 -1.4015 -0.5873  1.4347
   75TCq2    H3 1156   4.584   2.169  13.555  0.8367  1.6251 -0.7755
   75TCq2    H4 1157   0.152   2.358  13.807  0.8328 -0.4827 -1.4603
   76MPD2     C 1158   4.541   3.095  12.134  0.2396 -0.2702 -0.6689
   76MPD2    C1 1159   4.467   3.059  12.021 -0.8242  0.1272  0.6004
   76MPD2    C2 1160   4.469   2.923  11.985 -0.5407 -0.6306  0.0593
   76MPD2    C3 1161   4.538   2.828  12.057 -0.1877 -0.1231  0.4040
   76MPD2    C4 1162   4.615   2.866  12.166 -0.4288 -0.7915  0.6159
   76MPD2    C5 1163   4.609   3.000  12.204  0.1927 -0.0833  0.2474
   76MPD2     H 1164   4.419   2.901  11.892 -2.0994 -1.2389  1.0393
   76MPD2    H1 1165   4.647   2.788  12.234 -0.6651 -1.6802 -0.2810
   76MPD2    H2 1166   4.536   3.192  12.182 -0.4904  0.0875 -1.4540
   76MPD2    H3 1167   4.659   3.033  12.294 -0.7762 -3.8962  2.1952
   76MPD2     N 1168   4.545   2.695  12.027  0.0174 -0.9192 -0.1093
   76MPD2    H5 1169   4.619   2.636  12.066  0.5133 -1.4120 -1.8142
   76MPD2    N1 1170   4.378   3.147  11.951  0.3649 -0.1883  0.5540
   76MPD2    H7 1171   4.323   3.105  11.878  1.5039  0.8783 -0.9089
   77TCq2    C1 1172   4.501   2.643  11.906  0.5627  0.3228  0.6965
   77TCq2    O2 1173   4.417   2.691  11.827 -0.0740 -0.2979 -0.2855
   77TCq2    C2 1174   4.537   2.506  11.892 -0.0867  1.1213 -0.0226
   77TCq2    C3 1175   4.461   2.433  11.808  0.6290 -0.0474  0.0032
   77TCq2    C4 1176   4.486   2.303  11.799 -0.0453  0.4789  0.6471
   77TCq2    C5 1177   4.576   2.245  11.877  0.1583 -0.0133 -0.4415
   77TCq2    C6 1178   4.650   2.317  11.963  0.6151 -0.3562  0.0477
   77TCq2    C7 1179   4.634   2.451  11.964  0.1153 -0.4755  0.4407
   77TCq2    C8 1180   0.017   2.249  12.057 -0.3289 -0.2484  0.1781
   77TCq2    O4 1181   0.039   2.130  12.039 -0.8070  0.2522  0.0099
   77TCq2    C9 1182   4.393   2.221  11.732  0.2163  0.2190  0.6361
   77TCq2    O5 1183   4.289   2.286  11.701 -0.5061  0.4211  0.3325
   77TCq2    O6 1184   4.396   2.095  11.747  0.1417  0.3369 -0.4627
   77TCq2    H2 1185   4.398   2.487  11.738 -1.4864 -2.0075  0.3927
   77TCq2    H3 1186   4.581   2.137  11.877 -2.3722 -0.1282  0.3582
   77TCq2    H4 1187   4.715   2.514  11.998  1.1692  0.6371 -4.1508
   78MPD1     C 1188   1.664   2.258   0.344  0.4775  0.1447 -0.1927
   78MPD1    C1 1189   1.659   2.365   0.432  0.3577  0.8010  0.5882
   78MPD1    C2 1190   1.596   2.342   0.558  0.1635 -0.8995  0.2796
   78MPD1    C3 1191   1.534   2.222   0.581  0.5085 -0.3229 -0.6481
   78MPD1    C4 1192   1.537   2.115   0.490 -0.5583 -0.5689  0.2508
   78MPD1    C5 1193   1.602   2.142   0.373 -0.1589  0.6974  0.2664
   78MPD1     H 1194   1.606   2.418   0.635 -2.9325 -0.2990  0.0869
   78MPD1    H1 1195   1.493   2.016   0.499 -1.1394 -0.3891 -0.6242
   78MPD1    H2 1196   1.714   2.274   0.249  0.3090 -3.8848 -0.9496
   78MPD1    H3 1197   1.600   2.061   0.301 -0.1025  0.8116  0.1355
   78MPD1     N 1198   1.463   2.201   0.703 -0.2680  0.1160  0.1789
   78MPD1    H5 1199   1.423   2.109   0.714  1.3633 -0.5564  0.3609
   78MPD1    N1 1200   1.747   2.471   0.415  0.4103  0.1149 -0.5820
   78MPD1    H6 1201   1.746   2.509   0.320 -0.7023 -2.1453 -1.4756
   78MPD1    H7 1202   1.728   2.541   0.486 -0.6874 -1.0067  0.2156
   79TCq2    C1 1203   1.437   2.293   0.798  0.2232  0.6715 -0.0653
   79TCq2    O2 1204   1.455   2.415   0.799  0.5557  1.1882  0.2364
   79TCq2    C2 1205   1.371   2.235   0.912  0.3101 -0.7900 -0.3368
   79TCq2    C3 1206   1.383   2.105   0.954 -0.1894  0.5919 -0.4740
   79TCq2    C4 1207   1.337   2.061   1.072 -0.2791 -0.0576 -0.7595
   79TCq2    C5 1208   1.269   2.143   1.151  0.2529  0.0399  0.2611
   79TCq2    C6 1209   1.253   2.275   1.113  0.3050 -0.6211 -0.4859
   79TCq2    C7 1210   1.310   2.321   0.996  0.1902  0.0585 -0.0743
   79TCq2    C8 1211   1.189   2.363   1.207  1.0277 -0.0331  0.1668
   79TCq2    O4 1212   1.193   2.478   1.175 -0.1286 -0.3718  0.6010
   79TCq2    C9 1213   1.352   1.918   1.101  0.0831  0.5047  0.9269
   79TCq2    O5 1214   1.314   1.870   1.214  0.2186  0.2999 -0.3893
   79TCq2    O6 1215   1.422   1.849   1.017  0.0419  0.0120  0.8812
   79TCq2    H2 1216   1.437   2.039   0.889 -0.4205 -1.1194  1.0755
   79TCq2    H3 1217   1.245   2.117   1.253 -1.1556  2.3259  0.5090
   79TCq2    H4 1218   1.310   2.428   0.979 -0.0053 -0.0772 -0.9018
   80MPD2     C 1219   3.029   2.946  12.147  0.5059 -0.0472 -0.4968
   80MPD2    C1 1220   2.943   2.931  12.035  0.1863 -0.2692 -0.1960
   80MPD2    C2 1221   2.806   2.932  12.061 -0.1546 -0.5440 -0.0046
   80MPD2    C3 1222   2.748   2.951  12.183  0.2989 -0.4315 -0.0982
   80MPD2    C4 1223   2.836   2.968  12.292 -0.7437  0.1012  0.0757
   80MPD2    C5 1224   2.973   2.956  12.268 -0.0506  0.3455  0.0191
   80MPD2     H 1225   2.735   2.931  11.979 -1.9872 -0.3729  1.5596
   80MPD2    H1 1226   2.796   2.986  12.391 -0.1545 -0.5052  0.4218
   80MPD2    H2 1227   3.136   2.933  12.136 -0.1314 -3.2616 -3.0487
   80MPD2    H3 1228   3.035   2.961  12.357 -1.3559 -0.8747  0.9878
   80MPD2     N 1229   2.605   2.955  12.205 -0.4575  0.0116  0.2932
   80MPD2    H5 1230   2.584   2.955  12.305  1.6172  0.1107  0.7373
   80MPD2    N1 1231   2.992   2.915  11.901 -0.5321 -0.3928  0.1098
   80MPD2    H7 1232   2.919   2.909  11.832 -1.5855 -3.7682  1.5431
   81TCq2    C1 1233   3.120   2.928  11.858  0.8290  0.2218  0.3355
   81TCq2    O2 1234   3.216   2.971  11.925  0.1353 -0.7986  0.1539
   81TCq2    C2 1235   3.147   2.881  11.723 -1.0635 -0.0742  0.1254
   81TCq2    C3 1236   3.266   2.908  11.662 -0.0974 -0.7479 -0.5557
   81TCq2    C4 1237   3.284   2.868  11.529 -0.2926  0.0187 -0.1145
   81TCq2    C5 1238   3.184   2.804  11.464 -0.6190  0.6290 -0.3854
   81TCq2    C6 1239   3.067   2.782  11.533  0.6634  0.2499 -0.2896
   81TCq2    C7 1240   3.051   2.807  11.668  0.2616 -0.3121 -1.0662
   81TCq2    C8 1241   2.993   2.682  11.471 -0.2870  0.1334 -0.3635
   81TCq2    O4 1242   2.983   2.669  11.352 -0.2483 -0.4046 -0.4834
   81TCq2    C9 1243   3.401   2.906  11.461  0.2160  0.0543  0.0158
   81TCq2    O5 1244   3.508   2.917  11.522  0.1520 -0.1405  0.1986
   81TCq2    O6 1245   3.401   2.905  11.336 -0.7350 -0.2386 -0.4150
   81TCq2    H2 1246   3.340   2.975  11.705  0.8897 -1.5190 -1.0657
   81TCq2    H3 1247   3.208   2.775  11.363 -1.1349 -2.9182  0.5104
   81TCq2    H4 1248   2.958   2.784  11.719  1.0039 -0.1958  0.3343
   82MPD2     C 1249   1.707   2.003  10.003 -0.3214  0.2704 -0.1321
   82MPD2    C1 1250   1.601   2.076  10.035 -0.1898 -1.0510 -0.3289
   82MPD2    C2 1251   1.577   2.111  10.169  0.9218 -0.1244  0.4963
   82MPD2    C3 1252   1.661   2.069  10.267  0.6604  0.0084 -0.2240
   82MPD2    C4 1253   1.775   1.997  10.232  0.1580 -0.3286  0.4195
   82MPD2    C5 1254   1.794   1.961  10.098  0.5120 -0.2051  0.1259
   82MPD2     H 1255   1.495   2.178  10.189  1.3855  0.2838  1.0049
   82MPD2    H1 1256   1.851   1.970  10.305  2.1034 -1.9477 -2.1970
   82MPD2    H2 1257   1.728   1.976   9.900 -2.3217  1.0035 -0.7328
   82MPD2    H3 1258   1.873   1.894  10.068  0.3366 -0.5290  0.3803
   82MPD2     N 1259   1.642   2.091  10.407 -0.3297  0.1653 -0.4438
   82MPD2    H5 1260   1.714   2.067  10.475 -0.3222  3.5913  0.7707
   82MPD2    N1 1261   1.529   2.132   9.927  0.5333 -0.3753 -0.3391
   82MPD2    H7 1262   1.558   2.106   9.833 -2.2832  0.0771 -1.3089
   83TCq2    C1 1263   1.522   2.107  10.461 -0.2889  0.0062 -0.8468
   83TCq2    O2 1264   1.412   2.103  10.405  0.3528  0.7432  0.1549
   83TCq2    C2 1265   1.523   2.099  10.603  0.0091  0.0639  0.3814
   83TCq2    C3 1266   1.640   2.136  10.667 -0.0538 -0.0264 -0.2562
   83TCq2    C4 1267   1.651   2.110  10.801  0.2568  0.7472 -0.9583
   83TCq2    C5 1268   1.554   2.044  10.872  0.2292  0.5777  0.0708
   83TCq2    C6 1269   1.443   2.007  10.804  0.2016 -0.3085 -0.0322
   83TCq2    C7 1270   1.425   2.031  10.668  0.1179 -0.5387 -0.0530
   83TCq2    C8 1271   1.362   1.911  10.874  0.6018 -0.7870  0.2241
   83TCq2    O4 1272   1.372   1.907  10.996 -0.3230 -0.3243 -0.3220
   83TCq2    C9 1273   1.762   2.161  10.869  0.2594  0.3117 -0.1226
   83TCq2    O5 1274   1.770   2.145  10.992  0.4107  0.4454 -0.0047
   83TCq2    O6 1275   1.858   2.214  10.802  0.5121 -0.1601 -0.1019
   83TCq2    H2 1276   1.719   2.196  10.622  0.6347 -0.2830  0.6091
   83TCq2    H3 1277   1.562   2.031  10.979  2.6982  2.1241  0.0859
   83TCq2    H4 1278   1.333   2.018  10.612 -0.5553  0.3027  0.8643
   84TCq2    C1 1279   2.900   1.056  10.216 -1.0935  0.6358 -0.8533
   84TCq2    O2 1280   2.902   1.005  10.106 -0.0062 -0.1710 -0.7405
   84TCq2    C2 1281   2.846   0.973  10.318  0.2604  0.8245 -0.4002
   84TCq2    C3 1282   2.800   0.853  10.283 -0.4451 -0.3935  0.0205
   84TCq2    C4 1283   2.758   0.757  10.377  0.4025 -0.3179  0.7258
   84TCq2    C5 1284   2.759   0.794  10.508  0.1752 -0.0078 -1.0554
   84TCq2    C6 1285   2.810   0.917  10.545 -0.7947 -0.3126  0.2937
   84TCq2    C7 1286   2.854   1.015  10.451  0.2853 -0.4351 -0.7299
   84TCq2    C8 1287   2.777   0.959  10.681 -0.3914 -0.1208  0.0300
   84TCq2    O4 1288   2.744   0.874  10.757 -0.0824  0.0773  0.4825
   84TCq2    C9 1289   2.710   0.629  10.335 -0.5241 -0.1969  0.4088
   84TCq2    O5 1290   2.670   0.620  10.215  1.0540 -0.1156 -0.3097
   84TCq2    O6 1291   2.701   0.538  10.427 -0.0057  0.3227  0.0758
   84TCq2    H2 1292   2.785   0.833  10.177  0.4733  1.7159 -0.4990
   84TCq2    H3 1293   2.711   0.730  10.581  1.6032  1.4168  1.1200
   84TCq2    H4 1294   2.918   1.096  10.483  0.2546 -0.6034 -0.2556
   85MPD2     C 1295   2.900   3.724  16.721 -0.3973  0.1436 -0.2657
   85MPD2    C1 1296   2.841   3.695  16.597 -0.1863 -0.7815  0.1913
   85MPD2    C2 1297   2.855   3.792  16.499  0.4085  0.7875  0.6216
   85MPD2    C3 1298   2.932   3.906  16.520 -0.3607 -0.3917 -0.3696
   85MPD2    C4 1299   3.000   3.925  16.639  0.0842  0.3765 -0.0644
   85MPD2    C5 1300   2.990   3.829  16.744 -0.1788  0.7099 -0.0720
   85MPD2     H 1301   2.800   3.782  16.406 -0.5279  0.3187  1.2294
   85MPD2    H1 1302   3.083   3.995  16.645 -1.4451  2.3201 -1.5553
   85MPD2    H2 1303   2.893   3.652  16.801 -1.3577  0.9983  0.4149
   85MPD2    H3 1304   3.059   3.836  16.827 -2.2592 -0.7419  1.7691
   85MPD2     N 1305   2.953   3.993  16.406 -0.3565 -0.2746 -0.1588
   85MPD2    H5 1306   2.895   3.978  16.324 -3.4780  0.7516  1.8259
   85MPD2    N1 1307   2.759   3.588  16.570  0.2038 -0.0480  0.3263
   85MPD2    H7 1308   2.709   3.588  16.482  2.0863  1.3487 -0.7385
   86TCq2    C1 1309   3.018   4.115  16.417  0.7188 -0.2993  0.0473
   86TCq2    O2 1310   3.052   4.175  16.519 -0.2745 -0.5288 -0.2678
   86TCq2    C2 1311   3.037   4.188  16.289  0.5552  0.5838  0.2285
   86TCq2    C3 1312   3.048   4.327  16.287 -0.6261  0.6205 -0.5685
   86TCq2    C4 1313   3.082   4.396  16.166  0.4668 -0.1731 -0.1882
   86TCq2    C5 1314   3.098   4.318  16.051  0.5902 -0.6006 -0.0819
   86TCq2    C6 1315   3.085   4.181  16.058 -0.1408 -0.7413  0.2285
   86TCq2    C7 1316   3.051   4.110  16.173 -0.2274 -0.2458 -0.4388
   86TCq2    C8 1317   3.123   4.103  15.936 -0.1310 -0.4232  0.7203
   86TCq2    O4 1318   3.180   3.996  15.951  0.1430  0.7220 -0.3501
   86TCq2    C9 1319   3.103   4.534  16.169  0.1008 -0.2264 -0.3702
   86TCq2    O5 1320   3.168   4.569  16.069  0.0053 -0.7097 -0.1592
   86TCq2    O6 1321   3.040   4.611  16.247  0.2497 -0.6015 -0.5989
   86TCq2    H2 1322   3.041   4.383  16.379  2.3543  0.9854 -0.5943
   86TCq2    H3 1323   3.117   4.372  15.959 -0.1455 -1.3310 -0.6569
   86TCq2    H4 1324   3.033   4.003  16.164 -0.5789 -0.3729  1.9801
   87MPD2     C 1325   1.018   2.891   1.045  0.9402 -0.0917 -0.1188
   87MPD2    C1 1326   0.912   2.904   1.131  0.1764  0.2085  0.1856
   87MPD2    C2 1327   0.845   3.030   1.140  0.2130  0.6436 -0.3041
   87MPD2    C3 1328   0.887   3.137   1.063 -0.3034 -0.3550 -0.2065
   87MPD2    C4 1329   0.991   3.117   0.975  0.3490 -0.0634 -0.2114
   87MPD2    C5 1330   1.058   2.999   0.961  0.5025  0.0502  0.3916
   87MPD2     H 1331   0.766   3.042   1.213  1.7024  1.2861  1.2127
   87MPD2    H1 1332   1.020   3.201   0.913  1.0066  0.0666  0.2688
   87MPD2    H2 1333   1.063   2.794   1.030  1.2733  0.0649 -0.1387
   87MPD2    H3 1334   1.135   2.989   0.886 -0.4309 -0.6998 -0.4774
   87MPD2     N 1335   0.830   3.270   1.072  0.4327 -0.0803 -0.1600
   87MPD2    H5 1336   0.854   3.334   0.997 -1.0106 -0.5644 -1.0288
   87MPD2    N1 1337   0.854   2.795   1.200 -0.4188  0.3723 -0.6873
   87MPD2    H7 1338   0.875   2.703   1.165  0.0525 -0.3546  1.5013
   88TCq2    C1 1339   0.783   2.805   1.312 -0.4822 -0.2647 -1.1757
   88TCq2    O2 1340   0.766   2.903   1.389 -0.2280 -0.0092 -0.5579
   88TCq2    C2 1341   0.732   2.678   1.362 -0.8530  0.3185  0.2516
   88TCq2    C3 1342   0.637   2.693   1.457  0.5759  0.7406 -0.7966
   88TCq2    C4 1343   0.562   2.586   1.497 -0.0439  0.7772 -0.3185
   88TCq2    C5 1344   0.574   2.465   1.438  0.9342  0.2108  0.3165
   88TCq2    C6 1345   0.659   2.459   1.329  0.1795  0.5293  0.6717
   88TCq2    C7 1346   0.736   2.561   1.291 -0.1543  0.2246  0.2061
   88TCq2    C8 1347   0.678   2.331   1.260  0.2293  0.2883  0.1325
   88TCq2    O4 1348   0.742   2.339   1.156 -0.4846  0.5578 -0.4430
   88TCq2    C9 1349   0.486   2.599   1.619 -0.1843 -0.0515 -0.5323
   88TCq2    O5 1350   0.453   2.491   1.678 -0.7767  0.3570  0.7873
   88TCq2    O6 1351   0.489   2.713   1.674  0.0834 -0.0976  0.5800
   88TCq2    H2 1352   0.620   2.789   1.504 -0.4284  0.0282  0.2790
   88TCq2    H3 1353   0.525   2.377   1.477  0.9803  0.9112  1.9478
   88TCq2    H4 1354   0.804   2.542   1.208  1.1526 -0.5738  1.4726
   89MPD2     C 1355   1.224   0.444   2.341  0.1705 -0.1643  0.0185
   89MPD2    C1 1356   1.155   0.512   2.241 -0.4816  0.3843  0.6312
   89MPD2    C2 1357   1.214   0.593   2.150 -0.0151  0.1270 -0.0381
   89MPD2    C3 1358   1.351   0.613   2.156  0.1078 -0.4381  0.4016
   89MPD2    C4 1359   1.423   0.553   2.258 -0.5779 -0.0020 -0.6588
   89MPD2    C5 1360   1.358   0.467   2.343 -0.4460  0.0748  0.2293
   89MPD2     H 1361   1.158   0.644   2.073  0.9063 -0.9995 -1.4488
   89MPD2    H1 1362   1.527   0.572   2.282 -0.6774 -0.6206  0.2694
   89MPD2    H2 1363   1.180   0.373   2.410 -0.7900 -0.2706 -0.7154
   89MPD2    H3 1364   1.415   0.418   2.420  1.7129  0.3869 -1.1809
   89MPD2     N 1365   1.406   0.700   2.058 -0.1172 -0.1338 -0.1188
   89MPD2    H5 1366   1.343   0.743   1.991 -0.5060 -0.1611  0.2225
   89MPD2    N1 1367   1.020   0.478   2.219  0.3036  0.8522 -0.0958
   89MPD2    H7 1368   0.983   0.509   2.129 -0.9018 -1.0113 -0.2325
   90TCq2    C1 1369   1.541   0.724   2.042 -0.2418 -0.1592  0.8441
   90TCq2    O2 1370   1.633   0.667   2.103  0.7709  0.1045 -0.3093
   90TCq2    C2 1371   1.583   0.828   1.951 -0.6080  0.4986 -0.2795
   90TCq2    C3 1372   1.710   0.876   1.986  0.2980  0.4488  0.5992
   90TCq2    C4 1373   1.774   0.955   1.892  0.2519  0.1598  0.1269
   90TCq2    C5 1374   1.717   0.984   1.771 -0.0817 -0.6605 -0.1547
   90TCq2    C6 1375   1.595   0.934   1.740  0.4951 -0.2459  0.5145
   90TCq2    C7 1376   1.527   0.862   1.830  0.2457  0.4765 -0.0816
   90TCq2    C8 1377   1.517   0.993   1.632 -0.5710 -0.0707  0.4005
   90TCq2    O4 1378   1.393   0.992   1.644  0.6838  0.2166 -0.3571
   90TCq2    C9 1379   1.904   1.008   1.916 -0.9318 -0.5879 -0.1920
   90TCq2    O5 1380   1.948   1.091   1.828 -0.1525 -0.3554  0.1630
   90TCq2    O6 1381   1.964   0.964   2.015 -0.6164  0.1435 -1.0400
   90TCq2    H2 1382   1.762   0.859   2.079  1.4362 -1.8039 -0.4662
   90TCq2    H3 1383   1.776   1.041   1.700  0.4229 -0.6926  0.2317
   90TCq2    H4 1384   1.433   0.822   1.793  1.2240 -3.0584  1.1647
   91TMC2    C1 1385   2.798   4.686  16.483  0.1699 -0.2385  0.6102
   91TMC2    C2 1386   2.833   0.024  16.363  0.1330  0.1676  0.4618
   91TMC2    C3 1387   2.728   0.047  16.280 -0.2072 -0.7193 -0.2445
   91TMC2    C4 1388   2.671   4.668  16.519 -0.2057  0.2528  0.3422
   91TMC2    C5 1389   2.571   4.694  16.431  0.2157 -0.3795 -0.1304
   91TMC2    C6 1390   2.599   0.025  16.311  0.0710 -0.0502 -0.3928
   91TMC2     C 1391   2.898   4.650  16.579  0.3899  0.1244  0.6724
   91TMC2     O 1392   2.871   4.631  16.697  0.3774 -0.0234 -0.1423
   91TMC2     H 1393   2.928   0.072  16.346 -0.2749  0.9249  0.3129
   91TMC2    H1 1394   2.656   4.614  16.611  0.4712 -0.4636  0.0258
   91TMC2    H2 1395   2.537   0.075  16.237 -0.8419 -0.3011  0.2117
   91TMC2    C7 1396   2.430   4.673  16.463 -0.0445  0.1906  0.3439
   91TMC2    C8 1397   2.763   0.104  16.152 -0.2744  0.0844 -0.2347
   91TMC2    O1 1398   2.404   4.667  16.582  0.2673  0.2579  0.5852
   91TMC2    O2 1399   2.685   0.148  16.063  0.7786 -0.5688  0.3904
   91TMC2    O5 1400   2.876   0.047  16.112  0.4385 -0.2295  0.2989
   91TMC2    H5 1401   2.927   4.723  16.181 -0.2128  0.2965  1.1445
   92MPD2     C 1402   3.165   4.588  16.714 -0.4047  0.3060  0.3044
   92MPD2    C1 1403   3.135   4.595  16.573 -0.5289  0.5913 -0.0156
   92MPD2    C2 1404   3.240   4.604  16.492  0.4168 -0.1575 -0.1801
   92MPD2    C3 1405   3.371   4.583  16.532  0.4394  0.4529 -0.1454
   92MPD2    C4 1406   3.398   4.563  16.669  0.4965 -0.2997  0.4362
   92MPD2    C5 1407   3.289   4.566  16.754  0.2768  0.3380  0.4677
   92MPD2     H 1408   3.227   4.645  16.392  0.5289 -3.2272 -1.4752
   92MPD2    H1 1409   3.497   4.543  16.708  1.2809 -0.5357 -1.7175
   92MPD2    H2 1410   3.096   4.607  16.796 -2.2555  0.3484 -1.2552
   92MPD2    H3 1411   3.305   4.558  16.861  0.7658  0.7903  0.4264
   92MPD2     N 1412   3.467   4.603  16.430 -0.1040  0.6856  0.0843
   92MPD2    H5 1413   3.441   4.638  16.339  0.4250  1.6789  0.3163
   92MPD2    N1 1414   3.008   4.615  16.512 -0.2217 -0.3074 -0.0408
   92MPD2    H7 1415   3.005   4.606  16.411  2.8187 -2.2498  0.0410
   93MPD2     C 1416   4.629   0.542  14.000  0.0049  0.1925 -0.5069
   93MPD2    C1 1417   4.609   0.461  13.893  0.2754  0.6797  0.4244
   93MPD2    C2 1418   4.484   0.436  13.847  0.3100 -0.3846 -0.1181
   93MPD2    C3 1419   4.371   0.485  13.914 -0.2720  0.2746  0.1985
   93MPD2    C4 1420   4.388   0.558  14.034 -0.7227 -0.6847 -0.1837
   93MPD2    C5 1421   4.520   0.581  14.077  0.4290  0.2082 -0.0395
   93MPD2     H 1422   4.478   0.379  13.756 -0.5751 -0.7949  0.1959
   93MPD2    H1 1423   4.311   0.567  14.109 -1.6777  2.2870 -1.5369
   93MPD2    H2 1424   0.000   0.574  14.044 -0.3503  0.8430 -0.2093
   93MPD2    H3 1425   4.527   0.639  14.168  2.1832  0.8639 -0.5964
   93MPD2     N 1426   4.245   0.438  13.874  0.3680 -0.3409  0.5760
   93MPD2    H5 1427   4.171   0.440  13.943 -0.2774 -0.9171 -0.0870
   93MPD2    N1 1428   4.715   0.399  13.823  0.1631  0.2453  0.2411
   93MPD2    H7 1429   4.687   0.353  13.736  0.8769  0.8760 -0.3178
   94TCq2    C1 1430   0.119   0.387  13.879  0.4114 -0.5352  0.1123
   94TCq2    O2 1431   0.166   0.440  13.980 -0.2883 -0.2278 -0.0398
   94TCq2    C2 1432   0.190   0.293  13.800 -0.0658 -0.1215 -0.5672
   94TCq2    C3 1433   0.129   0.221  13.700 -0.6629 -0.0036 -0.4714
   94TCq2    C4 1434   0.214   0.146  13.619 -0.1916  0.4892  0.0707
   94TCq2    C5 1435   0.350   0.143  13.634  0.3135  0.2170  0.0052
   94TCq2    C6 1436   0.401   0.221  13.733 -0.3007  0.8386  0.0597
   94TCq2    C7 1437   0.321   0.293  13.818 -0.0729  0.2223  0.1067
   94TCq2    C8 1438   0.543   0.248  13.732 -0.6986  0.2167  1.2577
   94TCq2    O4 1439   0.616   0.170  13.673 -0.1924  0.0190 -0.1587
   94TCq2    C9 1440   0.164   0.063  13.512 -0.2341  0.1520  0.1062
   94TCq2    O5 1441   0.038   0.058  13.499 -0.0351 -0.3071  0.4154
   94TCq2    O6 1442   0.240   4.710  13.448  0.2965 -0.2240  0.0678
   94TCq2    H2 1443   0.022   0.222  13.682 -0.6713 -1.2321 -0.5133
   94TCq2    H3 1444   0.420   0.098  13.564  1.5846  2.1986  0.0160
   94TCq2    H4 1445   0.360   0.343  13.906  1.6604  1.5899 -1.4460
   95TMC2    C1 1446   0.293   2.426  15.919 -0.2643 -0.3283 -0.8258
   95TMC2    C2 1447   0.189   2.480  15.992  0.0385 -0.1226  0.4022
   95TMC2    C3 1448   0.077   2.398  16.005 -0.6373  0.8021  0.1802
   95TMC2    C4 1449   0.286   2.290  15.889 -0.9696  0.0255  0.1021
   95TMC2    C5 1450   0.179   2.216  15.921 -0.3962 -0.3159 -0.2699
   95TMC2    C6 1451   0.059   2.270  15.963 -0.0126  0.1828  0.6927
   95TMC2     C 1452   0.395   2.506  15.847 -0.4832 -0.5253 -0.4841
   95TMC2     O 1453   0.456   2.444  15.758 -0.0991 -0.2415 -0.8012
   95TMC2     H 1454   0.184   2.579  16.036  0.8867  0.7939 -1.5767
   95TMC2    H1 1455   0.366   2.240  15.836 -1.6150 -1.2342  0.3220
   95TMC2    H2 1456   4.687   2.222  15.983 -0.7803  0.2220 -2.7700
   95TMC2    C7 1457   0.175   2.076  15.876  0.3284  0.1449  1.0214
   95TMC2    C8 1458   4.678   2.453  16.061  0.5254  0.4320  0.8468
   95TMC2    O1 1459   0.251   2.046  15.784  0.5658  0.2342 -0.0356
   95TMC2    O2 1460   4.584   2.389  16.108  0.2069 -0.2269 -0.1505
   95TMC2    O5 1461   4.680   2.587  16.044  0.9004 -0.6253  0.1424
   95TMC2    H5 1462   0.020   2.601  15.970 -0.9474  1.7492 -0.9874
   96MPD2     C 1463   0.690   2.923  15.829 -0.3237  0.3303 -0.2770
   96MPD2    C1 1464   0.697   2.807  15.753 -0.6322  0.1489  0.2119
   96MPD2    C2 1465   0.612   2.700  15.787  0.2916  0.0034  0.6069
   96MPD2    C3 1466   0.518   2.714  15.886 -1.0082  0.9396  0.2924
   96MPD2    C4 1467   0.507   2.830  15.954  0.3256  0.6624 -0.3448
   96MPD2    C5 1468   0.595   2.937  15.924  0.0487  0.7203  0.4748
   96MPD2     H 1469   0.620   2.605  15.737  1.5736  0.6385 -0.4131
   96MPD2    H1 1470   0.423   2.837  16.022  0.1123 -0.7101 -0.4613
   96MPD2    H2 1471   0.761   3.002  15.806 -0.3808  0.0690 -1.3623
   96MPD2    H3 1472   0.587   3.031  15.978 -1.6015  0.3621  0.8620
   96MPD2     N 1473   0.414   2.620  15.914  0.1958  0.1800  0.0543
   96MPD2    H5 1474   0.353   2.646  15.991 -0.2200  1.2312 -0.6360
   96MPD2    N1 1475   0.796   2.805  15.652  0.2796 -0.1103  0.1197
   96MPD2    H7 1476   0.842   2.892  15.629  1.4885 -0.6214  0.5926
   97MPD2     C 1477   1.392   3.852   1.205  0.1540 -0.3054 -0.2633
   97MPD2    C1 1478   1.427   3.984   1.240  0.0940 -1.1434  0.3138
   97MPD2    C2 1479   1.498   4.051   1.147 -0.0131  0.3850  1.1122
   97MPD2    C3 1480   1.513   4.008   1.016  0.8421 -0.2876 -0.2162
   97MPD2    C4 1481   1.461   3.892   0.980  0.0504 -0.1782  0.0878
   97MPD2    C5 1482   1.409   3.808   1.074  0.8570 -0.0655  0.3790
   97MPD2     H 1483   1.525   4.153   1.169  1.1317  0.3624 -0.1288
   97MPD2    H1 1484   1.470   3.844   0.883  1.2199  1.4056 -0.5871
   97MPD2    H2 1485   1.344   3.783   1.274 -0.1545  0.4059  0.2282
   97MPD2    H3 1486   1.372   3.713   1.040  0.1333 -0.0089  1.0012
   97MPD2     N 1487   1.581   4.077   0.916  0.3591  0.1735  0.2369
   97MPD2    H5 1488   1.575   4.042   0.821  0.5775 -0.1072  0.3232
   97MPD2    N1 1489   1.396   4.042   1.369 -0.2178  0.2140  0.0091
   97MPD2    H7 1490   1.339   3.990   1.436  1.3178 -2.0230 -0.3943
   98TCq2    C1 1491   1.682   4.168   0.938  0.1653  0.4161 -0.2931
   98TCq2    O2 1492   1.725   4.214   1.047 -0.2684 -0.3296 -0.2981
   98TCq2    C2 1493   1.749   4.213   0.817  0.5343  0.3269  0.3346
   98TCq2    C3 1494   1.698   4.179   0.690 -0.0955 -0.9025 -0.3538
   98TCq2    C4 1495   1.786   4.172   0.588  0.6638  0.2611 -0.1364
   98TCq2    C5 1496   1.916   4.212   0.608  0.1290  0.4538  0.0464
   98TCq2    C6 1497   1.954   4.256   0.730  0.2028  0.3325 -0.2794
   98TCq2    C7 1498   1.874   4.251   0.840  0.6387 -0.0322  0.2879
   98TCq2    C8 1499   2.082   4.311   0.745  0.2735 -0.1103 -0.7144
   98TCq2    O4 1500   2.134   4.323   0.637  0.4113  0.8461 -0.1761
   98TCq2    C9 1501   1.758   4.129   0.454 -0.3332  0.1136 -0.0763
   98TCq2    O5 1502   1.842   4.138   0.358 -0.2577 -0.2073 -0.5322
   98TCq2    O6 1503   1.638   4.096   0.445  0.3233 -0.8836  0.1523
   98TCq2    H2 1504   1.596   4.149   0.671 -0.2396 -0.3173 -0.5117
   98TCq2    H3 1505   1.987   4.214   0.526 -2.2560  2.1758 -1.9984
   98TCq2    H4 1506   1.905   4.275   0.941  0.6279 -0.0580  0.2975
   99MPD2     C 1507   0.367   0.874   2.350 -0.3852 -0.3652  0.5761
   99MPD2    C1 1508   0.241   0.884   2.294 -0.2726 -0.5090 -0.9533
   99MPD2    C2 1509   0.232   0.923   2.160 -0.7046 -0.2385  0.2699
   99MPD2    C3 1510   0.352   0.948   2.089  0.4425  0.5580 -0.4946
   99MPD2    C4 1511   0.477   0.950   2.150  0.3968 -0.1202  0.0693
   99MPD2    C5 1512   0.481   0.916   2.281 -0.3474  0.3145  0.7453
   99MPD2     H 1513   0.134   0.932   2.114 -0.1930  4.2026  0.0726
   99MPD2    H1 1514   0.568   0.978   2.098  0.8480  0.8753  1.3747
   99MPD2    H2 1515   0.389   0.833   2.447  2.9863 -0.0094 -0.0367
   99MPD2    H3 1516   0.577   0.906   2.331  0.4452  0.9418 -0.6796
   99MPD2     N 1517   0.346   0.978   1.955 -0.1217  0.1771  0.5919
   99MPD2    H5 1518   0.251   0.980   1.918 -0.4138 -1.2513  1.2722
   99MPD2    N1 1519   0.125   0.862   2.371  0.2824  0.5597  0.0062
   99MPD2    H7 1520   0.036   0.893   2.332  0.5109  0.2937 -0.7278
  100TCq2    C1 1521   0.110   0.835   2.504  0.0845  0.0918  0.6067
  100TCq2    O2 1522   0.190   0.786   2.586  0.9102  0.3250 -0.5892
  100TCq2    C2 1523   4.690   0.833   2.541  0.1526  0.0490  1.0739
  100TCq2    C3 1524   4.656   0.762   2.651 -0.0943 -0.1273  0.6948
  100TCq2    C4 1525   4.529   0.731   2.672  0.1238 -0.5386  0.1690
  100TCq2    C5 1526   4.426   0.785   2.599  0.3746  0.3520  0.9676
  100TCq2    C6 1527   4.464   0.870   2.494  0.0985 -0.5186 -1.0681
  100TCq2    C7 1528   4.593   0.897   2.461  0.2850  0.2390 -0.2437
  100TCq2    C8 1529   4.357   0.932   2.414  0.0275 -0.4741 -0.0880
  100TCq2    O4 1530   4.255   0.972   2.465  0.2825 -0.2903 -0.3167
  100TCq2    C9 1531   4.495   0.640   2.779 -0.6242  0.0977 -0.2824
  100TCq2    O5 1532   4.376   0.624   2.810 -0.0371 -0.0025 -0.1344
  100TCq2    O6 1533   4.587   0.607   2.861 -0.6781  0.4670  0.0740
  100TCq2    H2 1534   0.011   0.712   2.708 -0.9820 -0.1724  1.8527
  100TCq2    H3 1535   4.323   0.766   2.627 -0.2884 -0.7213 -2.2033
  100TCq2    H4 1536   4.631   0.948   2.374 -0.2860  0.2233 -0.5057
  101MPD2     C 1537   1.735   2.713  13.132  0.6818 -0.0808  0.0453
  101MPD2    C1 1538   1.653   2.781  13.229  0.3003  0.5493  0.5914
  101MPD2    C2 1539   1.530   2.733  13.259 -0.8278  0.1123  0.1054
  101MPD2    C3 1540   1.493   2.611  13.199  0.4885 -0.3673  0.0910
  101MPD2    C4 1541   1.575   2.548  13.110  0.5897 -0.6514  0.3086
  101MPD2    C5 1542   1.695   2.603  13.073 -0.0139  0.3775  0.2045
  101MPD2     H 1543   1.459   2.769  13.332 -2.2282 -1.6770 -0.3705
  101MPD2    H1 1544   1.546   2.467  13.043  1.2164  0.8856 -1.8120
  101MPD2    H2 1545   1.827   2.756  13.095  0.4747  2.5385  2.5411
  101MPD2    H3 1546   1.750   2.552  12.995  0.0455  0.4695  0.1860
  101MPD2     N 1547   1.373   2.549  13.238 -0.3010  0.2070 -0.0371
  101MPD2    H5 1548   1.331   2.587  13.322  3.6383  1.8874  1.2055
  101MPD2    N1 1549   1.700   2.907  13.269  0.7441  0.2240  0.4671
  101MPD2    H7 1550   1.788   2.941  13.233 -0.2361  1.9535 -0.3121
  102TCq2    C1 1551   1.960   3.156  13.048  0.3152  0.7063  0.2042
  102TCq2    O2 1552   1.955   3.198  12.932 -0.1925  0.4100  0.5119
  102TCq2    C2 1553   1.843   3.174  13.132 -0.1810 -0.1093 -0.2418
  102TCq2    C3 1554   1.751   3.272  13.081 -0.2297  0.3050  0.6825
  102TCq2    C4 1555   1.633   3.306  13.139 -0.2008  0.4142 -0.7866
  102TCq2    C5 1556   1.592   3.231  13.248 -0.3414 -0.8160 -0.9285
  102TCq2    C6 1557   1.677   3.137  13.301 -0.7695  0.3640  0.5793
  102TCq2    C7 1558   1.811   3.117  13.250 -0.6119 -0.0852 -0.3600
  102TCq2    C8 1559   1.617   3.008  13.318  0.1574  0.3337  0.5943
  102TCq2    O4 1560   1.503   3.006  13.353 -0.3370 -0.3582  0.8514
  102TCq2    C9 1561   1.533   3.375  13.066 -0.2297  0.0828 -0.4593
  102TCq2    O5 1562   1.416   3.357  13.105 -0.6904 -0.3915 -0.6875
  102TCq2    O6 1563   1.560   3.405  12.945 -0.3122 -0.1080  0.2158
  102TCq2    H2 1564   1.777   3.323  12.989 -1.7328  0.8619  0.5704
  102TCq2    H3 1565   1.490   3.242  13.283  0.3055  0.7824  0.5043
  102TCq2    H4 1566   1.882   3.065  13.314 -2.3084 -0.3945  1.2858
  103TMC2    C1 1567   0.265   2.623  12.708  0.2120  0.1779 -0.0766
  103TMC2    C2 1568   0.397   2.625  12.716  0.5157 -0.1620  0.8204
  103TMC2    C3 1569   0.442   2.687  12.832  0.1674  0.1019 -0.0066
  103TMC2    C4 1570   0.177   2.686  12.794  0.0159  0.5252 -0.3947
  103TMC2    C5 1571   0.233   2.753  12.905  0.2413 -0.0498 -0.3056
  103TMC2    C6 1572   0.367   2.750  12.930  0.0918  0.1082  0.8699
  103TMC2     C 1573   0.202   2.529  12.613 -0.6732  0.3306 -0.0550
  103TMC2     O 1574   0.087   2.539  12.585 -0.0684 -0.4279  0.9443
  103TMC2     H 1575   0.457   2.585  12.635  1.1647  0.7875  0.8389
  103TMC2    H1 1576   0.073   2.657  12.785  0.3985 -0.5367 -1.4944
  103TMC2    H2 1577   0.410   2.787  13.023 -0.3492  4.1027 -0.5094
  103TMC2    C7 1578   0.141   2.819  12.997 -0.0265 -0.4044 -0.4386
  103TMC2    C8 1579   0.584   2.678  12.849  0.3885  0.3048 -0.6031
  103TMC2    O1 1580   0.185   2.843  13.110 -0.6568 -0.0910 -0.1818
  103TMC2    O2 1581   0.648   2.608  12.769  0.5650  0.1004 -0.2231
  103TMC2    O5 1582   0.626   2.794  12.900  0.3955  0.0408 -0.5160
  103TMC2    H5 1583   0.563   2.853  12.946  0.2517  0.4205 -1.2011
  104MPD2     C 1584   0.363   2.243  12.447  0.2771 -0.2448  0.6147
  104MPD2    C1 1585   0.267   2.342  12.467 -0.1772  0.0553 -0.2635
  104MPD2    C2 1586   0.166   2.362  12.374  0.0820  0.1175 -0.3843
  104MPD2    C3 1587   0.155   2.283  12.264 -0.1692 -0.2494  0.2056
  104MPD2    C4 1588   0.252   2.182  12.248  0.1416 -0.2051 -0.1742
  104MPD2    C5 1589   0.352   2.161  12.334  0.2468 -0.2115 -0.9182
  104MPD2     H 1590   0.097   2.445  12.383  0.4405  0.2505  1.2601
  104MPD2    H1 1591   0.250   2.128  12.153 -3.7064  2.4324 -1.5770
  104MPD2    H2 1592   0.436   2.208  12.520 -0.1793  0.0604  1.2155
  104MPD2    H3 1593   0.419   2.077  12.316  0.2603 -0.7038  1.3227
  104MPD2     N 1594   0.060   2.321  12.166 -1.0110 -0.5507 -0.7507
  104MPD2    H5 1595   0.027   2.417  12.170  1.1332  0.0391  3.1003
  104MPD2    N1 1596   0.279   2.423  12.584  0.1255  0.1821  0.1905
  104MPD2    H7 1597   0.359   2.406  12.643 -0.2639  0.9603  0.9361
  105MPD2     C 1598   1.056   1.505   0.010 -0.3645  0.8995 -0.6176
  105MPD2    C1 1599   1.095   1.636   0.019  0.6805  0.4191  0.2161
  105MPD2    C2 1600   1.058   1.701   0.131 -0.4031 -0.1274 -0.2404
  105MPD2    C3 1601   0.980   1.651   0.240 -0.3389 -0.3121  0.0745
  105MPD2    C4 1602   0.936   1.523   0.219  0.5991  0.7873 -0.2615
  105MPD2    C5 1603   0.972   1.453   0.111  0.6245 -0.2362  0.0928
  105MPD2     H 1604   1.093   1.802   0.146  2.4272 -1.2739  0.8567
  105MPD2    H1 1605   0.872   1.470   0.289  0.6715 -0.0927 -0.8651
  105MPD2    H2 1606   1.071   1.443  17.616 -0.1645  1.9815 -1.3444
  105MPD2    H3 1607   0.924   1.357   0.096  1.2556 -0.3061 -1.5327
  105MPD2     N 1608   0.945   1.737   0.341 -0.2168 -0.2399  0.3802
  105MPD2    H5 1609   0.979   1.831   0.323  1.8048 -1.4440 -2.0969
  105MPD2    N1 1610   1.180   1.702  17.611 -0.1499 -0.5707  0.4603
  105MPD2    H7 1611   1.182   1.803  17.616 -0.2918 -0.4827 -1.5075
  106TCq2    C1 1612   0.879   1.699   0.456 -0.6179 -0.4727  0.1043
  106TCq2    O2 1613   0.842   1.585   0.487 -0.6076 -0.2844 -0.1083
  106TCq2    C2 1614   0.856   1.807   0.548 -1.0293  0.5443 -0.4568
  106TCq2    C3 1615   0.855   1.936   0.514 -0.5065 -0.6423  0.3625
  106TCq2    C4 1616   0.858   2.027   0.615  0.0135  0.8274  0.1832
  106TCq2    C5 1617   0.843   1.995   0.744 -0.1958 -0.5838 -0.7192
  106TCq2    C6 1618   0.825   1.862   0.777 -0.1144  0.0175  0.5977
  106TCq2    C7 1619   0.833   1.768   0.676  0.4884 -0.1722  0.1327
  106TCq2    C8 1620   0.759   1.819   0.897  0.8708  0.3604  0.6108
  106TCq2    O4 1621   0.749   1.699   0.917 -0.3168  0.0718  0.0132
  106TCq2    C9 1622   0.884   2.163   0.578 -1.0010 -0.2363  0.3255
  106TCq2    O5 1623   0.920   2.193   0.461  0.0525  0.2451  0.5923
  106TCq2    O6 1624   0.877   2.245   0.671  0.1998 -0.3361  0.4309
  106TCq2    H2 1625   0.862   1.969   0.410 -1.0116 -2.8003 -0.3421
  106TCq2    H3 1626   0.851   2.072   0.821 -1.6003 -3.1082  1.9732
  106TCq2    H4 1627   0.833   1.662   0.703 -1.6644 -0.3103 -0.3949
  107TMC2    C1 1628   2.357   1.019  11.507  0.1913 -0.5524 -0.0097
  107TMC2    C2 1629   2.397   0.886  11.510  0.3138 -0.0321  0.1457
  107TMC2    C3 1630   2.499   0.847  11.428  0.2848  0.0806 -0.2575
  107TMC2    C4 1631   2.416   1.102  11.427  0.2443  0.5167  0.4910
  107TMC2    C5 1632   2.529   1.067  11.360 -0.9276  0.4529 -0.4069
  107TMC2    C6 1633   2.573   0.938  11.354  0.3414 -0.3250 -0.3837
  107TMC2     C 1634   2.247   1.060  11.592 -0.1294  0.1952 -0.4713
  107TMC2     O 1635   2.224   0.998  11.692  0.2091  0.4661  0.0091
  107TMC2     H 1636   2.344   0.817  11.575  0.3321  0.6998  0.9419
  107TMC2    H1 1637   2.386   1.206  11.417 -2.5897 -0.4483 -1.0135
  107TMC2    H2 1638   2.672   0.904  11.324  0.0563 -1.3497 -0.1710
  107TMC2    C7 1639   2.576   1.169  11.266  0.9378 -0.3567 -0.4138
  107TMC2    C8 1640   2.546   0.705  11.445  0.9813  0.1438  0.5711
  107TMC2    O1 1641   2.531   1.281  11.273 -1.1544 -0.2783 -0.1735
  107TMC2    O2 1642   2.500   0.628  11.526 -0.0153  0.0310  0.4379
  107TMC2    O5 1643   2.604   0.669  11.325  0.1943  0.0462  0.4021
  107TMC2    H5 1644   2.602   0.736  11.254 -2.6125  2.6111  2.9312
  108MPD2     C 1645   1.937   1.214  11.485 -0.2263  0.4145 -0.0500
  108MPD2    C1 1646   2.031   1.175  11.575 -0.1087 -0.3310 -0.0322
  108MPD2    C2 1647   2.000   1.181  11.711 -0.4939  0.4562  0.0842
  108MPD2    C3 1648   1.873   1.211  11.753  0.8913  0.2525  0.9048
  108MPD2    C4 1649   1.775   1.228  11.663  0.3365 -0.4141  0.4317
  108MPD2    C5 1650   1.808   1.249  11.528 -0.6527 -0.0612 -0.0909
  108MPD2     H 1651   2.071   1.155  11.789  0.2259  4.0525  0.6078
  108MPD2    H1 1652   1.677   1.257  11.701  0.5147  1.3683 -0.4938
  108MPD2    H2 1653   1.949   1.196  11.379 -1.7381  1.6007 -0.4214
  108MPD2    H3 1654   1.738   1.282  11.452  0.1436  0.5057 -0.5717
  108MPD2     N 1655   1.828   1.219  11.886 -0.3263  0.0376  0.5780
  108MPD2    H5 1656   1.728   1.233  11.899 -0.1982  1.6352 -0.1640
  108MPD2    N1 1657   2.153   1.132  11.520  0.7090 -0.0824 -0.3502
  108MPD2    H7 1658   2.176   1.155  11.424  1.4184  2.3996  0.4089
  109MPD2     C 1659   0.644   3.057   1.977  0.2370 -0.5980  0.0449
  109MPD2    C1 1660   0.735   3.146   1.938 -0.0445  0.0747  0.4268
  109MPD2    C2 1661   0.729   3.274   1.987  0.4247 -0.4286  0.2476
  109MPD2    C3 1662   0.632   3.302   2.077  0.1606 -0.4609 -0.0976
  109MPD2    C4 1663   0.547   3.206   2.117 -0.5923 -0.0227 -0.4746
  109MPD2    C5 1664   0.546   3.083   2.065 -0.5331 -0.6788 -0.1672
  109MPD2     H 1665   0.782   3.360   1.950  2.0828 -0.9240  1.4490
  109MPD2    H1 1666   0.471   3.224   2.192  1.2088  3.4028  0.5223
  109MPD2    H2 1667   0.658   2.962   1.926 -2.8922 -2.4272  2.4934
  109MPD2    H3 1668   0.481   3.008   2.108  1.0323 -1.3950  0.9308
  109MPD2     N 1669   0.621   3.442   2.107 -0.0540 -0.0894  0.1664
  109MPD2    H5 1670   0.692   3.501   2.066  0.3969 -0.5013  0.3424
  109MPD2    N1 1671   0.819   3.109   1.828 -0.5623 -0.1062 -0.2867
  109MPD2    H7 1672   0.801   3.025   1.774 -3.0371 -0.6587  1.3785
  110TCq2    C1 1673   0.534   3.500   2.199 -0.5709 -0.2122  0.7381
  110TCq2    O2 1674   0.473   3.433   2.281  0.5900 -0.6591 -0.0036
  110TCq2    C2 1675   0.570   3.637   2.225 -0.1450 -0.6447 -0.5086
  110TCq2    C3 1676   0.567   3.679   2.357  0.2039 -0.0936  0.3257
  110TCq2    C4 1677   0.595   3.812   2.379 -0.1412 -0.5829  0.6510
  110TCq2    C5 1678   0.631   3.894   2.273  0.2203 -0.4060 -0.2245
  110TCq2    C6 1679   0.621   3.846   2.144 -0.4769  0.1026 -0.4237
  110TCq2    C7 1680   0.587   3.716   2.120 -0.5654 -0.4380  1.3572
  110TCq2    C8 1681   0.678   3.920   2.030  0.3192  0.1451 -0.8331
  110TCq2    O4 1682   0.748   4.015   2.066  0.2359  0.2243  0.3552
  110TCq2    C9 1683   0.593   3.858   2.516  0.8561 -0.1749 -0.1031
  110TCq2    O5 1684   0.603   3.769   2.613  0.3412  0.1785  0.0864
  110TCq2    O6 1685   0.574   3.977   2.536 -0.4472 -0.5650  0.2694
  110TCq2    H2 1686   0.569   3.607   2.438  2.0990  0.1440  0.4789
  110TCq2    H3 1687   0.658   3.997   2.296  0.9305 -0.5666 -0.3317
  110TCq2    H4 1688   0.554   3.665   2.030 -0.4251 -1.3342  1.8116
  111TMC2    C1 1689   1.519   3.544  11.858  0.3642 -0.1093 -0.6245
  111TMC2    C2 1690   1.442   3.529  11.965 -0.9476  0.4015 -0.1445
  111TMC2    C3 1691   1.495   3.509  12.086 -0.0762 -0.2747  0.5206
  111TMC2    C4 1692   1.653   3.551  11.874  0.1882  0.5543 -0.8389
  111TMC2    C5 1693   1.701   3.549  12.002 -0.0381 -0.3032 -0.1998
  111TMC2    C6 1694   1.630   3.509  12.110  0.2657 -0.9679 -0.0860
  111TMC2     C 1695   1.463   3.584  11.728  0.8091  0.1341 -0.1673
  111TMC2     O 1696   1.531   3.552  11.634 -0.1186 -0.0762 -0.2952
  111TMC2     H 1697   1.337   3.510  11.946 -1.0148 -1.8044  2.5365
  111TMC2    H1 1698   1.714   3.574  11.787  0.4556 -1.6045 -1.2165
  111TMC2    H2 1699   1.671   3.517  12.210  0.7056 -2.2628 -0.1613
  111TMC2    C7 1700   1.841   3.573  12.035  0.0342  0.1320  0.5845
  111TMC2    C8 1701   1.403   3.429  12.161 -0.9566  0.3286 -0.2923
  111TMC2    O1 1702   1.873   3.542  12.148 -0.1595  0.0212  0.4169
  111TMC2    O2 1703   1.333   3.347  12.106 -0.2976 -0.0795 -0.0051
  111TMC2    O5 1704   1.425   3.443  12.295  0.6143 -0.1349  0.2750
  111TMC2    H5 1705   1.475   3.525  12.312 -0.0561  0.2275  0.4508
  112MPD2     C 1706   1.077   3.723  11.423 -0.2794 -0.0162 -0.1357
  112MPD2    C1 1707   1.200   3.645  11.404  0.2066 -0.3764 -0.8361
  112MPD2    C2 1708   1.268   3.605  11.512 -0.1621 -0.8499 -0.7554
  112MPD2    C3 1709   1.241   3.658  11.636  0.0089 -0.4102 -0.0771
  112MPD2    C4 1710   1.132   3.749  11.653  0.4397  0.2834 -0.7981
  112MPD2    C5 1711   1.050   3.774  11.545  0.2383 -0.7274 -0.1486
  112MPD2     H 1712   1.343   3.530  11.486 -0.1332 -1.7425  1.8555
  112MPD2    H1 1713   1.111   3.807  11.743  1.9675  0.6843 -0.7065
  112MPD2    H2 1714   1.020   3.760  11.338 -1.6287  1.6062  1.4825
  112MPD2    H3 1715   0.966   3.842  11.550  0.8141  0.0047 -0.4399
  112MPD2     N 1716   1.329   3.635  11.742 -0.1850  0.0190 -0.1667
  112MPD2    H5 1717   1.312   3.678  11.832 -1.1296  0.1240 -0.3973
  112MPD2    N1 1718   1.233   3.604  11.274  0.0321  0.0735  0.1097
  112MPD2    H7 1719   1.166   3.633  11.204 -1.3594 -1.6856  0.7024
  113MPD2     C 1720   0.169   1.560   0.412 -0.3859 -0.3507  0.4260
  113MPD2    C1 1721   0.111   1.490   0.511  0.0031  0.1985  0.1327
  113MPD2    C2 1722   0.055   1.364   0.486 -0.1339  0.1499  0.0053
  113MPD2    C3 1723   0.062   1.309   0.356 -0.0394  0.9947  0.4556
  113MPD2    C4 1724   0.124   1.378   0.255  0.9102  0.3826 -0.5738
  113MPD2    C5 1725   0.175   1.504   0.284  0.0491 -0.2765 -0.1154
  113MPD2     H 1726   4.713   1.319   0.560 -0.9476  0.2568 -0.6415
  113MPD2    H1 1727   0.140   1.330   0.160  1.1311 -1.6307  0.4951
  113MPD2    H2 1728   0.231   1.646   0.433 -0.4652 -0.5498  1.4618
  113MPD2    H3 1729   0.234   1.548   0.205 -1.0550 -0.0533 -0.8101
  113MPD2     N 1730   4.714   1.186   0.310 -0.1886 -0.1108  0.7485
  113MPD2    H5 1731   4.723   1.157   0.212 -0.8723 -1.0879  0.9729
  113MPD2    N1 1732   0.094   1.547   0.642 -0.0591  0.0695 -0.3029
  113MPD2    H7 1733   0.040   1.489   0.705  1.8200 -1.4343 -0.0708
  114TCq2    C1 1734   4.662   1.084   0.390 -0.5107  0.0375 -0.5862
  114TCq2    O2 1735   4.650   1.067   0.511  0.1105 -0.2912 -0.3141
  114TCq2    C2 1736   4.584   0.985   0.315 -0.3135 -0.1209 -0.1547
  114TCq2    C3 1737   4.644   0.929   0.198  0.3886 -0.4184  0.3686
  114TCq2    C4 1738   4.580   0.817   0.156 -0.0447 -0.2614  0.4592
  114TCq2    C5 1739   4.463   0.767   0.204 -0.2598  0.1690 -0.0904
  114TCq2    C6 1740   4.419   0.820   0.315 -0.0216  0.1230 -0.3028
  114TCq2    C7 1741   4.478   0.930   0.369  0.1013  0.3220  0.5294
  114TCq2    C8 1742   4.284   0.781   0.350 -0.4274  0.0502 -1.1646
  114TCq2    O4 1743   4.223   0.723   0.265 -0.4052 -0.1971  0.1029
  114TCq2    C9 1744   4.626   0.768   0.029 -0.3996 -0.5325  0.2817
  114TCq2    O5 1745   4.544   0.717  17.649  0.5367 -0.7210  0.2031
  114TCq2    O6 1746   0.027   0.768   0.007 -0.3722 -0.5671  0.5874
  114TCq2    H2 1747   0.010   0.968   0.151  2.3560 -1.6023  3.1086
  114TCq2    H3 1748   4.414   0.689   0.147 -1.7003  0.1551  1.1721
  114TCq2    H4 1749   4.439   0.978   0.459  1.8352  0.3778  1.2543
  115TMC2    C1 1750   0.881   3.963   0.479 -0.3076 -0.5264 -0.6180
  115TMC2    C2 1751   0.847   3.923   0.608 -0.3118  0.2621  0.4874
  115TMC2    C3 1752   0.842   4.023   0.698 -0.5907  0.2468  0.2455
  115TMC2    C4 1753   0.920   4.087   0.446  0.1027 -0.1075 -0.0552
  115TMC2    C5 1754   0.919   4.179   0.541 -0.9811  0.6769 -0.5055
  115TMC2    C6 1755   0.881   4.148   0.669  0.0008  0.4194 -0.1546
  115TMC2     C 1756   0.869   3.862   0.375  0.1082 -0.5450  0.4255
  115TMC2     O 1757   0.783   3.774   0.392 -0.1267  0.4491  0.2274
  115TMC2     H 1758   0.814   3.822   0.626 -1.0499  1.1339  4.1034
  115TMC2    H1 1759   0.980   4.115   0.361  2.7697 -0.7229  1.6403
  115TMC2    H2 1760   0.884   4.225   0.746 -0.2025  2.1156 -1.8406
  115TMC2    C7 1761   0.917   4.323   0.507 -0.3893  0.4660  0.0441
  115TMC2    C8 1762   0.744   4.001   0.799 -0.7742 -0.2458  0.1306
  115TMC2    O1 1763   0.906   4.395   0.607  1.0932  0.0245  0.0637
  115TMC2    O2 1764   0.650   3.931   0.770  0.0349 -0.4746 -0.5456
  115TMC2    O5 1765   0.713   4.098   0.887 -0.3228  0.0647 -0.0059
  115TMC2    H5 1766   0.795   4.149   0.906  0.3449 -0.6620 -0.9172
  116MPD2     C 1767   0.974   3.658  17.605 -0.4059 -0.2134 -0.1058
  116MPD2    C1 1768   0.887   3.617   0.006  0.6050 -0.0476 -0.2817
  116MPD2    C2 1769   0.871   3.698   0.117 -0.1798 -0.2247  0.1759
  116MPD2    C3 1770   0.956   3.810   0.146  0.0178  0.2584  0.3783
  116MPD2    C4 1771   1.048   3.839   0.049  0.0225 -0.3980 -0.0556
  116MPD2    C5 1772   1.060   3.765  17.629 -0.5024 -0.0091 -0.1245
  116MPD2     H 1773   0.790   3.675   0.184  0.8863 -2.6313  0.6531
  116MPD2    H1 1774   1.116   3.924   0.053  0.2219 -0.6721  2.1362
  116MPD2    H2 1775   0.984   3.604  17.512  0.4999  1.8131 -1.1744
  116MPD2    H3 1776   1.135   3.784  17.553  2.1811  0.4034  2.6438
  116MPD2     N 1777   0.949   3.890   0.265  0.1438 -0.0879  0.5900
  116MPD2    H5 1778   1.021   3.962   0.273 -0.2385  0.1322  2.0084
  116MPD2    N1 1779   0.819   3.493  17.684 -0.9121 -0.8619  0.0532
  116MPD2    H7 1780   0.844   3.432  17.607  0.4441 -0.8514  0.4899
  117TMC2    C1 1781   3.852   0.772  13.784 -0.5978 -0.2028 -0.4695
  117TMC2    C2 1782   3.842   0.649  13.838  0.0142  0.0501 -0.0188
  117TMC2    C3 1783   3.929   0.629  13.941  0.2831  0.4252  0.1865
  117TMC2    C4 1784   3.930   0.874  13.833 -0.1800 -0.1775  0.5028
  117TMC2    C5 1785   4.015   0.847  13.936 -0.4823 -0.0849 -0.0776
  117TMC2    C6 1786   4.019   0.717  13.983 -0.2727 -0.7389 -0.2853
  117TMC2     C 1787   3.750   0.805  13.681  0.4567  0.1079  0.3235
  117TMC2     O 1788   3.695   0.719  13.620 -0.2161 -0.3918 -0.2025
  117TMC2     H 1789   3.778   0.569  13.804 -2.0399  0.6082  2.5838
  117TMC2    H1 1790   3.932   0.971  13.784 -0.0148 -0.3464  0.1759
  117TMC2    H2 1791   4.083   0.683  14.064 -0.1532 -1.5006 -0.7072
  117TMC2    C7 1792   4.125   0.942  13.955 -0.2708 -0.0462 -0.3985
  117TMC2    C8 1793   3.919   0.499  14.014  0.1344  0.7445  0.2798
  117TMC2    O1 1794   4.149   1.018  13.861  0.0596  0.6996  0.2699
  117TMC2    O2 1795   4.019   0.445  14.061 -0.7822  0.5019 -0.3034
  117TMC2    O5 1796   3.794   0.441  14.008 -0.5624 -0.4653  0.0094
  117TMC2    H5 1797   3.713   0.496  14.004  0.0484  0.5349  1.4966
  118MPD2     C 1798   4.371   0.929  14.224  0.0667  0.9891 -0.6270
  118MPD2    C1 1799   4.315   0.967  14.113  0.5162  0.2845 -0.3600
  118MPD2    C2 1800   4.387   1.041  14.022 -0.8079  0.6134 -0.1805
  118MPD2    C3 1801   4.512   1.092  14.063 -0.2761 -0.4768  0.5284
  118MPD2    C4 1802   4.573   1.054  14.179 -0.7524 -0.4787  0.1492
  118MPD2    C5 1803   4.497   0.962  14.253 -1.2717  0.4519 -0.0815
  118MPD2     H 1804   4.357   1.053  13.919 -0.1496  0.7686 -0.3570
  118MPD2    H1 1805   4.675   1.076  14.210 -0.4893  2.3075 -2.6501
  118MPD2    H2 1806   4.326   0.867  14.300  2.0808  1.1536  0.7054
  118MPD2    H3 1807   4.536   0.919  14.345  1.1988  1.3147 -0.7248
  118MPD2     N 1808   4.590   1.182  13.977  0.1475 -0.0822  0.7238
  118MPD2    H5 1809   4.673   1.221  14.019 -0.1717  1.2143  0.1430
  118MPD2    N1 1810   4.186   0.919  14.076 -0.2401 -0.2075 -0.1693
  118MPD2    H7 1811   4.147   0.861  14.149  1.2766 -0.0708  0.7468
  119MPD2     C 1812   2.748   2.708  13.301 -0.0849 -0.3582  0.6250
  119MPD2    C1 1813   2.616   2.694  13.323  0.1461  0.3110  0.5101
  119MPD2    C2 1814   2.538   2.636  13.218  0.2366 -0.7233 -0.1506
  119MPD2    C3 1815   2.601   2.572  13.108 -0.5774 -0.1179  0.6331
  119MPD2    C4 1816   2.732   2.590  13.093  0.2285 -0.7838  0.7813
  119MPD2    C5 1817   2.807   2.656  13.186 -0.6386  0.0145 -0.1379
  119MPD2     H 1818   2.432   2.618  13.235  0.2277  0.2480  0.8490
  119MPD2    H1 1819   2.774   2.537  13.007 -1.6935  0.4782 -0.9332
  119MPD2    H2 1820   2.807   2.737  13.387 -0.8204 -0.4779  1.1661
  119MPD2    H3 1821   2.914   2.672  13.179 -0.6273  0.9542  1.9837
  119MPD2     N 1822   2.534   2.488  13.009 -0.1429  0.4379 -0.3631
  119MPD2    H5 1823   2.585   2.452  12.929  0.1972 -0.5735  0.3033
  119MPD2    N1 1824   2.562   2.718  13.453 -0.5560 -0.6414  0.2907
  119MPD2    H7 1825   2.630   2.734  13.527 -2.4169 -0.2450  1.9062
  120TCq2    C1 1826   2.397   2.474  13.005 -0.3837  0.2018  0.2953
  120TCq2    O2 1827   2.315   2.527  13.072 -0.1227 -0.3474  0.6387
  120TCq2    C2 1828   2.357   2.365  12.919  0.3382 -0.4448 -0.0579
  120TCq2    C3 1829   2.426   2.246  12.946 -0.0612  0.1762  0.0007
  120TCq2    C4 1830   2.349   2.128  12.954  0.0002  0.2824  0.4689
  120TCq2    C5 1831   2.214   2.131  12.938 -0.2464  0.1579  0.2378
  120TCq2    C6 1832   2.151   2.250  12.907 -0.1757 -0.1973 -0.7537
  120TCq2    C7 1833   2.222   2.368  12.902  0.3922 -0.2698  0.1492
  120TCq2    C8 1834   2.016   2.264  12.968 -0.6252 -0.2023  0.1531
  120TCq2    O4 1835   1.933   2.336  12.912  0.1824 -0.4375  0.1514
  120TCq2    C9 1836   2.411   1.998  12.969  0.4379 -0.1915  0.1725
  120TCq2    O5 1837   2.534   1.989  12.979 -0.0810 -0.1856  0.1893
  120TCq2    O6 1838   2.333   1.895  12.954 -0.9441 -0.6108  0.0968
  120TCq2    H2 1839   2.534   2.241  12.953 -0.0924 -2.1876 -1.6008
  120TCq2    H3 1840   2.153   2.040  12.936  0.6743 -0.4755  1.2270
  120TCq2    H4 1841   2.168   2.461  12.914 -1.0355 -1.0751 -0.0107
  121TMC2    C1 1842   4.227   4.037  14.388  0.0139 -0.0111  0.1797
  121TMC2    C2 1843   4.223   4.092  14.520 -0.5713  0.4998  0.2878
  121TMC2    C3 1844   4.112   4.067  14.597 -0.4906 -0.2538  0.3105
  121TMC2    C4 1845   4.118   3.966  14.342  1.0747 -0.4360 -0.0751
  121TMC2    C5 1846   4.014   3.945  14.431 -0.1684  0.3485 -0.3301
  121TMC2    C6 1847   4.000   3.997  14.558  0.0203  0.3185  0.2070
  121TMC2     C 1848   4.332   4.091  14.303 -0.2377 -0.0356 -0.4493
  121TMC2     O 1849   4.434   4.134  14.360 -0.2123  0.0877  0.5384
  121TMC2     H 1850   4.304   4.152  14.561 -0.0144 -1.0220  1.3642
  121TMC2    H1 1851   4.112   3.924  14.242 -1.4375 -0.8346  0.2580
  121TMC2    H2 1852   3.911   3.970  14.613 -0.9013  0.7570 -1.0623
  121TMC2    C7 1853   3.913   3.854  14.372 -0.1372  0.5279 -0.3538
  121TMC2    C8 1854   4.115   4.116  14.730 -0.1056 -0.1682  0.8406
  121TMC2    O1 1855   3.951   3.776  14.289 -0.0038  0.0479 -0.4275
  121TMC2    O2 1856   4.012   4.148  14.786  0.2966  0.3023  0.2555
  121TMC2    O5 1857   4.225   4.075  14.789  0.0936  0.1252 -0.1957
  121TMC2    H5 1858   4.283   4.027  14.726 -0.7454 -1.7210  0.4280
  122MPD2     C 1859   4.492   4.212  14.076  0.3138 -0.6226 -0.1460
  122MPD2    C1 1860   4.362   4.169  14.062 -0.1518  0.1365 -0.0068
  122MPD2    C2 1861   4.297   4.184  13.940 -0.1606 -0.0904 -0.0401
  122MPD2    C3 1862   4.362   4.245  13.833 -0.4666 -1.0023 -0.0952
  122MPD2    C4 1863   4.493   4.281  13.854 -0.1727 -0.0643  0.1727
  122MPD2    C5 1864   4.554   4.276  13.975 -0.3406  0.2834  0.5754
  122MPD2     H 1865   4.191   4.160  13.931 -0.4852  0.9858  0.8809
  122MPD2    H1 1866   4.544   4.346  13.784  0.5271 -1.9230 -1.0593
  122MPD2    H2 1867   4.526   4.217  14.179  2.2700  1.0091 -0.8799
  122MPD2    H3 1868   4.656   4.313  13.984  0.5540 -1.2546 -3.5723
  122MPD2     N 1869   4.300   4.255  13.707  0.1156 -0.1229  0.0335
  122MPD2    H5 1870   4.350   4.321  13.648  0.9039 -0.7666 -0.0151
  122MPD2    N1 1871   4.290   4.109  14.174 -0.2518 -0.0866  0.1116
  122MPD2    H7 1872   4.209   4.060  14.140 -0.7931  2.0550 -1.7115
  123MPD2     C 1873   2.137   1.215  10.490 -0.7957 -0.8249  0.6578
  123MPD2    C1 1874   2.162   1.190  10.355  1.0641  0.2013 -0.2038
  123MPD2    C2 1875   2.121   1.064  10.306  0.2431 -0.3434  0.4975
  123MPD2    C3 1876   2.069   0.961  10.386 -1.1530  0.4696  0.0675
  123MPD2    C4 1877   2.058   0.992  10.518  0.4051  0.1409 -0.3753
  123MPD2    C5 1878   2.098   1.108  10.568 -0.1085 -0.4952  0.2305
  123MPD2     H 1879   2.124   1.045  10.199 -1.0663  0.2444  0.3567
  123MPD2    H1 1880   2.026   0.917  10.589 -1.5041  1.0711 -0.2590
  123MPD2    H2 1881   2.168   1.311  10.530 -0.5750 -0.8163  0.4706
  123MPD2    H3 1882   2.084   1.122  10.675  0.8183  2.4755 -0.0344
  123MPD2     N 1883   2.044   0.840  10.321 -0.0055 -0.6539 -0.3289
  123MPD2    H5 1884   2.058   0.834  10.221 -3.5230  2.6117 -1.0086
  123MPD2    N1 1885   2.220   1.290  10.273  0.1239  0.2531  0.1898
  123MPD2    H7 1886   2.227   1.380  10.320 -2.2993 -0.3458  1.6916
  124TCq2    C1 1887   2.018   0.720  10.384  0.0758  0.1995 -0.7160
  124TCq2    O2 1888   1.976   0.699  10.496  0.1155  0.0158 -0.6527
  124TCq2    C2 1889   2.031   0.602  10.290 -0.7606 -0.2221 -0.0694
  124TCq2    C3 1890   1.940   0.503  10.315 -0.3955  0.1465 -0.2537
  124TCq2    C4 1891   1.919   0.416  10.209 -0.8052  0.4322 -0.3856
  124TCq2    C5 1892   1.990   0.415  10.085  0.9274  1.0974  0.2271
  124TCq2    C6 1893   2.082   0.514  10.074  0.8101 -0.1643 -0.6775
  124TCq2    C7 1894   2.103   0.607  10.170 -0.4016  0.2132  0.0903
  124TCq2    C8 1895   2.137   0.550   9.945 -1.0060  0.3153 -0.5304
  124TCq2    O4 1896   2.216   0.644   9.946  0.1924 -0.2066 -0.3978
  124TCq2    C9 1897   1.836   0.303  10.231  0.4014 -0.1428 -0.5844
  124TCq2    O5 1898   1.821   0.219  10.141  0.0453  0.9605  0.3385
  124TCq2    O6 1899   1.798   0.292  10.348 -0.4641 -0.1324  0.2770
  124TCq2    H2 1900   1.869   0.511  10.396 -0.7702 -0.4900 -0.5204
  124TCq2    H3 1901   1.982   0.329  10.019  0.7703  1.2820  0.0077
  124TCq2    H4 1902   2.186   0.677  10.169  1.2844 -1.8418 -1.7032
  125TMC2    C1 1903   3.081   3.585   9.536 -0.0772 -0.4116 -0.9081
  125TMC2    C2 1904   3.130   3.607   9.412  0.2035  0.0028  0.1053
  125TMC2    C3 1905   3.263   3.574   9.388 -0.0501 -0.3675 -0.4947
  125TMC2    C4 1906   3.154   3.524   9.634  0.0332  0.3276 -0.0797
  125TMC2    C5 1907   3.277   3.492   9.604  0.5201 -0.0344 -0.6367
  125TMC2    C6 1908   3.343   3.529   9.490 -0.0109 -0.1985 -0.8092
  125TMC2     C 1909   2.944   3.620   9.554 -0.2937 -0.0800  0.4142
  125TMC2     O 1910   2.885   3.663   9.457  0.2703  0.0282 -0.1866
  125TMC2     H 1911   3.067   3.635   9.329  1.2163 -1.2402 -1.0771
  125TMC2    H1 1912   3.109   3.479   9.721  1.3093 -0.4616  0.1679
  125TMC2    H2 1913   3.447   3.505   9.472 -0.0022  0.2345 -1.3437
  125TMC2    C7 1914   3.356   3.428   9.707 -0.4504  0.1807 -0.1849
  125TMC2    C8 1915   3.324   3.638   9.271 -0.8735  0.2316 -0.2887
  125TMC2    O1 1916   3.324   3.443   9.825  0.2967 -0.5746  0.1918
  125TMC2    O2 1917   3.282   3.741   9.220 -0.0161  0.2908  0.2974
  125TMC2    O5 1918   3.420   3.561   9.217  0.0934  0.1320 -0.3295
  125TMC2    H5 1919   3.420   3.469   9.252  0.4139  0.2508 -0.0216
  126MPD1     C 1920   2.555   3.741   9.848 -0.5592 -0.3157  0.0094
  126MPD1    C1 1921   2.655   3.704   9.927  0.4099 -0.4658  0.0016
  126MPD1    C2 1922   2.773   3.667   9.877 -0.2664  0.5878 -0.1228
  126MPD1    C3 1923   2.782   3.661   9.737  0.0173  0.2897  0.2355
  126MPD1    C4 1924   2.675   3.676   9.655  0.3130 -0.5846  0.6144
  126MPD1    C5 1925   2.558   3.711   9.712  0.5312  0.3731 -0.3267
  126MPD1     H 1926   2.861   3.645   9.937  1.7850 -0.2105 -3.3833
  126MPD1    H1 1927   2.680   3.653   9.549 -1.3075 -2.7762  1.0158
  126MPD1    H2 1928   2.456   3.761   9.886 -1.2212  0.7446 -2.2934
  126MPD1    H3 1929   2.470   3.698   9.649  2.2631 -1.6562 -2.3134
  126MPD1     N 1930   2.909   3.627   9.687  0.4428  0.7214 -0.4206
  126MPD1    H5 1931   2.986   3.610   9.751 -0.5680  0.5302  0.7578
  126MPD1    N1 1932   2.641   3.719  10.062 -0.2983 -0.6488  0.0098
  126MPD1    H6 1933   2.544   3.716  10.094 -0.8865  0.8110 -1.6676
  126MPD1    H7 1934   2.697   3.650  10.112 -1.1928 -2.1047 -1.0064
  127MPD2     C 1935   4.640   2.005   8.790  0.5422  0.2394  0.6369
  127MPD2    C1 1936   4.548   2.019   8.892 -0.3909  0.1899 -0.5431
  127MPD2    C2 1937   4.586   2.060   9.019 -0.0276 -0.2865  0.1935
  127MPD2    C3 1938   4.714   2.081   9.054  0.2616  0.6504  0.0924
  127MPD2    C4 1939   0.090   2.051   8.959 -0.2118 -0.1221  0.8129
  127MPD2    C5 1940   0.049   2.020   8.825  0.2624 -0.7465 -0.1353
  127MPD2     H 1941   4.519   2.079   9.101 -0.0249 -1.7565  0.5511
  127MPD2    H1 1942   0.195   2.070   8.973 -0.3660  1.0140  0.4058
  127MPD2    H2 1943   4.608   2.007   8.686 -1.5234 -1.5190  1.2300
  127MPD2    H3 1944   0.118   2.012   8.743 -0.5157  0.5331 -0.9228
  127MPD2     N 1945   0.022   2.107   9.188 -0.5443 -0.2814  0.2189
  127MPD2    H5 1946   4.668   2.108   9.253  1.0531  1.6358  2.0984
  127MPD2    N1 1947   4.409   1.995   8.866  0.0535 -0.1894  0.2711
  127MPD2    H7 1948   4.382   1.959   8.775  0.8982 -0.8621  0.2889
  128TCq2    C1 1949   4.298   2.023   8.942  0.2563  0.2658 -0.1977
  128TCq2    O2 1950   4.285   2.078   9.052  0.5016  0.3824 -0.5429
  128TCq2    C2 1951   4.189   1.939   8.888 -0.3353 -0.9605  0.3184
  128TCq2    C3 1952   4.054   1.973   8.909 -0.3773  0.3392 -0.4673
  128TCq2    C4 1953   3.958   1.869   8.886  0.0093  0.2482 -0.7867
  128TCq2    C5 1954   3.997   1.738   8.860  0.4678 -1.0509  0.1329
  128TCq2    C6 1955   4.134   1.711   8.847  0.1492  0.2540 -0.4239
  128TCq2    C7 1956   4.232   1.807   8.858  0.1352  1.0365  0.1104
  128TCq2    C8 1957   4.186   1.577   8.844  0.2267  0.0276 -0.3089
  128TCq2    O4 1958   4.117   1.497   8.791 -0.0024  0.0540  0.0596
  128TCq2    C9 1959   3.819   1.891   8.898 -0.2835 -0.2007 -0.6102
  128TCq2    O5 1960   3.738   1.801   8.918 -0.1173 -0.0189  0.4082
  128TCq2    O6 1961   3.785   2.011   8.895 -0.5541  0.1643 -0.4028
  128TCq2    H2 1962   4.033   2.077   8.933 -0.2625  0.4646 -0.9146
  128TCq2    H3 1963   3.921   1.661   8.862  0.9714 -1.5191  1.3210
  128TCq2    H4 1964   4.336   1.781   8.843  0.4789  2.4232  0.0467
  129MPD2     C 1965   1.603   3.484   1.114  0.1915 -0.3952 -0.5903
  129MPD2    C1 1966   1.611   3.549   1.231 -0.4074 -0.1134  0.6461
  129MPD2    C2 1967   1.684   3.661   1.232 -0.2015 -0.2000 -0.2863
  129MPD2    C3 1968   1.740   3.728   1.125  0.3979 -0.2206  0.4464
  129MPD2    C4 1969   1.721   3.666   1.007  0.3762 -0.2790 -0.0582
  129MPD2    C5 1970   1.657   3.541   0.997  0.1538 -0.3096 -0.3489
  129MPD2     H 1971   1.711   3.696   1.331 -0.5157 -1.3727  0.2169
  129MPD2    H1 1972   1.759   3.697   0.910  2.3805  3.5824  1.9502
  129MPD2    H2 1973   1.556   3.388   1.098 -0.3755 -0.5765  2.2180
  129MPD2    H3 1974   1.660   3.490   0.902 -2.4622 -0.7700 -0.1874
  129MPD2     N 1975   1.820   3.846   1.149  0.2376 -0.3396  0.3579
  129MPD2    H5 1976   1.844   3.861   1.246 -0.0262  0.5933  0.2770
  129MPD2    N1 1977   1.560   3.513   1.354  0.3646  0.2818  0.2813
  129MPD2    H7 1978   1.568   3.590   1.420 -2.8630 -0.4307  1.5270
  130TCq2    C1 1979   1.512   3.382   1.379 -0.0056  0.4475  0.0011
  130TCq2    O2 1980   1.548   3.284   1.316  0.1969  0.4841  0.0805
  130TCq2    C2 1981   1.453   3.364   1.510 -0.1638  0.4491  0.0445
  130TCq2    C3 1982   1.389   3.470   1.577  0.4363 -0.4110 -0.8735
  130TCq2    C4 1983   1.359   3.448   1.707  0.5323 -0.6725 -0.0921
  130TCq2    C5 1984   1.375   3.327   1.769  0.1764 -0.0784  0.4377
  130TCq2    C6 1985   1.418   3.219   1.695 -0.6799 -0.7071  0.4157
  130TCq2    C7 1986   1.454   3.235   1.563  0.8377 -0.0620 -0.5807
  130TCq2    C8 1987   1.397   3.083   1.741 -0.7638  0.2744 -0.0181
  130TCq2    O4 1988   1.415   2.993   1.662  0.4252  0.0094  0.2401
  130TCq2    C9 1989   1.315   3.555   1.790  0.4000 -0.0844  0.4378
  130TCq2    O5 1990   1.349   3.668   1.757  0.0755 -0.1840 -0.0230
  130TCq2    O6 1991   1.266   3.521   1.902 -0.0935  0.3996  0.3679
  130TCq2    H2 1992   1.368   3.564   1.526  0.4640 -0.3081 -0.6944
  130TCq2    H3 1993   1.363   3.322   1.876 -0.4517  2.6247  0.5058
  130TCq2    H4 1994   1.498   3.159   1.500  1.9018  0.2159 -0.1773
  131MPD2     C 1995   2.516   2.227  10.185  0.2339 -0.5947  0.0839
  131MPD2    C1 1996   2.495   2.125  10.283  0.2242 -0.0416 -0.2865
  131MPD2    C2 1997   2.470   1.997  10.237  0.0389  0.3334  0.1897
  131MPD2    C3 1998   2.491   1.952  10.108  0.0452  0.3765  0.7936
  131MPD2    C4 1999   2.536   2.051  10.018  0.0440  0.6351  0.3425
  131MPD2    C5 2000   2.547   2.184  10.056  0.1359 -0.1912 -0.2383
  131MPD2     H 2001   2.442   1.931  10.319  0.8061  0.1623  0.3121
  131MPD2    H1 2002   2.544   2.025   9.913 -0.2558  0.2199  0.4225
  131MPD2    H2 2003   2.524   2.330  10.218 -0.7346 -0.7908  0.9260
  131MPD2    H3 2004   2.569   2.262   9.984 -0.4405  0.8771  0.7469
  131MPD2     N 2005   2.464   1.819  10.066 -0.5413 -0.4568 -0.3743
  131MPD2    H5 2006   2.489   1.799   9.969  1.1323 -1.6015  0.3034
  131MPD2    N1 2007   2.493   2.164  10.419  0.8399  0.4313  0.0207
  131MPD2    H7 2008   2.482   2.264  10.436  2.8589  1.1639 -2.9980
  132TCq2    C1 2009   2.445   2.478  10.817 -0.0597  0.1263  0.6013
  132TCq2    O2 2010   2.429   2.517  10.932 -0.0058  0.1910  0.0804
  132TCq2    C2 2011   2.430   2.338  10.790 -0.9455  0.3695 -0.0952
  132TCq2    C3 2012   2.410   2.256  10.904 -0.4193 -0.1837 -0.1076
  132TCq2    C4 2013   2.408   2.123  10.894 -0.4203  0.1716  0.1175
  132TCq2    C5 2014   2.435   2.072  10.767 -0.6521  0.2073  0.3719
  132TCq2    C6 2015   2.469   2.150  10.655  0.1382 -0.0198  0.1178
  132TCq2    C7 2016   2.457   2.287  10.668 -0.0035 -0.4065 -0.3260
  132TCq2    C8 2017   2.493   2.081  10.529  0.5825 -0.4656  0.0520
  132TCq2    O4 2018   2.514   1.956  10.535  0.6054  0.4282  0.2967
  132TCq2    C9 2019   2.374   2.036  10.999 -0.9892  0.1057 -0.8331
  132TCq2    O5 2020   2.355   1.914  10.969  0.1729  0.9553  0.3396
  132TCq2    O6 2021   2.355   2.092  11.108  0.4635  0.6591  0.0051
  132TCq2    H2 2022   2.398   2.305  11.000 -0.0326  0.1596 -0.2342
  132TCq2    H3 2023   2.450   1.964  10.770 -1.4878  0.0373 -1.6329
  132TCq2    H4 2024   2.499   2.346  10.587  1.7146  1.0015  1.6147
  133MPD2     C 2025   1.835   3.780   8.960 -0.0283 -0.4727 -0.5882
  133MPD2    C1 2026   1.829   3.723   9.084 -0.1310  0.1737 -0.3945
  133MPD2    C2 2027   1.799   3.585   9.086 -0.1376 -0.0490  0.5675
  133MPD2    C3 2028   1.760   3.509   8.971  0.1071  0.1089  0.1371
  133MPD2    C4 2029   1.779   3.571   8.851 -0.6487 -0.1228  0.5491
  133MPD2    C5 2030   1.813   3.705   8.847 -0.6257 -0.4995 -0.2653
  133MPD2     H 2031   1.797   3.531   9.180  1.2278 -1.1286 -0.0245
  133MPD2    H1 2032   1.753   3.515   8.762 -0.0847 -2.3835  1.8027
  133MPD2    H2 2033   1.865   3.883   8.946 -3.4109  0.7369  1.0425
  133MPD2    H3 2034   1.824   3.763   8.756  1.4264 -0.0231  0.2971
  133MPD2     N 2035   1.715   3.378   8.973 -0.2983  0.1063 -0.1647
  133MPD2    H5 2036   1.662   3.355   8.890 -2.1137 -0.9485  1.2839
  133MPD2    N1 2037   1.854   3.800   9.205 -0.6378 -0.5038 -0.5461
  133MPD2    H7 2038   1.859   3.902   9.202  2.6782 -0.7263 -2.2669
  134TCq2    C1 2039   1.866   3.754   9.327  0.2929 -0.6484 -0.5265
  134TCq2    O2 2040   1.893   3.637   9.355  1.2280  0.2152  0.3840
  134TCq2    C2 2041   1.870   3.867   9.423 -0.8815 -0.2917 -0.0293
  134TCq2    C3 2042   1.828   3.996   9.388  0.0390  0.2339  0.3139
  134TCq2    C4 2043   1.883   4.095   9.461 -0.7214 -0.9937  0.1875
  134TCq2    C5 2044   1.954   4.078   9.575  0.6452  0.6030 -0.2805
  134TCq2    C6 2045   1.979   3.953   9.608  0.6778  0.4987  0.3097
  134TCq2    C7 2046   1.934   3.843   9.543  0.2940 -0.7098 -0.2272
  134TCq2    C8 2047   2.038   3.920   9.734  0.4370  0.1452  0.2320
  134TCq2    O4 2048   2.076   3.807   9.755 -0.5411 -0.1799  0.1623
  134TCq2    C9 2049   1.857   4.228   9.407  0.2647 -0.7235  0.0434
  134TCq2    O5 2050   1.900   4.323   9.482  0.1572  0.0106  0.0978
  134TCq2    O6 2051   1.807   4.242   9.293  0.2236  0.1216 -0.1896
  134TCq2    H2 2052   1.754   4.019   9.311  2.1353  2.2737 -1.0740
  134TCq2    H3 2053   1.971   4.170   9.630 -1.9250  0.9172 -0.0349
  134TCq2    H4 2054   1.957   3.741   9.573 -2.5243 -1.5759 -1.0446
  135MPD2     C 2055   4.395   3.052   9.709  0.7322  0.0764  0.0693
  135MPD2    C1 2056   4.351   3.036   9.577  0.6985 -0.2278  0.0167
  135MPD2    C2 2057   4.415   2.936   9.500  0.3733 -0.2617 -0.1156
  135MPD2    C3 2058   4.490   2.841   9.568 -0.5884  0.3369  0.6030
  135MPD2    C4 2059   4.520   2.851   9.703 -0.1161  0.2585 -0.0914
  135MPD2    C5 2060   4.484   2.969   9.770 -0.2722  0.1351 -0.7128
  135MPD2     H 2061   4.404   2.923   9.393 -1.5183 -0.2321  0.0613
  135MPD2    H1 2062   4.580   2.777   9.755  0.9973  0.6740 -0.7858
  135MPD2    H2 2063   4.352   3.119   9.783 -1.2447 -2.3274  1.0914
  135MPD2    H3 2064   4.508   2.981   9.875 -1.1316 -1.3039 -0.3392
  135MPD2     N 2065   4.561   2.738   9.502  0.5598 -0.1354 -0.1390
  135MPD2    H5 2066   4.639   2.692   9.548  0.0686 -0.0230  0.8003
  135MPD2    N1 2067   4.247   3.114   9.522  0.3701  0.1641 -0.2248
  135MPD2    H7 2068   4.226   3.098   9.424 -1.0034 -0.3417  0.1588
  136TCq2    C1 2069   4.160   3.207   9.579  0.3886  0.0434 -0.7255
  136TCq2    O2 2070   4.140   3.235   9.696  0.6408  0.3307 -0.3328
  136TCq2    C2 2071   4.091   3.276   9.470 -0.1666 -0.3599 -0.7196
  136TCq2    C3 2072   4.096   3.219   9.346 -0.3920  0.1226 -0.1569
  136TCq2    C4 2073   4.000   3.255   9.258 -0.1991  0.3888 -0.1520
  136TCq2    C5 2074   3.900   3.347   9.287  0.1450  0.7977  0.2586
  136TCq2    C6 2075   3.899   3.402   9.411 -0.2193  0.0956  0.5277
  136TCq2    C7 2076   3.984   3.360   9.508 -0.1899  0.5970 -0.0095
  136TCq2    C8 2077   3.802   3.513   9.429  0.3448 -0.3928  0.1769
  136TCq2    O4 2078   3.750   3.561   9.328 -0.1748  0.2451  0.1771
  136TCq2    C9 2079   4.002   3.210   9.118 -0.1916  0.5950 -0.1858
  136TCq2    O5 2080   4.070   3.102   9.097  0.5200  0.1377 -0.0466
  136TCq2    O6 2081   3.942   3.281   9.033 -0.0170 -0.4967 -0.2099
  136TCq2    H2 2082   4.155   3.136   9.309  2.7362  2.5533 -0.6230
  136TCq2    H3 2083   3.834   3.385   9.210 -0.0212  1.2794  0.6441
  136TCq2    H4 2084   3.997   3.406   9.605  1.7038 -1.5947  0.7987
  137MPD2     C 2085   3.420   2.969  10.219  0.7312 -0.7475 -0.2734
  137MPD2    C1 2086   3.536   2.932  10.157 -0.0945 -0.6327  0.2830
  137MPD2    C2 2087   3.660   2.960  10.214 -0.5139  0.5115  0.3489
  137MPD2    C3 2088   3.669   3.013  10.343  0.7532  0.6564  0.7426
  137MPD2    C4 2089   3.552   3.048  10.404  0.6144  0.0335  0.0035
  137MPD2    C5 2090   3.427   3.013  10.346  0.6866  0.2866  0.2499
  137MPD2     H 2091   3.750   2.922  10.166 -0.2260  0.9871  0.5087
  137MPD2    H1 2092   3.548   3.090  10.504 -2.4807  0.5209 -0.3056
  137MPD2    H2 2093   3.325   2.951  10.171 -1.2476  0.4706  3.1884
  137MPD2    H3 2094   3.341   3.022  10.411  0.3900  0.8266 -0.2197
  137MPD2     N 2095   3.792   3.047  10.399  0.4957 -0.6469 -0.2907
  137MPD2    H5 2096   3.773   3.085  10.492 -0.9419 -1.1530 -0.3884
  137MPD2    N1 2097   3.518   2.874  10.026 -0.3040  0.4863 -0.4661
  137MPD2    H7 2098   3.428   2.890   9.982 -0.7193 -2.3140 -0.6651
  138TCq2    C1 2099   3.616   2.823   9.942 -0.0198 -0.8254 -0.1563
  138TCq2    O2 2100   3.730   2.782   9.967  0.2438  1.0163  0.3161
  138TCq2    C2 2101   3.574   2.809   9.800 -0.0670 -0.2952  0.0349
  138TCq2    C3 2102   3.653   2.727   9.715 -0.3420  0.2651 -0.1725
  138TCq2    C4 2103   3.624   2.731   9.585 -0.4182 -0.2327 -0.0305
  138TCq2    C5 2104   3.527   2.815   9.534 -0.1282  0.2764  0.0904
  138TCq2    C6 2105   3.453   2.896   9.619  0.4841  0.2260  0.5143
  138TCq2    C7 2106   3.475   2.895   9.759 -0.5411  0.0520 -0.3550
  138TCq2    C8 2107   3.351   2.974   9.568 -0.0194 -0.4930 -0.7053
  138TCq2    O4 2108   3.358   2.998   9.449 -0.1687 -0.5826  0.6355
  138TCq2    C9 2109   3.693   2.643   9.491 -0.2201  0.4934  0.0245
  138TCq2    O5 2110   3.653   2.648   9.370  0.1722 -0.1002  0.1553
  138TCq2    O6 2111   3.781   2.566   9.540 -1.2893 -0.0879  0.2679
  138TCq2    H2 2112   3.736   2.670   9.753 -0.0051  0.6098 -0.3944
  138TCq2    H3 2113   3.513   2.812   9.426 -0.0335  0.2022  0.0803
  138TCq2    H4 2114   3.420   2.969   9.815  2.2639  0.6799  1.5926
  139TMC2    C1 2115   3.768   1.578  12.784 -0.6975 -0.1699  0.5387
  139TMC2    C2 2116   3.719   1.621  12.665  0.2943  0.0974 -0.2390
  139TMC2    C3 2117   3.662   1.750  12.660 -0.0493 -0.1170  0.1487
  139TMC2    C4 2118   3.756   1.654  12.899  0.1143  0.1183 -0.1883
  139TMC2    C5 2119   3.698   1.777  12.886 -0.2301  0.1762 -0.1542
  139TMC2    C6 2120   3.653   1.833  12.769  0.0038 -0.4245 -0.2059
  139TMC2     C 2121   3.823   1.446  12.796  0.5087  0.4908  0.0070
  139TMC2     O 2122   3.795   1.368  12.707 -0.2091 -0.1784  0.0748
  139TMC2     H 2123   3.704   1.561  12.575  1.7075 -1.7811  0.7892
  139TMC2    H1 2124   3.776   1.606  12.994 -1.1812  0.5555  0.2964
  139TMC2    H2 2125   3.599   1.927  12.762  0.6757  0.0797  1.4824
  139TMC2    C7 2126   3.655   1.837  13.005 -0.4690  0.4374 -0.0110
  139TMC2    C8 2127   3.609   1.799  12.532 -0.0558  0.6450 -0.5163
  139TMC2    O1 2128   3.556   1.910  13.000 -0.1992  0.0728 -0.5288
  139TMC2    O2 2129   3.656   1.767  12.424 -0.4807 -0.0227  0.1344
  139TMC2    O5 2130   3.482   1.817  12.563 -0.3796 -0.2067  0.4318
  139TMC2    H5 2131   3.454   1.797  12.655 -1.0173 -0.9981  0.0735
  140MPD2     C 2132   4.072   1.306  13.026 -0.2301 -0.4948  0.4067
  140MPD2    C1 2133   3.974   1.308  12.930  0.4089 -0.5210  0.3365
  140MPD2    C2 2134   3.949   1.188  12.864 -0.4273  0.4850 -0.0764
  140MPD2    C3 2135   4.012   1.075  12.901  0.4150  0.1976  0.1285
  140MPD2    C4 2136   4.099   1.077  13.001  0.3697  0.0124  0.3169
  140MPD2    C5 2137   4.131   1.192  13.063  0.5487 -0.5295 -0.7807
  140MPD2     H 2138   3.882   1.177  12.779 -0.9737 -0.7025  0.5060
  140MPD2    H1 2139   4.165   0.994  13.025  0.0970  0.5754  2.9524
  140MPD2    H2 2140   4.111   1.394  13.076  1.2836 -0.4574 -0.8361
  140MPD2    H3 2141   4.206   1.198  13.140 -1.1674 -0.9371  0.9211
  140MPD2     N 2142   3.976   0.957  12.829  0.6867  0.3971 -0.1541
  140MPD2    H5 2143   3.901   0.962  12.761 -0.1175 -0.6402  0.6662
  140MPD2    N1 2144   3.909   1.429  12.906  0.1788 -0.4399  0.1420
  140MPD2    H7 2145   3.935   1.506  12.967  2.5311  0.0316 -1.4592
  141TCq2    C1 2146   4.614   2.747  14.492  0.2914 -1.1631 -0.1451
  141TCq2    O2 2147   4.690   2.817  14.424  0.0625  0.5161  0.0988
  141TCq2    C2 2148   4.644   2.746  14.634  0.5395  0.2781 -0.8468
  141TCq2    C3 2149   4.603   2.641  14.719  0.6084 -0.7665 -0.8341
  141TCq2    C4 2150   4.597   2.661  14.853  0.5699  0.3688 -0.4947
  141TCq2    C5 2151   4.628   2.786  14.900 -0.2097  0.1903  0.2136
  141TCq2    C6 2152   4.671   2.883  14.822  0.1181  0.6323  0.1618
  141TCq2    C7 2153   4.687   2.862  14.686  0.3226  0.9475 -0.4979
  141TCq2    C8 2154   4.713   3.003  14.890 -0.5781  0.6900 -0.3977
  141TCq2    O4 2155   4.688   3.025  15.005  0.0013  0.2511 -0.2798
  141TCq2    C9 2156   4.549   2.561  14.947  0.0251  0.2980 -0.7059
  141TCq2    O5 2157   4.511   2.452  14.903 -0.6182 -0.4505 -0.2820
  141TCq2    O6 2158   4.582   2.583  15.068  0.2092  0.2857 -0.2045
  141TCq2    H2 2159   4.564   2.548  14.681  1.1744 -0.7375 -1.4855
  141TCq2    H3 2160   4.626   2.802  15.007  0.4058 -0.6237  0.3425
  141TCq2    H4 2161   4.719   2.940  14.618 -0.1041  2.4122  0.9747
  142MPD2     C 2162   2.880   1.678   9.599  0.3259 -0.0780 -0.2381
  142MPD2    C1 2163   2.816   1.610   9.693 -0.5299 -0.1726  0.6036
  142MPD2    C2 2164   2.727   1.502   9.662  1.0951  0.1507  0.4485
  142MPD2    C3 2165   2.709   1.465   9.534  0.5817 -0.3921 -0.1514
  142MPD2    C4 2166   2.787   1.525   9.438  0.4096  0.0852  0.0956
  142MPD2    C5 2167   2.867   1.634   9.469 -0.1528  0.4436 -0.6811
  142MPD2     H 2168   2.673   1.441   9.733 -3.4711  2.6090 -0.9184
  142MPD2    H1 2169   2.779   1.486   9.337  0.8452  2.6976 -0.9284
  142MPD2    H2 2170   2.960   1.748   9.619 -0.5212  0.7738  0.1788
  142MPD2    H3 2171   2.919   1.681   9.387  2.9968  0.4506  1.3212
  142MPD2     N 2172   2.625   1.354   9.488 -0.1914 -0.3483 -0.2891
  142MPD2    H5 2173   2.615   1.357   9.387 -0.8848 -3.4452 -0.3068
  142MPD2    N1 2174   2.829   1.647   9.831  0.5899  0.3420  0.0796
  142MPD2    H7 2175   2.796   1.585   9.904 -1.3622 -0.8706 -1.8177
  143TCq2    C1 2176   2.553   1.270   9.568  0.9656  0.1228 -0.4987
  143TCq2    O2 2177   2.556   1.257   9.688  0.1640 -0.1467 -0.0625
  143TCq2    C2 2178   2.455   1.189   9.495  1.0433 -0.8077  0.0789
  143TCq2    C3 2179   2.428   1.220   9.364  0.6086 -0.6138  0.4688
  143TCq2    C4 2180   2.365   1.127   9.290  0.0780  0.0559 -0.4349
  143TCq2    C5 2181   2.331   1.004   9.343  0.0567 -0.1836 -0.1181
  143TCq2    C6 2182   2.353   0.987   9.479  0.1733 -0.6212 -0.1167
  143TCq2    C7 2183   2.406   1.078   9.560 -0.3082  0.6618  0.1529
  143TCq2    C8 2184   2.313   0.865   9.562  0.2007  0.5475  0.4853
  143TCq2    O4 2185   2.343   0.855   9.682 -0.1746 -0.3558 -0.1814
  143TCq2    C9 2186   2.305   1.153   9.161 -0.0576 -0.4844 -0.3658
  143TCq2    O5 2187   2.220   1.070   9.125 -0.4021  0.2411  0.2195
  143TCq2    O6 2188   2.355   1.240   9.091 -0.2243 -0.6072  0.1959
  143TCq2    H2 2189   2.448   1.320   9.327 -1.0103 -1.9317 -3.8638
  143TCq2    H3 2190   2.295   0.924   9.279  0.9690 -1.9207  1.5422
  143TCq2    H4 2191   2.425   1.063   9.666 -2.2520 -0.0538  0.4068
  144MPD2     C 2192   4.440   0.510   0.564  0.0294  0.0164  0.0445
  144MPD2    C1 2193   4.528   0.518   0.459 -0.7285  0.4546 -0.8894
  144MPD2    C2 2194   4.652   0.583   0.481  0.3767 -0.5455  0.9627
  144MPD2    C3 2195   4.691   0.639   0.598  0.7185  0.2048  0.9032
  144MPD2    C4 2196   4.601   0.627   0.707 -0.7495 -0.4544 -0.1177
  144MPD2    C5 2197   4.480   0.566   0.691  0.2431  0.6313  0.2822
  144MPD2     H 2198   4.718   0.601   0.397  0.5471  3.4538  1.9427
  144MPD2    H1 2199   4.620   0.659   0.809  0.7467 -0.2640 -0.4514
  144MPD2    H2 2200   4.338   0.474   0.556  0.5987 -1.0411 -2.4663
  144MPD2    H3 2201   4.416   0.570   0.778  0.1034 -1.8733  0.3146
  144MPD2     N 2202   0.092   0.705   0.630 -0.2942 -0.2458  0.5020
  144MPD2    H5 2203   0.095   0.755   0.718  2.5758  1.6897 -0.7324
  144MPD2    N1 2204   4.496   0.474   0.326 -0.2394  0.8029 -0.4177
  144MPD2    H7 2205   4.576   0.476   0.264 -0.5362  1.2374 -0.7888
  145TCq2    C1 2206   0.191   0.736   0.543 -0.5778  0.7626 -0.7164
  145TCq2    O2 2207   0.216   0.687   0.433  0.8659 -0.7572 -0.4933
  145TCq2    C2 2208   0.309   0.774   0.619 -0.1004 -0.0036  0.2435
  145TCq2    C3 2209   0.423   0.797   0.546  0.3638 -0.6046 -0.4377
  145TCq2    C4 2210   0.550   0.792   0.603  0.1741 -0.3373 -0.0255
  145TCq2    C5 2211   0.553   0.757   0.733 -0.4500 -1.3392  1.1344
  145TCq2    C6 2212   0.442   0.737   0.807  0.3841 -0.0269  0.2119
  145TCq2    C7 2213   0.325   0.741   0.749 -0.0641 -0.4301  0.4684
  145TCq2    C8 2214   0.460   0.728   0.955 -0.4057 -0.4916 -0.4235
  145TCq2    O4 2215   0.570   0.698   0.998  0.0555  0.2123 -0.7628
  145TCq2    C9 2216   0.665   0.851   0.535 -0.3467  0.5687  0.8692
  145TCq2    O5 2217   0.639   0.932   0.442 -0.6889  0.7461  0.6294
  145TCq2    O6 2218   0.772   0.789   0.555 -0.5962 -0.2826  0.2437
  145TCq2    H2 2219   0.411   0.845   0.450 -1.8215  0.2953  0.2828
  145TCq2    H3 2220   0.649   0.763   0.783 -0.4867  2.4469  0.7193
  145TCq2    H4 2221   0.238   0.729   0.812  0.0519 -0.2876  0.6567
  146TMC2    C1 2222   1.277   4.349  12.455  0.4341  0.1949 -0.0250
  146TMC2    C2 2223   1.161   4.368  12.383  0.2723  0.0609  0.1656
  146TMC2    C3 2224   1.164   4.311  12.260  0.3651 -1.0432 -0.0702
  146TMC2    C4 2225   1.386   4.279  12.402 -0.2142 -0.2965  0.2283
  146TMC2    C5 2226   1.375   4.217  12.282 -0.4858 -0.2439 -0.1256
  146TMC2    C6 2227   1.265   4.232  12.212 -0.4487  0.4817 -0.6050
  146TMC2     C 2228   1.258   4.362  12.599  0.1605  0.0019 -0.2021
  146TMC2     O 2229   1.177   4.445  12.643 -0.2416  0.2344  0.3140
  146TMC2     H 2230   1.081   4.413  12.439  0.5801  2.4313 -1.3184
  146TMC2    H1 2231   1.477   4.263  12.458 -0.7417 -0.6586  0.9829
  146TMC2    H2 2232   1.266   4.178  12.118  0.8329  0.1141 -0.3757
  146TMC2    C7 2233   1.493   4.180  12.216  0.7030 -0.2310 -0.3267
  146TMC2    C8 2234   1.038   4.274  12.197  0.2784  0.3742  0.0619
  146TMC2    O1 2235   1.512   4.221  12.100 -0.0820  0.5762  0.4890
  146TMC2    O2 2236   1.020   4.165  12.148 -0.5925 -0.1023  0.1050
  146TMC2    O5 2237   0.940   4.350  12.253  0.5039 -0.0447  0.1673
  146TMC2    H5 2238   0.954   4.440  12.288 -2.9848  0.3060  0.6890
  147MPD2     C 2239   1.913   3.874  12.196  0.3643  0.2970 -0.2656
  147MPD2    C1 2240   1.856   3.882  12.320  1.1326 -0.7838 -0.4641
  147MPD2    C2 2241   1.743   3.953  12.353  0.3710  0.6910 -0.2353
  147MPD2    C3 2242   1.682   4.026  12.251 -0.8625 -0.4481  0.8525
  147MPD2    C4 2243   1.735   4.022  12.124  0.4748  0.4917  0.3441
  147MPD2    C5 2244   1.852   3.948  12.090 -0.0179  0.2996 -0.1045
  147MPD2     H 2245   1.709   3.956  12.456 -0.3985 -1.4796 -0.4155
  147MPD2    H1 2246   1.685   4.078  12.047 -0.1372  0.3829  0.6647
  147MPD2    H2 2247   2.001   3.815  12.177  0.1829  0.0991 -0.4901
  147MPD2    H3 2248   1.887   3.940  11.987  1.2413  0.2369  0.3256
  147MPD2     N 2249   1.568   4.094  12.292  0.2437  0.1009 -0.4542
  147MPD2    H5 2250   1.538   4.072  12.387 -0.1238  0.3324 -0.5168
  147MPD2    N1 2251   1.928   3.812  12.421 -0.0778  0.5383 -0.4795
  147MPD2    H7 2252   2.021   3.778  12.400 -0.7937 -1.5647 -0.2393
  148MPD2     C 2253   1.265   2.602   9.479  0.4298  0.4298 -0.1329
  148MPD2    C1 2254   1.367   2.526   9.541 -0.2315 -0.1365 -0.0154
  148MPD2    C2 2255   1.406   2.405   9.485  0.2889 -0.3245 -0.6294
  148MPD2    C3 2256   1.348   2.360   9.372  0.2643 -0.2008  0.1810
  148MPD2    C4 2257   1.263   2.448   9.305  0.5825 -0.1775 -0.0616
  148MPD2    C5 2258   1.222   2.567   9.356 -0.6900 -0.5009  0.0080
  148MPD2     H 2259   1.485   2.346   9.531  1.6399  2.2249  0.2819
  148MPD2    H1 2260   1.223   2.420   9.208 -1.9102  2.4829  0.1762
  148MPD2    H2 2261   1.224   2.695   9.516  1.1034  0.4250  0.6326
  148MPD2    H3 2262   1.141   2.617   9.303 -0.7907 -2.0192 -1.2850
  148MPD2     N 2263   1.375   2.229   9.316  0.0470  0.4209 -0.4445
  148MPD2    H5 2264   1.326   2.209   9.230  1.2679 -0.1404 -1.0169
  148MPD2    N1 2265   1.440   2.563   9.661  0.0781 -0.0807  0.4123
  148MPD2    H7 2266   1.507   2.497   9.698  0.9115  0.1158 -0.7594
  149TCq2    C1 2267   1.431   2.694   9.713  0.0270  0.3532  0.7793
  149TCq2    O2 2268   1.363   2.792   9.675 -0.0628  0.2399  0.6104
  149TCq2    C2 2269   1.527   2.708   9.818  0.4444  0.1513 -0.5106
  149TCq2    C3 2270   1.519   2.835   9.881  0.6897  0.0237  1.0208
  149TCq2    C4 2271   1.620   2.868   9.967  0.2833  0.0138  0.1152
  149TCq2    C5 2272   1.694   2.767  10.026  0.7236 -0.2267 -0.6919
  149TCq2    C6 2273   1.682   2.635   9.969  0.5427 -0.3781 -0.0597
  149TCq2    C7 2274   1.610   2.605   9.859 -0.0723  0.7829  0.9677
  149TCq2    C8 2275   1.770   2.526  10.018 -0.6883  0.3818  0.4085
  149TCq2    O4 2276   1.806   2.452   9.930 -0.3374 -0.3005 -0.2723
  149TCq2    C9 2277   1.612   2.986  10.049  0.5276  0.3229 -0.0347
  149TCq2    O5 2278   1.518   3.063  10.014  0.1361  0.4238 -0.3543
  149TCq2    O6 2279   1.655   2.973  10.169  0.2480  0.2793 -0.5152
  149TCq2    H2 2280   1.431   2.897   9.872 -0.3789 -2.0271 -2.8130
  149TCq2    H3 2281   1.767   2.783  10.105  1.0433 -2.2483 -0.5708
  149TCq2    H4 2282   1.597   2.498   9.849 -1.4590  1.0478  0.0757
  150MPD2     C 2283   3.523   1.997  11.652  0.4206  0.0082 -0.6823
  150MPD2    C1 2284   3.479   2.127  11.640 -0.0818  0.4208 -0.6339
  150MPD2    C2 2285   3.561   2.238  11.660 -0.5311  1.0336 -0.0617
  150MPD2    C3 2286   3.691   2.208  11.697  0.5540 -0.2599 -0.4232
  150MPD2    C4 2287   3.732   2.077  11.721  0.2549  0.3213  0.0072
  150MPD2    C5 2288   3.646   1.969  11.695 -0.5361 -0.3912 -0.2994
  150MPD2     H 2289   3.532   2.340  11.640 -2.2649  0.4185 -0.6325
  150MPD2    H1 2290   3.830   2.052  11.761  0.6856 -1.5696 -2.2151
  150MPD2    H2 2291   3.454   1.914  11.640 -1.2029  1.0157  1.5223
  150MPD2    H3 2292   3.678   1.867  11.711 -2.3317 -0.8096  0.5946
  150MPD2     N 2293   3.771   2.325  11.713  0.2370  0.8944  0.0553
  150MPD2    H5 2294   3.721   2.413  11.709 -1.4563 -0.1036 -1.1157
  150MPD2    N1 2295   3.343   2.136  11.601  0.0303  0.8420 -0.2773
  150MPD2    H7 2296   3.284   2.054  11.615  2.2349 -0.2853  2.2273
  151TCq2    C1 2297   3.902   2.320  11.760 -0.3270  0.3442  0.2849
  151TCq2    O2 2298   3.971   2.224  11.797  0.5835 -0.2243  0.2172
  151TCq2    C2 2299   3.959   2.453  11.799 -0.2405 -0.5877  0.3808
  151TCq2    C3 2300   3.918   2.569  11.742 -0.6173 -0.0750  0.8652
  151TCq2    C4 2301   3.965   2.686  11.785 -0.4779  0.3956  0.1255
  151TCq2    C5 2302   4.049   2.683  11.888  0.0487  0.3488 -0.0722
  151TCq2    C6 2303   4.100   2.563  11.945 -0.2166 -0.5864  0.2877
  151TCq2    C7 2304   4.050   2.446  11.902 -0.0719 -0.0695 -0.6489
  151TCq2    C8 2305   4.183   2.573  12.063 -0.0632 -0.4608 -0.4920
  151TCq2    O4 2306   4.196   2.687  12.108  0.2988  0.0108 -0.3996
  151TCq2    C9 2307   3.922   2.808  11.726  0.1009 -0.0603 -0.4839
  151TCq2    O5 2308   3.978   2.915  11.748  0.4562  0.0315  0.0862
  151TCq2    O6 2309   3.835   2.794  11.637 -0.2123  0.1236 -0.2624
  151TCq2    H2 2310   3.841   2.563  11.665 -1.3328 -0.5667  1.6239
  151TCq2    H3 2311   4.087   2.776  11.930  0.4854 -0.5843  1.6038
  151TCq2    H4 2312   4.082   2.351  11.943 -0.3602 -1.3577 -3.3648
  152MPD2     C 2313   3.322   1.702  12.268 -0.0978 -0.4423 -0.0904
  152MPD2    C1 2314   3.327   1.792  12.168 -0.6289 -0.2813  0.2952
  152MPD2    C2 2315   3.213   1.829  12.098 -0.2856 -0.4333  0.5772
  152MPD2    C3 2316   3.086   1.776  12.130 -0.0342 -0.0484 -0.3562
  152MPD2    C4 2317   3.086   1.682  12.229 -0.4539 -0.3857 -0.7268
  152MPD2    C5 2318   3.201   1.649  12.292  0.0493  0.2259 -0.2867
  152MPD2     H 2319   3.224   1.905  12.021 -2.8058 -1.4479 -0.7549
  152MPD2    H1 2320   2.997   1.631  12.266  0.8186 -1.3546  1.0028
  152MPD2    H2 2321   3.397   1.672  12.340  1.1656 -0.2949 -1.3517
  152MPD2    H3 2322   3.203   1.569  12.366 -1.1531 -0.0977 -0.6043
  152MPD2     N 2323   2.977   1.822  12.054  0.0638  0.1170  1.0827
  152MPD2    H5 2324   2.992   1.885  11.976  1.5275 -0.2192  1.0915
  152MPD2    N1 2325   3.448   1.855  12.142  0.5798  0.6870  0.0603
  152MPD2    H7 2326   3.523   1.836  12.208  1.0712  0.5245 -0.5428
  153TCq2    C1 2327   3.480   1.934  12.037 -0.9923  0.3501  0.3534
  153TCq2    O2 2328   3.401   1.990  11.960 -0.2151 -0.0557 -0.5883
  153TCq2    C2 2329   3.618   1.980  12.026 -0.4202 -0.2584  0.5151
  153TCq2    C3 2330   3.721   1.889  12.035  0.4940 -0.3380 -0.2875
  153TCq2    C4 2331   3.848   1.937  12.037 -0.5372  0.6489 -0.0478
  153TCq2    C5 2332   3.871   2.072  12.057  1.1718  1.1821  0.3815
  153TCq2    C6 2333   3.763   2.158  12.048 -0.1174  0.3616 -0.1564
  153TCq2    C7 2334   3.638   2.115  12.021  0.4030 -0.1281  0.8172
  153TCq2    C8 2335   3.777   2.282  12.110  0.3033  0.6397 -0.5692
  153TCq2    O4 2336   3.687   2.364  12.090  0.0978 -0.1117  0.1727
  153TCq2    C9 2337   3.957   1.841  12.019 -0.1296  0.8729 -0.4904
  153TCq2    O5 2338   4.072   1.893  12.036 -0.0347  0.2284 -0.2401
  153TCq2    O6 2339   3.932   1.722  11.991  0.4049  0.1472  0.2671
  153TCq2    H2 2340   3.697   1.787  12.005  0.3140 -0.1048 -0.9241
  153TCq2    H3 2341   3.972   2.110  12.052  2.1246 -1.3251  0.6229
  153TCq2    H4 2342   3.549   2.177  12.017  0.4534 -0.0439  0.9923
  154MPD2     C 2343   0.172   1.925   0.098  0.4812 -0.3050  0.1712
  154MPD2    C1 2344   0.287   1.917   0.173 -1.0167  0.6464 -0.0383
  154MPD2    C2 2345   0.338   2.027   0.237 -0.2282  0.6836 -0.4097
  154MPD2    C3 2346   0.279   2.153   0.214  0.0344 -0.0806  0.1975
  154MPD2    C4 2347   0.166   2.158   0.139  0.5696  0.2998 -0.2000
  154MPD2    C5 2348   0.107   2.041   0.084 -0.5730  0.2265 -0.5979
  154MPD2     H 2349   0.421   2.015   0.305  0.2660  0.8356 -0.9837
  154MPD2    H1 2350   0.106   2.247   0.122  0.3195 -0.3969 -2.9673
  154MPD2    H2 2351   0.123   1.838   0.056 -0.0546  0.5433 -0.9954
  154MPD2    H3 2352   0.026   2.054   0.013 -0.1042 -0.9059 -1.3338
  154MPD2     N 2353   0.337   2.271   0.266 -0.2808 -0.5370 -0.1161
  154MPD2    H5 2354   0.422   2.267   0.321 -0.0734  0.8876 -0.3225
  154MPD2    N1 2355   0.339   1.789   0.178 -0.3158  0.2452 -0.1481
  154MPD2    H7 2356   0.309   1.721   0.110  0.5390 -1.0130  0.7197
  155TCq2    C1 2357   0.432   1.754   0.266 -0.5411  0.1550  0.4642
  155TCq2    O2 2358   0.449   1.789   0.383  0.3482 -0.6601  0.1110
  155TCq2    C2 2359   0.501   1.634   0.229  0.3249  0.3222 -0.1298
  155TCq2    C3 2360   0.528   1.542   0.328 -0.2359 -0.5651  0.4078
  155TCq2    C4 2361   0.602   1.432   0.291  0.0202 -0.7027  0.1239
  155TCq2    C5 2362   0.649   1.415   0.162  0.0924  0.2134  0.9211
  155TCq2    C6 2363   0.626   1.515   0.075  0.1541 -0.6361 -0.6550
  155TCq2    C7 2364   0.538   1.621   0.100 -0.3255  0.2062  0.2372
  155TCq2    C8 2365   0.690   1.515  17.639 -0.0879 -0.3356  0.1550
  155TCq2    O4 2366   0.699   1.407  17.588  0.9304 -0.0409  0.0440
  155TCq2    C9 2367   0.638   1.331   0.392  0.3686 -0.2046  0.5444
  155TCq2    O5 2368   0.710   1.227   0.356 -0.0691 -0.2229  0.2119
  155TCq2    O6 2369   0.596   1.341   0.511  0.0339 -0.2194  0.2885
  155TCq2    H2 2370   0.501   1.556   0.432 -0.4028  1.3975  0.0987
  155TCq2    H3 2371   0.704   1.327   0.129  1.1477  1.0461  0.4422
  155TCq2    H4 2372   0.526   1.705   0.034  0.4650  0.5507  0.5412
  156MPD2     C 2373   4.408   4.267  11.239 -0.6813  0.4078 -1.4403
  156MPD2    C1 2374   4.295   4.332  11.196 -0.8206 -0.3458  0.0198
  156MPD2    C2 2375   4.261   4.442  11.272  0.2374 -0.1277 -0.7251
  156MPD2    C3 2376   4.332   4.482  11.386  0.0596 -0.2683  0.4199
  156MPD2    C4 2377   4.429   4.403  11.433  0.4576  0.3529 -0.6568
  156MPD2    C5 2378   4.465   4.296  11.357 -0.0927 -0.3341  0.5699
  156MPD2     H 2379   4.171   4.492  11.238 -2.5883 -4.0936  0.8198
  156MPD2    H1 2380   4.485   4.422  11.524  1.0757 -3.5763 -0.2061
  156MPD2    H2 2381   4.457   4.188  11.183 -1.8321 -2.5328  1.6871
  156MPD2    H3 2382   4.540   4.228  11.394  1.0589  1.3036  1.2149
  156MPD2     N 2383   4.267   4.577  11.467  0.3533  0.0144 -0.0291
  156MPD2    H5 2384   4.194   4.632  11.423  0.5375 -1.4158 -2.1085
  156MPD2    N1 2385   4.221   4.283  11.090  0.9227  0.1372 -0.5003
  156MPD2    H7 2386   4.250   4.193  11.054 -1.5585 -0.5152 -0.8533
  157TCq2    C1 2387   4.099   4.331  11.042  0.0619  0.0933  0.0494
  157TCq2    O2 2388   4.043   4.444  11.042 -0.0510 -0.1010 -0.0397
  157TCq2    C2 2389   4.031   4.227  10.968  0.5196  0.6222 -0.2963
  157TCq2    C3 2390   4.007   4.114  11.037 -0.5589 -0.3805 -0.2477
  157TCq2    C4 2391   3.891   4.043  11.019 -0.8654 -0.1872 -0.5515
  157TCq2    C5 2392   3.796   4.073  10.931 -0.1316 -0.5866 -0.3342
  157TCq2    C6 2393   3.819   4.193  10.866 -0.1514  0.5415  0.4778
  157TCq2    C7 2394   3.933   4.265  10.877  1.4222 -0.0228  0.3805
  157TCq2    C8 2395   3.700   4.246  10.787  0.1360 -0.6775 -0.6920
  157TCq2    O4 2396   3.609   4.168  10.771 -0.0614  0.7757  0.2957
  157TCq2    C9 2397   3.873   3.927  11.101 -0.5253  0.0300  0.0673
  157TCq2    O5 2398   3.759   3.868  11.100 -0.8684 -0.2997  0.1297
  157TCq2    O6 2399   3.968   3.895  11.174 -0.2862 -0.1342 -0.0754
  157TCq2    H2 2400   4.062   4.084  11.125 -0.5811 -1.6832 -0.6772
  157TCq2    H3 2401   3.717   4.002  10.910  0.8477 -1.2246 -1.8461
  157TCq2    H4 2402   3.942   4.355  10.817  0.4592  0.4794  0.9918
  158TMC2    C1 2403   3.808   3.105  13.426 -0.8254  0.0629 -0.1038
  158TMC2    C2 2404   3.835   3.177  13.316 -0.7612 -0.0896 -0.0890
  158TMC2    C3 2405   3.730   3.212  13.241 -0.5022 -0.2072 -0.2123
  158TMC2    C4 2406   3.680   3.073  13.464  0.2223  0.4790  0.0532
  158TMC2    C5 2407   3.580   3.125  13.382  0.1260  0.5604 -0.4697
  158TMC2    C6 2408   3.601   3.188  13.264 -0.4393 -0.7908 -0.3818
  158TMC2     C 2409   3.919   3.091  13.519  0.3704  0.2943  0.9032
  158TMC2     O 2410   3.996   3.188  13.510  0.1450 -0.0550  0.4116
  158TMC2     H 2411   3.927   3.202  13.264 -1.2920  0.5279 -0.7342
  158TMC2    H1 2412   3.654   3.038  13.563 -1.6772 -2.0538 -1.3364
  158TMC2    H2 2413   3.521   3.220  13.197 -2.5098  0.0408  2.4831
  158TMC2    C7 2414   3.445   3.096  13.423 -0.0018  0.8394 -0.0187
  158TMC2    C8 2415   3.751   3.316  13.140  0.1240  0.5466  0.0321
  158TMC2    O1 2416   3.357   3.182  13.416  0.4447  0.0093  0.4531
  158TMC2    O2 2417   3.843   3.394  13.142  0.3530  0.2345  0.2823
  158TMC2    O5 2418   3.709   3.257  13.026  0.0590 -0.0064  0.6220
  158TMC2    H5 2419   3.682   3.165  13.045  2.7505 -0.9218 -0.0780
  159MPD2     C 2420   4.130   2.906  13.941  0.3702  0.4090 -0.1758
  159MPD2    C1 2421   4.022   2.830  13.908 -0.1296  0.2988  0.0604
  159MPD2    C2 2422   3.950   2.852  13.792 -0.2845  0.3304  0.5691
  159MPD2    C3 2423   3.992   2.948  13.703  0.4228 -0.3735  0.0043
  159MPD2    C4 2424   4.100   3.021  13.732 -0.6816 -0.5699  0.6055
  159MPD2    C5 2425   4.175   2.991  13.844 -0.2553  0.6224 -0.0356
  159MPD2     H 2426   3.860   2.795  13.776  0.7933 -1.5829  1.3286
  159MPD2    H1 2427   4.140   3.107  13.680 -1.4361 -0.0890  0.8312
  159MPD2    H2 2428   4.198   2.895  14.025 -1.2695  0.7820  1.1852
  159MPD2    H3 2429   4.259   3.050  13.876 -0.1390 -0.3672  1.4946
  159MPD2     N 2430   3.906   2.980  13.600 -0.5892  0.1008  0.5009
  159MPD2    H5 2431   3.824   2.921  13.593 -0.9740  0.4142  2.3937
  159MPD2    N1 2432   3.988   2.732  14.006  0.2655 -0.5024 -0.5059
  159MPD2    H7 2433   4.033   2.738  14.097 -0.8835  0.9810 -0.0424
  160TMC2    C1 2434   2.569   0.888   1.681 -0.3558 -0.9243 -0.6532
  160TMC2    C2 2435   2.509   0.778   1.735  0.4194 -0.4107 -0.2734
  160TMC2    C3 2436   2.598   0.692   1.797  0.9168 -0.5803 -1.2457
  160TMC2    C4 2437   2.706   0.911   1.678 -0.0114 -0.8660  0.1743
  160TMC2    C5 2438   2.785   0.819   1.733  0.5195 -0.0808  0.0713
  160TMC2    C6 2439   2.738   0.702   1.789  0.0146  0.9636  0.1104
  160TMC2     C 2440   2.479   0.972   1.605  0.0870  0.5155  0.0026
  160TMC2     O 2441   2.364   0.980   1.638  0.7248  0.7001 -0.2096
  160TMC2     H 2442   2.402   0.761   1.735  0.5531 -1.2214  1.5013
  160TMC2    H1 2443   2.759   1.000   1.648 -2.3528  0.0453 -1.2819
  160TMC2    H2 2444   2.797   0.631   1.845  0.7602 -2.1294 -4.5902
  160TMC2    C7 2445   2.924   0.850   1.749 -0.1411  0.2485  0.8536
  160TMC2    C8 2446   2.537   0.563   1.833  0.4077  0.6715  0.2316
  160TMC2    O1 2447   2.983   0.782   1.832  0.2159  0.0943  0.1602
  160TMC2    O2 2448   2.452   0.528   1.756  0.1159 -0.2646  0.1705
  160TMC2    O5 2449   2.631   0.492   1.892  0.7422  0.4121 -0.4866
  160TMC2    H5 2450   2.680   0.544   1.960 -1.4846  1.0381  0.6405
  161MPD2     C 2451   2.346   1.199   1.462 -0.1810  0.4366  0.4004
  161MPD2    C1 2452   2.479   1.159   1.442  0.1046 -0.1368 -0.4495
  161MPD2    C2 2453   2.563   1.216   1.344  0.1404  0.8320  0.5369
  161MPD2    C3 2454   2.508   1.313   1.263  0.1786 -0.4491 -0.0342
  161MPD2    C4 2455   2.376   1.341   1.279 -0.1672 -0.8286 -0.2062
  161MPD2    C5 2456   2.297   1.289   1.374  0.0529 -0.0710 -0.2474
  161MPD2     H 2457   2.659   1.167   1.329 -0.8856 -0.2367 -2.6806
  161MPD2    H1 2458   2.325   1.406   1.208 -1.1472 -3.1137 -1.5787
  161MPD2    H2 2459   2.269   1.164   1.529 -0.3704 -0.4958 -0.2988
  161MPD2    H3 2460   2.190   1.306   1.370  0.0911 -0.0066 -0.9505
  161MPD2     N 2461   2.578   1.367   1.158  0.2780 -0.2927 -0.2845
  161MPD2    H5 2462   2.531   1.443   1.109  1.1402 -0.7805 -1.8696
  161MPD2    N1 2463   2.543   1.059   1.526 -0.5206 -0.6194  0.0011
  161MPD2    H7 2464   2.638   1.031   1.503  0.4068  2.8259 -0.3237
  162TMC2    C1 2465   1.688   2.711   0.830  0.4679  0.6231  0.6306
  162TMC2    C2 2466   1.720   2.812   0.917 -0.5497 -0.4487 -0.3055
  162TMC2    C3 2467   1.773   2.778   1.042 -0.1667  0.2316  0.2864
  162TMC2    C4 2468   1.726   2.581   0.856  0.2042  0.4772 -0.5043
  162TMC2    C5 2469   1.774   2.556   0.977 -0.4902 -0.2889 -0.0464
  162TMC2    C6 2470   1.798   2.645   1.081  0.0416 -0.6217 -0.3084
  162TMC2     C 2471   1.653   2.744   0.694  0.0217 -0.0234 -0.7653
  162TMC2     O 2472   1.693   2.663   0.612  0.3253  0.0484  0.0792
  162TMC2     H 2473   1.707   2.914   0.882  0.1407 -0.3220 -0.1954
  162TMC2    H1 2474   1.699   2.507   0.782  1.3179  0.3291 -0.7625
  162TMC2    H2 2475   1.839   2.617   1.178 -1.9906  3.0143  1.6297
  162TMC2    C7 2476   1.769   2.420   1.015  0.1748 -0.1018 -0.3032
  162TMC2    C8 2477   1.761   2.876   1.149  0.2485  0.1939 -0.0193
  162TMC2    O1 2478   1.809   2.327   0.940 -0.4208 -0.4053 -0.4989
  162TMC2    O2 2479   1.678   2.967   1.150  0.3027 -0.5751 -0.5210
  162TMC2    O5 2480   1.827   2.834   1.254 -0.4897  0.1907  0.5830
  162TMC2    H5 2481   1.908   2.778   1.243 -1.2044 -0.0346 -3.4534
  163MPD2     C 2482   1.362   2.948   0.328 -0.1167 -0.8156 -0.7059
  163MPD2    C1 2483   1.481   2.875   0.321  0.3335  0.9632  0.2569
  163MPD2    C2 2484   1.548   2.849   0.441 -0.1418 -0.5155  0.9592
  163MPD2    C3 2485   1.494   2.886   0.563 -0.2010  0.1421 -0.6003
  163MPD2    C4 2486   1.373   2.957   0.569  0.1580 -0.1174  0.1609
  163MPD2    C5 2487   1.312   3.000   0.451 -0.2665 -0.0265  0.1271
  163MPD2     H 2488   1.641   2.795   0.427  0.0277  0.1326 -0.4409
  163MPD2    H1 2489   1.353   3.003   0.665 -0.1460 -1.2370  0.6378
  163MPD2    H2 2490   1.312   2.983   0.239  1.4203 -2.1650 -2.1131
  163MPD2    H3 2491   1.230   3.069   0.461 -0.4832 -0.1242 -1.0287
  163MPD2     N 2492   1.548   2.834   0.687 -0.4830  0.1852 -0.0531
  163MPD2    H5 2493   1.507   2.865   0.774 -1.9755 -0.7671 -0.4053
  163MPD2    N1 2494   1.520   2.836   0.192  0.1181  0.4429 -0.1648
  163MPD2    H7 2495   1.459   2.857   0.113  0.3477  1.3715 -0.0951
  164TCq2    C1 2496   2.556   3.365  10.656 -0.2498  0.3836  0.5844
  164TCq2    O2 2497   2.514   3.286  10.573  0.1567 -0.4029  0.4993
  164TCq2    C2 2498   2.456   3.438  10.730  0.0551 -0.7745 -0.6904
  164TCq2    C3 2499   2.491   3.559  10.785 -0.5413  0.4827 -0.0493
  164TCq2    C4 2500   2.399   3.624  10.858  0.6113  0.1183  0.3078
  164TCq2    C5 2501   2.278   3.565  10.892 -0.0634  0.9965 -0.5318
  164TCq2    C6 2502   2.251   3.439  10.839  0.5963 -0.2358 -0.6058
  164TCq2    C7 2503   2.336   3.378  10.746 -0.8615 -0.1295 -0.4691
  164TCq2    C8 2504   2.142   3.371  10.905  0.1382  0.1632 -1.2959
  164TCq2    O4 2505   2.155   3.249  10.908 -0.2001 -0.1243  0.1692
  164TCq2    C9 2506   2.440   3.747  10.917  0.2686 -0.1707  0.2563
  164TCq2    O5 2507   2.565   3.771  10.915 -0.2679  0.3439  0.1388
  164TCq2    O6 2508   2.356   3.811  10.985  0.1422  0.4494 -0.3484
  164TCq2    H2 2509   2.577   3.614  10.749 -1.2638  0.6654 -1.4941
  164TCq2    H3 2510   2.226   3.616  10.972 -1.0662 -1.2349  0.2485
  164TCq2    H4 2511   2.333   3.276  10.709 -1.7602  0.3180 -1.6189
  165MPD2     C 2512   3.203   0.097   2.095  0.1421 -0.4047  0.0974
  165MPD2    C1 2513   3.097   0.063   2.013 -0.2803  0.4758  0.5491
  165MPD2    C2 2514   3.064   0.151   1.906 -0.4500  0.0073  0.0010
  165MPD2    C3 2515   3.126   0.275   1.891 -0.5236 -0.2755 -0.5064
  165MPD2    C4 2516   3.226   0.311   1.985 -0.5387 -0.6218 -0.4050
  165MPD2    C5 2517   3.260   0.222   2.081  0.0902 -0.3209  0.1256
  165MPD2     H 2518   2.991   0.121   1.832  0.5727 -2.6797  0.0720
  165MPD2    H1 2519   3.273   0.408   1.981  1.4524 -1.4854  2.1442
  165MPD2    H2 2520   3.242   0.030   2.170  1.0903  0.0584  0.0170
  165MPD2    H3 2521   3.329   0.263   2.154 -0.0222  1.5152 -0.7958
  165MPD2     N 2522   3.092   0.366   1.785  0.0078 -0.3133 -0.3500
  165MPD2    H5 2523   3.138   0.457   1.784  1.1698 -0.9274 -1.4585
  165MPD2    N1 2524   3.044   4.649   2.018  0.0402 -0.4487  0.0041
  165MPD2    H7 2525   3.095   4.592   2.086 -2.0769 -1.1974  0.9622
  166TCq2    C1 2526   2.985   0.366   1.704 -0.2227 -0.4267 -0.0614
  166TCq2    O2 2527   2.901   0.281   1.689  0.3605 -0.1957 -0.0949
  166TCq2    C2 2528   2.973   0.473   1.606 -0.1442  0.8264 -0.8488
  166TCq2    C3 2529   2.853   0.498   1.538 -0.0406  0.2581  0.1027
  166TCq2    C4 2530   2.847   0.607   1.458 -0.1482 -0.1220  0.3107
  166TCq2    C5 2531   2.964   0.682   1.431  0.6432 -0.0352 -0.1799
  166TCq2    C6 2532   3.077   0.657   1.501 -0.1085 -0.4605 -0.2819
  166TCq2    C7 2533   3.077   0.559   1.597  0.4715  0.0691  0.0167
  166TCq2    C8 2534   3.205   0.693   1.458 -0.2955 -0.0624 -0.9525
  166TCq2    O4 2535   3.304   0.665   1.523 -0.0165  0.2583 -0.3513
  166TCq2    C9 2536   2.724   0.641   1.377  0.8878 -0.3015  0.0518
  166TCq2    O5 2537   2.740   0.731   1.291 -1.0476  0.4034 -0.0593
  166TCq2    O6 2538   2.633   0.560   1.378 -0.0304  0.2219  0.4685
  166TCq2    H2 2539   2.759   0.448   1.559  0.6575 -1.1690 -0.2241
  166TCq2    H3 2540   2.959   0.770   1.368  0.3983  0.9967  1.2718
  166TCq2    H4 2541   3.173   0.530   1.640 -1.6843 -3.2289  2.6107
  167TMC2    C1 2542   2.246   2.320  12.570  0.9540  0.6456  0.5612
  167TMC2    C2 2543   2.369   2.258  12.589  0.2963  0.4847 -0.0662
  167TMC2    C3 2544   2.374   2.121  12.591 -0.0869 -0.8432  0.3205
  167TMC2    C4 2545   2.127   2.250  12.544  0.0479  0.4510 -0.4869
  167TMC2    C5 2546   2.147   2.110  12.531 -0.6546 -0.1774 -0.0718
  167TMC2    C6 2547   2.266   2.045  12.549 -0.3425 -0.0901 -0.1708
  167TMC2     C 2548   2.240   2.462  12.584  0.0379  0.7291 -0.2442
  167TMC2     O 2549   2.338   2.526  12.618 -0.0945  0.0535  0.6681
  167TMC2     H 2550   2.456   2.310  12.627 -0.2539  0.3328  1.3643
  167TMC2    H1 2551   2.030   2.290  12.519  1.1876  4.7111  2.0013
  167TMC2    H2 2552   2.254   1.939  12.568  1.2128  0.2763  2.7206
  167TMC2    C7 2553   2.040   2.045  12.458 -0.0265  0.2246 -0.0178
  167TMC2    C8 2554   2.497   2.052  12.640  0.0723 -0.1541 -0.4920
  167TMC2    O1 2555   1.930   2.091  12.479 -0.3086 -0.1365  0.1336
  167TMC2    O2 2556   2.580   2.096  12.713  0.1121 -0.3913 -0.4027
  167TMC2    O5 2557   2.519   1.932  12.574 -0.0058  0.5030 -0.1223
  167TMC2    H5 2558   2.451   1.901  12.511  1.7512  0.6790 -2.0738
  168MPD2     C 2559   2.140   2.744  12.597 -0.4250 -0.3754 -1.0659
  168MPD2    C1 2560   2.073   2.645  12.542  0.1652  0.2532 -0.5950
  168MPD2    C2 2561   1.943   2.666  12.486 -0.8769  0.1932 -0.6019
  168MPD2    C3 2562   1.899   2.800  12.479 -0.3495 -0.3707 -0.1529
  168MPD2    C4 2563   1.976   2.895  12.537  0.9166 -0.1086 -0.5174
  168MPD2    C5 2564   2.093   2.866  12.611  0.8128 -0.7300 -0.3248
  168MPD2     H 2565   1.890   2.588  12.433  1.8479 -1.8997 -0.2628
  168MPD2    H1 2566   1.942   2.998  12.541  0.3292 -0.3521  0.9560
  168MPD2    H2 2567   2.236   2.731  12.644  0.3125 -1.4453 -2.8862
  168MPD2    H3 2568   2.146   2.949  12.655  1.5404 -0.5437 -1.5485
  168MPD2     N 2569   1.786   2.844  12.412 -0.2158  0.0508  0.2314
  168MPD2    H5 2570   1.768   2.944  12.422 -0.7728  0.0562 -0.7626
  168MPD2    N1 2571   2.116   2.508  12.543  0.1598  0.1594  0.3890
  168MPD2    H7 2572   2.051   2.446  12.495 -0.7386  0.5665  1.1040
  169MPD1     C 2573   1.757   0.938   9.031  0.3352  1.0069 -0.1262
  169MPD1    C1 2574   1.725   0.823   9.094  0.2293  0.2656 -0.0766
  169MPD1    C2 2575   1.593   0.784   9.112 -0.5052 -0.0876 -0.2521
  169MPD1    C3 2576   1.493   0.858   9.052  0.0923 -0.1910  0.1785
  169MPD1    C4 2577   1.531   0.964   8.969 -0.3016 -0.0388 -0.0478
  169MPD1    C5 2578   1.661   1.005   8.962 -0.1741  0.3306  0.5322
  169MPD1     H 2579   1.557   0.701   9.173 -0.1153  1.0752  1.5762
  169MPD1    H1 2580   1.462   1.021   8.908 -0.0626  0.2155 -0.0812
  169MPD1    H2 2581   1.856   0.980   9.036  1.0538 -0.5805 -1.0509
  169MPD1    H3 2582   1.693   1.095   8.910 -0.9493  0.0822 -0.3626
  169MPD1     N 2583   1.358   0.807   9.068  0.0394 -0.0087  0.0199
  169MPD1    H5 2584   1.358   0.718   9.117  0.1368  0.4412  0.8481
  169MPD1    N1 2585   1.831   0.757   9.164 -0.1573  0.1974 -0.5547
  169MPD1    H6 2586   1.926   0.784   9.140 -0.4720 -0.0303 -2.0261
  169MPD1    H7 2587   1.827   0.656   9.156 -2.1947  0.1646  0.6203
  170MPD1     C 2588   3.490   0.514  13.434  0.3031  0.1214 -0.8533
  170MPD1    C1 2589   3.428   0.520  13.557  0.6983 -0.3662 -0.4259
  170MPD1    C2 2590   3.290   0.529  13.560  0.2917 -0.5043 -0.7855
  170MPD1    C3 2591   3.223   0.543  13.443  0.5251 -0.1741  0.5491
  170MPD1    C4 2592   3.290   0.543  13.319  0.1911 -0.0777  0.0422
  170MPD1    C5 2593   3.425   0.515  13.316 -0.0372 -0.1485 -0.4273
  170MPD1     H 2594   3.238   0.558  13.651 -0.9783 -0.3607 -1.5567
  170MPD1    H1 2595   3.234   0.536  13.226 -0.4818 -1.5333  0.5541
  170MPD1    H2 2596   3.597   0.496  13.435  0.2887 -0.0511 -2.4370
  170MPD1    H3 2597   3.472   0.501  13.219  2.9023  1.0444  0.8176
  170MPD1     N 2598   3.080   0.546  13.451 -0.3257  0.8860 -0.3698
  170MPD1    H5 2599   3.037   0.541  13.542 -1.8720  0.2816 -1.1425
  170MPD1    N1 2600   3.501   0.507  13.678  0.5521  0.4411  0.7099
  170MPD1    H6 2601   3.585   0.564  13.674 -0.0943  1.3675  0.2981
  170MPD1    H7 2602   3.444   0.537  13.756  0.0437  2.5771 -0.4853
  171MPD1     C 2603   1.553   1.546  15.144 -0.7089  1.0092  0.2832
  171MPD1    C1 2604   1.445   1.494  15.072 -0.1345 -0.2686  0.1490
  171MPD1    C2 2605   1.350   1.428  15.144 -0.0056 -0.0935 -0.0828
  171MPD1    C3 2606   1.367   1.384  15.273  0.1719 -0.1351 -0.5604
  171MPD1    C4 2607   1.489   1.415  15.332 -0.3805  0.1205 -0.4089
  171MPD1    C5 2608   1.579   1.500  15.271  0.0458 -0.5309 -0.5640
  171MPD1     H 2609   1.259   1.414  15.087 -0.2210  2.5468 -0.4112
  171MPD1    H1 2610   1.514   1.376  15.430  0.2405  0.0143 -0.6133
  171MPD1    H2 2611   1.621   1.620  15.103 -0.3277  0.2969 -0.3597
  171MPD1    H3 2612   1.667   1.535  15.324 -0.6579  0.3858 -0.0016
  171MPD1     N 2613   1.287   1.300  15.351  0.1001 -0.8959 -0.1289
  171MPD1    H5 2614   1.313   1.256  15.439  1.3993 -0.1354 -0.1369
  171MPD1    N1 2615   1.400   1.554  14.955  0.1369  0.2894  0.0099
  171MPD1    H6 2616   1.481   1.557  14.894 -0.4696 -3.5629 -0.9986
  171MPD1    H7 2617   1.331   1.491  14.915  0.5217  0.4777 -0.9474
  172MPD1     C 2618   4.556   4.687   0.335 -0.0675  0.3129 -0.3952
  172MPD1    C1 2619   4.542   0.097   0.351  0.3502 -0.0952 -0.4162
  172MPD1    C2 2620   4.648   0.176   0.329  0.3262 -1.1992  0.3987
  172MPD1    C3 2621   0.028   0.137   0.248 -0.3929  0.0987 -0.4711
  172MPD1    C4 2622   0.032   0.001   0.202  0.2754 -0.5189 -0.2211
  172MPD1    C5 2623   4.665   4.637   0.264 -0.0301  0.3459  1.4269
  172MPD1     H 2624   4.657   0.275   0.371  0.2814 -1.1899  0.3855
  172MPD1    H1 2625   0.109   4.680   0.140  0.9495  1.0445 -0.4986
  172MPD1    H2 2626   4.480   4.615   0.364  1.3747 -0.9671  0.2385
  172MPD1    H3 2627   4.665   4.533   0.232  0.5062  0.1807  1.9759
  172MPD1     N 2628   0.133   0.228   0.202  0.4645 -0.0527  0.3103
  172MPD1    H5 2629   0.216   0.189   0.159 -0.0621 -3.2168  2.1544
  172MPD1    N1 2630   4.443   0.140   0.443  1.1594 -0.7688  0.5375
  172MPD1    H6 2631   4.413   0.236   0.431 -1.4020 -1.5351  0.7716
  172MPD1    H7 2632   4.363   0.079   0.426  0.2839  0.4893  0.1391
  173MPD1     C 2633   2.163   0.820  13.567  0.7668  0.6807 -0.4556
  173MPD1    C1 2634   2.249   0.750  13.647 -0.0788 -0.4235 -0.1871
  173MPD1    C2 2635   2.203   0.673  13.751  0.7482 -0.2012 -0.5382
  173MPD1    C3 2636   2.067   0.659  13.767 -0.2533 -0.1435  0.2041
  173MPD1    C4 2637   1.986   0.737  13.689  1.0596  0.1052  0.2045
  173MPD1    C5 2638   2.028   0.807  13.582  0.3012  0.1091 -0.0107
  173MPD1     H 2639   2.268   0.626  13.824  0.4277 -2.2787 -1.6124
  173MPD1    H1 2640   1.879   0.739  13.707  1.4120  1.2253  2.1716
  173MPD1    H2 2641   2.196   0.883  13.485  1.0048 -1.1129 -1.7460
  173MPD1    H3 2642   1.956   0.857  13.518 -1.6668 -1.1491  1.2379
  173MPD1     N 2643   2.018   0.572  13.874  0.2321  0.0165 -0.2512
  173MPD1    H5 2644   2.083   0.508  13.919  0.6981  0.6436 -0.0388
  173MPD1    N1 2645   2.383   0.778  13.641 -0.5028 -0.2100 -0.2834
  173MPD1    H6 2646   2.428   0.688  13.656  0.0785  0.6339  3.1091
  173MPD1    H7 2647   2.408   0.814  13.549 -1.5982  2.9273  0.6544
  174MPD1     C 2648   2.264   0.163  14.763  0.3047 -0.4739 -0.1162
  174MPD1    C1 2649   2.324   0.262  14.679 -0.0434  0.3261 -0.0675
  174MPD1    C2 2650   2.253   0.292  14.565  0.0974 -0.0832 -0.0099
  174MPD1    C3 2651   2.150   0.218  14.523 -0.8827 -0.0318 -0.2916
  174MPD1    C4 2652   2.102   0.117  14.598  0.3998 -0.2411 -0.1544
  174MPD1    C5 2653   2.148   0.092  14.724  0.3661 -1.1290 -0.2069
  174MPD1     H 2654   2.303   0.371  14.509  3.3524  0.0103  2.9841
  174MPD1    H1 2655   2.010   0.066  14.574  0.7592 -0.4236 -1.1355
  174MPD1    H2 2656   2.301   0.134  14.860  0.5116  1.1215  0.2782
  174MPD1    H3 2657   2.112   0.009  14.784 -0.1384  1.1380  2.6725
  174MPD1     N 2658   2.073   0.245  14.410  0.3783 -0.6139  0.1999
  174MPD1    H5 2659   1.991   0.187  14.405  0.6604 -1.1212  1.3956
  174MPD1    N1 2660   2.409   0.350  14.740  0.6945  0.6673 -0.4602
  174MPD1    H6 2661   2.472   0.300  14.802  0.7578  0.6619 -0.5294
  174MPD1    H7 2662   2.461   0.396  14.666 -0.9147  0.2102 -1.8870
  175MPD1     C 2663   4.444   0.230  16.018  0.0001  0.2265  0.0815
  175MPD1    C1 2664   4.580   0.240  16.002  0.9718 -0.3572 -0.9190
  175MPD1    C2 2665   4.641   0.360  16.027 -0.2578  0.1094  0.5012
  175MPD1    C3 2666   4.569   0.475  16.058 -0.1796  0.2907  0.0506
  175MPD1    C4 2667   4.435   0.462  16.073 -0.4964 -0.1895 -0.1034
  175MPD1    C5 2668   4.371   0.343  16.048  0.6139  0.8659  0.0507
  175MPD1     H 2669   0.024   0.365  16.006 -0.2263  1.5971  1.0352
  175MPD1    H1 2670   4.376   0.548  16.103 -0.8230  0.3767 -2.3494
  175MPD1    H2 2671   4.401   0.132  16.004  0.0092  0.6336 -2.7996
  175MPD1    H3 2672   4.265   0.335  16.072  0.8701  0.1918  0.9540
  175MPD1     N 2673   4.629   0.603  16.072 -0.2864  0.0415  0.3665
  175MPD1    H5 2674   4.556   0.673  16.073 -1.4942 -1.1808 -0.6807
  175MPD1    N1 2675   4.660   0.125  15.998  0.2867 -0.1494 -0.5438
  175MPD1    H6 2676   4.603   0.046  15.968  0.5230 -0.2639 -0.6915
  175MPD1    H7 2677   4.698   0.097  16.088 -1.2468  1.8804  0.7333
  176MPD1     C 2678   2.475   2.644  16.263 -0.2959  0.7003  0.3413
  176MPD1    C1 2679   2.363   2.595  16.200 -0.1022  0.2977 -0.7916
  176MPD1    C2 2680   2.249   2.665  16.216  0.3064  0.6900 -0.3573
  176MPD1    C3 2681   2.236   2.775  16.295  0.4430 -0.7268  0.0378
  176MPD1    C4 2682   2.347   2.827  16.351  0.3238 -0.3002  0.3156
  176MPD1    C5 2683   2.466   2.757  16.338  0.3140 -0.0415 -0.0375
  176MPD1     H 2684   2.157   2.624  16.175 -0.3156  1.2216  0.5020
  176MPD1    H1 2685   2.351   2.918  16.409  1.1485  0.6989 -1.3165
  176MPD1    H2 2686   2.573   2.603  16.243 -0.0767  0.1898  2.5187
  176MPD1    H3 2687   2.549   2.816  16.375  0.0910  0.8169 -0.9444
  176MPD1     N 2688   2.106   2.829  16.316 -0.2813  0.3559 -0.2740
  176MPD1    H5 2689   2.027   2.781  16.274 -0.2368 -0.1872  0.2789
  176MPD1    N1 2690   2.370   2.471  16.135 -0.5498 -0.3332 -0.1245
  176MPD1    H6 2691   2.465   2.444  16.111 -0.1368  1.6138 -0.7131
  176MPD1    H7 2692   2.303   2.448  16.061  0.9760 -1.1926 -1.2414
  177MPD1     C 2693   0.663   1.783  10.009 -0.4722 -0.0560 -0.5979
  177MPD1    C1 2694   0.608   1.907  10.044 -0.0308 -0.7816  0.9770
  177MPD1    C2 2695   0.511   1.959   9.958 -0.3076 -0.0603 -0.0453
  177MPD1    C3 2696   0.469   1.894   9.846 -0.6146  0.4222  0.1095
  177MPD1    C4 2697   0.530   1.772   9.814  0.3801 -0.0142 -0.2501
  177MPD1    C5 2698   0.621   1.719   9.903 -0.3620 -0.3316  0.7028
  177MPD1     H 2699   0.464   2.056   9.969 -2.3897 -1.0637 -0.1188
  177MPD1    H1 2700   0.482   1.713   9.737 -1.4900 -0.9229  1.5928
  177MPD1    H2 2701   0.748   1.741  10.062  2.1217  1.7713 -3.3450
  177MPD1    H3 2702   0.659   1.620   9.878 -1.5031 -1.3443  2.9568
  177MPD1     N 2703   0.371   1.955   9.763  0.0671  0.4865 -0.1106
  177MPD1    H5 2704   0.311   2.025   9.805 -0.4641  0.3575 -0.6558
  177MPD1    N1 2705   0.669   1.990  10.137 -0.3798 -0.5987 -0.0768
  177MPD1    H6 2706   0.714   1.938  10.213  0.2453  0.4110  0.2435
  177MPD1    H7 2707   0.591   2.038  10.182  0.6595  0.4831  0.5821
  178MPD1     C 2708   2.504   4.374   0.252  0.3733  0.1967  0.1237
  178MPD1    C1 2709   2.425   4.259   0.230 -1.0347  0.5097  0.3681
  178MPD1    C2 2710   2.472   4.179   0.122  0.3092  0.0245 -0.1754
  178MPD1    C3 2711   2.591   4.209   0.050  0.5292  0.1563  0.9582
  178MPD1    C4 2712   2.662   4.319   0.080  0.4730 -0.6660  0.2847
  178MPD1    C5 2713   2.610   4.405   0.177 -0.0006 -0.5994  0.6996
  178MPD1     H 2714   2.426   4.082   0.110 -1.8655  0.7291  2.5313
  178MPD1    H1 2715   2.758   4.351   0.041  0.8893 -2.6994 -0.3874
  178MPD1    H2 2716   2.486   4.426   0.346  0.6064 -0.5220  0.5713
  178MPD1    H3 2717   2.671   4.486   0.215  0.2365 -0.1690 -0.5873
  178MPD1     N 2718   2.632   4.129  17.629 -0.2260  0.2578 -0.0618
  178MPD1    H5 2719   2.724   4.157  17.595 -1.1078  0.7521 -1.9931
  178MPD1    N1 2720   2.327   4.216   0.325 -0.7924 -0.1922  0.5220
  178MPD1    H6 2721   2.264   4.161   0.267 -0.1316 -0.7367  0.3152
  178MPD1    H7 2722   2.276   4.287   0.376  0.6770  2.0243 -1.1354
  179MPD1     C 2723   2.531   2.550  15.535 -0.1060 -0.2678 -0.0931
  179MPD1    C1 2724   2.605   2.441  15.568 -0.2798  0.0034  0.2792
  179MPD1    C2 2725   2.567   2.314  15.529 -0.4612 -0.8136 -0.4941
  179MPD1    C3 2726   2.445   2.292  15.468  0.2351  0.2768  0.0139
  179MPD1    C4 2727   2.372   2.407  15.436 -0.4822  0.8221  0.7725
  179MPD1    C5 2728   2.409   2.534  15.476 -0.7853 -0.9240 -0.5158
  179MPD1     H 2729   2.636   2.234  15.554  0.3072  0.3869  1.3343
  179MPD1    H1 2730   2.277   2.396  15.385  0.8973  0.6101 -1.7237
  179MPD1    H2 2731   2.556   2.652  15.561  0.8194 -1.3206  3.1556
  179MPD1    H3 2732   2.347   2.620  15.451  0.5717  0.5519  1.2179
  179MPD1     N 2733   2.396   2.165  15.440 -0.1560 -0.0791 -0.5890
  179MPD1    H5 2734   2.299   2.149  15.416 -0.4732 -1.5534  1.7189
  179MPD1    N1 2735   2.730   2.460  15.627  0.1438 -0.5408  0.0365
  179MPD1    H6 2736   2.725   2.544  15.684  2.5698  0.2412 -0.8864
  179MPD1    H7 2737   2.746   2.386  15.695  1.5945 -0.8667 -0.6539
  180MPD1     C 2738   1.997   3.944  15.254 -0.2240 -0.0141 -0.2882
  180MPD1    C1 2739   1.950   3.934  15.126  0.0986 -0.0998 -0.6863
  180MPD1    C2 2740   2.034   3.886  15.025  0.1357  0.3392  0.7781
  180MPD1    C3 2741   2.163   3.855  15.058 -0.2988 -0.5939  0.2730
  180MPD1    C4 2742   2.207   3.864  15.187 -0.7324  0.1887 -0.1146
  180MPD1    C5 2743   2.128   3.918  15.290  0.2128 -0.4491  0.0827
  180MPD1     H 2744   2.006   3.892  14.920  1.6108  2.2845  0.4941
  180MPD1    H1 2745   2.305   3.825  15.212 -1.0673 -1.5146 -1.5138
  180MPD1    H2 2746   1.927   3.962  15.335  0.0886  0.6497 -0.1728
  180MPD1    H3 2747   2.160   3.920  15.393 -0.6386 -1.1512  0.3635
  180MPD1     N 2748   2.249   3.812  14.955  0.1033 -0.1970 -0.3847
  180MPD1    H5 2749   2.209   3.801  14.863  3.0634  1.8615 -1.9504
  180MPD1    N1 2750   1.817   3.945  15.103  0.2011  0.1893 -1.0134
  180MPD1    H6 2751   1.795   3.954  15.004  0.1018 -0.4114 -1.0474
  180MPD1    H7 2752   1.790   4.040  15.129  0.2918  0.9547 -3.6738
  181MPD1     C 2753   4.139   4.312   9.427  0.0986  1.1936 -0.5087
  181MPD1    C1 2754   4.229   4.401   9.476  0.4478  0.1027 -0.5349
  181MPD1    C2 2755   4.311   4.349   9.579  0.3795  0.2125  0.3624
  181MPD1    C3 2756   4.282   4.226   9.639 -0.2550  0.4051  0.1072
  181MPD1    C4 2757   4.188   4.137   9.590  0.0388  0.7847 -0.3504
  181MPD1    C5 2758   4.124   4.180   9.477  0.3020 -0.2206 -0.5264
  181MPD1     H 2759   4.396   4.412   9.603 -0.2278  0.7982  0.9721
  181MPD1    H1 2760   4.171   4.039   9.632  2.4105  0.0843 -1.0231
  181MPD1    H2 2761   4.075   4.352   9.350  2.7241  1.0398 -2.7614
  181MPD1    H3 2762   4.052   4.114   9.429 -0.3386  0.2556 -0.2246
  181MPD1     N 2763   4.360   4.166   9.740  0.6354 -0.0387  0.1662
  181MPD1    H5 2764   4.331   4.072   9.763 -1.0885  0.6947  0.9576
  181MPD1    N1 2765   4.240   4.538   9.443  0.1296 -0.0234 -0.3755
  181MPD1    H6 2766   4.339   4.558   9.453  0.4016 -1.1597 -0.7326
  181MPD1    H7 2767   4.212   4.555   9.347  0.9599  2.0331 -0.2555
  182MPD1     C 2768   0.194   4.392   1.377  0.2576  0.2173 -0.2872
  182MPD1    C1 2769   0.216   4.333   1.250 -0.2676  0.3169  0.4031
  182MPD1    C2 2770   0.129   4.362   1.144 -0.5712  0.8942  0.5452
  182MPD1    C3 2771   0.014   4.433   1.165  1.1325  0.5516  0.1650
  182MPD1    C4 2772   4.712   4.488   1.286  0.5484 -0.0261  0.8308
  182MPD1    C5 2773   0.078   4.467   1.391  0.4780  1.0037 -0.4009
  182MPD1     H 2774   0.160   4.347   1.041 -2.0458  0.1113  0.2299
  182MPD1    H1 2775   4.613   4.528   1.303 -0.0895 -0.8495 -0.9497
  182MPD1    H2 2776   0.254   4.372   1.465 -0.3217  1.1475  0.3189
  182MPD1    H3 2777   0.051   4.493   1.492 -1.3126  1.6559 -1.0413
  182MPD1     N 2778   4.653   4.462   1.061 -0.0685  0.5501  0.3767
  182MPD1    H5 2779   4.579   4.532   1.066  0.6413  1.2020  1.7108
  182MPD1    N1 2780   0.335   4.267   1.222  0.7233  0.6199  0.3376
  182MPD1    H6 2781   0.375   4.225   1.305 -0.0036  0.7511  0.7571
  182MPD1    H7 2782   0.313   4.189   1.160  0.6870  1.4648 -0.7154
  183MPD1     C 2783   1.431   0.003   8.669 -0.0333  0.3353  0.1814
  183MPD1    C1 2784   1.408   0.138   8.670 -0.8560  0.0831 -0.6042
  183MPD1    C2 2785   1.384   0.199   8.793 -0.1812 -0.0603  0.5045
  183MPD1    C3 2786   1.374   0.123   8.907  0.4993  0.3431 -0.0692
  183MPD1    C4 2787   1.416   4.716   8.906  0.2667 -0.3413 -0.1121
  183MPD1    C5 2788   1.446   4.660   8.785 -0.6434 -0.2524  0.2215
  183MPD1     H 2789   1.360   0.305   8.801  1.9001  0.4562  0.0043
  183MPD1    H1 2790   1.402   4.651   8.991  1.0702 -1.1972 -0.6306
  183MPD1    H2 2791   1.439   4.659   8.583 -2.4452 -0.0325  0.2553
  183MPD1    H3 2792   1.458   4.552   8.776  1.7053  0.0038  0.3389
  183MPD1     N 2793   1.321   0.187   9.024  0.6784  0.4743  0.0205
  183MPD1    H5 2794   1.281   0.280   9.019 -0.4410  0.2244  4.5920
  183MPD1    N1 2795   1.387   0.201   8.548  0.3381  0.3802 -0.1004
  183MPD1    H6 2796   1.448   0.160   8.477  2.8947  0.3498  2.1371
  183MPD1    H7 2797   1.412   0.299   8.540 -0.2309  0.4069 -1.6784
  184MPD1     C 2798   3.641   3.011  10.865 -0.0554  0.1786 -0.0384
  184MPD1    C1 2799   3.529   2.932  10.824 -0.1692 -0.1020  0.1408
  184MPD1    C2 2800   3.558   2.856  10.710  0.2134 -0.3300  0.1092
  184MPD1    C3 2801   3.685   2.842  10.656 -0.5013 -0.1721  0.8468
  184MPD1    C4 2802   3.794   2.896  10.712  0.5888 -0.3479 -0.0321
  184MPD1    C5 2803   3.766   2.991  10.808  0.0799 -0.7506  0.1756
  184MPD1     H 2804   3.478   2.793  10.675  0.4688  0.5430 -2.1042
  184MPD1    H1 2805   3.897   2.880  10.681  0.7280 -2.0760  1.3236
  184MPD1    H2 2806   3.630   3.082  10.946 -1.2582  0.1516 -0.1793
  184MPD1    H3 2807   3.852   3.051  10.836 -0.4885  0.0301  0.2688
  184MPD1     N 2808   3.712   2.755  10.545  0.4142  0.2807  0.7386
  184MPD1    H5 2809   3.810   2.750  10.519  0.4267  1.9892  0.4573
  184MPD1    N1 2810   3.395   2.957  10.869  0.2456  0.0877 -0.1392
  184MPD1    H6 2811   3.389   2.986  10.966 -1.2927 -2.4071  0.5147
  184MPD1    H7 2812   3.333   2.876  10.858  1.9718 -1.0939 -1.2646
  185MPD1     C 2813   3.097   2.596   9.806  0.2401 -0.5078 -0.0896
  185MPD1    C1 2814   3.220   2.541   9.767 -0.4682 -0.8137  0.0156
  185MPD1    C2 2815   3.311   2.509   9.862 -0.1032 -0.6764  0.8203
  185MPD1    C3 2816   3.291   2.539   9.991  0.0210 -0.4247 -0.3066
  185MPD1    C4 2817   3.178   2.604  10.035 -0.7633 -0.3101  0.1458
  185MPD1    C5 2818   3.086   2.622   9.937  0.7108 -0.2426 -0.4159
  185MPD1     H 2819   3.399   2.474   9.810 -1.2431 -0.2911 -1.3538
  185MPD1    H1 2820   3.166   2.647  10.134  0.6050  0.3644  0.0204
  185MPD1    H2 2821   3.024   2.628   9.732 -0.3882  0.4298  0.9505
  185MPD1    H3 2822   2.993   2.669   9.966  0.4097  0.1858 -2.0646
  185MPD1     N 2823   3.395   2.528  10.084 -0.2496  0.1322  0.0872
  185MPD1    H5 2824   3.377   2.566  10.176 -0.9898  1.7703 -0.7346
  185MPD1    N1 2825   3.244   2.512   9.636 -0.3103 -0.4132  0.3049
  185MPD1    H6 2826   3.339   2.485   9.610 -0.1791 -0.5836  0.9572
  185MPD1    H7 2827   3.222   2.585   9.568 -0.3175 -0.9132 -0.2329
  186MPD1     C 2828   2.963   1.852  15.946  0.3745 -0.0942  0.1776
  186MPD1    C1 2829   2.827   1.857  15.979 -0.2929  0.1443  0.1132
  186MPD1    C2 2830   2.775   1.951  16.070 -0.4160 -0.3039 -0.5391
  186MPD1    C3 2831   2.864   2.039  16.136 -0.1818 -0.9049 -0.4007
  186MPD1    C4 2832   2.996   2.028  16.105 -0.4188  0.5525  0.0578
  186MPD1    C5 2833   3.045   1.932  16.016  0.6833 -0.0823  0.1645
  186MPD1     H 2834   2.666   1.954  16.074 -0.3668  1.6946 -0.4358
  186MPD1    H1 2835   3.066   2.086  16.165 -2.3533  0.9928  1.8841
  186MPD1    H2 2836   3.003   1.778  15.878  1.2008  1.2517 -0.7950
  186MPD1    H3 2837   3.152   1.932  16.000  0.6619  2.3427 -0.0477
  186MPD1     N 2838   2.827   2.148  16.218 -0.3201 -0.4793 -0.5076
  186MPD1    H5 2839   2.905   2.191  16.266 -2.0689 -0.3199  2.1885
  186MPD1    N1 2840   2.744   1.772  15.910 -0.4124  0.3535  0.3599
  186MPD1    H6 2841   2.792   1.694  15.866 -1.7921 -2.1271  3.2508
  186MPD1    H7 2842   2.667   1.736  15.966  0.5376  1.0041  2.1199
  187MPD1     C 2843   2.095   3.884  17.604  0.0201 -0.6638 -0.1952
  187MPD1    C1 2844   2.082   4.017  17.567  0.1459  0.2454 -0.2211
  187MPD1    C2 2845   1.969   4.087  17.600  0.0794  0.8761 -0.3339
  187MPD1    C3 2846   1.880   4.029  17.684  0.9382  0.1331 -1.0541
  187MPD1    C4 2847   1.887   3.895   0.022  0.1230  0.2635  0.1500
  187MPD1    C5 2848   2.002   3.830  17.684  0.3055 -0.5464 -0.6813
  187MPD1     H 2849   1.953   4.187  17.561  0.1229 -0.2341 -3.1871
  187MPD1    H1 2850   1.819   3.841   0.086  2.1035 -2.4204  0.0091
  187MPD1    H2 2851   2.184   3.825  17.587 -0.8208 -2.0093  0.1141
  187MPD1    H3 2852   2.024   3.728   0.017 -0.7743 -0.5885  0.0482
  187MPD1     N 2853   1.778   4.108   0.052  0.1147  0.2572 -0.3293
  187MPD1    H5 2854   1.701   4.054   0.090 -0.6189  0.5963 -1.3180
  187MPD1    N1 2855   2.183   4.064  17.486  0.7675  0.2889  0.1150
  187MPD1    H6 2856   2.273   4.028  17.518  0.6022  0.6001  0.9294
  187MPD1    H7 2857   2.189   4.166  17.492  0.9918  0.1652  1.8755
  188MPD1     C 2858   1.581   4.332  10.459 -0.5742 -0.4137  0.0807
  188MPD1    C1 2859   1.607   4.344  10.324  0.6435 -0.0033 -0.8547
  188MPD1    C2 2860   1.648   4.228  10.266 -0.3132 -0.1511 -0.9008
  188MPD1    C3 2861   1.692   4.112  10.335  0.3160  1.0710 -0.7148
  188MPD1    C4 2862   1.693   4.119  10.476 -0.0516 -0.2850  0.0703
  188MPD1    C5 2863   1.630   4.228  10.539  0.1426 -0.8713  0.0980
  188MPD1     H 2864   1.636   4.226  10.158 -2.5593 -1.2414 -0.6268
  188MPD1    H1 2865   1.703   4.025  10.529 -0.4524 -1.5637 -2.1092
  188MPD1    H2 2866   1.544   4.422  10.507  0.8567 -1.1226  2.5012
  188MPD1    H3 2867   1.618   4.234  10.646 -1.7036  0.8921 -0.1993
  188MPD1     N 2868   1.729   3.997  10.262 -0.2140  0.7000 -0.4290
  188MPD1    H5 2869   1.749   3.914  10.317 -3.9779 -0.1443 -0.3481
  188MPD1    N1 2870   1.560   4.451  10.251 -0.0934 -0.7045 -0.2573
  188MPD1    H6 2871   1.566   4.532  10.313  0.2596 -0.2039 -0.9466
  188MPD1    H7 2872   1.610   4.473  10.165 -0.2234  0.5664 -0.0098
  189MPD1     C 2873   3.408   4.594   0.767  0.3154 -0.0314  0.6052
  189MPD1    C1 2874   3.313   4.496   0.787  0.2299 -0.7489  0.3759
  189MPD1    C2 2875   3.192   4.499   0.713  0.0298  0.5009  0.2086
  189MPD1    C3 2876   3.142   4.613   0.648  0.4452  0.0121 -0.2078
  189MPD1    C4 2877   3.231   4.721   0.657  0.5973  0.1660 -0.3831
  189MPD1    C5 2878   3.359   4.709   0.698  0.3386 -0.4486  0.0040
  189MPD1     H 2879   3.131   4.410   0.722  1.4946 -0.7654 -2.2072
  189MPD1    H1 2880   3.192   0.096   0.630  0.0856 -0.1464 -0.7729
  189MPD1    H2 2881   3.503   4.599   0.820  0.3693 -0.6002  0.5624
  189MPD1    H3 2882   3.419   0.077   0.698 -0.1095 -0.1502  0.3700
  189MPD1     N 2883   3.016   4.623   0.585 -0.2253 -0.2701 -0.1362
  189MPD1    H5 2884   2.963   4.537   0.582  0.8913 -0.9481 -0.5035
  189MPD1    N1 2885   3.356   4.380   0.852 -0.6171 -0.2004 -0.4048
  189MPD1    H6 2886   3.286   4.342   0.916  0.2036  0.7893  1.0819
  189MPD1    H7 2887   3.447   4.399   0.895 -2.4095  2.0421  2.3272
  190MPD1     C 2888   1.835   2.969  16.002  0.6015  0.1335  0.7337
  190MPD1    C1 2889   1.970   2.935  15.977  0.6382 -0.1323 -0.2489
  190MPD1    C2 2890   2.065   3.031  16.016  0.2095 -0.4818 -0.5271
  190MPD1    C3 2891   2.028   3.160  16.059  0.6793 -0.0185 -0.0966
  190MPD1    C4 2892   1.894   3.187  16.059 -0.7935 -0.2679 -0.3507
  190MPD1    C5 2893   1.794   3.095  16.035 -0.0434 -0.2723  0.3451
  190MPD1     H 2894   2.171   3.008  16.019  0.4500  0.5036 -1.4522
  190MPD1    H1 2895   1.849   3.282  16.086 -0.1903 -0.0156 -0.2389
  190MPD1    H2 2896   1.752   2.899  15.996  1.1771 -0.5021  0.1113
  190MPD1    H3 2897   1.689   3.121  16.035  0.1573  0.4136 -4.3192
  190MPD1     N 2898   2.131   3.256  16.082  0.2981 -0.0576  0.2415
  190MPD1    H5 2899   2.227   3.227  16.066  0.4496  0.2232  0.6443
  190MPD1    N1 2900   2.009   2.798  15.952  0.6664 -0.2872 -0.5203
  190MPD1    H6 2901   2.094   2.791  15.897 -0.1135 -0.3139 -1.7133
  190MPD1    H7 2902   1.937   2.756  15.893 -0.6800 -0.4373  1.2332
  191MPD1     C 2903   1.719   0.400  13.033  0.2192 -0.5050 -0.5361
  191MPD1    C1 2904   1.588   0.452  13.028 -0.8204  0.2772 -0.0347
  191MPD1    C2 2905   1.552   0.540  12.926 -0.1549  0.1529  0.2756
  191MPD1    C3 2906   1.641   0.590  12.833  0.0258 -0.5104  0.7743
  191MPD1    C4 2907   1.768   0.538  12.839 -0.6062 -0.4490 -0.2371
  191MPD1    C5 2908   1.802   0.457  12.943 -0.2223  0.5802 -0.9303
  191MPD1     H 2909   1.449   0.572  12.918  0.2607  1.0787 -1.4099
  191MPD1    H1 2910   1.849   0.568  12.773  0.3681  0.2149  1.2817
  191MPD1    H2 2911   1.757   0.328  13.106  0.9297  1.0704  0.6389
  191MPD1    H3 2912   1.907   0.431  12.954 -0.0885  2.8999  3.1189
  191MPD1     N 2913   1.604   0.680  12.728  0.2556  0.0408 -0.4503
  191MPD1    H5 2914   1.685   0.707  12.672 -0.7759  1.9462 -1.0362
  191MPD1    N1 2915   1.492   0.394  13.110  0.0551 -0.5172  0.3781
  191MPD1    H6 2916   1.518   0.379  13.207  0.1955 -0.3506  0.3667
  191MPD1    H7 2917   1.405   0.447  13.107  1.0977  1.1811 -0.2471
  192MPD1     C 2918   1.100   1.594  12.617  0.0328  0.1536 -0.0944
  192MPD1    C1 2919   1.235   1.584  12.631 -0.2950 -0.0213  0.7320
  192MPD1    C2 2920   1.296   1.461  12.625 -0.0834  0.0162  0.3514
  192MPD1    C3 2921   1.222   1.352  12.589  0.1793 -0.3002  0.1053
  192MPD1    C4 2922   1.079   1.360  12.595  0.3436 -0.5400 -0.2975
  192MPD1    C5 2923   1.021   1.483  12.598 -0.3612  0.4580 -0.0985
  192MPD1     H 2924   1.402   1.456  12.649 -0.2109  2.0578  1.3816
  192MPD1    H1 2925   1.012   1.279  12.570 -3.1178  1.8991  0.9759
  192MPD1    H2 2926   1.045   1.686  12.636  3.0537  1.8555  0.2888
  192MPD1    H3 2927   0.913   1.476  12.591 -0.2135 -0.6384 -1.2638
  192MPD1     N 2928   1.296   1.234  12.562 -0.0231 -0.1855  0.0965
  192MPD1    H5 2929   1.395   1.248  12.545 -0.4947  1.5475 -1.2247
  192MPD1    N1 2930   1.305   1.695  12.667 -0.2605 -0.0635  0.0491
  192MPD1    H6 2931   1.397   1.698  12.622  0.5030  1.1195  1.6778
  192MPD1    H7 2932   1.256   1.784  12.667 -0.6988 -0.3048  3.5248
  193MPD1     C 2933   0.543   0.605  16.129 -0.1816  0.1679  0.6226
  193MPD1    C1 2934   0.607   0.564  16.250 -0.9922 -0.1040  0.0079
  193MPD1    C2 2935   0.721   0.633  16.291 -0.1910 -0.5059  0.6023
  193MPD1    C3 2936   0.770   0.749  16.224  0.4786 -0.5520 -0.1121
  193MPD1    C4 2937   0.694   0.794  16.120 -0.2121  0.5726 -0.6013
  193MPD1    C5 2938   0.587   0.721  16.065 -0.2014  0.9048 -0.4913
  193MPD1     H 2939   0.772   0.594  16.379  1.0106  1.1487  0.6313
  193MPD1    H1 2940   0.713   0.886  16.066  1.2055  0.3795 -0.4240
  193MPD1    H2 2941   0.464   0.546  16.083  1.4724 -0.7194 -1.0894
  193MPD1    H3 2942   0.539   0.760  15.976 -0.8732 -3.9054 -2.2457
  193MPD1     N 2943   0.881   0.818  16.271 -0.2562 -0.0865 -0.2553
  193MPD1    H5 2944   0.894   0.908  16.225  1.1196 -0.0055  0.2856
  193MPD1    N1 2945   0.575   0.437  16.307  0.2272 -0.6816 -0.0488
  193MPD1    H6 2946   0.587   0.425  16.407 -1.5564 -0.7457  0.1520
  193MPD1    H7 2947   0.498   0.378  16.276 -0.6612  0.0995  0.6700
  194MPD1     C 2948   3.712   3.072  17.144  0.6354  0.9253 -0.9303
  194MPD1    C1 2949   3.660   3.041  17.013 -0.8960 -0.2234 -0.0300
  194MPD1    C2 2950   3.626   2.907  16.979  0.2548 -0.5771  0.0545
  194MPD1    C3 2951   3.680   2.808  17.060 -0.1770 -0.0788 -0.3997
  194MPD1    C4 2952   3.736   2.834  17.182  0.4560 -0.2253 -0.0300
  194MPD1    C5 2953   3.749   2.966  17.224  0.5348 -0.0734 -0.0895
  194MPD1     H 2954   3.585   2.885  16.881  0.1083  0.6217 -0.1554
  194MPD1    H1 2955   3.746   2.758  17.259  0.7119 -0.7997 -0.6344
  194MPD1    H2 2956   3.723   3.176  17.172 -3.6765  0.2928  3.0501
  194MPD1    H3 2957   3.798   2.980  17.320 -1.9641 -1.6829  1.4074
  194MPD1     N 2958   3.673   2.675  17.027  0.2351 -0.5046  0.1161
  194MPD1    H5 2959   3.733   2.612  17.080 -1.2019 -1.3981  0.6869
  194MPD1    N1 2960   3.617   3.134  16.924  0.3382  0.1434  0.3193
  194MPD1    H6 2961   3.646   3.231  16.938 -1.4768  0.6134  0.7921
  194MPD1    H7 2962   3.638   3.100  16.831  2.6964  1.7943  0.2199
  195MPD1     C 2963   0.234   3.212  17.367  0.4762  0.6288  0.0232
  195MPD1    C1 2964   0.267   3.129  17.260  0.1378 -1.4579  0.0028
  195MPD1    C2 2965   0.391   3.140  17.210  0.5197  0.0034  0.0912
  195MPD1    C3 2966   0.486   3.232  17.257  0.3870 -0.0763 -0.0200
  195MPD1    C4 2967   0.437   3.325  17.346  0.1251 -0.1542 -0.1106
  195MPD1    C5 2968   0.318   3.306  17.406  0.4668  0.7783 -0.8030
  195MPD1     H 2969   0.413   3.073  17.128 -0.2649  0.4061 -0.4406
  195MPD1    H1 2970   0.500   3.396  17.397  0.2522 -0.8054  0.6312
  195MPD1    H2 2971   0.144   3.194  17.424  1.2357  1.1054  1.3889
  195MPD1    H3 2972   0.277   3.365  17.487  1.7553  0.5551  0.0071
  195MPD1     N 2973   0.620   3.250  17.222  0.7688 -0.2585 -0.0804
  195MPD1    H5 2974   0.671   3.320  17.275 -0.5664  0.0675  0.7763
  195MPD1    N1 2975   0.185   3.019  17.231 -0.3436  0.8733 -0.4619
  195MPD1    H6 2976   0.088   3.042  17.249  0.1035  1.6562  1.0071
  195MPD1    H7 2977   0.199   2.988  17.135  3.2914  0.1982  0.2736
  196MPD1     C 2978   0.538   4.120   0.330  0.1663 -0.2741  0.3596
  196MPD1    C1 2979   0.570   4.251   0.302 -0.2221  0.2909 -0.1456
  196MPD1    C2 2980   0.563   4.343   0.410 -0.2683 -0.1648 -0.2616
  196MPD1    C3 2981   0.549   4.299   0.540  0.2631 -0.6250 -0.2305
  196MPD1    C4 2982   0.523   4.163   0.565 -0.1606  0.0148  0.1966
  196MPD1    C5 2983   0.520   4.080   0.457  0.5476  0.6299  0.2287
  196MPD1     H 2984   0.579   4.448   0.390  4.1463 -1.0841 -1.5107
  196MPD1    H1 2985   0.501   4.125   0.665  1.2750 -1.3952 -0.0239
  196MPD1    H2 2986   0.541   4.048   0.249 -0.7239  1.2823 -1.0487
  196MPD1    H3 2987   0.500   3.974   0.460  0.5923  0.6345  0.7806
  196MPD1     N 2988   0.546   4.389   0.649  0.1884  0.0781 -0.6456
  196MPD1    H5 2989   0.544   4.344   0.740 -1.4265  0.4291 -0.5157
  196MPD1    N1 2990   0.577   4.305   0.173  0.6198 -0.3430  0.6650
  196MPD1    H6 2991   0.625   4.235   0.116 -2.1610 -1.5128 -0.2240
  196MPD1    H7 2992   0.641   4.384   0.166  0.3376 -0.1246  0.5644
  197MPD1     C 2993   0.056   0.824  17.121 -0.5122 -0.1726  0.6099
  197MPD1    C1 2994   0.155   0.905  17.177  0.0814 -0.4363  0.0068
  197MPD1    C2 2995   0.181   1.032  17.124  0.0475  0.0332  0.9728
  197MPD1    C3 2996   0.114   1.070  17.009 -0.3305  0.6697  0.3047
  197MPD1    C4 2997   0.013   0.996  16.964  0.1210  0.4166 -0.4924
  197MPD1    C5 2998   4.712   0.877  17.016 -0.2219  0.9152  0.6779
  197MPD1     H 2999   0.260   1.091  17.168  1.5969 -1.7694  0.6168
  197MPD1    H1 3000   4.673   1.033  16.884  0.1636  1.8940  0.1538
  197MPD1    H2 3001   0.029   0.728  17.164 -1.6634 -1.0458 -2.0786
  197MPD1    H3 3002   4.627   0.826  16.972 -0.8939 -0.4072  3.5205
  197MPD1     N 3003   0.144   1.185  16.937  0.4209 -0.5236 -0.4805
  197MPD1    H5 3004   0.082   1.205  16.859  1.5809 -2.7469 -1.9420
  197MPD1    N1 3005   0.208   0.869  17.298 -0.3004  0.6650  1.0491
  197MPD1    H6 3006   0.304   0.898  17.318  0.4063 -0.2717 -1.0097
  197MPD1    H7 3007   0.200   0.773  17.329  0.8052  0.4842  0.7830
  198MPD1     C 3008   1.131   0.110  16.164  0.2858 -0.0610 -0.4058
  198MPD1    C1 3009   1.242   0.094  16.241 -0.2174 -0.8492  0.4135
  198MPD1    C2 3010   1.363   0.109  16.167  0.3513  0.0254  0.7272
  198MPD1    C3 3011   1.365   0.156  16.038  0.2572  0.1326 -0.0810
  198MPD1    C4 3012   1.249   0.185  15.972  1.0037 -0.0773  0.1333
  198MPD1    C5 3013   1.130   0.163  16.042 -0.6998 -0.6513 -0.0991
  198MPD1     H 3014   1.445   0.064  16.222  1.2512 -1.8321 -2.1577
  198MPD1    H1 3015   1.251   0.240  15.879  0.6183  1.9716  1.3400
  198MPD1    H2 3016   1.032   0.105  16.207  0.1925  0.7329 -0.5282
  198MPD1    H3 3017   1.037   0.179  15.988  0.7436  0.5726 -2.2592
  198MPD1     N 3018   1.497   0.181  15.979  0.4555  0.1816  0.1578
  198MPD1    H5 3019   1.574   0.165  16.043 -0.3337 -0.3275  0.9748
  198MPD1    N1 3020   1.233   0.038  16.370 -0.7615 -0.2488 -0.6015
  198MPD1    H6 3021   1.147   0.064  16.418  0.6708  1.5900  0.9849
  198MPD1    H7 3022   1.307   0.056  16.438 -0.4292  0.4591 -1.1428
  199MPD1     C 3023   0.940   3.647   9.354 -0.2011 -0.0166  0.7931
  199MPD1    C1 3024   0.974   3.748   9.268 -0.3112 -0.1289  0.6857
  199MPD1    C2 3025   0.956   3.876   9.313 -0.0347  0.4072  0.1654
  199MPD1    C3 3026   0.906   3.903   9.443  0.2245  0.5769  0.0205
  199MPD1    C4 3027   0.882   3.798   9.521  0.8684  0.3989 -0.3663
  199MPD1    C5 3028   0.894   3.672   9.482  0.4254  0.2458 -0.4980
  199MPD1     H 3029   0.968   3.951   9.236 -0.9750 -1.1229 -1.4681
  199MPD1    H1 3030   0.840   3.820   9.618  1.7912  1.3708 -0.1831
  199MPD1    H2 3031   0.935   3.543   9.323  1.3371  0.3657 -0.7217
  199MPD1    H3 3032   0.869   3.585   9.543  0.4335  0.2574 -0.4782
  199MPD1     N 3033   0.876   4.033   9.476 -0.1563 -0.6943 -0.6558
  199MPD1    H5 3034   0.820   4.050   9.559  1.4220 -0.9213  0.4445
  199MPD1    N1 3035   0.995   3.729   9.131 -0.1301 -0.2109 -0.1107
  199MPD1    H6 3036   1.066   3.787   9.086  0.7968  0.5850  2.4011
  199MPD1    H7 3037   1.013   3.630   9.112  2.3877  0.4198 -1.1374
  200MPD1     C 3038   3.612   1.416  14.797  0.0362 -0.5133  0.5488
  200MPD1    C1 3039   3.701   1.431  14.696 -0.1116 -0.2472 -0.4528
  200MPD1    C2 3040   3.790   1.537  14.698 -0.1293  0.0665  0.3363
  200MPD1    C3 3041   3.796   1.625  14.807 -0.6824  0.0641  0.3910
  200MPD1    C4 3042   3.709   1.609  14.909 -0.5974 -0.4892  0.0967
  200MPD1    C5 3043   3.619   1.502  14.906 -0.1912  0.5496  0.3676
  200MPD1     H 3044   3.849   1.564  14.611  0.8472  1.3290  1.3885
  200MPD1    H1 3045   3.701   1.673  14.996  1.2395 -1.3743  0.9068
  200MPD1    H2 3046   3.545   1.330  14.802  0.2146 -0.6750  0.1442
  200MPD1    H3 3047   3.553   1.468  14.985  0.7679 -0.0275  0.9335
  200MPD1     N 3048   3.871   1.745  14.793  0.7275 -0.7754 -0.4866
  200MPD1    H5 3049   3.934   1.754  14.714  0.7297 -0.5726 -0.4637
  200MPD1    N1 3050   3.676   1.353  14.582  0.2091 -0.4341 -0.4214
  200MPD1    H6 3051   3.645   1.262  14.617 -0.9235  0.1682  0.1314
  200MPD1    H7 3052   3.763   1.335  14.533  0.4330  2.2040 -0.9570
  201MPD1     C 3053   0.300   0.198  12.958 -0.2586  0.5155  0.1027
  201MPD1    C1 3054   0.241   0.075  12.965 -0.0640  0.7162  0.4149
  201MPD1    C2 3055   0.321   4.693  12.992  0.5183  0.9640  0.0905
  201MPD1    C3 3056   0.455   4.709  13.013 -0.5678  0.3479  0.1227
  201MPD1    C4 3057   0.514   0.105  12.996  0.5112 -0.0718  0.0320
  201MPD1    C5 3058   0.436   0.210  12.970 -0.5108 -0.4080  0.0342
  201MPD1     H 3059   0.279   4.593  12.989  0.0050  1.2016 -0.8896
  201MPD1    H1 3060   0.619   0.126  13.011  0.6016 -0.2536 -0.3407
  201MPD1    H2 3061   0.239   0.286  12.941  0.1231  0.7043 -0.2999
  201MPD1    H3 3062   0.478   0.308  12.952 -0.5301 -0.2987  0.5792
  201MPD1     N 3063   0.527   4.597  13.037 -0.4769 -1.0413 -0.1371
  201MPD1    H5 3064   0.480   4.508  13.049  1.1755 -1.8504  0.2486
  201MPD1    N1 3065   0.116   0.062  12.904 -0.6419 -0.5297  0.2292
  201MPD1    H6 3066   0.054   0.142  12.903 -1.4705 -1.1603  0.5942
  201MPD1    H7 3067   0.067   4.700  12.930 -2.0508  0.6259  1.3127
  202MPD1     C 3068   1.431   3.557   9.112 -0.0434  0.4101 -0.7810
  202MPD1    C1 3069   1.475   3.682   9.142  0.4936  0.3797 -0.2027
  202MPD1    C2 3070   1.406   3.744   9.249 -0.5814 -0.7170  0.1010
  202MPD1    C3 3071   1.329   3.676   9.343  0.0045  0.0116 -0.2081
  202MPD1    C4 3072   1.312   3.540   9.318 -0.9932 -0.1296  0.7234
  202MPD1    C5 3073   1.360   3.481   9.197 -0.1973 -0.0171 -0.4100
  202MPD1     H 3074   1.433   3.847   9.265 -0.4825 -1.0309  1.8773
  202MPD1    H1 3075   1.269   3.482   9.399 -0.7084  0.9547  1.6646
  202MPD1    H2 3076   1.465   3.522   9.016 -0.1415 -1.6041 -0.0908
  202MPD1    H3 3077   1.337   3.379   9.167  0.2536  0.2383 -1.5885
  202MPD1     N 3078   1.272   3.728   9.462 -0.8980 -0.2236  0.4692
  202MPD1    H5 3079   1.227   3.665   9.528 -0.2381 -0.3378  0.8007
  202MPD1    N1 3080   1.519   3.757   9.031  0.2180  0.1960  0.4439
  202MPD1    H6 3081   1.556   3.687   8.967  1.3595 -0.4722  1.8512
  202MPD1    H7 3082   1.579   3.838   9.043  1.8446 -1.0475  0.6273
  203MPD1     C 3083   4.233   0.938  12.289  0.0418  0.4427 -0.5523
  203MPD1    C1 3084   4.210   0.830  12.207  0.0894 -0.0340 -0.2384
  203MPD1    C2 3085   4.171   0.715  12.269 -0.0996  0.3822 -0.0877
  203MPD1    C3 3086   4.180   0.695  12.405 -0.1003  0.1019 -0.1876
  203MPD1    C4 3087   4.206   0.806  12.483  0.7823 -0.0188 -0.3883
  203MPD1    C5 3088   4.242   0.924  12.422 -0.2387 -0.5651  0.4963
  203MPD1     H 3089   4.149   0.625  12.212  1.2171 -1.4510  2.2756
  203MPD1    H1 3090   4.229   0.804  12.589  1.0215  0.8781 -0.4232
  203MPD1    H2 3091   4.250   1.037  12.249 -0.9743  0.2569 -1.4471
  203MPD1    H3 3092   4.279   1.006  12.483 -2.9013  0.8414  0.1998
  203MPD1     N 3093   4.161   0.561  12.453  0.3830  0.6122 -0.2401
  203MPD1    H5 3094   4.140   0.487  12.386  1.4503  0.0505  0.0428
  203MPD1    N1 3095   4.174   0.846  12.070  0.3264 -0.1090  0.2504
  203MPD1    H6 3096   4.240   0.913  12.032  1.3728 -1.2319  0.0880
  203MPD1    H7 3097   4.187   0.762  12.014 -3.1825  1.0774 -2.3542
  204MPD1     C 3098   4.628   1.566   0.074  0.8078  0.1318 -0.3080
  204MPD1    C1 3099   4.496   1.529   0.091 -0.2079  0.4042  0.9313
  204MPD1    C2 3100   4.414   1.533  17.671 -0.2729  0.3148  0.1582
  204MPD1    C3 3101   4.457   1.547  17.544  0.8330 -0.1307  0.2643
  204MPD1    C4 3102   4.591   1.573  17.531 -0.1973 -0.2640 -0.2021
  204MPD1    C5 3103   4.666   1.599  17.643  0.2716 -0.3006  0.2455
  204MPD1     H 3104   4.308   1.524   0.000 -0.5148 -0.4250 -1.2628
  204MPD1    H1 3105   4.631   1.575  17.430 -0.7222 -0.2125 -0.4085
  204MPD1    H2 3106   4.694   1.581   0.158 -0.8061 -2.1272  1.3761
  204MPD1    H3 3107   0.049   1.624  17.640 -0.7570  3.6793 -3.6501
  204MPD1     N 3108   4.363   1.536  17.438  0.2089 -0.0049  0.1901
  204MPD1    H5 3109   4.278   1.483  17.451  0.0078 -0.2026 -2.0092
  204MPD1    N1 3110   4.439   1.551   0.214  0.6885 -0.9046 -0.6020
  204MPD1    H6 3111   4.493   1.515   0.292  1.3650 -0.8658 -1.0534
  204MPD1    H7 3112   4.351   1.499   0.212  1.4986 -2.2632 -0.6866
  205MPD1     C 3113   3.691   0.093  16.691 -0.0624  0.3107 -0.5245
  205MPD1    C1 3114   3.739   0.209  16.638 -0.5254  0.5687  0.5848
  205MPD1    C2 3115   3.686   0.333  16.682  0.1513  0.0262  0.7065
  205MPD1    C3 3116   3.574   0.330  16.768 -0.2558 -0.0861  0.3956
  205MPD1    C4 3117   3.521   0.206  16.805  0.0875 -0.0160  0.4343
  205MPD1    C5 3118   3.577   0.093  16.766 -0.1589  0.1738  0.3702
  205MPD1     H 3119   3.734   0.423  16.645 -0.1625 -0.6056 -1.2125
  205MPD1    H1 3120   3.430   0.194  16.863 -0.8052  0.4561 -0.8818
  205MPD1    H2 3121   3.742   4.722  16.672  0.6601  0.2902  1.4495
  205MPD1    H3 3122   3.538   4.718  16.791 -1.4210  0.4345 -0.5372
  205MPD1     N 3123   3.515   0.445  16.819 -0.0547 -0.5043 -0.6916
  205MPD1    H5 3124   3.440   0.437  16.887  0.2604  0.3307 -0.2464
  205MPD1    N1 3125   3.856   0.201  16.557  0.1719 -0.1173 -1.0868
  205MPD1    H6 3126   3.861   0.108  16.515  1.9076  0.0769 -1.2990
  205MPD1    H7 3127   3.874   0.269  16.484  0.7589  1.1962  0.2887
  206MPD1     C 3128   4.271   3.254  16.858 -0.0142  0.1452 -0.4454
  206MPD1    C1 3129   4.306   3.137  16.788  0.3555 -0.0121 -0.7357
  206MPD1    C2 3130   4.285   3.139  16.652  0.4955  0.6047  0.5615
  206MPD1    C3 3131   4.207   3.233  16.588 -0.7464 -0.8925 -0.6196
  206MPD1    C4 3132   4.153   3.340  16.661 -0.0262  0.0622  0.1129
  206MPD1    C5 3133   4.194   3.350  16.797 -0.8489 -0.3021 -0.4084
  206MPD1     H 3134   4.330   3.058  16.597  1.3247  0.0260  2.1141
  206MPD1    H1 3135   4.085   3.416  16.623  1.0445  0.7785 -0.3649
  206MPD1    H2 3136   4.300   3.258  16.962  0.2421 -0.4192 -0.4950
  206MPD1    H3 3137   4.158   3.439  16.847  0.8769  0.0727  0.1549
  206MPD1     N 3138   4.171   3.222  16.452 -0.3551  0.3325  0.0491
  206MPD1    H5 3139   4.086   3.274  16.431 -0.6766 -0.1418  0.1947
  206MPD1    N1 3140   4.397   3.043  16.843 -0.2124 -0.5310 -0.0672
  206MPD1    H6 3141   4.388   3.044  16.944  0.3287 -0.8212 -0.0178
  206MPD1    H7 3142   4.384   2.948  16.809  0.4344 -1.2697  1.7856
  207MPD1     C 3143   2.776   2.533  10.451 -0.0032  0.5169 -0.0603
  207MPD1    C1 3144   2.790   2.516  10.315  0.5905 -0.0188 -0.4173
  207MPD1    C2 3145   2.812   2.388  10.270  0.4630  0.2129 -0.5427
  207MPD1    C3 3146   2.800   2.278  10.354 -0.2724  0.3658  0.7565
  207MPD1    C4 3147   2.784   2.295  10.492  0.5034  0.1773 -0.4911
  207MPD1    C5 3148   2.779   2.425  10.536 -0.1229 -0.6391  0.8106
  207MPD1     H 3149   2.820   2.370  10.163  2.3969  2.6457 -0.7990
  207MPD1    H1 3150   2.781   2.211  10.561 -1.0637  0.2200 -0.5231
  207MPD1    H2 3151   2.758   2.632  10.492  1.0372  0.7009 -0.0368
  207MPD1    H3 3152   2.768   2.453  10.640  0.5694  0.1554  0.6696
  207MPD1     N 3153   2.810   2.145  10.312  0.4395  0.0615  0.5850
  207MPD1    H5 3154   2.792   2.070  10.379  0.5815 -0.1507  0.3865
  207MPD1    N1 3155   2.818   2.629  10.229 -0.3546 -0.3463  0.4061
  207MPD1    H6 3156   2.819   2.605  10.130  1.4586 -2.3245  0.9036
  207MPD1    H7 3157   2.745   2.698  10.246 -0.9357 -0.7767 -0.3369
  208MPD1     C 3158   3.962   4.289  16.914 -0.2749 -0.2902  0.5005
  208MPD1    C1 3159   4.055   4.377  16.979  0.7679  0.5302  0.6023
  208MPD1    C2 3160   4.032   4.429  17.105 -0.1956  0.0438  0.6949
  208MPD1    C3 3161   3.908   4.413  17.161  0.0407 -0.7156  1.0592
  208MPD1    C4 3162   3.812   4.329  17.101  0.0255 -0.0303 -0.3169
  208MPD1    C5 3163   3.837   4.274  16.978  0.8298 -0.4966  0.6072
  208MPD1     H 3164   4.111   4.485  17.153  0.0312  0.1053  0.2552
  208MPD1    H1 3165   3.710   4.315  17.134 -0.2827  0.1018 -1.2204
  208MPD1    H2 3166   3.979   4.242  16.818 -0.5559  1.4000 -0.3834
  208MPD1    H3 3167   3.769   4.200  16.937  0.9716  0.1145 -0.7246
  208MPD1     N 3168   3.889   4.477  17.283 -0.5560 -0.2390 -0.0516
  208MPD1    H5 3169   3.963   4.526  17.333  0.4111  0.7844 -2.4653
  208MPD1    N1 3170   4.188   4.375  16.938 -0.4261 -0.6954 -0.0564
  208MPD1    H6 3171   4.255   4.444  16.972 -0.9686 -0.3766  0.3651
  208MPD1    H7 3172   4.198   4.368  16.837 -1.7949 -3.1815 -0.0135
  209MPD1     C 3173   2.169   0.677  11.352  0.1797  0.1879 -0.8000
  209MPD1    C1 3174   2.254   0.598  11.276  0.2576  0.9992 -0.3675
  209MPD1    C2 3175   2.303   0.638  11.155  0.4484 -0.4754  0.5445
  209MPD1    C3 3176   2.281   0.765  11.112 -0.0387 -0.5600  0.0080
  209MPD1    C4 3177   2.210   0.853  11.193  0.5913 -0.5948  0.3674
  209MPD1    C5 3178   2.160   0.802  11.310 -0.5527  0.0538 -0.2006
  209MPD1     H 3179   2.366   0.576  11.092  0.7675  1.4074 -0.9918
  209MPD1    H1 3180   2.182   0.955  11.170  0.7346 -0.7890 -0.6855
  209MPD1    H2 3181   2.129   0.646  11.448  0.6392 -0.3684 -0.7894
  209MPD1    H3 3182   2.099   0.865  11.373 -0.7879 -1.7106  1.3357
  209MPD1     N 3183   2.329   0.808  10.987  0.5838 -0.4306 -0.5987
  209MPD1    H5 3184   2.365   0.733  10.927  1.5073 -1.3566  1.1041
  209MPD1    N1 3185   2.266   0.464  11.316  0.2410 -0.2330 -0.0037
  209MPD1    H6 3186   2.349   0.415  11.285 -0.9550 -0.9799 -2.0437
  209MPD1    H7 3187   2.243   0.459  11.415  1.3810 -1.7106  0.1944
  210MPD1     C 3188   2.310   0.259  10.362 -0.3443 -0.2312 -0.0951
  210MPD1    C1 3189   2.357   0.362  10.286  0.5018 -0.3933 -0.1116
  210MPD1    C2 3190   2.352   0.489  10.340  0.5890 -0.2558  0.3246
  210MPD1    C3 3191   2.316   0.505  10.471 -0.3054 -0.1079  0.3086
  210MPD1    C4 3192   2.286   0.398  10.544 -0.7773  0.3894 -0.1343
  210MPD1    C5 3193   2.273   0.276  10.491 -0.1752 -0.8177 -0.8501
  210MPD1     H 3194   2.385   0.575  10.283 -3.7734  0.4879 -1.0413
  210MPD1    H1 3195   2.272   0.416  10.650 -3.1947 -4.2568  0.3407
  210MPD1    H2 3196   2.298   0.157  10.327  0.8182 -0.7920  1.1223
  210MPD1    H3 3197   2.247   0.190  10.551 -0.4241  0.6038  1.0544
  210MPD1     N 3198   2.329   0.629  10.534  0.2803 -0.6146 -0.0207
  210MPD1    H5 3199   2.298   0.627  10.631  1.0238  1.6124  0.2528
  210MPD1    N1 3200   2.428   0.336  10.161  0.4851  0.4778  0.2269
  210MPD1    H6 3201   2.407   0.246  10.119  1.5660  0.5046 -0.3900
  210MPD1    H7 3202   2.401   0.411  10.097 -0.4596  0.7538  0.9512
  211MPD1     C 3203   4.279   4.221  15.847 -0.7168  0.0559  0.2180
  211MPD1    C1 3204   4.309   4.353  15.870  1.3126 -0.9405 -0.4824
  211MPD1    C2 3205   4.219   4.441  15.930  0.6196 -1.0055  1.0610
  211MPD1    C3 3206   4.100   4.390  15.978 -0.4225 -0.0068 -0.0155
  211MPD1    C4 3207   4.070   4.258  15.954 -0.7830  0.0937  0.0107
  211MPD1    C5 3208   4.156   4.178  15.896 -0.5188  0.0954 -0.2849
  211MPD1     H 3209   4.252   4.541  15.953 -1.0484 -0.0347 -0.7458
  211MPD1    H1 3210   3.973   4.214  15.978 -1.1234  1.1012  0.5039
  211MPD1    H2 3211   4.339   4.140  15.806  0.9999  2.0441 -1.1909
  211MPD1    H3 3212   4.134   4.072  15.892 -0.6561  0.0902  0.7667
  211MPD1     N 3213   4.010   4.478  16.043 -0.3359 -0.1172 -0.4874
  211MPD1    H5 3214   4.048   4.570  16.062 -1.2702 -0.1980  1.8156
  211MPD1    N1 3215   4.439   4.394  15.839 -0.4945  0.4114 -0.0879
  211MPD1    H6 3216   4.503   4.352  15.906 -1.4046  0.0646  0.5645
  211MPD1    H7 3217   4.455   4.493  15.854 -4.2144  1.1645 -1.1957
  212MPD1     C 3218   3.322   3.502  16.466  0.8152 -0.0346 -0.4809
  212MPD1    C1 3219   3.341   3.371  16.422 -0.0241  0.1468 -0.1552
  212MPD1    C2 3220   3.312   3.266  16.514  0.2515 -0.5002 -0.2954
  212MPD1    C3 3221   3.267   3.295  16.638  1.0029  0.3918 -0.3583
  212MPD1    C4 3222   3.241   3.421  16.676  0.3341 -0.1346  0.2565
  212MPD1    C5 3223   3.271   3.523  16.593  0.5658 -1.1628  0.3328
  212MPD1     H 3224   3.322   3.166  16.473  0.6027 -0.1245 -1.1314
  212MPD1    H1 3225   3.186   3.440  16.767 -0.3160  0.6140 -0.2913
  212MPD1    H2 3226   3.336   3.588  16.400  0.1501  2.0428  2.0955
  212MPD1    H3 3227   3.254   3.628  16.611 -1.1331 -1.9199  3.1216
  212MPD1     N 3228   3.214   3.189  16.715 -1.0742  0.1917  0.2724
  212MPD1    H5 3229   3.164   3.214  16.800 -2.2682  1.4901 -0.8131
  212MPD1    N1 3230   3.359   3.350  16.285  0.4623  0.3925 -0.2373
  212MPD1    H6 3231   3.406   3.260  16.276  0.8798  0.7026 -1.1558
  212MPD1    H7 3232   3.427   3.417  16.248  1.3240  0.1366  0.9053
  213MPD1     C 3233   1.213   4.085  15.917  0.2264 -0.8831  0.4307
  213MPD1    C1 3234   1.164   3.988  15.844  0.1242  0.5725  0.4505
  213MPD1    C2 3235   1.202   3.997  15.710  0.3618  0.0860 -0.7313
  213MPD1    C3 3236   1.259   4.116  15.655 -0.5355 -0.4280  0.2320
  213MPD1    C4 3237   1.303   4.218  15.736 -0.2599  0.6875  0.3705
  213MPD1    C5 3238   1.295   4.182  15.866  0.4789 -0.4168 -0.3584
  213MPD1     H 3239   1.159   3.927  15.640  0.4072 -0.5401 -0.1287
  213MPD1    H1 3240   1.368   4.303  15.719 -1.4017  1.5339  0.1666
  213MPD1    H2 3241   1.212   4.077  16.025  0.5432  0.5723  0.5381
  213MPD1    H3 3242   1.352   4.246  15.932 -1.4961  1.1906 -0.2104
  213MPD1     N 3243   1.287   4.117  15.516 -0.3719  0.0691 -0.5019
  213MPD1    H5 3244   1.258   4.033  15.468 -1.0174  0.6969 -1.2041
  213MPD1    N1 3245   1.161   3.865  15.909  0.1523  0.2798 -0.0753
  213MPD1    H6 3246   1.111   3.799  15.850 -1.4873  1.2312  0.2376
  213MPD1    H7 3247   1.108   3.868  15.996 -4.9128  0.2358 -3.1338
  214MPD1     C 3248   0.965   3.668  14.887 -0.1150  0.2072 -0.2653
  214MPD1    C1 3249   1.096   3.640  14.854 -0.3290  0.6300 -0.5145
  214MPD1    C2 3250   1.187   3.705  14.931  0.2100  0.3598  0.1292
  214MPD1    C3 3251   1.145   3.802  15.024 -0.0435  0.6668 -0.1248
  214MPD1    C4 3252   1.012   3.835  15.036  0.3759 -0.5114  0.0055
  214MPD1    C5 3253   0.918   3.761  14.973  0.2323  0.5338  0.4085
  214MPD1     H 3254   1.290   3.675  14.923  0.4283  1.0011  0.5724
  214MPD1    H1 3255   0.975   3.912  15.102 -1.1783 -2.1937  1.0955
  214MPD1    H2 3256   0.887   3.616  14.833 -0.2924  1.1246 -0.8788
  214MPD1    H3 3257   0.812   3.772  14.992  0.0750  0.6706 -0.5954
  214MPD1     N 3258   1.222   3.871  15.111 -0.5605  0.7078  0.2911
  214MPD1    H5 3259   1.165   3.930  15.171 -2.8998  0.3210 -1.5688
  214MPD1    N1 3260   1.138   3.537  14.765  0.2407 -0.1260  0.7932
  214MPD1    H6 3261   1.206   3.572  14.697  1.2267 -0.7065  1.4754
  214MPD1    H7 3262   1.064   3.486  14.718 -0.5208  1.1066  0.6646
  215MPD1     C 3263   0.824   0.372  10.901 -0.3371 -0.0665  0.0101
  215MPD1    C1 3264   0.789   0.426  11.021 -0.2718  0.7716  0.2418
  215MPD1    C2 3265   0.879   0.518  11.074 -0.7416 -0.0787  0.6051
  215MPD1    C3 3266   0.987   0.564  10.997  0.2302 -0.2898 -0.5362
  215MPD1    C4 3267   1.016   0.507  10.879 -0.4257  0.5836 -0.0078
  215MPD1    C5 3268   0.940   0.406  10.835  0.1967  0.5523 -1.2075
  215MPD1     H 3269   0.872   0.550  11.177  0.7945  0.2369  0.6124
  215MPD1    H1 3270   1.106   0.525  10.821 -0.2080  2.5641  0.9706
  215MPD1    H2 3271   0.748   0.305  10.863 -2.1141  1.4958  0.8200
  215MPD1    H3 3272   0.958   0.365  10.737 -1.7791  0.3000 -1.4621
  215MPD1     N 3273   1.066   0.671  11.056 -0.4079  0.4205  0.2476
  215MPD1    H5 3274   1.041   0.705  11.148 -1.8212 -0.3102  0.1443
  215MPD1    N1 3275   0.676   0.379  11.092 -0.6216 -0.4998 -0.3432
  215MPD1    H6 3276   0.637   0.449  11.155  0.2784 -0.9406  0.6930
  215MPD1    H7 3277   0.596   0.374  11.028 -2.6824 -3.0147  2.4366
  216MPD1     C 3278   3.668   1.780  16.383  0.3203 -0.5838 -0.7635
  216MPD1    C1 3279   3.550   1.745  16.320  0.2385  0.0700  0.1420
  216MPD1    C2 3280   3.428   1.768  16.382  0.0716 -0.3740  0.0147
  216MPD1    C3 3281   3.421   1.780  16.519  0.6938 -0.3894 -0.3415
  216MPD1    C4 3282   3.546   1.796  16.581  0.1071  0.0019  0.1665
  216MPD1    C5 3283   3.664   1.803  16.515 -0.0337  1.0841  0.8449
  216MPD1     H 3284   3.335   1.768  16.326  0.2682  2.0715 -0.3223
  216MPD1    H1 3285   3.554   1.804  16.689 -2.1286 -2.5052  0.5308
  216MPD1    H2 3286   3.766   1.769  16.338  0.8553 -0.2884  0.3494
  216MPD1    H3 3287   3.746   1.828  16.582 -0.7564  0.5056  1.9314
  216MPD1     N 3288   3.295   1.786  16.584  0.2124 -0.0005  0.0697
  216MPD1    H5 3289   3.216   1.778  16.521  0.4644 -2.3344  0.0546
  216MPD1    N1 3290   3.548   1.735  16.184  0.5568 -0.7795  0.5743
  216MPD1    H6 3291   3.627   1.680  16.154  1.2696  1.1964 -1.1439
  216MPD1    H7 3292   3.464   1.692  16.146 -1.7154  2.8727  1.3511
  217MPD1     C 3293   4.511   2.597   8.506  0.6168  0.1329  0.9805
  217MPD1    C1 3294   4.633   2.540   8.540  0.0950  0.2410  0.7543
  217MPD1    C2 3295   4.665   2.520   8.673 -0.6290  0.3064  0.4905
  217MPD1    C3 3296   4.578   2.547   8.774  0.8270 -0.5639 -0.6839
  217MPD1    C4 3297   4.450   2.586   8.735 -0.0926 -0.6197 -0.2108
  217MPD1    C5 3298   4.426   2.623   8.606 -0.1907  0.5683 -0.1707
  217MPD1     H 3299   0.044   2.497   8.703  0.5245 -0.1336 -3.6860
  217MPD1    H1 3300   4.371   2.607   8.806 -1.9855 -0.4776 -2.3850
  217MPD1    H2 3301   4.494   2.618   8.401  0.3279 -1.7480  0.6410
  217MPD1    H3 3302   4.335   2.675   8.578  0.5358  2.1325  0.4099
  217MPD1     N 3303   4.596   2.537   8.911 -0.2670 -0.3136 -0.1186
  217MPD1    H5 3304   4.518   2.577   8.962  1.4190  0.4101  1.8902
  217MPD1    N1 3305   0.010   2.510   8.438  0.0146  0.3374  0.1915
  217MPD1    H6 3306   0.080   2.449   8.479 -1.0986 -0.5893  0.7326
  217MPD1    H7 3307   4.692   2.457   8.361  1.4388 -0.4145 -0.0389
  218MPD1     C 3308   0.824   0.710  12.594 -0.5077  0.6287  0.0358
  218MPD1    C1 3309   0.941   0.773  12.567 -0.0471 -0.4314 -0.0474
  218MPD1    C2 3310   1.054   0.692  12.580  0.0093 -0.6333  0.9932
  218MPD1    C3 3311   1.055   0.559  12.615  0.0131  0.0259  0.0284
  218MPD1    C4 3312   0.934   0.509  12.645  0.4273  0.0803 -0.5087
  218MPD1    C5 3313   0.821   0.586  12.650 -0.2893 -0.3026  0.8302
  218MPD1     H 3314   1.146   0.739  12.547 -1.6119  1.0320 -1.1329
  218MPD1    H1 3315   0.934   0.407  12.681  0.9871  0.0022 -0.7395
  218MPD1    H2 3316   0.729   0.757  12.575 -1.0931 -0.4291  0.3768
  218MPD1    H3 3317   0.729   0.540  12.684 -1.0807  0.5461 -0.1523
  218MPD1     N 3318   1.180   0.495  12.616  0.5625  0.4722  0.1352
  218MPD1    H5 3319   1.259   0.541  12.572  0.1176  1.8146  0.7377
  218MPD1    N1 3320   0.938   0.905  12.513 -0.6233  0.0178  0.0573
  218MPD1    H6 3321   0.996   0.961  12.575 -0.1516 -0.5956  0.1690
  218MPD1    H7 3322   0.851   0.956  12.529 -0.5449  0.2217 -0.1545
  219MPD1     C 3323   2.039   0.384  12.147  0.1522  0.7619  0.0061
  219MPD1    C1 3324   1.941   0.479  12.157 -0.1564  0.5154  0.7402
  219MPD1    C2 3325   1.838   0.461  12.244 -0.6568  0.2885  0.2578
  219MPD1    C3 3326   1.854   0.366  12.346  0.1230 -0.5144 -0.1187
  219MPD1    C4 3327   1.966   0.292  12.354  0.0109  0.1488  0.0953
  219MPD1    C5 3328   2.052   0.303  12.253 -0.3154 -0.3658  0.7569
  219MPD1     H 3329   1.747   0.518  12.229 -0.1570  0.8198 -0.7574
  219MPD1    H1 3330   1.993   0.230  12.439 -0.4669  0.6889  0.6369
  219MPD1    H2 3331   2.123   0.386  12.078 -0.5603  1.2457 -0.8421
  219MPD1    H3 3332   2.139   0.238  12.262  0.3022  0.4331  0.5935
  219MPD1     N 3333   1.759   0.354  12.446  0.3447  0.1675 -0.2962
  219MPD1    H5 3334   1.783   0.301  12.529 -0.1138  0.0351 -0.2445
  219MPD1    N1 3335   1.933   0.573  12.054 -0.5125  0.0397 -0.4124
  219MPD1    H6 3336   1.886   0.661  12.072  0.4302  0.2403  1.0470
  219MPD1    H7 3337   2.020   0.597  12.007  0.7439  0.8763  2.3398
  220MPD1     C 3338   1.641   0.379   9.382  0.9558  0.3112 -0.5188
  220MPD1    C1 3339   1.649   0.285   9.473  0.0504  0.5247  0.4094
  220MPD1    C2 3340   1.683   0.320   9.602  0.0292 -0.1631 -0.3649
  220MPD1    C3 3341   1.671   0.455   9.636  0.1791 -0.4163  0.3474
  220MPD1    C4 3342   1.654   0.559   9.544 -0.1982 -0.1368  0.6830
  220MPD1    C5 3343   1.646   0.513   9.415 -0.0289 -0.4719  0.1414
  220MPD1     H 3344   1.694   0.243   9.678 -0.3532  1.2779  1.1482
  220MPD1    H1 3345   1.661   0.665   9.567  1.9300 -0.0581 -0.3302
  220MPD1    H2 3346   1.620   0.367   9.276  0.5472  2.7384 -0.6946
  220MPD1    H3 3347   1.632   0.588   9.338  1.7214 -0.9462 -0.6187
  220MPD1     N 3348   1.660   0.488   9.773 -0.1243 -0.4609  0.2703
  220MPD1    H5 3349   1.670   0.407   9.833  0.5858 -1.6030 -1.3964
  220MPD1    N1 3350   1.673   0.152   9.427  0.3696  0.0038  0.0030
  220MPD1    H6 3351   1.636   0.080   9.489 -0.9968  1.0429  0.3926
  220MPD1    H7 3352   1.632   0.129   9.336  1.5235  0.0650 -0.5273
  221MPD1     C 3353   4.433   4.706  16.266  0.3615  0.5442  0.5020
  221MPD1    C1 3354   4.303   4.708  16.323 -0.4541  0.3177  0.2351
  221MPD1    C2 3355   4.233   4.585  16.334  0.4240 -0.5459 -0.1198
  221MPD1    C3 3356   4.296   4.465  16.308  0.2626  0.1348  0.3864
  221MPD1    C4 3357   4.427   4.466  16.254 -0.6762 -0.1245  0.3985
  221MPD1    C5 3358   4.489   4.584  16.234 -0.7189 -0.5637  0.1741
  221MPD1     H 3359   4.125   4.585  16.348  0.2674  0.9034 -1.3376
  221MPD1    H1 3360   4.484   4.379  16.225 -1.0946 -0.3659  0.2948
  221MPD1    H2 3361   4.490   0.070  16.238  1.9358 -1.0509 -1.2526
  221MPD1    H3 3362   4.585   4.584  16.184  0.0880  1.4186  1.7341
  221MPD1     N 3363   4.229   4.344  16.327  0.4936 -0.1268 -0.0574
  221MPD1    H5 3364   4.276   4.258  16.303 -0.7273 -0.5161 -1.0006
  221MPD1    N1 3365   4.233   0.112  16.312  0.7385  0.1687 -0.3301
  221MPD1    H6 3366   4.216   0.128  16.213  1.3043  2.2046 -0.0922
  221MPD1    H7 3367   4.144   0.110  16.362  0.0629 -0.6646 -1.5753
  222MPD1     C 3368   3.313   2.987  17.135  0.1545  0.5331  0.8801
  222MPD1    C1 3369   3.274   3.117  17.108  0.4902  0.5820  0.2600
  222MPD1    C2 3370   3.161   3.159  17.180 -0.0300  0.5332  0.2922
  222MPD1    C3 3371   3.112   3.087  17.286 -0.1530 -0.2971  0.0836
  222MPD1    C4 3372   3.167   2.971  17.323  0.1105 -0.5223 -0.1664
  222MPD1    C5 3373   3.268   2.919  17.243  0.5122 -0.1897 -0.5529
  222MPD1     H 3374   3.113   3.254  17.156 -1.0487 -0.1224 -0.2605
  222MPD1    H1 3375   3.115   2.912  17.397 -5.8103  5.3264  0.3851
  222MPD1    H2 3376   3.392   2.948  17.072 -0.2028 -0.9330  1.3352
  222MPD1    H3 3377   3.303   2.819  17.266  0.4268  0.0943  0.8039
  222MPD1     N 3378   2.996   3.130  17.354 -0.5223  0.2265 -0.4738
  222MPD1    H5 3379   2.974   3.075  17.436 -0.6694  1.1523  0.1014
  222MPD1    N1 3380   3.335   3.194  17.002  0.2662 -0.3184  0.0985
  222MPD1    H6 3381   3.429   3.162  16.979  1.3323  1.7708  1.6282
  222MPD1    H7 3382   3.337   3.292  17.029  0.2240 -0.4642  0.6248
  223MPD1     C 3383   2.225   2.809   0.162  0.8320  0.1622 -0.7939
  223MPD1    C1 3384   2.215   2.948   0.193 -0.5935 -0.2619 -0.2059
  223MPD1    C2 3385   2.309   3.029   0.128  0.0982  0.2691 -0.3759
  223MPD1    C3 3386   2.394   2.983   0.037 -1.0151  0.5129  0.3653
  223MPD1    C4 3387   2.381   2.857  17.680  0.2360  1.1239  0.7068
  223MPD1    C5 3388   2.302   2.768   0.054  0.1221 -0.3760  0.1377
  223MPD1     H 3389   2.317   3.133   0.159  0.8775  0.7300 -2.1650
  223MPD1    H1 3390   2.435   2.817  17.595 -0.1415  2.0881  0.0104
  223MPD1    H2 3391   2.172   2.730   0.214 -0.2820  0.2009 -1.8666
  223MPD1    H3 3392   2.319   2.663   0.031  2.4516  0.1527 -0.5048
  223MPD1     N 3393   2.485   3.077  17.679  0.5628 -0.0637  0.1833
  223MPD1    H5 3394   2.471   3.172   0.018  0.1751 -0.2137  0.4572
  223MPD1    N1 3395   2.155   2.997   0.312 -0.4799  0.1398 -0.3880
  223MPD1    H6 3396   2.073   2.944   0.340 -1.2886  1.7211  0.2732
  223MPD1    H7 3397   2.127   3.094   0.300  0.2916  0.3660 -0.3984
  224MPD1     C 3398   0.040   2.826   8.836  0.0981 -0.4671  0.9488
  224MPD1    C1 3399   0.142   2.775   8.914  0.3487 -0.4220 -0.1997
  224MPD1    C2 3400   0.164   2.828   9.049  0.1948  0.4053  0.1743
  224MPD1    C3 3401   0.063   2.908   9.108  0.2700  0.1328  0.2979
  224MPD1    C4 3402   4.673   2.936   9.033 -0.6728  0.0334 -0.1627
  224MPD1    C5 3403   4.672   2.904   8.897 -0.6921  0.4572 -0.2887
  224MPD1     H 3404   0.257   2.807   9.100  0.5035  1.0248 -0.1398
  224MPD1    H1 3405   4.592   2.999   9.069 -0.1018  1.3646 -1.2187
  224MPD1    H2 3406   0.013   2.803   8.734 -0.3973  0.7047  0.8196
  224MPD1    H3 3407   4.593   2.951   8.840 -0.3494  0.1742 -0.9953
  224MPD1     N 3408   0.077   2.967   9.235  0.0443  0.0023  0.0403
  224MPD1    H5 3409   0.003   3.021   9.279  0.7149  2.4484 -1.7750
  224MPD1    N1 3410   0.234   2.682   8.852  0.0081  0.3787  0.4204
  224MPD1    H6 3411   0.285   2.630   8.924  4.2770  0.5811 -2.4528
  224MPD1    H7 3412   0.179   2.606   8.813 -0.4138  0.2339  1.3020
  225MPD1     C 3413   0.582   1.159  12.979  0.3409  0.3094 -0.0988
  225MPD1    C1 3414   0.542   1.088  12.873  0.2187  0.5248  0.5820
  225MPD1    C2 3415   0.572   1.132  12.741 -0.3270  0.1562  0.7226
  225MPD1    C3 3416   0.629   1.252  12.726 -0.3426  0.6788  0.9923
  225MPD1    C4 3417   0.663   1.333  12.832 -0.5323 -0.2112 -0.3723
  225MPD1    C5 3418   0.650   1.279  12.959  0.7208  0.8679 -0.2529
  225MPD1     H 3419   0.548   1.073  12.654  0.6410 -1.4143  1.5245
  225MPD1    H1 3420   0.729   1.419  12.821  0.0639 -0.4530  1.3654
  225MPD1    H2 3421   0.577   1.119  13.080 -0.8072 -0.5987 -0.5277
  225MPD1    H3 3422   0.692   1.331  13.045  3.2461 -2.5399  0.5475
  225MPD1     N 3423   0.682   1.290  12.597 -0.3490  0.4930 -0.5392
  225MPD1    H5 3424   0.695   1.388  12.576 -0.0434  0.5045 -0.3041
  225MPD1    N1 3425   0.503   0.948  12.890  0.2408 -0.5366  0.3201
  225MPD1    H6 3426   0.425   0.925  12.829  2.2094 -1.8125 -1.7280
  225MPD1    H7 3427   0.465   0.928  12.983  1.2991  2.3033  1.3407
  226MPD1     C 3428   2.066   1.059   9.695 -0.5228 -0.2237 -0.0461
  226MPD1    C1 3429   1.972   0.960   9.680 -0.0849 -0.1561  0.1392
  226MPD1    C2 3430   1.876   0.989   9.584 -0.5073 -0.1398  0.5855
  226MPD1    C3 3431   1.886   1.095   9.498  0.3292  0.2312 -0.5715
  226MPD1    C4 3432   1.991   1.182   9.504  0.4344 -0.4259 -0.1170
  226MPD1    C5 3433   2.077   1.171   9.610  0.1373  0.2318  0.1811
  226MPD1     H 3434   1.792   0.922   9.577 -0.2581 -0.4553  0.5930
  226MPD1    H1 3435   2.012   1.273   9.450  0.7463  0.1064  0.8967
  226MPD1    H2 3436   2.135   1.055   9.779  0.7835 -0.0401 -1.1031
  226MPD1    H3 3437   2.152   1.248   9.625  2.2027 -1.7872  0.2040
  226MPD1     N 3438   1.792   1.116   9.394 -0.4006  0.4800 -0.1302
  226MPD1    H5 3439   1.709   1.058   9.386 -1.2835  1.6599  0.4529
  226MPD1    N1 3440   1.953   0.864   9.779  0.2806  0.5395 -0.2468
  226MPD1    H6 3441   1.884   0.791   9.764  3.1145 -1.7737 -2.0162
  226MPD1    H7 3442   2.039   0.821   9.813  0.4052 -1.8335 -3.5842
  227MPD1     C 3443   1.683   1.999   8.937 -0.5324  0.9170 -0.0597
  227MPD1    C1 3444   1.784   1.938   9.007 -0.8336  0.1400  0.1388
  227MPD1    C2 3445   1.764   1.801   9.027  0.2549 -0.1378 -0.3509
  227MPD1    C3 3446   1.645   1.731   9.002  0.3407 -0.2120  1.3589
  227MPD1    C4 3447   1.542   1.800   8.943 -0.2076  0.0446  0.4866
  227MPD1    C5 3448   1.556   1.936   8.911  0.3756 -0.4113  0.7312
  227MPD1     H 3449   1.846   1.744   9.071  1.6838  1.7901 -0.5309
  227MPD1    H1 3450   1.441   1.764   8.923  0.6525 -0.4743 -2.8667
  227MPD1    H2 3451   1.690   2.104   8.911  1.1287  0.9101  0.3679
  227MPD1    H3 3452   1.473   1.992   8.869  0.6833  0.6384  1.5401
  227MPD1     N 3453   1.637   1.592   9.035 -0.6224 -0.2576 -0.2651
  227MPD1    H5 3454   1.727   1.564   9.074 -0.8270 -0.9189 -0.2696
  227MPD1    N1 3455   1.906   2.011   9.024 -0.5637 -0.4948 -0.4699
  227MPD1    H6 3456   1.887   2.109   9.040 -0.0087 -0.5836  0.7001
  227MPD1    H7 3457   1.968   1.975   9.097 -1.6481  0.1458  0.7405
  228MPD1     C 3458   2.652   3.665  12.172  0.2923 -0.0290  0.1209
  228MPD1    C1 3459   2.526   3.680  12.123 -0.1813  0.3368 -0.0497
  228MPD1    C2 3460   2.417   3.661  12.214  0.0035 -0.4600  0.3648
  228MPD1    C3 3461   2.442   3.637  12.347 -0.9150 -0.4125  0.6806
  228MPD1    C4 3462   2.574   3.614  12.386  0.6619  0.0037 -0.5493
  228MPD1    C5 3463   2.673   3.624  12.301 -0.4532  0.0279  0.1964
  228MPD1     H 3464   2.316   3.678  12.178  0.0570 -1.1449 -0.1284
  228MPD1    H1 3465   2.610   3.592  12.486  0.7653 -0.9174 -0.7907
  228MPD1    H2 3466   2.733   3.692  12.105 -1.6621 -0.6807 -2.5278
  228MPD1    H3 3467   2.773   3.615  12.343 -0.9909  0.9089  1.6501
  228MPD1     N 3468   2.328   3.648  12.432  0.1642 -0.0587 -0.4730
  228MPD1    H5 3469   2.237   3.675  12.395  0.0338  0.7930  0.4776
  228MPD1    N1 3470   2.504   3.739  11.999 -0.0689 -0.1880  0.1304
  228MPD1    H6 3471   2.418   3.711  11.953 -0.0041  0.8843 -0.6429
  228MPD1    H7 3472   2.579   3.726  11.932 -0.6682 -0.4551 -0.4841
  229MPD1     C 3473   2.291   2.096  13.870 -0.1994 -0.2834 -0.3465
  229MPD1    C1 3474   2.243   2.153  13.985  0.7315 -0.0048 -1.2796
  229MPD1    C2 3475   2.318   2.147  14.101  0.1514  0.1714 -0.7983
  229MPD1    C3 3476   2.437   2.087  14.097 -0.1402  0.4186  0.9309
  229MPD1    C4 3477   2.485   2.036  13.975  0.1449 -0.5725 -0.1299
  229MPD1    C5 3478   2.410   2.043  13.859  0.2664 -0.8432 -0.3218
  229MPD1     H 3479   2.275   2.178  14.196 -0.7460 -2.7685 -0.2591
  229MPD1    H1 3480   2.584   1.992  13.968 -0.8179 -2.6962 -0.4338
  229MPD1    H2 3481   2.234   2.091  13.778 -0.3552 -0.8598 -0.2208
  229MPD1    H3 3482   2.453   2.010  13.765  0.7780  1.1595 -0.7982
  229MPD1     N 3483   2.527   2.078  14.211  0.5567  0.1201 -0.2582
  229MPD1    H5 3484   2.613   2.026  14.205  1.6499  1.7720  0.9919
  229MPD1    N1 3485   2.112   2.207  13.992  0.2920  0.0066  0.0070
  229MPD1    H6 3486   2.103   2.277  14.065  2.4385 -0.2925  0.5545
  229MPD1    H7 3487   2.084   2.263  13.911 -1.1001 -1.7386 -0.7215
  230MPD1     C 3488   2.666   2.751  14.961 -0.7145  0.5536  0.1556
  230MPD1    C1 3489   2.546   2.694  14.921  0.4967 -0.1405 -0.4913
  230MPD1    C2 3490   2.548   2.580  14.840 -0.0422 -0.3988  0.1806
  230MPD1    C3 3491   2.668   2.516  14.806 -0.5266  0.4729 -0.2956
  230MPD1    C4 3492   2.782   2.577  14.844 -0.9817 -0.5909  0.5907
  230MPD1    C5 3493   2.776   2.691  14.919 -0.3894  0.1555  0.5403
  230MPD1     H 3494   2.455   2.542  14.801 -0.4672  1.3428 -0.5160
  230MPD1    H1 3495   2.881   2.544  14.816 -0.9407 -1.4513  1.7442
  230MPD1    H2 3496   2.667   2.840  15.022  0.7510  0.7038 -0.0965
  230MPD1    H3 3497   2.871   2.737  14.945 -0.5741  0.4890  0.6122
  230MPD1     N 3498   2.665   2.397  14.734 -0.2521  0.6240 -0.4194
  230MPD1    H5 3499   2.572   2.377  14.699  0.8533  0.5562 -3.2910
  230MPD1    N1 3500   2.430   2.759  14.960 -0.0436  0.0475  0.5315
  230MPD1    H6 3501   2.430   2.833  15.030 -2.0730  0.6540 -0.0864
  230MPD1    H7 3502   2.346   2.702  14.973  1.8464 -3.0294 -0.6642
  231MPD1     C 3503   0.843   4.107  15.449 -0.3387  0.8715 -0.3754
  231MPD1    C1 3504   0.778   4.085  15.329 -0.6434  0.4441  0.4713
  231MPD1    C2 3505   0.837   4.129  15.213 -0.2374 -0.3592 -0.3737
  231MPD1    C3 3506   0.946   4.219  15.210  0.1810 -0.8134  1.0807
  231MPD1    C4 3507   1.000   4.253  15.334  0.1862  0.1208  0.1615
  231MPD1    C5 3508   0.952   4.195  15.454  0.2142 -0.3863 -0.1929
  231MPD1     H 3509   0.800   4.086  15.121 -1.7608  1.2826 -0.5339
  231MPD1    H1 3510   1.079   4.325  15.351  0.2106  0.7966 -2.7331
  231MPD1    H2 3511   0.810   4.065  15.543 -0.7082 -0.4382 -1.0847
  231MPD1    H3 3512   0.991   4.232  15.548  0.6852  0.1800 -0.6176
  231MPD1     N 3513   1.008   4.264  15.088 -0.5802 -0.4999 -0.2700
  231MPD1    H5 3514   0.969   4.230  15.000  0.1598 -1.0614 -0.3829
  231MPD1    N1 3515   0.668   3.995  15.317  0.3035 -0.1560 -0.2129
  231MPD1    H6 3516   0.614   4.021  15.235 -1.3540 -0.8893  0.6440
  231MPD1    H7 3517   0.615   4.002  15.404  3.4993  1.7976  1.5921
  232MPD1     C 3518   2.889   1.029   0.284  0.2100  0.1955  0.4324
  232MPD1    C1 3519   2.823   0.909   0.312 -0.1188 -0.7497  0.5224
  232MPD1    C2 3520   2.716   0.877   0.228  0.1885  0.1750 -0.4147
  232MPD1    C3 3521   2.656   0.973   0.136 -0.9533  0.6474 -0.5850
  232MPD1    C4 3522   2.730   1.085   0.113 -0.4384 -0.0906  0.0213
  232MPD1    C5 3523   2.842   1.113   0.185  0.0296 -0.0453 -0.4697
  232MPD1     H 3524   2.661   0.785   0.241 -0.5079  0.5142 -0.9096
  232MPD1    H1 3525   2.687   1.165   0.055  0.6699  0.2444 -0.3437
  232MPD1    H2 3526   2.983   1.050   0.334 -0.2960  2.8884  0.2352
  232MPD1    H3 3527   2.896   1.205   0.165 -0.6099  0.0411 -1.8064
  232MPD1     N 3528   2.531   0.952   0.073 -0.0141 -0.0677  0.0823
  232MPD1    H5 3529   2.487   0.865   0.102  0.5212 -0.0252  1.0045
  232MPD1    N1 3530   2.884   0.813   0.390 -0.8388  0.3140 -0.1859
  232MPD1    H6 3531   2.944   0.843   0.467 -2.9781  1.6214  0.9818
  232MPD1    H7 3532   2.825   0.742   0.433 -0.1726 -1.4468 -2.1598
  233MPD1     C 3533   3.095   0.366   1.247  0.7040 -0.1264  0.3636
  233MPD1    C1 3534   3.120   0.261   1.340  0.2296 -0.1938 -0.0011
  233MPD1    C2 3535   3.245   0.228   1.391  0.3070 -0.2760  0.4410
  233MPD1    C3 3536   3.355   0.312   1.357  0.0477 -0.9623 -0.2735
  233MPD1    C4 3537   3.330   0.426   1.284 -0.4931  0.1475  0.4401
  233MPD1    C5 3538   3.207   0.449   1.230 -0.3500  0.4280  0.7990
  233MPD1     H 3539   3.272   0.133   1.435 -2.5141 -1.5708 -0.6272
  233MPD1    H1 3540   3.416   0.483   1.253 -0.2508 -1.7445 -2.3514
  233MPD1    H2 3541   2.998   0.382   1.201  1.1617 -0.4623 -0.7203
  233MPD1    H3 3542   3.198   0.532   1.161 -2.3521 -0.6717 -0.2312
  233MPD1     N 3543   3.488   0.284   1.391  0.1355  0.3583  0.6569
  233MPD1    H5 3544   3.563   0.351   1.376 -0.9447  1.5971  0.7166
  233MPD1    N1 3545   3.022   0.166   1.347  0.4886 -0.2676  0.1638
  233MPD1    H6 3546   2.930   0.207   1.328  0.2392 -1.8993 -2.1214
  233MPD1    H7 3547   3.010   0.127   1.440 -0.2231 -0.3813  0.0249
  234MPD1     C 3548   1.281   1.850   9.995 -0.6866 -0.1066 -0.1198
  234MPD1    C1 3549   1.167   1.828   9.919 -0.2548 -0.0204 -0.3150
  234MPD1    C2 3550   1.057   1.905   9.943 -0.6815 -0.8132  0.2338
  234MPD1    C3 3551   1.061   2.011  10.022  0.1412  0.1271  0.3344
  234MPD1    C4 3552   1.170   2.029  10.102  0.1200 -0.0929 -0.3260
  234MPD1    C5 3553   1.280   1.946  10.093 -0.0938  0.0356  0.0654
  234MPD1     H 3554   0.960   1.879   9.904  1.7658 -2.0343 -5.0839
  234MPD1    H1 3555   1.174   2.114  10.168  1.2317 -0.3801 -0.0168
  234MPD1    H2 3556   1.357   1.773   9.993 -0.6018 -0.0253  0.0365
  234MPD1    H3 3557   1.368   1.968  10.152 -0.4465  0.0031  0.6074
  234MPD1     N 3558   0.946   2.095  10.021  0.1124  0.2409  0.3405
  234MPD1    H5 3559   0.867   2.057   9.970 -0.3905 -0.6095  1.7554
  234MPD1    N1 3560   1.156   1.712   9.835 -0.3313  0.1170 -0.2675
  234MPD1    H6 3561   1.110   1.744   9.750 -1.0167  0.5860  0.2789
  234MPD1    H7 3562   1.244   1.670   9.807 -0.5503 -0.8301  0.4562
  235MPD1     C 3563   2.334   1.554   9.243  0.4484 -0.0006 -0.7923
  235MPD1    C1 3564   2.435   1.633   9.302  0.6027  0.3234 -0.1583
  235MPD1    C2 3565   2.445   1.629   9.437  0.6840 -0.2658 -0.5816
  235MPD1    C3 3566   2.350   1.582   9.516  0.1314 -1.0489  0.4438
  235MPD1    C4 3567   2.251   1.508   9.459 -0.2466 -0.6726  0.1912
  235MPD1    C5 3568   2.237   1.502   9.323  0.3111  0.3041  0.0676
  235MPD1     H 3569   2.514   1.699   9.484  0.3684 -0.8216  0.7071
  235MPD1    H1 3570   2.185   1.444   9.515  0.3167 -2.8187 -1.5694
  235MPD1    H2 3571   2.334   1.542   9.136  1.9261  1.0826 -0.9267
  235MPD1    H3 3572   2.176   1.420   9.286  2.5671 -1.5721  0.5280
  235MPD1     N 3573   2.377   1.570   9.649  0.1292 -0.5907  0.3556
  235MPD1    H5 3574   2.470   1.605   9.671 -0.8608  1.6617  0.8889
  235MPD1    N1 3575   2.536   1.688   9.222 -0.4388 -0.3492  0.4532
  235MPD1    H6 3576   2.508   1.707   9.126  0.1869 -0.3572  0.2715
  235MPD1    H7 3577   2.592   1.757   9.272 -0.0872 -0.4178  0.1497
  236MPD1     C 3578   0.892   1.509   8.847 -0.3879 -1.1323 -0.6557
  236MPD1    C1 3579   0.897   1.646   8.857 -0.1403 -0.1328 -0.0703
  236MPD1    C2 3580   0.981   1.703   8.950  0.3901  0.2472  0.2337
  236MPD1    C3 3581   1.067   1.632   9.030 -0.1653  0.0871  0.1937
  236MPD1    C4 3582   1.047   1.497   9.032  0.5166 -0.2266 -0.0730
  236MPD1    C5 3583   0.961   1.436   8.941 -0.1620 -0.1419 -0.1016
  236MPD1     H 3584   0.984   1.811   8.945 -1.1692  0.1757 -2.3458
  236MPD1    H1 3585   1.102   1.435   9.102  2.6677  1.9211  0.1376
  236MPD1    H2 3586   0.829   1.463   8.772 -4.0361  0.3529  1.4813
  236MPD1    H3 3587   0.948   1.329   8.947 -0.1568 -0.0095  2.2634
  236MPD1     N 3588   1.172   1.693   9.115  0.0482  0.3387 -0.3235
  236MPD1    H5 3589   1.246   1.634   9.151 -0.3776  1.1157  1.8529
  236MPD1    N1 3590   0.827   1.730   8.775 -0.1033  0.3475  0.3157
  236MPD1    H6 3591   0.822   1.826   8.810  2.4249  0.3864  0.5932
  236MPD1    H7 3592   0.731   1.697   8.765  0.1476 -0.6126  1.1215
  237MPD1     C 3593   0.709   0.156  15.568  0.0751  0.8043 -0.0357
  237MPD1    C1 3594   0.568   0.178  15.575 -0.5889 -0.5237 -0.1875
  237MPD1    C2 3595   0.497   0.172  15.457 -0.1415  0.1586 -0.4155
  237MPD1    C3 3596   0.558   0.177  15.333 -0.5351 -0.1536 -0.1805
  237MPD1    C4 3597   0.698   0.174  15.329 -0.0130  0.2991 -0.4697
  237MPD1    C5 3598   0.769   0.158  15.444  0.4238  0.8790  0.0263
  237MPD1     H 3599   0.389   0.176  15.470 -0.3538  1.8408 -2.7118
  237MPD1    H1 3600   0.742   0.172  15.230 -0.3763  2.9020 -0.7035
  237MPD1    H2 3601   0.772   0.126  15.652  0.4332  1.6635  0.0056
  237MPD1    H3 3602   0.876   0.148  15.430  0.6010  2.0010  0.5929
  237MPD1     N 3603   0.488   0.189  15.216  0.3492  0.2879  0.2226
  237MPD1    H5 3604   0.542   0.206  15.132 -0.9745  3.6636  0.0682
  237MPD1    N1 3605   0.500   0.148  15.695 -0.2728 -0.5457  0.4084
  237MPD1    H6 3606   0.406   0.186  15.684 -0.6847 -2.3213 -2.2461
  237MPD1    H7 3607   0.545   0.204  15.767  0.2538  1.0757 -1.1667
  238MPD1     C 3608   2.497   3.764  15.685 -0.2969  0.0710  0.3792
  238MPD1    C1 3609   2.433   3.866  15.753 -0.2343 -0.2099 -0.2323
  238MPD1    C2 3610   2.387   3.973  15.681 -0.3666  0.5620  0.3631
  238MPD1    C3 3611   2.413   3.982  15.541  0.0973 -0.0422 -0.5141
  238MPD1    C4 3612   2.489   3.884  15.478  0.3398 -0.0250 -0.8056
  238MPD1    C5 3613   2.534   3.783  15.555  0.0213 -0.0944 -0.2757
  238MPD1     H 3614   2.320   4.044  15.728 -0.9501  0.0616  0.2761
  238MPD1    H1 3615   2.516   3.891  15.373 -0.2911  2.9096 -0.7573
  238MPD1    H2 3616   2.534   3.672  15.731 -1.6804 -0.5693  0.2155
  238MPD1    H3 3617   2.595   3.703  15.514  1.0745  2.0010 -2.7966
  238MPD1     N 3618   2.362   4.083  15.461  0.3439  0.2679  0.5169
  238MPD1    H5 3619   2.361   4.065  15.361  2.2318 -0.6713  0.6797
  238MPD1    N1 3620   2.400   3.846  15.887 -0.3033  0.3334 -0.3558
  238MPD1    H6 3621   2.482   3.803  15.931 -0.0329  0.3736 -0.8199
  238MPD1    H7 3622   2.383   3.931  15.941  1.8721  1.4540 -1.4259
  239MPD1     C 3623   3.025   0.456  14.805  0.1268  0.3739 -0.3119
  239MPD1    C1 3624   2.893   0.412  14.804 -1.4764  0.0116 -0.2682
  239MPD1    C2 3625   2.812   0.469  14.708  0.0457 -0.7961 -0.3929
  239MPD1    C3 3626   2.861   0.560  14.606 -0.3544  0.3732 -0.1216
  239MPD1    C4 3627   2.990   0.604  14.621  0.3770 -0.3546  0.3633
  239MPD1    C5 3628   3.071   0.546  14.714 -0.2814  0.0179 -0.6188
  239MPD1     H 3629   2.706   0.450  14.702  0.0357 -1.3424  1.4948
  239MPD1    H1 3630   3.032   0.684  14.560 -0.3296  0.1259  0.5065
  239MPD1    H2 3631   3.099   0.427  14.879 -0.6952  0.9368  0.7249
  239MPD1    H3 3632   3.169   0.590  14.731 -0.7822  0.4044  1.3094
  239MPD1     N 3633   2.782   0.602  14.497  0.0705 -0.1989  0.3603
  239MPD1    H5 3634   2.828   0.672  14.439 -0.8662 -0.3786 -0.6006
  239MPD1    N1 3635   2.845   0.337  14.917 -0.3989 -0.2083 -0.7050
  239MPD1    H6 3636   2.765   0.276  14.902  0.3382 -1.3318 -0.1895
  239MPD1    H7 3637   2.919   0.279  14.958  0.1230  0.5142 -0.6367
  240MPD1     C 3638   2.251   0.302  13.217 -0.3752  0.5691 -0.2555
  240MPD1    C1 3639   2.376   0.290  13.270 -0.1485  0.0945 -0.2722
  240MPD1    C2 3640   2.393   0.233  13.395  0.0819  0.4003 -0.0006
  240MPD1    C3 3641   2.289   0.181  13.466 -0.1155 -0.2351 -0.4145
  240MPD1    C4 3642   2.169   0.186  13.404 -0.1771 -1.0546  0.0655
  240MPD1    C5 3643   2.147   0.237  13.282 -0.0209  0.2220  0.2295
  240MPD1     H 3644   2.492   0.234  13.441 -0.3657 -0.8639  1.0049
  240MPD1    H1 3645   2.075   0.155  13.448 -1.4938  1.2509 -1.1408
  240MPD1    H2 3646   2.217   0.364  13.136 -1.0559  1.7924  0.9673
  240MPD1    H3 3647   2.046   0.246  13.245 -0.5153 -0.8059  1.3311
  240MPD1     N 3648   2.298   0.129  13.598 -0.1960 -0.2270 -0.4650
  240MPD1    H5 3649   2.205   0.111  13.634 -0.0763 -1.0209 -0.5527
  240MPD1    N1 3650   2.480   0.355  13.206 -0.0246  0.8043 -0.0063
  240MPD1    H6 3651   2.570   0.319  13.237 -1.3696 -1.8216  0.8284
  240MPD1    H7 3652   2.472   0.360  13.105 -0.6265  0.4759  0.0282
  241MPD1     C 3653   3.124   4.689  14.156 -0.3310 -0.8938  0.2878
  241MPD1    C1 3654   3.028   4.644  14.238  0.1843  0.0813  0.1768
  241MPD1    C2 3655   2.889   4.659  14.189 -0.9338  0.7323 -0.3566
  241MPD1    C3 3656   2.859   0.001  14.070 -0.6314  0.2337  0.1033
  241MPD1    C4 3657   2.967   0.063  14.001 -0.5414 -0.4917 -0.7500
  241MPD1    C5 3658   3.089   0.029  14.037  0.0677  0.2993  0.3526
  241MPD1     H 3659   2.815   4.633  14.263  1.3901  1.2010  2.1330
  241MPD1    H1 3660   2.947   0.116  13.908 -1.1794 -0.4911 -0.6128
  241MPD1    H2 3661   3.228   4.665  14.172  0.5197  1.7479 -1.1047
  241MPD1    H3 3662   3.156   0.076  13.967 -2.3736  1.1628 -1.4075
  241MPD1     N 3663   2.733   0.016  14.016 -0.5956  0.2379  0.1949
  241MPD1    H5 3664   2.733   0.070  13.930 -1.8005  0.1217  0.1212
  241MPD1    N1 3665   3.050   4.561  14.350 -0.2132 -1.2879 -0.0596
  241MPD1    H6 3666   3.138   4.578  14.398 -0.5052  0.5325 -0.1773
  241MPD1    H7 3667   2.969   4.551  14.411 -0.1887  0.4926  0.2451
  242MPD1     C 3668   2.041   3.728  15.619 -0.2176 -0.0993 -0.8311
  242MPD1    C1 3669   1.912   3.681  15.585 -0.1086 -0.1374  0.5390
  242MPD1    C2 3670   1.901   3.576  15.494 -0.0612  0.4548 -0.2537
  242MPD1    C3 3671   2.015   3.532  15.425  0.0444  0.1805  0.3688
  242MPD1    C4 3672   2.133   3.596  15.448  0.1512  0.2733 -0.5137
  242MPD1    C5 3673   2.154   3.695  15.547 -0.2867 -0.7275  0.1736
  242MPD1     H 3674   1.806   3.524  15.483  0.0804  0.2114 -0.3190
  242MPD1    H1 3675   2.229   3.582  15.400 -0.6273  2.3462 -2.6938
  242MPD1    H2 3676   2.057   3.809  15.690 -1.3008  0.6628 -1.4589
  242MPD1    H3 3677   2.252   3.738  15.564 -0.6292  0.5136 -0.9691
  242MPD1     N 3678   2.017   3.428  15.328  0.0630  0.5519 -0.0288
  242MPD1    H5 3679   2.109   3.417  15.287 -0.4406  0.3705 -1.1117
  242MPD1    N1 3680   1.807   3.719  15.673  0.9936 -0.1643 -0.3391
  242MPD1    H6 3681   1.820   3.813  15.710 -1.0309  0.2858 -0.7708
  242MPD1    H7 3682   1.715   3.697  15.634  0.2184  2.8884 -0.2591
  243MPD1     C 3683   4.178   1.864  17.434  0.4079 -0.4649  0.0130
  243MPD1    C1 3684   4.145   1.877  17.305  1.2726 -0.5990  0.1592
  243MPD1    C2 3685   4.028   1.826  17.261 -0.0586 -0.2185  0.2898
  243MPD1    C3 3686   3.952   1.734  17.336  0.9664  0.3678  0.2905
  243MPD1    C4 3687   3.985   1.722  17.472 -0.0318  0.4131  0.1460
  243MPD1    C5 3688   4.096   1.795  17.513  0.3373 -0.1249  0.3330
  243MPD1     H 3689   4.004   1.837  17.156  1.6936  3.1409  0.2283
  243MPD1    H1 3690   3.918   1.659  17.528  3.2513 -1.2380  2.2651
  243MPD1    H2 3691   4.271   1.908  17.467  0.2022  1.6465 -2.2236
  243MPD1    H3 3692   4.116   1.794  17.619 -2.9191  1.7354  0.9827
  243MPD1     N 3693   3.852   1.660  17.268 -0.4722 -0.5510  0.7313
  243MPD1    H5 3694   3.832   1.699  17.176  1.9447 -0.4358  0.2519
  243MPD1    N1 3695   4.218   1.962  17.213  0.4515 -0.5303  0.4593
  243MPD1    H6 3696   4.318   1.954  17.230  0.4666 -0.7286  0.2755
  243MPD1    H7 3697   4.199   1.951  17.113  1.5525  2.1733 -0.0530
  244MPD1     C 3698   3.195   1.190   0.071  0.1009 -0.2252 -0.0271
  244MPD1    C1 3699   3.333   1.193   0.077 -0.2525  0.0913 -0.1786
  244MPD1    C2 3700   3.401   1.210  17.649 -0.0977  1.1265 -0.5512
  244MPD1    C3 3701   3.327   1.227  17.535  0.2679  0.0730  0.1590
  244MPD1    C4 3702   3.189   1.234  17.532  0.2160 -0.5215  0.1393
  244MPD1    C5 3703   3.129   1.218  17.651 -0.4591  0.1044  0.1555
  244MPD1     H 3704   3.508   1.199  17.647 -0.3247 -1.1563 -0.3202
  244MPD1    H1 3705   3.131   1.249  17.441  0.7843 -2.1392 -0.4925
  244MPD1    H2 3706   3.129   1.176   0.156 -1.5084 -1.6570 -1.5168
  244MPD1    H3 3707   3.021   1.219  17.664 -0.2633 -1.1954  1.8819
  244MPD1     N 3708   3.411   1.240  17.420 -0.7122  0.3102  0.2494
  244MPD1    H5 3709   3.510   1.239  17.442 -1.1762  0.3397  2.2569
  244MPD1    N1 3710   3.401   1.153   0.197  0.4524  0.4948  0.2696
  244MPD1    H6 3711   3.500   1.179   0.192  1.0639 -1.9676 -0.4904
  244MPD1    H7 3712   3.369   1.199   0.282 -1.9036 -0.5835 -0.0398
  245MPD1     C 3713   0.441   2.411  13.565  0.7273 -0.4605 -0.2643
  245MPD1    C1 3714   0.557   2.390  13.496 -0.2249  0.2377 -0.5849
  245MPD1    C2 3715   0.655   2.483  13.521 -0.2413  0.4488  0.1777
  245MPD1    C3 3716   0.636   2.594  13.601 -0.4545  0.0782 -0.1567
  245MPD1    C4 3717   0.513   2.610  13.663  0.0684 -0.6184 -0.2993
  245MPD1    C5 3718   0.411   2.518  13.635 -1.0266  0.2149 -0.4615
  245MPD1     H 3719   0.756   2.474  13.483  0.0010  0.9698  0.6873
  245MPD1    H1 3720   0.495   2.685  13.739  1.8605 -0.1562 -0.3301
  245MPD1    H2 3721   0.367   2.332  13.563  0.5307 -0.3206  1.3494
  245MPD1    H3 3722   0.318   2.520  13.691  0.8313  0.0777  2.6274
  245MPD1     N 3723   0.743   2.682  13.614 -0.0095  0.1883  0.1332
  245MPD1    H5 3724   0.829   2.650  13.571 -0.0723 -2.1777  1.8060
  245MPD1    N1 3725   0.585   2.270  13.427 -0.7289  0.2184  0.4239
  245MPD1    H6 3726   0.656   2.273  13.354 -0.4244  1.2844  0.7722
  245MPD1    H7 3727   0.505   2.231  13.377 -0.5293 -0.3047  0.5136
  246MPD1     C 3728   2.084   4.017  10.236  0.6492  0.1444 -0.4800
  246MPD1    C1 3729   2.068   4.140  10.175 -0.2760 -0.5140 -0.2909
  246MPD1    C2 3730   2.068   4.145  10.034 -0.4883 -0.4051  0.6055
  246MPD1    C3 3731   2.068   4.025   9.960  0.9228  0.8283  0.5485
  246MPD1    C4 3732   2.089   3.911  10.030 -1.0318 -0.5813  0.7623
  246MPD1    C5 3733   2.111   3.907  10.162 -0.3950 -0.6049  0.5664
  246MPD1     H 3734   2.052   4.239   9.983 -0.0167 -0.3274  0.6027
  246MPD1    H1 3735   2.086   3.816   9.978 -1.7076  0.3703 -0.9377
  246MPD1    H2 3736   2.079   4.015  10.345 -1.3753 -1.3101 -0.5979
  246MPD1    H3 3737   2.115   3.810  10.211  0.4839 -0.0688  1.5584
  246MPD1     N 3738   2.042   4.027   9.819  0.0660 -0.4779  0.2209
  246MPD1    H5 3739   1.991   4.111   9.793 -0.0574 -0.8181 -0.6562
  246MPD1    N1 3740   2.074   4.264  10.240 -0.2064  0.5309  0.3496
  246MPD1    H6 3741   2.038   4.246  10.333  1.8979  2.0263  1.4567
  246MPD1    H7 3742   2.017   4.339  10.201  2.0276  1.5924 -0.8869
  247MPD1     C 3743   4.651   1.624  15.819  0.1516 -0.7674  0.2830
  247MPD1    C1 3744   0.022   1.688  15.734  0.6495 -0.4382 -0.1903
  247MPD1    C2 3745   0.087   1.799  15.779 -0.3930 -0.0464  0.1188
  247MPD1    C3 3746   0.045   1.864  15.902  0.1516  0.0573  0.5385
  247MPD1    C4 3747   4.672   1.802  15.976  0.0351 -0.5812  0.3686
  247MPD1    C5 3748   4.620   1.676  15.939  0.0593  0.4994  0.5731
  247MPD1     H 3749   0.151   1.846  15.705 -0.4853 -0.1412 -0.0197
  247MPD1    H1 3750   4.650   1.851  16.070  3.3802 -0.1852  0.9569
  247MPD1    H2 3751   4.608   1.528  15.794  1.1561 -0.8737 -1.0177
  247MPD1    H3 3752   4.550   1.618  15.999 -0.8700  2.3182  1.2327
  247MPD1     N 3753   0.084   1.999  15.949 -0.4317 -0.3019  0.3892
  247MPD1    H5 3754   0.043   2.034  16.035  2.4766  0.0096  1.6682
  247MPD1    N1 3755   0.037   1.657  15.600  0.5221  0.2767 -0.4309
  247MPD1    H6 3756   0.120   1.696  15.557 -0.2839 -1.0913 -3.2031
  247MPD1    H7 3757   0.032   1.556  15.592 -2.5007  0.5633 -2.2910
  248MPD1     C 3758   0.986   1.741  17.289  0.1061  0.0566  0.2359
  248MPD1    C1 3759   0.932   1.840  17.369  0.6356  0.4262 -0.1122
  248MPD1    C2 3760   0.867   1.800  17.483  0.3754  0.3964 -0.3274
  248MPD1    C3 3761   0.832   1.670  17.506 -0.3758 -0.5161  0.2668
  248MPD1    C4 3762   0.882   1.575  17.423  0.5608  0.1685  0.0243
  248MPD1    C5 3763   0.962   1.609  17.322  0.4689  0.9242  0.2222
  248MPD1     H 3764   0.831   1.873  17.553  2.0685  0.4392  0.5003
  248MPD1    H1 3765   0.865   1.469  17.432 -0.9273  0.4851  0.8623
  248MPD1    H2 3766   1.043   1.758  17.198  0.7404 -1.9484  0.2631
  248MPD1    H3 3767   0.998   1.524  17.265  0.2340  0.0407  1.3964
  248MPD1     N 3768   0.739   1.639  17.606 -0.1508  0.0525 -0.2778
  248MPD1    H5 3769   0.695   1.709  17.665 -0.2643  0.0950 -0.4131
  248MPD1    N1 3770   0.993   1.970  17.358  0.1648  0.5430 -0.0846
  248MPD1    H6 3771   1.010   1.995  17.261  1.9628  0.1097  0.1088
  248MPD1    H7 3772   0.943   2.048  17.401  2.0893  2.2750 -0.9955
  249MPD1     C 3773   2.637   0.851   9.377  0.8243  0.9533  0.6426
  249MPD1    C1 3774   2.667   0.878   9.509  0.3247  1.2914  0.3169
  249MPD1    C2 3775   2.758   0.979   9.539  0.7579 -0.4176  0.3896
  249MPD1    C3 3776   2.801   1.065   9.439  0.0420  0.5974  0.2924
  249MPD1    C4 3777   2.746   1.051   9.311  0.4085 -0.1433  0.4538
  249MPD1    C5 3778   2.672   0.939   9.280  0.8801  0.4210  0.5628
  249MPD1     H 3779   2.803   1.002   9.635 -0.8509  2.2897  0.5034
  249MPD1    H1 3780   2.763   1.117   9.227  2.9473 -2.5711 -0.9284
  249MPD1    H2 3781   2.582   0.763   9.345  0.8179  1.0410  0.4135
  249MPD1    H3 3782   2.637   0.924   9.178  1.4512 -0.7664  0.5395
  249MPD1     N 3783   2.903   1.157   9.469  0.9592 -0.2202  0.4919
  249MPD1    H5 3784   2.942   1.160   9.563  1.0161 -0.1710  0.4665
  249MPD1    N1 3785   2.638   0.785   9.608 -0.1064 -0.1488  0.5693
  249MPD1    H6 3786   2.624   0.832   9.698 -1.9082 -1.3477  0.9297
  249MPD1    H7 3787   2.552   0.736   9.584  0.6198 -2.8507  3.4687
  250MPD2     C 3788   3.118   0.843  12.926 -0.5608 -0.0068  0.0859
  250MPD2    C1 3789   3.212   0.847  12.832 -0.2304 -0.9484 -0.3192
  250MPD2    C2 3790   3.237   0.729  12.757 -0.6494  0.4780  0.6717
  250MPD2    C3 3791   3.178   0.611  12.788  0.1430  0.4499 -0.2400
  250MPD2    C4 3792   3.082   0.606  12.887 -0.1191 -0.6621 -0.6828
  250MPD2    C5 3793   3.054   0.718  12.951 -0.1516 -0.1966  0.5137
  250MPD2     H 3794   3.310   0.731  12.676  1.3045 -1.1810  2.4055
  250MPD2    H1 3795   3.034   0.514  12.920 -2.1436  0.9320  0.8338
  250MPD2    H2 3796   3.078   0.924  12.986 -1.7483 -0.2797 -0.3448
  250MPD2    H3 3797   2.974   0.726  13.024 -1.1294 -2.1415 -0.3403
  250MPD2     N 3798   3.209   0.493  12.715  0.3682  0.0618  0.6912
  250MPD2    H5 3799   3.141   0.419  12.712  0.9713 -0.5488  1.9547
  250MPD2    N1 3800   3.252   0.971  12.794  0.6374 -0.5495 -0.7454
  250MPD2    H7 3801   3.198   1.045  12.839  1.9997  1.6471 -2.7254
  251TMC3    C1 3802   3.327   1.143  12.661  0.6168  0.2537  0.0615
  251TMC3    C2 3803   3.385   1.218  12.762 -0.5184  0.2501  0.0603
  251TMC3    C3 3804   3.447   1.339  12.717 -0.0244  0.1552  0.7109
  251TMC3    C4 3805   3.327   1.172  12.532  0.2324 -0.1058 -0.4193
  251TMC3    C5 3806   3.393   1.289  12.497 -1.0151  0.6486  0.3039
  251TMC3    C6 3807   3.447   1.372  12.590  0.3552 -0.0199  0.0310
  251TMC3     C 3808   3.331   1.002  12.690  0.3627  0.0984  1.2209
  251TMC3     O 3809   3.387   0.931  12.603 -0.9744 -0.2956  0.4060
  251TMC3     H 3810   3.373   1.187  12.866  0.4855 -1.1351 -0.2326
  251TMC3    H1 3811   3.279   1.104  12.462 -0.1199 -0.8258  0.5155
  251TMC3    H2 3812   3.499   1.463  12.562 -1.0048  1.0989  1.1322
  251TMC3    C7 3813   3.475   1.264  12.384  0.5938  0.2984  0.0419
  251TMC3    C8 3814   3.443   1.452  12.811 -0.2152 -0.3417 -0.3591
  251TMC3    O1 3815   3.530   1.364  12.344  0.0563 -0.4494  0.0742
  251TMC3    O2 3816   3.401   1.559  12.772  0.0362  0.5818 -0.0749
  252TMC3    C1 3817   1.125   0.782   9.019  0.9148  0.3896 -0.1385
  252TMC3    C2 3818   1.009   0.847   8.997 -0.5434  0.3829 -0.0803
  252TMC3    C3 3819   0.898   0.771   8.988 -0.0395  0.6247  1.2088
  252TMC3    C4 3820   1.132   0.650   9.034 -0.3336 -0.4757 -0.1212
  252TMC3    C5 3821   1.016   0.572   9.033 -0.7931 -0.5376  0.1168
  252TMC3    C6 3822   0.893   0.634   9.012 -0.3031 -1.1341 -0.7629
  252TMC3     C 3823   1.243   0.870   9.022  0.4714  0.2772  0.0460
  252TMC3     O 3824   1.230   0.980   8.971  0.4941  0.3737  0.0156
  252TMC3     H 3825   1.003   0.955   8.986  1.9917  0.1270 -3.8329
  252TMC3    H1 3826   1.229   0.602   9.047 -0.9150 -2.1228 -1.8090
  252TMC3    H2 3827   0.804   0.574   8.996 -0.5486 -0.2448 -2.7601
  252TMC3    C7 3828   1.044   0.439   8.989  0.4199  0.0744  0.3572
  252TMC3    C8 3829   0.788   0.821   8.917  0.3767 -0.7724 -0.0501
  252TMC3    O1 3830   1.142   0.431   8.914 -0.3029 -0.4579  0.6556
  252TMC3    O2 3831   0.737   0.747   8.837 -0.4820  0.3753 -0.7036
  253MPD2     C 3832   0.271   0.533  15.280  0.8944 -0.0459 -0.1835
  253MPD2    C1 3833   0.148   0.539  15.225 -0.3419  0.8947  0.2377
  253MPD2    C2 3834   0.045   0.485  15.295 -0.0425  0.0740 -0.3381
  253MPD2    C3 3835   0.067   0.416  15.413 -0.2039  0.3180  0.2617
  253MPD2    C4 3836   0.194   0.401  15.460 -1.0527 -0.0884 -0.0368
  253MPD2    C5 3837   0.299   0.457  15.392  0.0153 -0.5263 -0.6465
  253MPD2     H 3838   4.668   0.494  15.255  0.4371  0.1874 -1.4893
  253MPD2    H1 3839   0.217   0.348  15.552 -0.1107 -0.8016 -0.6847
  253MPD2    H2 3840   0.356   0.588  15.240  0.5459 -0.1878 -1.1167
  253MPD2    H3 3841   0.399   0.463  15.434 -0.2306 -1.4467  0.0647
  253MPD2     N 3842   4.683   0.371  15.491  0.0311 -0.4337 -0.3492
  253MPD2    H5 3843   4.708   0.326  15.579  0.9514 -1.1279 -0.9730
  253MPD2    N1 3844   0.118   0.613  15.109 -0.6862 -0.3351 -0.0886
  253MPD2    H7 3845   0.021   0.604  15.083 -1.2349 -0.8406  2.0847
  254TMC3    C1 3846   4.480   0.269  15.510 -0.1169  0.4803 -0.8232
  254TMC3    C2 3847   4.362   0.314  15.566  0.0691 -0.2316 -0.2043
  254TMC3    C3 3848   4.300   0.227  15.655 -0.2313 -0.4744  0.0689
  254TMC3    C4 3849   4.541   0.153  15.548 -0.2473 -0.1833  0.2354
  254TMC3    C5 3850   4.481   0.067  15.635 -0.7095 -0.1440 -0.7895
  254TMC3    C6 3851   4.360   0.106  15.685 -0.1855 -0.0474  0.1326
  254TMC3     C 3852   4.555   0.369  15.443 -0.6868 -0.6870  0.0679
  254TMC3     O 3853   4.490   0.446  15.371 -0.9614 -0.3828  0.1381
  254TMC3     H 3854   4.314   0.407  15.539 -0.2098 -0.3105  0.0311
  254TMC3    H1 3855   4.622   0.124  15.482 -0.9169 -1.3324 -0.0821
  254TMC3    H2 3856   4.313   0.040  15.757  1.7674 -1.2697  0.2504
  254TMC3    C7 3857   4.558   4.696  15.718  0.8862  0.0993  0.1131
  254TMC3    C8 3858   4.192   0.269  15.746  0.5797 -0.8011 -0.0538
  254TMC3    O1 3859   4.504   4.660  15.823  0.0811  0.7669  0.2416
  254TMC3    O2 3860   4.115   0.191  15.795  0.2580  0.2034 -0.0544
  255MPD2     C 3861   3.811   3.743  10.712  0.3145 -0.4174 -0.1227
  255MPD2    C1 3862   3.794   3.679  10.588 -0.3261  0.1003  0.0149
  255MPD2    C2 3863   3.869   3.566  10.560  0.2779 -0.2943 -0.0857
  255MPD2    C3 3864   3.952   3.507  10.654 -0.0676  0.4913  0.1542
  255MPD2    C4 3865   3.972   3.568  10.778 -0.4336 -0.1099 -0.6559
  255MPD2    C5 3866   3.900   3.677  10.810 -0.1166 -0.6882  0.2998
  255MPD2     H 3867   3.847   3.512  10.468 -0.4129 -1.0848  0.5448
  255MPD2    H1 3868   4.052   3.535  10.844 -1.0797 -1.1941 -0.4095
  255MPD2    H2 3869   3.773   3.842  10.736  2.5702  0.7628 -1.4990
  255MPD2    H3 3870   3.908   3.720  10.910  0.7848 -1.6257  0.6367
  255MPD2     N 3871   4.013   3.386  10.618 -0.3878 -0.4333 -0.4376
  255MPD2    H5 3872   4.001   3.353  10.522 -1.5571 -0.3721 -0.3083
  255MPD2    N1 3873   3.697   3.737  10.511  0.4333  0.3351 -0.0012
  255MPD2    H7 3874   3.635   3.809  10.548 -0.9686 -0.4778 -0.7395
  256TMC3    C1 3875   3.563   3.769  10.323  0.8528 -0.7924  0.1295
  256TMC3    C2 3876   3.555   3.786  10.185  0.1264  0.1856 -0.4053
  256TMC3    C3 3877   3.438   3.807  10.126 -0.5991 -0.4800 -0.2062
  256TMC3    C4 3878   3.451   3.775  10.410 -0.2221  0.1568  0.1400
  256TMC3    C5 3879   3.341   3.812  10.340 -0.1098  0.1185 -0.2731
  256TMC3    C6 3880   3.328   3.822  10.206  0.2814 -0.6456  0.6529
  256TMC3     C 3881   3.679   3.703  10.380 -0.4578 -0.1971 -0.6981
  256TMC3     O 3882   3.756   3.638  10.309 -0.4203 -0.3971 -0.6135
  256TMC3     H 3883   3.642   3.792  10.121 -0.3476  2.4834 -0.8627
  256TMC3    H1 3884   3.462   3.761  10.517  1.1020 -0.1919 -0.0399
  256TMC3    H2 3885   3.236   3.862  10.164  1.1841  2.8858  2.0214
  256TMC3    C7 3886   3.217   3.794  10.413 -0.4153  0.6700 -0.3204
  256TMC3    C8 3887   3.438   3.827   9.987  0.4797 -0.2569 -0.4885
  256TMC3    O1 3888   3.220   3.827  10.530 -0.1604 -0.3096 -0.2959
  256TMC3    O2 3889   3.338   3.880   9.943 -0.5742 -0.5982  0.0915
  257MPD2     C 3890   2.422   1.026  12.884 -0.3268  0.4045 -0.2979
  257MPD2    C1 3891   2.469   0.907  12.828  0.4021  0.2675 -0.4678
  257MPD2    C2 3892   2.510   0.805  12.917 -1.0750 -0.6828 -0.1840
  257MPD2    C3 3893   2.512   0.827  13.052 -0.9321 -0.3429 -0.1626
  257MPD2    C4 3894   2.461   0.946  13.104 -0.1362 -1.0430  0.1547
  257MPD2    C5 3895   2.410   1.043  13.015 -0.0253  0.4772 -0.3374
  257MPD2     H 3896   2.539   0.706  12.884  1.4860 -0.3058  0.9435
  257MPD2    H1 3897   2.456   0.962  13.211  0.2418 -1.3121  0.2137
  257MPD2    H2 3898   2.372   1.099  12.822  0.0187  1.0329  0.1579
  257MPD2    H3 3899   2.364   1.136  13.047 -2.6078 -0.0899 -2.3509
  257MPD2     N 3900   2.574   0.729  13.134 -0.2815 -0.7248  0.4552
  257MPD2    H5 3901   2.625   0.650  13.097  1.9009  1.7367 -1.8371
  257MPD2    N1 3902   2.466   0.893  12.690  0.3304  0.1838  0.4002
  257MPD2    H7 3903   2.452   0.980  12.640 -1.8150 -0.2523  0.2714
  258TMC3    C1 3904   2.638   0.637  13.342  0.5639  0.1010 -0.2971
  258TMC3    C2 3905   2.770   0.628  13.300  0.5985  0.5338  0.4931
  258TMC3    C3 3906   2.856   0.564  13.387 -0.0227  0.3951 -0.6913
  258TMC3    C4 3907   2.591   0.581  13.456  0.2017  0.0621  0.0788
  258TMC3    C5 3908   2.683   0.515  13.536  0.6077  0.4306 -0.0167
  258TMC3    C6 3909   2.817   0.502  13.506 -0.1156  0.2256  0.1301
  258TMC3     C 3910   2.547   0.731  13.271 -0.1473 -0.5915 -0.3063
  258TMC3     O 3911   2.470   0.795  13.345  0.4460 -0.3340  0.4240
  258TMC3     H 3912   2.810   0.683  13.215 -0.1097 -2.6694 -1.9174
  258TMC3    H1 3913   2.486   0.592  13.479 -0.0818 -1.5558 -0.3777
  258TMC3    H2 3914   2.874   0.439  13.573 -0.6989  2.3294  2.6116
  258TMC3    C7 3915   2.629   0.483  13.667  0.4693  0.7065 -0.0610
  258TMC3    C8 3916   2.997   0.576  13.352 -0.2075 -0.1099 -0.0214
  258TMC3    O1 3917   2.524   0.535  13.687 -0.0341  0.0717 -0.1569
  258TMC3    O2 3918   3.030   0.616  13.242  0.0151 -0.1995  0.4966
  259MPD2     C 3919   1.177   1.816   0.766 -0.2271  0.0204  0.0526
  259MPD2    C1 3920   1.157   1.678   0.765  0.0223  0.3244 -0.2410
  259MPD2    C2 3921   1.197   1.611   0.656  0.2554  0.1637 -0.3195
  259MPD2    C3 3922   1.246   1.677   0.540  0.1550 -0.2642 -0.2434
  259MPD2    C4 3923   1.245   1.814   0.535 -0.3420 -1.0249 -0.3782
  259MPD2    C5 3924   1.216   1.884   0.652  0.2044 -0.3748  0.7539
  259MPD2     H 3925   1.216   1.504   0.654  1.8253  0.5089 -3.3012
  259MPD2    H1 3926   1.268   1.877   0.450 -0.4759 -0.5038 -0.0236
  259MPD2    H2 3927   1.158   1.871   0.858  0.8698  0.4064  0.0570
  259MPD2    H3 3928   1.209   1.992   0.650  0.3611 -0.3739 -0.0215
  259MPD2     N 3929   1.295   1.588   0.436  0.2403  0.3478 -0.2102
  259MPD2    H5 3930   1.297   1.488   0.455 -0.1116  0.2096 -0.8885
  259MPD2    N1 3931   1.121   1.600   0.876  0.5296 -0.1163 -0.1058
  259MPD2    H7 3932   1.090   1.649   0.960  0.6135  0.0590 -0.1772
  260TMC3    C1 3933   1.381   1.532   0.218  0.0333  0.0636  0.0104
  260TMC3    C2 3934   1.481   1.573   0.129  0.1302 -0.3364 -0.4495
  260TMC3    C3 3935   1.523   1.480   0.039 -0.4348  0.2161  0.4228
  260TMC3    C4 3936   1.316   1.414   0.213 -0.2368  0.3363  0.3053
  260TMC3    C5 3937   1.352   1.333   0.104  0.4098  0.3446  0.0528
  260TMC3    C6 3938   1.456   1.355   0.014 -0.6217 -0.3853  0.1792
  260TMC3     C 3939   1.337   1.637   0.314  0.1058 -0.7902 -0.2908
  260TMC3     O 3940   1.394   1.741   0.298 -0.6724  0.3165 -0.7204
  260TMC3     H 3941   1.537   1.665   0.142  0.2608 -0.5130  0.2324
  260TMC3    H1 3942   1.224   1.401   0.269 -0.8236  0.4597 -0.6371
  260TMC3    H2 3943   1.498   1.282  17.640  1.9068  0.1044  1.2339
  260TMC3    C7 3944   1.260   1.233   0.067 -0.0073 -0.3078 -0.4168
  260TMC3    C8 3945   1.649   1.513  17.673  0.1659 -0.3189 -0.4510
  260TMC3    O1 3946   1.190   1.189   0.160  0.4667  0.1021  0.0096
  260TMC3    O2 3947   1.682   1.632  17.674 -0.6843  0.1176  0.2923
  261MPD2     C 3948   2.986   0.761  12.172 -0.0934  0.1228  0.1589
  261MPD2    C1 3949   3.095   0.692  12.115 -1.3445 -0.8091  0.3013
  261MPD2    C2 3950   3.164   0.751  12.005  0.6696  0.2852 -0.1087
  261MPD2    C3 3951   3.125   0.874  11.956 -0.1935  0.2015 -0.0890
  261MPD2    C4 3952   3.019   0.936  12.014  0.0179 -0.0049 -0.0411
  261MPD2    C5 3953   2.954   0.882  12.119 -0.3064 -0.5580 -0.0409
  261MPD2     H 3954   3.252   0.708  11.960  0.9814  1.7985 -0.9600
  261MPD2    H1 3955   2.979   1.026  11.968  1.1812  0.8536  0.6494
  261MPD2    H2 3956   2.924   0.716  12.249 -1.1700  0.8091 -0.3160
  261MPD2    H3 3957   2.862   0.928  12.155  0.4250  0.9383 -0.0575
  261MPD2     N 3958   3.196   0.933  11.845  1.0064  0.0240  0.6207
  261MPD2    H5 3959   3.281   0.889  11.811  0.1595 -2.5736  1.8802
  261MPD2    N1 3960   3.143   0.567  12.166 -0.1231 -0.5250 -0.4708
  261MPD2    H7 3961   3.228   0.533  12.122  0.2122 -0.7687  0.3643
  262TMC3    C1 3962   3.287   1.109  11.715  0.6087 -0.8383 -0.1878
  262TMC3    C2 3963   3.291   1.246  11.718  0.8711 -0.2363 -0.2050
  262TMC3    C3 3964   3.304   1.311  11.593 -0.3913 -0.1691 -0.3089
  262TMC3    C4 3965   3.316   1.044  11.602  0.0142 -0.4960 -0.0974
  262TMC3    C5 3966   3.356   1.113  11.486  0.0776  0.1020  0.5198
  262TMC3    C6 3967   3.350   1.248  11.485  0.5490 -0.4435  0.4723
  262TMC3     C 3968   3.183   1.059  11.796  0.0964 -0.4032 -0.3763
  262TMC3     O 3969   3.094   1.138  11.817  0.1437 -0.1743 -0.0638
  262TMC3     H 3970   3.250   1.294  11.806  2.0851 -1.2536  0.9212
  262TMC3    H1 3971   3.286   0.940  11.593  0.8006 -0.7718  0.4379
  262TMC3    H2 3972   3.336   1.305  11.393  0.3798 -0.7815  0.2876
  262TMC3    C7 3973   3.367   1.051  11.353 -0.1624  0.5803 -0.2666
  262TMC3    C8 3974   3.217   1.428  11.576  0.3781 -0.0268  0.7510
  262TMC3    O1 3975   3.332   0.935  11.335 -0.5789  0.4683 -0.0800
  262TMC3    O2 3976   3.241   1.495  11.475  0.2657 -0.8040 -0.1897
  263MPD2     C 3977   4.204   0.223  11.488 -0.1226 -0.1784  0.2769
  263MPD2    C1 3978   4.334   0.195  11.454  0.2011 -0.2411 -0.4305
  263MPD2    C2 3979   4.367   0.217  11.319  0.2216  0.5752  0.3139
  263MPD2    C3 3980   4.283   0.283  11.236  0.9725  0.3502  0.7887
  263MPD2    C4 3981   4.149   0.314  11.277  0.1708  0.1453  0.4203
  263MPD2    C5 3982   4.115   0.277  11.399  0.2121  0.7026  0.5247
  263MPD2     H 3983   4.468   0.204  11.281  0.0139 -1.8747  0.5886
  263MPD2    H1 3984   4.069   0.353  11.213  1.0830  1.9022  0.3594
  263MPD2    H2 3985   4.173   0.193  11.587  0.1392 -2.0351 -0.1874
  263MPD2    H3 3986   4.010   0.276  11.426  0.5291  2.8081  1.8343
  263MPD2     N 3987   4.332   0.315  11.104  0.2861 -0.0090  0.2335
  263MPD2    H5 3988   4.417   0.276  11.065  0.0846 -1.6714  1.4850
  263MPD2    N1 3989   4.430   0.149  11.557  0.3079 -0.8732  0.7469
  263MPD2    H7 3990   4.403   0.145  11.655  0.3932 -1.2483  0.7543
  264TMC3    C1 3991   4.344   0.408  10.886  0.2470 -0.6272 -0.6400
  264TMC3    C2 3992   4.291   0.499  10.798 -0.0943  0.1419 -0.2436
  264TMC3    C3 3993   4.352   0.518  10.676 -0.2577  0.1322 -0.0325
  264TMC3    C4 3994   4.463   0.343  10.853  0.5042  0.3441 -0.6197
  264TMC3    C5 3995   4.517   0.357  10.730  0.5388 -0.3446  0.0094
  264TMC3    C6 3996   4.462   0.441  10.640 -0.8284  0.5068 -0.0532
  264TMC3     C 3997   4.263   0.388  11.007 -0.3072 -0.2744 -0.6127
  264TMC3     O 3998   4.156   0.443  11.014  0.0787  0.2612  0.2854
  264TMC3     H 3999   4.213   0.565  10.834 -1.6645  0.0498 -3.5151
  264TMC3    H1 4000   4.517   0.284  10.926 -0.8721  0.2996  0.3649
  264TMC3    H2 4001   4.510   0.457  10.544  1.0799 -1.7185  0.5065
  264TMC3    C7 4002   4.663   0.370  10.731 -0.9507 -0.4723 -0.1948
  264TMC3    C8 4003   4.377   0.654  10.633 -0.0675 -0.9746  0.0863
  264TMC3    O1 4004   0.003   0.266  10.752  0.5313  0.2769  0.2118
  264TMC3    O2 4005   4.494   0.670  10.612 -0.3420 -0.1286  0.2201
  265MPD2     C 4006   1.048   0.501  15.294 -0.2631  0.6418  0.1843
  265MPD2    C1 4007   1.085   0.612  15.222  0.2390 -0.1815 -0.0778
  265MPD2    C2 4008   1.171   0.596  15.115 -0.5304  0.2761  0.2495
  265MPD2    C3 4009   1.223   0.476  15.073 -0.4663 -0.0554 -0.2025
  265MPD2    C4 4010   1.168   0.363  15.136 -0.0459  0.3122  0.6144
  265MPD2    C5 4011   1.090   0.378  15.250  0.0313 -0.4605 -0.3001
  265MPD2     H 4012   1.201   0.678  15.051 -1.6785  0.0927 -0.5312
  265MPD2    H1 4013   1.203   0.263  15.112  0.2326  0.7930 -0.9673
  265MPD2    H2 4014   0.982   0.505  15.379 -1.5779  2.3365 -0.9114
  265MPD2    H3 4015   1.062   0.291  15.309  1.4676 -0.9207 -0.3082
  265MPD2     N 4016   1.323   0.467  14.969  0.2189 -0.5394 -0.4254
  265MPD2    H5 4017   1.345   0.371  14.944  2.0422  0.4919 -2.7945
  265MPD2    N1 4018   1.060   0.746  15.260  0.2404  0.5781  0.6713
  265MPD2    H7 4019   1.106   0.823  15.212 -0.4176 -0.1080 -1.0424
  266TMC3    C1 4020   1.010   0.923  15.411 -0.1136 -0.3422  0.4891
  266TMC3    C2 4021   0.975   0.961  15.536 -0.1702  0.1507  0.2430
  266TMC3    C3 4022   1.025   1.076  15.589 -0.0460  0.4013  0.1205
  266TMC3    C4 4023   1.088   1.010  15.342 -0.5771 -0.3949  0.4790
  266TMC3    C5 4024   1.134   1.125  15.394 -0.3411  0.0644  0.3266
  266TMC3    C6 4025   1.109   1.163  15.521 -0.0555  0.3070  0.0612
  266TMC3     C 4026   0.998   0.777  15.372  0.2293 -0.3806  0.2242
  266TMC3     O 4027   0.936   0.716  15.459  0.0037  0.1913  0.0440
  266TMC3     H 4028   0.920   0.897  15.604 -0.7114 -1.0360 -1.3171
  266TMC3    H1 4029   1.108   0.983  15.239 -0.4048 -0.7900  0.6161
  266TMC3    H2 4030   1.155   1.258  15.547  1.4689 -0.4749  0.1803
  266TMC3    C7 4031   1.183   1.226  15.302  0.2403 -0.7275 -0.9004
  266TMC3    C8 4032   1.050   1.062  15.734 -0.0986  0.1755  0.3335
  266TMC3    O1 4033   1.123   1.232  15.197 -0.5301  0.0913 -0.3671
  266TMC3    O2 4034   0.998   0.967  15.795  0.0469  0.1366  0.4802
  267MPD2     C 4035   2.889   1.567  17.515  0.7541 -0.0013  0.4489
  267MPD2    C1 4036   3.013   1.603  17.468 -0.4406 -0.1220  0.0325
  267MPD2    C2 4037   3.024   1.674  17.352 -0.0283  0.3093 -0.6621
  267MPD2    C3 4038   2.911   1.683  17.275  0.1380 -0.1543  0.3583
  267MPD2    C4 4039   2.792   1.627  17.313 -0.3706 -1.1917 -0.0367
  267MPD2    C5 4040   2.772   1.588  17.437  0.1552 -0.3806  0.4474
  267MPD2     H 4041   3.110   1.726  17.312 -0.5057  0.9681 -0.8278
  267MPD2    H1 4042   2.709   1.621  17.245  0.5941 -1.9273 -1.1460
  267MPD2    H2 4043   2.885   1.515  17.610 -1.0734  1.6693  1.2695
  267MPD2    H3 4044   2.675   1.550  17.470 -1.8923  3.1407 -1.5509
  267MPD2     N 4045   2.901   1.738  17.147 -0.5122 -0.7618 -0.4671
  267MPD2    H5 4046   2.820   1.712  17.092 -1.1643 -1.4675  0.8391
  267MPD2    N1 4047   3.126   1.585  17.548 -0.0261  0.3968  0.2852
  267MPD2    H7 4048   3.111   1.558  17.645  0.9455  1.8168  0.8303
  268TMC3    C1 4049   3.355   1.585  17.611  0.6108  0.6514 -0.3385
  268TMC3    C2 4050   3.469   1.661  17.593  0.1176  0.1661 -0.4425
  268TMC3    C3 4051   3.536   1.707   0.011  0.7592  0.3158 -0.4323
  268TMC3    C4 4052   3.321   1.544   0.043  0.0450 -0.6785  0.1645
  268TMC3    C5 4053   3.401   1.588   0.148 -0.3299  0.0941 -0.6328
  268TMC3    C6 4054   3.506   1.671   0.136 -0.8287 -0.1779  0.5153
  268TMC3     C 4055   3.259   1.592  17.498  0.0931  0.5024  0.4987
  268TMC3     O 4056   3.301   1.587  17.382  0.3811 -0.0311  0.0848
  268TMC3     H 4057   3.494   1.693  17.493 -1.4696  0.1219 -0.8549
  268TMC3    H1 4058   3.235   1.479   0.053 -0.0883 -0.5716 -0.2672
  268TMC3    H2 4059   3.541   1.723   0.225  2.3715 -0.9403 -0.2987
  268TMC3    C7 4060   3.389   1.537   0.280  0.5833  0.8595 -0.2332
  268TMC3    C8 4061   3.631   1.816  17.686 -0.2315  0.9656 -0.0083
  268TMC3    O1 4062   3.477   1.553   0.366 -0.1669 -0.1541 -0.0548
  268TMC3    O2 4063   3.700   1.834   0.090 -0.0800 -0.1004  0.2975
  269MPD2     C 4064   4.096   0.994  15.518 -0.4020  0.5317 -0.5854
  269MPD2    C1 4065   3.978   1.030  15.588 -0.6824 -0.0511 -0.3984
  269MPD2    C2 4066   3.954   1.168  15.603 -0.1002 -0.2239  0.0387
  269MPD2    C3 4067   4.040   1.270  15.559 -0.1516 -0.2420  0.5181
  269MPD2    C4 4068   4.160   1.225  15.492  0.2338  0.3583 -0.1933
  269MPD2    C5 4069   4.187   1.089  15.484  0.4903  0.4285 -0.4717
  269MPD2     H 4070   3.870   1.203  15.662  0.6341  0.5585  0.6258
  269MPD2    H1 4071   4.236   1.293  15.455  0.1626  1.7841  2.2398
  269MPD2    H2 4072   4.114   0.889  15.501  2.5941  0.9451  0.1558
  269MPD2    H3 4073   4.283   1.067  15.438  0.3803  0.3394 -0.6586
  269MPD2     N 4074   4.004   1.406  15.582 -0.1451 -0.1927 -0.3217
  269MPD2    H5 4075   3.917   1.423  15.632  0.8274  1.3821  0.8540
  269MPD2    N1 4076   3.887   0.925  15.624 -0.3357 -0.4132  0.2073
  269MPD2    H7 4077   3.921   0.829  15.617 -0.5170 -0.5345  0.9626
  270TMC3    C1 4078   3.676   0.838  15.668  0.1586 -0.0418 -0.2063
  270TMC3    C2 4079   3.542   0.852  15.644 -0.1233 -0.0113 -0.1931
  270TMC3    C3 4080   3.456   0.749  15.668  0.4145 -0.2645  0.1257
  270TMC3    C4 4081   3.725   0.729  15.732  0.1269  0.3676 -0.2337
  270TMC3    C5 4082   3.640   0.635  15.769 -0.6265  0.5413 -0.1930
  270TMC3    C6 4083   3.508   0.640  15.731  0.4665 -0.2289 -0.2305
  270TMC3     C 4084   3.760   0.953  15.660  0.0956  0.6350 -0.4906
  270TMC3     O 4085   3.702   1.059  15.670  0.6602  1.1878  1.0369
  270TMC3     H 4086   3.500   0.941  15.599 -0.0294  0.3723  0.4734
  270TMC3    H1 4087   3.823   0.731  15.778  1.6020 -0.3146 -3.3903
  270TMC3    H2 4088   3.446   0.552  15.744  2.1143 -1.3084  0.2645
  270TMC3    C7 4089   3.688   0.497  15.775 -0.3481 -0.6163  0.4588
  270TMC3    C8 4090   3.385   0.703  15.554 -0.5844 -0.6839  0.3296
  270TMC3    O1 4091   3.793   0.478  15.713  0.5393 -0.2504 -0.1112
  270TMC3    O2 4092   3.382   0.583  15.534  0.2683 -0.0899 -0.6395
  271MPD2     C 4093   3.236   0.929  13.942 -0.0704  0.2327  0.5757
  271MPD2    C1 4094   3.142   0.924  14.045  0.3385  1.1453 -0.1735
  271MPD2    C2 4095   3.022   0.987  14.031  1.3876  0.3023  0.1122
  271MPD2    C3 4096   2.988   1.053  13.913  0.6919  0.2336 -0.6268
  271MPD2    C4 4097   3.079   1.051  13.810 -0.5833  0.6944 -0.1003
  271MPD2    C5 4098   3.205   0.996  13.828  0.6908  0.3430 -0.0927
  271MPD2     H 4099   2.954   0.975  14.115 -2.3279  0.5140 -2.8198
  271MPD2    H1 4100   3.066   1.114  13.723 -3.0820  2.0847  1.2853
  271MPD2    H2 4101   3.326   0.870  13.930  1.3918  2.6972 -0.4441
  271MPD2    H3 4102   3.270   1.002  13.742  1.6013  2.5187  0.7380
  271MPD2     N 4103   2.864   1.115  13.885 -0.3123  0.0846 -0.8278
  271MPD2    H5 4104   2.850   1.156  13.793 -2.2949 -1.1250 -1.0409
  271MPD2    N1 4105   3.170   0.857  14.164 -0.6751 -0.5047  0.2891
  271MPD2    H7 4106   3.111   0.881  14.243 -1.1788  1.8053 -0.7931
  272TMC3    C1 4107   3.287   0.704  14.310  0.6391  0.4122 -0.9620
  272TMC3    C2 4108   3.364   0.592  14.320 -0.5738  0.1667 -0.7550
  272TMC3    C3 4109   3.418   0.559  14.439  0.2468 -0.4070 -0.8808
  272TMC3    C4 4110   3.270   0.795  14.411  0.1767  0.2149 -0.0684
  272TMC3    C5 4111   3.325   0.758  14.537  0.5455 -0.1392 -0.2696
  272TMC3    C6 4112   3.399   0.643  14.554  0.0113  0.6606  0.0067
  272TMC3     C 4113   3.261   0.755  14.172 -0.3848 -0.0160  0.3654
  272TMC3     O 4114   3.293   0.689  14.074 -0.2894  0.0005 -0.2723
  272TMC3     H 4115   3.377   0.529  14.233 -1.0796  2.3991 -2.4436
  272TMC3    H1 4116   3.215   0.888  14.400 -2.1408 -1.1976 -0.4124
  272TMC3    H2 4117   3.464   0.631  14.640  2.6126  2.4474 -1.7122
  272TMC3    C7 4118   3.316   0.843  14.658 -0.0868 -0.2794 -0.2566
  272TMC3    C8 4119   3.550   0.503  14.421 -0.8944  0.1049  0.2597
  272TMC3    O1 4120   3.378   0.806  14.759 -0.4027  0.5870 -0.1935
  272TMC3    O2 4121   3.598   0.524  14.313  0.2373  0.0225 -0.1159
  273MPD2     C 4122   4.627   3.157  11.713 -0.3637  0.6375 -0.1286
  273MPD2    C1 4123   4.701   3.272  11.726 -0.2448 -0.3537 -0.8196
  273MPD2    C2 4124   4.675   3.385  11.643 -0.1360  0.1419  0.2818
  273MPD2    C3 4125   4.588   3.370  11.532 -1.0305  0.1034 -0.0660
  273MPD2    C4 4126   4.530   3.246  11.517  0.5497 -0.2367 -0.0818
  273MPD2    C5 4127   4.546   3.144  11.609 -0.2765 -0.0513 -0.0294
  273MPD2     H 4128   0.001   3.481  11.655 -1.0403  0.9505 -2.3775
  273MPD2    H1 4129   4.458   3.218  11.442  0.7478 -0.6309 -0.1232
  273MPD2    H2 4130   4.642   3.068  11.773 -0.5495 -0.7575 -2.1620
  273MPD2    H3 4131   4.498   3.049  11.590  1.3982 -0.6296 -1.4116
  273MPD2     N 4132   4.571   3.466  11.426 -0.0527  0.2314 -0.2734
  273MPD2    H5 4133   4.497   3.438  11.361 -1.6297 -1.7292  2.3938
  273MPD2    N1 4134   0.066   3.274  11.832  0.2769 -0.2346 -0.4414
  273MPD2    H7 4135   0.071   3.195  11.896 -0.7409 -0.5364 -0.7322
  274TMC3    C1 4136   4.578   3.674  11.324 -0.4786  0.4030  0.5731
  274TMC3    C2 4137   4.557   3.643  11.189  0.4285 -0.5824 -0.1357
  274TMC3    C3 4138   4.550   3.750  11.109 -0.2234 -0.4801  0.3384
  274TMC3    C4 4139   4.597   3.799  11.370  0.2217  0.1681 -0.7022
  274TMC3    C5 4140   4.607   3.901  11.279 -0.8146 -0.1036  0.0716
  274TMC3    C6 4141   4.574   3.878  11.156  0.3234 -0.6913 -0.3649
  274TMC3     C 4142   4.644   3.582  11.413  0.1304  0.3907 -0.3368
  274TMC3     O 4143   0.024   3.618  11.464 -0.2889  0.6208  0.3993
  274TMC3     H 4144   4.561   3.539  11.158  1.5120 -0.6399  0.1991
  274TMC3    H1 4145   4.598   3.816  11.478 -0.0624  1.5556 -0.9190
  274TMC3    H2 4146   4.587   3.961  11.087 -1.3943  0.5528  0.8091
  274TMC3    C7 4147   4.682   4.012  11.331 -0.6172  0.1422 -0.2900
  274TMC3    C8 4148   4.516   3.744  10.968 -0.5310  0.2949 -0.5815
  274TMC3    O1 4149   4.690   4.029  11.452 -0.0172  0.2246  0.2961
  274TMC3    O2 4150   4.484   3.849  10.912 -0.2742 -0.0139  0.3489
  275MPD2     C 4151   0.378   1.666  14.575 -0.2970  0.2611  0.5480
  275MPD2    C1 4152   0.330   1.611  14.691 -0.5487  0.0134  0.1265
  275MPD2    C2 4153   0.209   1.536  14.694  0.4420 -0.1246 -0.0226
  275MPD2    C3 4154   0.124   1.533  14.581 -0.1601 -0.0646  0.7954
  275MPD2    C4 4155   0.168   1.587  14.460 -0.3700 -0.3742 -0.1500
  275MPD2    C5 4156   0.290   1.661  14.470  0.6608  0.1206  0.0323
  275MPD2     H 4157   0.172   1.493  14.786  0.0986 -5.6389 -2.7352
  275MPD2    H1 4158   0.107   1.573  14.372  1.8001 -3.9314 -1.1102
  275MPD2    H2 4159   0.477   1.709  14.565 -0.5861  1.0589  1.1094
  275MPD2    H3 4160   0.331   1.693  14.375  2.2279 -1.3199  0.2115
  275MPD2     N 4161   4.719   1.470  14.586  0.3051 -0.0919  0.4070
  275MPD2    H5 4162   4.674   1.466  14.495  1.3032  1.0056 -0.1408
  275MPD2    N1 4163   0.403   1.620  14.816  0.6408 -0.2013 -0.2783
  275MPD2    H7 4164   0.362   1.575  14.897  1.6847 -0.5824  0.0391
  276TMC3    C1 4165   0.566   1.674  14.974  0.4804 -0.1158 -0.3195
  276TMC3    C2 4166   0.503   1.596  15.066  0.1039  0.6363  0.0639
  276TMC3    C3 4167   0.517   1.619  15.195 -0.3613  0.0867 -0.9850
  276TMC3    C4 4168   0.666   1.761  15.015  0.8044  0.2033 -0.1438
  276TMC3    C5 4169   0.687   1.776  15.155  0.6320 -0.4869 -0.0819
  276TMC3    C6 4170   0.609   1.705  15.248 -0.5949 -0.2422  0.7334
  276TMC3     C 4171   0.530   1.676  14.836 -0.2380  0.6180 -0.6230
  276TMC3     O 4172   0.615   1.724  14.761  0.3988 -0.0476  0.0219
  276TMC3     H 4173   0.462   1.502  15.031  0.3149 -0.2903  2.3051
  276TMC3    H1 4174   0.722   1.812  14.937 -0.2968  1.9922  0.2575
  276TMC3    H2 4175   0.621   1.721  15.354 -0.9929  1.5874  0.4901
  276TMC3    C7 4176   0.763   1.884  15.197 -0.0475  0.5710 -0.1950
  276TMC3    C8 4177   0.456   1.525  15.290  0.3765 -0.2787 -0.0015
  276TMC3    O1 4178   0.729   1.951  15.294 -0.2324 -0.3284 -0.6217
  276TMC3    O2 4179   0.498   1.524  15.406 -0.0744 -0.5000 -0.8706
  277MPD2     C 4180   1.820   0.629  13.364  0.0631 -0.1961 -0.0944
  277MPD2    C1 4181   1.685   0.654  13.375  0.3301 -0.4291  0.1274
  277MPD2    C2 4182   1.626   0.594  13.482  0.2963  0.0102  0.0603
  277MPD2    C3 4183   1.691   0.508  13.568 -0.8475  0.5638  0.7569
  277MPD2    C4 4184   1.828   0.486  13.551  0.1868  0.3682  0.1165
  277MPD2    C5 4185   1.894   0.544  13.446  0.3217  0.9347  0.0940
  277MPD2     H 4186   1.522   0.613  13.504  0.0647 -1.1193 -0.0410
  277MPD2    H1 4187   1.896   0.431  13.615 -0.9244 -2.0105 -0.7472
  277MPD2    H2 4188   1.876   0.666  13.279  2.8622  0.1343  1.9296
  277MPD2    H3 4189   2.001   0.535  13.429  0.3461 -0.6415  1.0640
  277MPD2     N 4190   1.616   0.458  13.679  0.5294 -0.1482  0.1827
  277MPD2    H5 4191   1.521   0.491  13.691  1.2450  1.8640  0.1918
  277MPD2    N1 4192   1.608   0.719  13.276  0.2263  0.1869 -0.4381
  277MPD2    H7 4193   1.661   0.770  13.205  0.3382 -2.3482 -2.1754
  278TMC3    C1 4194   1.531   0.297  13.810  0.6513 -0.6933  0.5520
  278TMC3    C2 4195   1.526   0.163  13.793  0.0394 -0.9913 -0.1031
  278TMC3    C3 4196   1.404   0.108  13.794 -0.0490 -0.1557 -0.7476
  278TMC3    C4 4197   1.416   0.370  13.819  0.4712 -0.3045  0.0830
  278TMC3    C5 4198   1.289   0.312  13.806 -0.1550 -0.2644  0.2644
  278TMC3    C6 4199   1.282   0.175  13.796 -0.5474  0.1170 -0.1697
  278TMC3     C 4200   1.649   0.352  13.757 -0.2904  0.5417 -0.2279
  278TMC3     O 4201   1.756   0.289  13.750  0.2650 -0.3126  0.7468
  278TMC3     H 4202   1.610   0.096  13.776  1.1505  0.1543  0.8948
  278TMC3    H1 4203   1.421   0.477  13.837 -0.0751 -0.8419  3.4558
  278TMC3    H2 4204   1.188   0.123  13.809  1.2456 -3.4686 -1.7029
  278TMC3    C7 4205   1.179   0.392  13.842  0.3526 -0.0312  0.4173
  278TMC3    C8 4206   1.399   4.695  13.746 -0.5559  0.7225  0.0353
  278TMC3    O1 4207   1.196   0.457  13.945 -0.3221  0.4321 -0.0072
  278TMC3    O2 4208   1.495   4.625  13.775  0.4006 -0.1835  0.0144
  279MPD2     C 4209   0.629   4.711  17.636 -0.1472  0.2764 -0.3597
  279MPD2    C1 4210   0.600   0.117  17.593  0.8703  0.7312  0.7202
  279MPD2    C2 4211   0.611   0.140  17.454 -0.9423 -0.1512  0.1313
  279MPD2    C3 4212   0.652   0.035  17.368 -0.0699  0.5805  0.8564
  279MPD2    C4 4213   0.690   4.636  17.418 -0.1958 -0.7133  0.1299
  279MPD2    C5 4214   0.675   4.613  17.553 -0.3834 -0.6292 -0.5932
  279MPD2     H 4215   0.577   0.237  17.420  0.1881 -0.2830 -1.3990
  279MPD2    H1 4216   0.738   4.567  17.350  1.5450  0.3510  0.2761
  279MPD2    H2 4217   0.633   4.691   0.048  0.8396 -4.0342 -1.2357
  279MPD2    H3 4218   0.714   4.524  17.602  0.8463  0.7915  0.9975
  279MPD2     N 4219   0.662   0.049  17.229  0.3177 -0.0854 -0.7380
  279MPD2    H5 4220   0.702   4.698  17.173  0.5177 -1.0759  0.7348
  279MPD2    N1 4221   0.550   0.206  17.690 -0.3978  0.1432  0.0630
  279MPD2    H7 4222   0.518   0.155   0.078 -1.7137  1.6257  0.4743
  280TMC3    C1 4223   0.439   0.404   0.073 -0.1902  0.1420 -0.0964
  280TMC3    C2 4224   0.312   0.350   0.072  0.3719  0.0214 -0.0934
  280TMC3    C3 4225   0.211   0.428   0.120 -0.5685 -0.4658 -0.1312
  280TMC3    C4 4226   0.467   0.536   0.108  0.4361 -0.4923 -0.3758
  280TMC3    C5 4227   0.358   0.609   0.137  0.0308 -0.0939  0.6774
  280TMC3    C6 4228   0.232   0.560   0.138 -0.0530 -0.6258 -0.6515
  280TMC3     C 4229   0.530   0.344  17.673  0.5718 -0.8240 -0.7509
  280TMC3     O 4230   0.581   0.422  17.593  0.0032  0.5112 -0.2686
  280TMC3     H 4231   0.294   0.252   0.029  0.3825 -0.2321  0.4819
  280TMC3    H1 4232   0.571   0.564   0.099  0.5158 -0.5585  0.3374
  280TMC3    H2 4233   0.142   0.611   0.169  0.0066 -1.0330  0.1861
  280TMC3    C7 4234   0.388   0.752   0.150 -0.7387 -0.4251 -0.2326
  280TMC3    C8 4235   0.112   0.364   0.198 -0.0758  0.0061  0.1089
  280TMC3    O1 4236   0.504   0.794   0.182  0.2603 -0.4671 -0.4690
  280TMC3    O2 4237   0.012   0.432   0.222  0.5571  0.9098  0.4864
  281TMC3    C1 4238   3.938   0.724  12.783  0.7227 -0.3312 -0.4752
  281TMC3    C2 4239   3.897   0.756  12.655 -0.1953 -0.5905  0.7637
  281TMC3    C3 4240   3.846   0.656  12.570 -0.4638 -0.1985  0.4501
  281TMC3    C4 4241   3.926   0.600  12.828  0.4374  0.6182  0.1382
  281TMC3    C5 4242   3.854   0.511  12.754 -0.0999 -0.2326  1.1388
  281TMC3    C6 4243   3.817   0.533  12.629 -0.3113  0.3868  0.0498
  281TMC3     C 4244   4.009   0.829  12.862 -0.1384  0.1130 -0.5636
  281TMC3     O 4245   4.091   0.793  12.941  0.9533  0.0743  0.0057
  281TMC3     H 4246   3.925   0.854  12.620 -2.1516 -0.7892 -1.3560
  281TMC3    H1 4247   3.958   0.580  12.930  1.1224 -3.1088 -0.8321
  281TMC3    H2 4248   3.764   0.456  12.574 -2.2340  1.1748  0.8237
  281TMC3    C7 4249   3.803   0.386  12.810  0.1530  0.1853 -0.1312
  281TMC3    C8 4250   3.760   0.697  12.465 -0.1417 -0.1790  1.0923
  281TMC3    O1 4251   3.784   0.292  12.736  0.1056 -0.3502  0.7347
  281TMC3    O2 4252   3.639   0.690  12.479  0.0302  0.1059  0.2231
  282MPD2     C 4253   1.560   2.267  14.826  0.6502 -0.1852 -0.1780
  282MPD2    C1 4254   1.432   2.298  14.868 -0.1589 -0.3142 -0.0032
  282MPD2    C2 4255   1.330   2.296  14.774 -0.3635 -0.0520  0.1881
  282MPD2    C3 4256   1.356   2.263  14.640  0.5484  0.1808  0.1824
  282MPD2    C4 4257   1.481   2.233  14.605 -0.5038  0.1817  0.8364
  282MPD2    C5 4258   1.582   2.241  14.692 -0.0017  0.3228  0.4523
  282MPD2     H 4259   1.228   2.305  14.807 -0.7515  2.5066 -1.7341
  282MPD2    H1 4260   1.505   2.205  14.503 -0.6689  2.3007  0.2007
  282MPD2    H2 4261   1.648   2.285  14.886  0.8382 -2.8881  0.3329
  282MPD2    H3 4262   1.687   2.230  14.667  0.0865  0.8077  0.6064
  282MPD2     N 4263   1.243   2.270  14.551  0.3533 -0.4723  0.4495
  282MPD2    H5 4264   1.154   2.303  14.586  0.7006  0.9843 -0.0476
  282MPD2    N1 4265   1.395   2.309  15.003 -0.3606 -0.1198  0.6562
  282MPD2    H7 4266   1.296   2.302  15.023 -0.3982 -1.8831 -0.1265
  283TMC3    C1 4267   1.410   2.351  15.231 -0.6961 -1.2861 -0.2024
  283TMC3    C2 4268   1.441   2.445  15.325 -0.0704  0.1572  0.4912
  283TMC3    C3 4269   1.398   2.422  15.453  0.0165 -0.1601  0.5179
  283TMC3    C4 4270   1.345   2.233  15.273  0.4885 -0.5977 -0.0871
  283TMC3    C5 4271   1.317   2.204  15.404  0.1484 -0.2419 -0.2787
  283TMC3    C6 4272   1.328   2.310  15.495  0.0689 -0.0540  0.2568
  283TMC3     C 4273   1.479   2.342  15.099  0.2510 -0.8778  0.3942
  283TMC3     O 4274   1.597   2.376  15.087 -0.1173  0.0205 -0.1655
  283TMC3     H 4275   1.519   2.516  15.302 -0.0461  0.8856  2.8345
  283TMC3    H1 4276   1.348   2.161  15.192 -0.1627  0.0312 -0.6776
  283TMC3    H2 4277   1.291   2.300  15.596  1.4224 -2.4366  0.5225
  283TMC3    C7 4278   1.226   2.092  15.446  0.1961  0.0072 -0.6348
  283TMC3    C8 4279   1.377   2.529  15.548 -0.3466 -0.5173  0.1957
  283TMC3    O1 4280   1.165   2.111  15.552 -0.3043 -0.1352  0.1510
  283TMC3    O2 4281   1.329   2.498  15.656  0.1989 -0.4794  0.3780
  284MPD2     C 4282   0.281   1.656  11.721  0.6676  0.7548 -0.3610
  284MPD2    C1 4283   0.227   1.642  11.595 -0.3130  0.0690  0.5009
  284MPD2    C2 4284   0.127   1.546  11.576 -0.0114 -0.1995  0.0116
  284MPD2    C3 4285   0.088   1.463  11.672 -0.0499 -0.5429  0.1077
  284MPD2    C4 4286   0.133   1.491  11.801 -0.4220 -0.8490 -0.6894
  284MPD2    C5 4287   0.228   1.584  11.822  0.0083 -0.1575 -0.0726
  284MPD2     H 4288   0.097   1.542  11.472 -2.2456  0.0343  0.6396
  284MPD2    H1 4289   0.113   1.428  11.887  0.0940  0.7882  0.6497
  284MPD2    H2 4290   0.362   1.719  11.755  1.4688  0.6340 -2.0925
  284MPD2    H3 4291   0.260   1.593  11.925  0.5805  0.7588 -0.3403
  284MPD2     N 4292   4.718   1.358  11.652  0.0609 -0.1763 -0.6655
  284MPD2    H5 4293   4.679   1.316  11.737  1.9640  2.3538  1.4503
  284MPD2    N1 4294   0.283   1.698  11.474 -0.5027 -0.2848 -0.3335
  284MPD2    H7 4295   0.247   1.665  11.385  1.9334  1.3794 -1.9406
  285TMC3    C1 4296   0.440   1.811  11.340  0.2744  0.6166 -0.2514
  285TMC3    C2 4297   0.384   1.737  11.243 -0.8509 -0.3468 -0.2487
  285TMC3    C3 4298   0.399   1.780  11.112  0.1466  0.6249  0.4883
  285TMC3    C4 4299   0.487   1.933  11.323 -0.0195 -0.0005 -0.4645
  285TMC3    C5 4300   0.481   1.977  11.194 -0.5887 -0.1617 -0.6445
  285TMC3    C6 4301   0.443   1.905  11.084  0.6644 -0.2162  0.4888
  285TMC3     C 4302   0.390   1.786  11.474  0.2298  0.1482 -0.0387
  285TMC3     O 4303   0.429   1.859  11.569  0.2197  0.7174  0.1799
  285TMC3     H 4304   0.355   1.632  11.252 -0.3985 -0.3980  0.6011
  285TMC3    H1 4305   0.499   1.997  11.409  2.5875 -1.9368  0.6205
  285TMC3    H2 4306   0.441   1.948  10.984  2.7919 -0.1932  0.4556
  285TMC3    C7 4307   0.495   2.121  11.192 -0.6042 -0.0179 -0.1443
  285TMC3    C8 4308   0.388   1.687  11.005 -0.2300 -0.0383  0.5090
  285TMC3    O1 4309   0.540   2.172  11.287  0.0837  0.0140 -0.2027
  285TMC3    O2 4310   0.285   1.623  10.999 -0.4449 -0.7031  0.2778
  286MPD2     C 4311   4.247   0.343   1.611 -0.1565  0.2883  0.2354
  286MPD2    C1 4312   4.300   0.390   1.492  0.0346 -1.1735 -0.4620
  286MPD2    C2 4313   4.421   0.339   1.454 -0.7245 -0.1354  0.7649
  286MPD2    C3 4314   4.483   0.239   1.518  0.7458 -0.4292 -0.3716
  286MPD2    C4 4315   4.418   0.187   1.630 -0.0603  0.2849  0.0277
  286MPD2    C5 4316   4.305   0.242   1.680 -0.5204  0.0001 -0.2489
  286MPD2     H 4317   4.454   0.374   1.357  1.0046  0.9929  1.7727
  286MPD2    H1 4318   4.461   0.103   1.683  0.9022 -0.9828 -2.7697
  286MPD2    H2 4319   4.157   0.382   1.655 -0.9719 -1.7987  0.4207
  286MPD2    H3 4320   4.261   0.202   1.771 -0.4116  1.4090  0.4383
  286MPD2     N 4321   4.606   0.184   1.477 -0.8310  0.3006 -0.4776
  286MPD2    H5 4322   4.632   0.103   1.531 -0.4098 -0.5534 -1.9518
  286MPD2    N1 4323   4.236   0.471   1.392 -0.0155  0.5573  0.2210
  286MPD2    H7 4324   4.284   0.499   1.307  0.5247 -2.7109 -0.5397
  287TMC3    C1 4325   0.067   0.128   1.340  0.6673 -0.5506  0.1421
  287TMC3    C2 4326   0.095   0.083   1.213 -0.7501  1.6813  0.5197
  287TMC3    C3 4327   0.226   0.054   1.177  0.1615  0.0636  0.1355
  287TMC3    C4 4328   0.171   0.143   1.431 -0.0620  0.1871  0.1495
  287TMC3    C5 4329   0.295   0.098   1.395  1.1424 -1.2444 -0.4580
  287TMC3    C6 4330   0.327   0.048   1.266 -0.0249  0.0450  0.5626
  287TMC3     C 4331   4.669   0.209   1.355 -0.4720  0.4072  0.2640
  287TMC3     O 4332   4.648   0.286   1.264 -0.3079  0.2652  0.1966
  287TMC3     H 4333   0.006   0.088   1.152 -0.9460 -1.2516  0.5621
  287TMC3    H1 4334   0.152   0.187   1.528 -1.5937  0.3244 -0.1961
  287TMC3    H2 4335   0.428   0.021   1.236 -0.3811  0.1976 -0.7619
  287TMC3    C7 4336   0.401   0.142   1.490  0.4457 -1.0878 -0.1748
  287TMC3    C8 4337   0.246   4.711   1.048 -0.3971 -0.2024 -0.2760
  287TMC3    O1 4338   0.359   0.191   1.592 -0.4940  0.0917 -0.0807
  287TMC3    O2 4339   0.337   4.631   1.052 -0.0113 -0.4920 -0.3104
  288TMC3    C1 4340   1.968   0.365  14.226  0.1579 -0.5042 -0.0258
  288TMC3    C2 4341   1.848   0.341  14.282  0.4320 -0.4241  0.2505
  288TMC3    C3 4342   1.737   0.378  14.203  0.0686 -0.2390 -0.5942
  288TMC3    C4 4343   1.991   0.437  14.115 -0.1814 -0.3664 -0.0804
  288TMC3    C5 4344   1.883   0.482  14.043 -0.6079  0.3639 -0.3990
  288TMC3    C6 4345   1.755   0.448  14.087 -0.6971  0.2272 -0.2212
  288TMC3     C 4346   2.087   0.341  14.309  0.2421  0.4225  0.0912
  288TMC3     O 4347   2.184   0.409  14.297  0.0685  0.1264  1.4160
  288TMC3     H 4348   1.843   0.315  14.387  0.1874 -1.5293 -0.0368
  288TMC3    H1 4349   2.096   0.456  14.095 -0.6870  1.5845 -0.8079
  288TMC3    H2 4350   1.669   0.480  14.029 -0.8773  2.2366  1.1864
  288TMC3    C7 4351   1.892   0.570  13.926  0.1588  0.7982  0.5510
  288TMC3    C8 4352   1.610   0.367  14.265  0.0133 -0.0462  0.3156
  288TMC3    O1 4353   1.793   0.634  13.893  0.0884  0.2676 -0.1156
  288TMC3    O2 4354   1.523   0.441  14.218  0.0404  0.0001 -0.2783
  289MPD2     C 4355   2.052   4.537  14.391 -0.6592 -0.8692  0.3493
  289MPD2    C1 4356   2.040   4.563  14.252 -0.2374 -0.6357 -0.0806
  289MPD2    C2 4357   1.915   4.528  14.193  0.8447  1.1691 -0.3094
  289MPD2    C3 4358   1.810   4.478  14.273 -0.4616 -0.2561 -0.7886
  289MPD2    C4 4359   1.827   4.452  14.407 -0.4639  0.0281 -0.0155
  289MPD2    C5 4360   1.948   4.484  14.469 -0.2466 -0.2518 -0.4214
  289MPD2     H 4361   1.890   4.552  14.090 -3.9766 -1.5620  0.2284
  289MPD2    H1 4362   1.747   4.418  14.473 -0.6355  0.4957  0.0146
  289MPD2    H2 4363   2.145   4.562  14.440  0.5779 -2.5404 -1.1387
  289MPD2    H3 4364   1.968   4.470  14.574 -0.3428 -1.7615 -0.6020
  289MPD2     N 4365   1.687   4.430  14.226 -0.4452  0.2349  0.2981
  289MPD2    H5 4366   1.640   4.364  14.286 -1.1112 -0.0899 -0.5863
  289MPD2    N1 4367   2.153   4.622  14.184 -0.5678  0.2497 -0.6920
  289MPD2    H7 4368   2.234   4.650  14.238 -0.8337 -1.5539  0.6407
  290TMC3    C1 4369   1.509   4.392  14.071  0.7502 -0.6297  0.3764
  290TMC3    C2 4370   1.401   4.464  14.039 -0.0494  0.0562  0.3218
  290TMC3    C3 4371   1.298   4.401  13.971  0.4853 -0.6725  0.7700
  290TMC3    C4 4372   1.529   4.267  14.021 -0.3208  0.2783  0.0394
  290TMC3    C5 4373   1.423   4.214  13.956  0.5556  0.6545  0.4087
  290TMC3    C6 4374   1.306   4.276  13.925  0.8910  0.2152  0.3216
  290TMC3     C 4375   1.628   4.469  14.104  0.1490 -0.0429  0.0090
  290TMC3     O 4376   1.674   4.550  14.026  0.1609 -0.3125 -0.2315
  290TMC3     H 4377   1.407   4.570  14.062  0.2144 -0.0800  0.8608
  290TMC3    H1 4378   1.624   4.221  14.047  0.5071  2.1673  0.4432
  290TMC3    H2 4379   1.224   4.220  13.880  2.6367 -1.2229 -1.0902
  290TMC3    C7 4380   1.447   4.089  13.892  0.1829 -0.2347  0.0609
  290TMC3    C8 4381   1.174   4.469  13.939 -0.1679  0.1301 -0.5498
  290TMC3    O1 4382   1.375   4.060  13.796 -0.5430  0.1050  0.3633
  290TMC3    O2 4383   1.110   4.420  13.847 -0.3363 -0.8596 -0.1890
  291MPD2     C 4384   1.470   3.648  17.392 -0.2004  0.0550 -0.9487
  291MPD2    C1 4385   1.355   3.588  17.443 -0.3723 -0.3750  0.3734
  291MPD2    C2 4386   1.260   3.551  17.354 -0.1628 -0.4785 -0.1290
  291MPD2    C3 4387   1.281   3.550  17.216 -0.4311 -0.1519  0.1584
  291MPD2    C4 4388   1.396   3.603  17.167 -0.0893  0.9207  0.2170
  291MPD2    C5 4389   1.492   3.657  17.258 -0.0191 -0.0741 -0.3431
  291MPD2     H 4390   1.168   3.503  17.385  0.2767  0.0069  1.9221
  291MPD2    H1 4391   1.423   3.605  17.062  2.4888  0.0830  0.8732
  291MPD2    H2 4392   1.560   3.676  17.445  1.4542 -1.1561 -3.0935
  291MPD2    H3 4393   1.588   3.681  17.213 -1.1104  1.3846 -1.8440
  291MPD2     N 4394   1.191   3.477  17.137  0.5223 -0.0065  0.3572
  291MPD2    H5 4395   1.207   3.447  17.041 -2.4705  2.2237 -0.8342
  291MPD2    N1 4396   1.327   3.560  17.577  0.3389 -0.3531 -0.5653
  291MPD2    H7 4397   1.245   3.505  17.601  0.6151 -0.1351  0.8818
  292TMC3    C1 4398   1.354   3.554   0.102 -0.5246  0.2001 -0.7479
  292TMC3    C2 4399   1.362   3.645   0.207  0.5943 -0.0060 -0.2951
  292TMC3    C3 4400   1.294   3.610   0.319  0.5610 -0.2752  0.0091
  292TMC3    C4 4401   1.270   3.444   0.104  0.4743  0.2520 -0.0098
  292TMC3    C5 4402   1.203   3.423   0.225  0.6853  0.2078 -0.0006
  292TMC3    C6 4403   1.220   3.497   0.336  0.3026 -0.5689 -0.0277
  292TMC3     C 4404   1.416   3.592  17.673 -0.9390  0.9035 -0.4287
  292TMC3     O 4405   1.503   3.680  17.665  0.4697 -0.2329  0.0133
  292TMC3     H 4406   1.431   3.729   0.208  0.4074  0.1518 -0.5804
  292TMC3    H1 4407   1.263   3.377   0.019  1.2073  0.7920 -0.4977
  292TMC3    H2 4408   1.181   3.465   0.432 -0.2976 -1.2787 -0.5113
  292TMC3    C7 4409   1.113   3.309   0.223  0.4614 -0.0350  0.2692
  292TMC3    C8 4410   1.289   3.709   0.429 -0.2201  0.5853 -0.1317
  292TMC3    O1 4411   1.123   3.246   0.115  0.3742 -0.4072  0.5341
  292TMC3    O2 4412   1.372   3.795   0.448  0.2594 -0.0404  0.0065
  293MPD2     C 4413   2.992   0.829  12.529  0.0641 -0.1521 -0.1658
  293MPD2    C1 4414   2.896   0.759  12.597  0.0384 -0.2425  0.2945
  293MPD2    C2 4415   2.820   0.823  12.689 -0.3079  0.1224  0.4927
  293MPD2    C3 4416   2.847   0.956  12.717 -0.3606  0.1110 -0.1419
  293MPD2    C4 4417   2.939   1.027  12.646 -0.4244 -0.2198  0.3289
  293MPD2    C5 4418   3.019   0.961  12.556  0.6361 -0.4666 -0.8250
  293MPD2     H 4419   2.744   0.771  12.746 -1.6039 -0.2708 -1.6170
  293MPD2    H1 4420   2.955   1.134  12.659 -2.0520 -0.2131  2.1470
  293MPD2    H2 4421   3.054   0.785  12.453 -0.3769 -2.1708  0.6446
  293MPD2    H3 4422   3.095   1.015  12.501 -0.0907  0.1291 -1.2466
  293MPD2     N 4423   2.781   1.010  12.824 -0.0264  0.4210  0.1426
  293MPD2    H5 4424   2.723   0.950  12.882 -0.4743 -0.4033 -1.1435
  293MPD2    N1 4425   2.872   0.622  12.558  0.3821 -0.3814  0.1564
  293MPD2    H7 4426   2.907   0.589  12.469  1.1598  1.6666 -0.2983
  294TMC3    C1 4427   2.716   0.458  12.515 -0.5308 -0.1663 -0.0047
  294TMC3    C2 4428   2.634   0.359  12.565  0.3905 -0.1967 -0.2892
  294TMC3    C3 4429   2.543   0.312  12.468  0.4517  0.5013 -0.0784
  294TMC3    C4 4430   2.703   0.506  12.388 -0.4316 -0.6186  0.0774
  294TMC3    C5 4431   2.603   0.463  12.309 -0.3776 -0.1303  0.6103
  294TMC3    C6 4432   2.518   0.364  12.349  0.5486 -0.1748  0.0387
  294TMC3     C 4433   2.785   0.534  12.622 -0.3600 -0.1584  0.0722
  294TMC3     O 4434   2.738   0.525  12.735 -0.6685  0.3322  0.4464
  294TMC3     H 4435   2.660   0.317  12.661  3.0606 -0.8286 -1.2889
  294TMC3    H1 4436   2.763   0.587  12.348 -0.3397 -0.6661  0.1191
  294TMC3    H2 4437   2.442   0.329  12.280  1.8071  0.7493 -1.8031
  294TMC3    C7 4438   2.578   0.528  12.178  0.7446  0.5367 -0.7000
  294TMC3    C8 4439   2.447   0.227  12.529 -0.0105 -0.1202  0.5541
  294TMC3    O1 4440   2.466   0.537  12.137 -0.4242  0.7003  0.3440
  294TMC3    O2 4441   2.426   0.248  12.643 -0.1082 -0.0992  0.4449
  295MPD2     C 4442   2.747   4.354   0.876  0.2972 -0.1090  0.8397
  295MPD2    C1 4443   2.666   4.272   0.796  0.1617 -0.2937  1.1329
  295MPD2    C2 4444   2.555   4.219   0.860 -0.1557 -0.3341  0.5743
  295MPD2    C3 4445   2.523   4.246   0.996  0.4928  0.1788 -0.0678
  295MPD2    C4 4446   2.608   4.333   1.066  0.3891 -1.0656 -0.4227
  295MPD2    C5 4447   2.719   4.390   1.005 -0.4973  0.5063  0.5571
  295MPD2     H 4448   2.496   4.154   0.796  2.0129 -2.1506  0.4528
  295MPD2    H1 4449   2.573   4.367   1.163 -0.5827 -0.1802 -1.0815
  295MPD2    H2 4450   2.832   4.404   0.831 -1.9315  1.0614 -2.0564
  295MPD2    H3 4451   2.780   4.458   1.063  0.2842  0.1463  0.1624
  295MPD2     N 4452   2.411   4.197   1.068  1.0167 -0.6497  0.1741
  295MPD2    H5 4453   2.410   4.226   1.165  1.7131 -1.1367  0.3286
  295MPD2    N1 4454   2.692   4.242   0.660 -0.0455  0.2718 -0.0497
  295MPD2    H7 4455   2.623   4.187   0.609  1.1118 -0.0633 -1.2711
  296TMC3    C1 4456   2.209   4.094   1.097 -0.1282 -0.0598  0.2068
  296TMC3    C2 4457   2.235   4.075   1.230 -0.1150  0.2095  0.2558
  296TMC3    C3 4458   2.128   4.034   1.306  0.0940 -0.1813  0.3913
  296TMC3    C4 4459   2.087   4.061   1.038 -0.1468 -0.0495 -0.4000
  296TMC3    C5 4460   1.978   4.018   1.119  0.8147 -0.3939  0.2237
  296TMC3    C6 4461   2.002   4.003   1.258 -0.4761  0.6337  0.4456
  296TMC3     C 4462   2.319   4.124   1.011 -0.5786  0.1942  0.1974
  296TMC3     O 4463   2.309   4.074   0.902  0.4242 -0.3111  0.5333
  296TMC3     H 4464   2.328   4.106   1.276  1.3797 -1.1498 -1.7908
  296TMC3    H1 4465   2.074   4.057   0.931  0.2656  1.5749 -0.5004
  296TMC3    H2 4466   1.925   3.965   1.324  0.5111 -1.4300  0.4069
  296TMC3    C7 4467   1.889   3.920   1.054 -0.2703  0.4156  0.0233
  296TMC3    C8 4468   2.132   4.051   1.452 -0.0989  0.2212  0.5865
  296TMC3    O1 4469   1.895   3.906   0.935 -0.4628  0.1374  0.8958
  296TMC3    O2 4470   2.029   4.024   1.511  0.1793 -0.2350  0.7729
  297MPD2     C 4471   0.583   1.117  16.327  0.2640  0.0871  0.1106
  297MPD2    C1 4472   0.525   1.139  16.200  0.0460 -1.0725 -0.1443
  297MPD2    C2 4473   0.581   1.241  16.121  0.2508 -0.1398  0.2798
  297MPD2    C3 4474   0.694   1.312  16.165 -0.7677  0.0757 -0.1702
  297MPD2    C4 4475   0.748   1.286  16.290  0.0841 -0.2324 -0.2475
  297MPD2    C5 4476   0.691   1.185  16.363  0.8752 -0.0512  1.0747
  297MPD2     H 4477   0.520   1.273  16.037  1.0302 -0.9310 -0.5984
  297MPD2    H1 4478   0.837   1.335  16.326  1.2448 -2.4741 -0.0244
  297MPD2    H2 4479   0.560   1.035  16.394 -0.6900  0.6416  0.4514
  297MPD2    H3 4480   0.729   1.167  16.463  0.4538  2.4070  1.6784
  297MPD2     N 4481   0.766   1.410  16.088 -0.2015 -0.3914  0.4818
  297MPD2    H5 4482   0.838   1.460  16.139  0.6475 -2.0891  0.9564
  297MPD2    N1 4483   0.409   1.071  16.152  0.0119  0.5327 -0.2454
  297MPD2    H7 4484   0.357   1.116  16.077 -0.1711 -2.0071 -1.6552
  298TMC3    C1 4485   0.219   0.931  16.165 -0.0504 -0.2330 -0.2408
  298TMC3    C2 4486   0.187   0.799  16.140  0.2546  0.1367 -0.1686
  298TMC3    C3 4487   0.067   0.770  16.076  0.1168 -0.4923 -0.5731
  298TMC3    C4 4488   0.140   1.035  16.123  0.6850 -0.1120 -0.2222
  298TMC3    C5 4489   0.027   1.003  16.053  0.4411 -0.0344 -0.3405
  298TMC3    C6 4490   4.708   0.873  16.044 -0.2735 -0.4599 -0.8163
  298TMC3     C 4491   0.356   0.961  16.211 -0.4739  0.4083 -0.2067
  298TMC3     O 4492   0.402   0.881  16.294  0.4322 -0.7875 -0.6367
  298TMC3     H 4493   0.239   0.711  16.176 -0.6091  0.3265  1.5639
  298TMC3    H1 4494   0.161   1.138  16.150 -1.5883  0.2957  0.0133
  298TMC3    H2 4495   4.622   0.855  15.980 -1.6048  1.5881  0.3863
  298TMC3    C7 4496   4.648   1.108  16.070  0.0461 -0.4319 -0.1958
  298TMC3    C8 4497   0.037   0.630  16.055 -0.6407  0.0789  0.3815
  298TMC3    O1 4498   4.665   1.171  16.174 -0.0005  0.1830 -0.3341
  298TMC3    O2 4499   0.135   0.557  16.060 -0.0157 -0.0629  0.0151
  299MPD2     C 4500   1.018   0.900  10.705 -0.0254  0.3943  0.0771
  299MPD2    C1 4501   1.063   0.908  10.573  0.3599  0.2958 -0.3479
  299MPD2    C2 4502   1.027   0.813  10.479 -0.6581  0.0944  0.1165
  299MPD2    C3 4503   0.943   0.719  10.517  0.8099 -0.6169  0.2508
  299MPD2    C4 4504   0.881   0.719  10.642 -0.5100  1.2200  0.5223
  299MPD2    C5 4505   0.926   0.803  10.736  0.5168  0.4095  0.3614
  299MPD2     H 4506   1.071   0.814  10.380 -0.7212 -1.9900  0.0611
  299MPD2    H1 4507   0.803   0.647  10.663 -0.3413  1.8129  3.2145
  299MPD2    H2 4508   1.046   0.976  10.777  0.1007  0.6037 -0.1938
  299MPD2    H3 4509   0.899   0.792  10.840  0.6553  1.0113  0.4630
  299MPD2     N 4510   0.900   0.620  10.424 -0.4206 -0.2883 -0.1687
  299MPD2    H5 4511   0.811   0.575  10.444  1.2313 -3.2605  0.3670
  299MPD2    N1 4512   1.152   1.016  10.548 -0.9231 -1.0382 -0.1608
  299MPD2    H7 4513   1.151   1.085  10.622  3.8996 -0.3342 -0.7777
  300TMC3    C1 4514   0.876   0.513  10.221 -0.8860  0.4517 -0.1118
  300TMC3    C2 4515   0.930   0.410  10.147 -0.0711 -0.0468  1.2840
  300TMC3    C3 4516   0.850   0.338  10.064 -0.8965 -0.4811  0.2711
  300TMC3    C4 4517   0.740   0.543  10.225  0.3772  0.7072 -0.4472
  300TMC3    C5 4518   0.666   0.453  10.154 -0.3727  0.5591 -0.3143
  300TMC3    C6 4519   0.714   0.354  10.072  0.4501 -0.2940 -0.0815
  300TMC3     C 4520   0.964   0.588  10.301 -0.4316  0.3425 -0.2445
  300TMC3     O 4521   1.074   0.608  10.261  0.3465 -0.2802  0.3416
  300TMC3     H 4522   1.038   0.408  10.141 -0.0342 -0.7285  2.2306
  300TMC3    H1 4523   0.700   0.603  10.306 -0.9127 -2.3092  1.1450
  300TMC3    H2 4524   0.650   0.283  10.023 -0.2887  0.5037 -0.2679
  300TMC3    C7 4525   0.521   0.468  10.166 -0.3001 -0.3978  0.3400
  300TMC3    C8 4526   0.894   0.216   9.998  0.1311  0.3988  0.2063
  300TMC3    O1 4527   0.457   0.365  10.174 -0.2595  0.1630 -0.1509
  300TMC3    O2 4528   0.823   0.124  10.030 -0.3047 -0.5893  0.1559
  301MPD2     C 4529   2.715   2.238   1.059  0.1181  0.0153 -0.5724
  301MPD2    C1 4530   2.628   2.181   0.968 -0.4219 -0.2481  0.2919
  301MPD2    C2 4531   2.636   2.043   0.940  0.2108 -0.1487  0.4211
  301MPD2    C3 4532   2.723   1.962   1.009  0.1926 -0.7639  0.3022
  301MPD2    C4 4533   2.807   2.020   1.100  0.1986  0.1469  0.2014
  301MPD2    C5 4534   2.809   2.158   1.118  0.1606 -0.3340 -0.3735
  301MPD2     H 4535   2.574   1.998   0.863  1.3169 -1.7413  0.4692
  301MPD2    H1 4536   2.870   1.953   1.157 -0.2353 -0.3169  0.1358
  301MPD2    H2 4537   2.714   2.344   1.082 -1.2944 -0.1301  0.0523
  301MPD2    H3 4538   2.885   2.183   1.191  0.1683  0.4011 -0.6342
  301MPD2     N 4539   2.732   1.823   0.989 -0.1420  0.2546  0.0794
  301MPD2    H5 4540   2.792   1.765   1.045 -0.5115 -2.6222 -2.4924
  301MPD2    N1 4541   2.520   2.245   0.904 -0.2677 -0.1612  0.0587
  301MPD2    H7 4542   2.476   2.194   0.828 -1.9213  2.6425 -0.8352
  302TMC3    C1 4543   2.712   1.621   0.887  0.5796 -1.0889  0.2003
  302TMC3    C2 4544   2.729   1.553   1.009 -0.8167 -0.1270  0.5138
  302TMC3    C3 4545   2.763   1.415   1.007 -0.0312  0.2114  0.7611
  302TMC3    C4 4546   2.709   1.552   0.768 -0.6699 -0.2973 -0.3943
  302TMC3    C5 4547   2.750   1.423   0.768  0.2468  0.0355 -0.3084
  302TMC3    C6 4548   2.782   1.358   0.884  0.4497  0.2688  0.4730
  302TMC3     C 4549   2.660   1.754   0.893 -0.2792 -0.3212  0.4634
  302TMC3     O 4550   2.594   1.788   0.794  0.3261  0.2581  0.7449
  302TMC3     H 4551   2.691   1.602   1.098 -1.0677 -2.1764  1.5287
  302TMC3    H1 4552   2.700   1.608   0.675  0.3338  1.9074  0.8398
  302TMC3    H2 4553   2.810   1.253   0.874  1.0384  0.3399  1.3824
  302TMC3    C7 4554   2.708   1.334   0.663 -0.2080 -0.4027  0.5851
  302TMC3    C8 4555   2.710   1.333   1.119 -0.4366  0.1599  0.7822
  302TMC3    O1 4556   2.739   1.217   0.679  0.4574 -0.2519  0.2009
  302TMC3    O2 4557   2.768   1.228   1.142 -0.2115 -0.6049  0.3228
  303MPD2     C 4558   0.034   0.944   9.712 -0.2628 -0.5636  0.9344
  303MPD2    C1 4559   0.112   0.851   9.648  0.6569  0.7912  0.2649
  303MPD2    C2 4560   0.049   0.731   9.624 -0.6235 -0.2446  0.0747
  303MPD2    C3 4561   4.649   0.694   9.674  0.7556 -0.7486 -0.2402
  303MPD2    C4 4562   4.575   0.793   9.738 -0.1424 -0.1128  0.0105
  303MPD2    C5 4563   4.634   0.913   9.762 -0.5368 -0.5060  0.1092
  303MPD2     H 4564   0.111   0.654   9.580 -1.3363 -0.1103 -1.1886
  303MPD2    H1 4565   4.477   0.779   9.781 -1.4112  2.2053 -2.1272
  303MPD2    H2 4566   0.061   1.049   9.710  1.5530 -1.0403  0.4199
  303MPD2    H3 4567   4.584   0.981   9.830 -0.7683 -0.2754 -0.2870
  303MPD2     N 4568   4.596   0.562   9.655  0.5115 -0.7550 -0.2327
  303MPD2    H5 4569   4.498   0.550   9.680  0.7929  1.1327  1.7689
  303MPD2    N1 4570   0.251   0.882   9.619 -0.2266 -0.4257 -0.2618
  303MPD2    H7 4571   0.277   0.979   9.633  0.4599 -0.4883 -1.0536
  304TMC3    C1 4572   0.449   0.876   9.492  0.1080  0.2085 -0.0627
  304TMC3    C2 4573   0.540   0.787   9.443  0.0506  0.6460 -0.0985
  304TMC3    C3 4574   0.594   0.825   9.323 -0.5588 -0.3680 -0.3025
  304TMC3    C4 4575   0.421   0.994   9.433  0.3681 -0.2291 -0.5351
  304TMC3    C5 4576   0.479   1.028   9.315  0.4050 -0.4660  0.8619
  304TMC3    C6 4577   0.572   0.947   9.263 -0.4071  0.4655 -0.2848
  304TMC3     C 4578   0.340   0.799   9.558 -0.6754 -0.5172  0.1598
  304TMC3     O 4579   0.342   0.679   9.531 -0.1316 -0.2936 -0.2274
  304TMC3     H 4580   0.560   0.693   9.492  0.5563  0.0577 -1.4550
  304TMC3    H1 4581   0.329   1.046   9.454  0.5089 -1.1997  2.4033
  304TMC3    H2 4582   0.620   0.974   9.170  2.1134 -0.1909  0.8110
  304TMC3    C7 4583   0.396   1.058   9.201  0.1354  0.2782 -0.8382
  304TMC3    C8 4584   0.613   0.712   9.239 -0.1528  0.2401 -0.2139
  304TMC3    O1 4585   0.388   0.962   9.122  0.3518  0.6113 -0.2262
  304TMC3    O2 4586   0.648   0.603   9.284 -0.6843 -0.3523 -0.2015
  305MPD2     C 4587   0.969   2.551  14.055  0.0359 -0.2814  1.3184
  305MPD2    C1 4588   1.096   2.495  14.042 -0.3509  0.6007 -0.0470
  305MPD2    C2 4589   1.131   2.422  13.929 -0.1574  0.0340  0.0226
  305MPD2    C3 4590   1.036   2.412  13.829 -0.4921  0.3973  0.6176
  305MPD2    C4 4591   0.903   2.452  13.844 -0.3605  0.2006  0.4149
  305MPD2    C5 4592   0.868   2.522  13.966 -0.5498 -0.1198  0.5837
  305MPD2     H 4593   1.232   2.384  13.918  0.4339  1.5019  0.3458
  305MPD2    H1 4594   0.838   2.445  13.758 -0.8442 -0.8743  0.8773
  305MPD2    H2 4595   0.952   2.613  14.143  1.2610  0.0544  1.3195
  305MPD2    H3 4596   0.767   2.561  13.976  0.1752  2.5825 -2.8741
  305MPD2     N 4597   1.075   2.365  13.699  0.1851  0.0027  0.1027
  305MPD2    H5 4598   0.997   2.352  13.636  1.0488  3.5302 -1.7186
  305MPD2    N1 4599   1.189   2.528  14.141  0.0353 -0.5661  0.3234
  305MPD2    H7 4600   1.156   2.593  14.212  1.0510 -1.0159  1.2135
  306TMC3    C1 4601   1.390   2.509  14.265 -0.1527  0.2001  0.2152
  306TMC3    C2 4602   1.509   2.434  14.281  0.5767 -1.0424 -0.1031
  306TMC3    C3 4603   1.576   2.464  14.396 -0.1567 -0.5246  0.3675
  306TMC3    C4 4604   1.346   2.611  14.348 -0.1710  0.8643  0.4409
  306TMC3    C5 4605   1.430   2.637  14.457  0.4263  0.5968  0.0236
  306TMC3    C6 4606   1.535   2.553  14.490 -0.1678  0.5416  0.7741
  306TMC3     C 4607   1.309   2.468  14.157  0.0964 -0.5067 -0.5775
  306TMC3     O 4608   1.346   2.362  14.108 -0.2755  0.0486 -0.0354
  306TMC3     H 4609   1.531   2.345  14.224  0.0248 -2.1530  1.4092
  306TMC3    H1 4610   1.272   2.684  14.317 -0.1943  0.2798 -0.8632
  306TMC3    H2 4611   1.594   2.574  14.579  2.9053  0.1489 -1.2085
  306TMC3    C7 4612   1.381   2.725  14.559 -0.4252  0.1788 -0.1898
  306TMC3    C8 4613   1.706   2.399  14.410  0.1348 -0.1563  1.1442
  306TMC3    O1 4614   1.266   2.760  14.541 -0.2619 -0.0403 -0.2068
  306TMC3    O2 4615   1.737   2.295  14.352  0.1949  0.0672 -0.4439
  307MPD2     C 4616   4.018   4.624   0.657 -0.0628  0.7370  0.3457
  307MPD2    C1 4617   3.951   0.014   0.603 -0.0257 -0.5178 -0.9137
  307MPD2    C2 4618   3.843   0.068   0.666  0.1838 -0.4892 -0.8779
  307MPD2    C3 4619   3.797   0.014   0.785  0.0386 -0.3099 -0.9770
  307MPD2    C4 4620   3.862   4.630   0.844 -0.1379  0.8688 -0.1181
  307MPD2    C5 4621   3.965   4.568   0.775 -0.9788 -0.5956 -0.2394
  307MPD2     H 4622   3.792   0.158   0.635  1.4594  0.5854  0.1453
  307MPD2    H1 4623   3.829   4.591   0.939  2.2369  0.9397  0.7424
  307MPD2    H2 4624   4.096   4.578   0.598 -0.5569 -1.1494  1.1698
  307MPD2    H3 4625   4.018   4.479   0.806 -0.2523 -0.4426 -1.0562
  307MPD2     N 4626   3.689   0.080   0.843  0.3721 -0.1185 -0.2500
  307MPD2    H5 4627   3.646   0.150   0.783  0.3230 -0.2949 -0.4198
  307MPD2    N1 4628   3.984   0.080   0.477 -0.0226  0.1460 -0.3128
  307MPD2    H7 4629   3.911   0.130   0.428 -1.4162 -0.6003  0.9723
  308TMC3    C1 4630   3.322   0.219   0.962 -0.0224 -0.5784  0.0126
  308TMC3    C2 4631   3.351   0.346   0.920 -0.6806  0.2224  0.4397
  308TMC3    C3 4632   3.483   0.372   0.910  0.3123  0.0332 -0.4467
  308TMC3    C4 4633   3.423   0.134   1.004  0.4956 -0.6622 -0.1122
  308TMC3    C5 4634   3.553   0.166   0.999  0.2626 -0.0352  0.0228
  308TMC3    C6 4635   3.584   0.290   0.953 -0.3693  0.8404  0.9392
  308TMC3     C 4636   3.185   0.164   0.976 -0.5383 -0.0175  0.4335
  308TMC3     O 4637   3.157   0.079   1.066  0.5343  0.8619  0.6097
  308TMC3     H 4638   3.273   0.414   0.888 -0.6945 -0.5573 -1.1984
  308TMC3    H1 4639   3.389   0.033   1.025  0.6516 -0.4488  1.1770
  308TMC3    H2 4640   3.690   0.313   0.950  0.1566 -1.6842  0.1661
  308TMC3    C7 4641   3.639   0.051   0.969  0.3390  0.1567  0.6738
  308TMC3    C8 4642   3.524   0.507   0.877  0.1403  0.1586  0.1777
  308TMC3    O1 4643   3.638   4.678   1.045 -0.4894 -0.1395 -0.6199
  308TMC3    O2 4644   3.625   0.547   0.933  0.1681 -0.5438 -0.3914
  309MPD2     C 4645   3.123   0.952  17.045 -0.4155 -0.0390 -0.7491
  309MPD2    C1 4646   3.030   0.948  16.946  0.4287  0.3212 -0.6215
  309MPD2    C2 4647   2.895   0.963  16.983 -0.8124  0.6986  0.5703
  309MPD2    C3 4648   2.853   0.973  17.114 -0.1776 -0.9512 -0.4140
  309MPD2    C4 4649   2.947   0.986  17.208  0.0056  0.1574  0.5048
  309MPD2    C5 4650   3.079   0.970  17.173 -0.7060 -0.7680  0.4966
  309MPD2     H 4651   2.825   0.950  16.901  0.3884 -0.1223 -0.3156
  309MPD2    H1 4652   2.926   0.997  17.313 -3.2169  1.3387 -0.2794
  309MPD2    H2 4653   3.230   0.950  17.023  0.1816 -0.3665  2.2890
  309MPD2    H3 4654   3.158   0.971  17.246  0.2089 -0.3096 -0.4981
  309MPD2     N 4655   2.720   0.959  17.160  0.2421  0.7618 -0.2467
  309MPD2    H5 4656   2.705   0.951  17.260  1.0044 -1.4620 -0.3151
  309MPD2    N1 4657   3.056   0.924  16.809  0.4264  0.6743 -0.5962
  309MPD2    H7 4658   2.986   0.937  16.736 -0.1898 -1.2939 -0.3560
  310TMC3    C1 4659   3.177   0.857  16.613 -0.0114  0.2787 -0.3709
  310TMC3    C2 4660   3.079   0.906  16.529  0.5550 -0.6259 -0.5038
  310TMC3    C3 4661   3.080   0.878  16.394 -0.6455  0.2011 -0.8073
  310TMC3    C4 4662   3.282   0.776  16.567 -0.7408 -0.6405 -0.0123
  310TMC3    C5 4663   3.284   0.753  16.433  0.0692  0.1962 -0.4081
  310TMC3    C6 4664   3.189   0.805  16.351 -0.1249  0.3819 -0.8712
  310TMC3     C 4665   3.173   0.877  16.758  0.0048  0.2358 -0.3484
  310TMC3     O 4666   3.277   0.844  16.813 -0.0734 -0.0568  0.0161
  310TMC3     H 4667   3.000   0.971  16.566 -0.0227 -1.4812 -0.2506
  310TMC3    H1 4668   3.338   0.713  16.635 -0.5857  1.3296  1.6802
  310TMC3    H2 4669   3.192   0.774  16.247  0.2304 -0.3255 -0.6497
  310TMC3    C7 4670   3.381   0.650  16.378 -0.2052  0.3663 -0.4531
  310TMC3    C8 4671   3.063   1.003  16.322  0.5389 -0.1350 -0.0632
  310TMC3    O1 4672   3.350   0.587  16.277 -0.0726  0.5810 -0.1581
  310TMC3    O2 4673   3.054   1.107  16.385 -0.2369 -0.2149  0.8119
  311MPD2     C 4674   0.385   1.993  12.735 -0.1050  0.4248  1.2515
  311MPD2    C1 4675   0.387   2.112  12.809 -0.4611 -0.8894  0.2975
  311MPD2    C2 4676   0.275   2.185  12.810  0.3767  0.5439 -0.0786
  311MPD2    C3 4677   0.155   2.154  12.751 -0.7831  0.1020  0.3852
  311MPD2    C4 4678   0.161   2.035  12.678  0.0605 -0.1758 -0.5374
  311MPD2    C5 4679   0.271   1.959  12.667  0.7588  0.5941 -0.4693
  311MPD2     H 4680   0.273   2.273  12.874 -1.1054  0.2134  0.3199
  311MPD2    H1 4681   0.074   1.997  12.624 -0.2518  0.3695 -0.4216
  311MPD2    H2 4682   0.474   1.934  12.718 -0.4987 -0.2208  1.4065
  311MPD2    H3 4683   0.263   1.873  12.601 -0.5143  1.1548 -1.0366
  311MPD2     N 4684   0.039   2.235  12.772  0.7842 -0.2875  0.1923
  311MPD2    H5 4685   0.036   2.322  12.825 -0.2558  2.9657 -5.2688
  311MPD2    N1 4686   0.501   2.172  12.865 -0.4125 -0.1206 -0.5465
  311MPD2    H7 4687   0.491   2.260  12.914 -1.2997 -0.1328 -0.7029
  312TMC3    C1 4688   4.547   2.331  12.713 -0.3990 -0.0136 -1.0699
  312TMC3    C2 4689   4.419   2.302  12.667  0.1301 -0.0595 -0.1507
  312TMC3    C3 4690   4.317   2.386  12.689  0.0858  0.0904 -0.1356
  312TMC3    C4 4691   4.567   2.437  12.795  0.1315 -0.0810 -0.1794
  312TMC3    C5 4692   4.457   2.509  12.824  0.3222  0.1034  1.0739
  312TMC3    C6 4693   4.346   2.509  12.749 -0.2176  0.2719  0.2913
  312TMC3     C 4694   4.648   2.223  12.700  0.3588  0.8031 -0.6004
  312TMC3     O 4695   4.615   2.137  12.621  0.3937  0.0604 -0.8851
  312TMC3     H 4696   4.403   2.217  12.602  0.0568  1.2657 -1.8533
  312TMC3    H1 4697   4.668   2.450  12.831 -0.1678  2.5196 -0.2871
  312TMC3    H2 4698   4.272   2.585  12.773 -0.6891 -0.4665  1.1490
  312TMC3    C7 4699   4.455   2.588  12.952 -0.3711  0.4434  0.2927
  312TMC3    C8 4700   4.193   2.361  12.611 -0.0798 -0.6517 -0.0528
  312TMC3    O1 4701   4.384   2.689  12.964  0.0494 -0.6993  0.3467
  312TMC3    O2 4702   4.169   2.242  12.592  0.2983  0.0535  0.1799
  313MPD2     C 4703   0.676   1.074   9.839  0.2636 -0.0154  1.1060
  313MPD2    C1 4704   0.546   1.066   9.890 -0.5769  0.2321  0.6811
  313MPD2    C2 4705   0.484   0.945   9.883  0.0526 -0.1662 -0.1211
  313MPD2    C3 4706   0.548   0.832   9.832 -0.1617 -0.1777  0.0873
  313MPD2    C4 4707   0.673   0.845   9.775  0.4024 -0.0329  0.8314
  313MPD2    C5 4708   0.731   0.966   9.772  0.1217  0.1212  0.1261
  313MPD2     H 4709   0.382   0.934   9.919  0.1175  0.6374  0.3221
  313MPD2    H1 4710   0.730   0.768   9.725 -1.7774 -3.3972  3.4510
  313MPD2    H2 4711   0.737   1.164   9.838 -0.4280  0.4212 -0.9693
  313MPD2    H3 4712   0.831   0.974   9.732 -0.3686  0.2051 -1.0946
  313MPD2     N 4713   0.479   0.704   9.834  0.1177 -0.6750 -0.0667
  313MPD2    H5 4714   0.380   0.707   9.855 -0.2433  0.6625 -1.9728
  313MPD2    N1 4715   0.474   1.164   9.951  0.1904  0.4835  0.0484
  313MPD2    H7 4716   0.378   1.145   9.978  0.4254  0.3122  0.7643
  314TMC3    C1 4717   0.438   1.383  10.050  0.0890  0.4314  0.5041
  314TMC3    C2 4718   0.489   1.461  10.147 -0.4371 -0.5269 -0.4898
  314TMC3    C3 4719   0.418   1.574  10.189 -0.3995 -0.4530 -0.0361
  314TMC3    C4 4720   0.314   1.407   9.994 -0.5892  0.6548 -0.7624
  314TMC3    C5 4721   0.243   1.516  10.045  0.0991 -0.6029 -0.1737
  314TMC3    C6 4722   0.295   1.599  10.139 -0.1962  0.4940  0.0327
  314TMC3     C 4723   0.528   1.287   9.985 -0.2278 -0.2396 -0.0589
  314TMC3     O 4724   0.646   1.321   9.990 -0.4491  0.1061  0.4157
  314TMC3     H 4725   0.589   1.442  10.184 -1.0578  0.8357  1.8538
  314TMC3    H1 4726   0.270   1.337   9.924 -0.3040 -0.9857  0.6943
  314TMC3    H2 4727   0.236   1.682  10.174  0.3954  0.3491  1.3610
  314TMC3    C7 4728   0.167   1.592   9.943 -0.1565  0.2803  0.0661
  314TMC3    C8 4729   0.477   1.669  10.285  0.6360  0.6366 -0.5088
  314TMC3    O1 4730   0.061   1.636   9.983 -0.6405 -0.1623 -0.5600
  314TMC3    O2 4731   0.404   1.759  10.319  0.0674  0.4333  0.3620
  315MPD2     C 4732   4.132   0.857  17.461  0.3242 -0.4675 -0.4437
  315MPD2    C1 4733   4.260   0.821  17.500 -0.4121  0.7582  0.5858
  315MPD2    C2 4734   4.368   0.894  17.460 -0.2867  0.2668  0.8279
  315MPD2    C3 4735   4.351   1.003  17.375  1.2331 -0.1314 -0.4612
  315MPD2    C4 4736   4.222   1.048  17.351  0.7684  0.2361  0.5357
  315MPD2    C5 4737   4.119   0.967  17.392 -0.4151  0.2228 -0.7773
  315MPD2     H 4738   4.470   0.867  17.485 -0.3994 -0.5247  0.4414
  315MPD2    H1 4739   4.206   1.134  17.287  0.9963 -0.4175 -0.3856
  315MPD2    H2 4740   4.041   0.800  17.476 -1.0114  2.0485  0.8950
  315MPD2    H3 4741   4.025   1.016  17.369  0.3112  1.0231 -2.0774
  315MPD2     N 4742   4.465   1.076  17.331 -0.7028  0.0634 -0.2393
  315MPD2    H5 4743   4.551   1.030  17.362 -0.1903  0.9490 -0.3374
  315MPD2    N1 4744   4.281   0.701  17.570 -0.7366 -0.1631  0.5091
  315MPD2    H7 4745   4.378   0.682  17.590 -0.2202 -0.0040 -1.8006
  316TMC3    C1 4746   4.606   1.250  17.252 -0.5267  0.0455  0.0520
  316TMC3    C2 4747   4.698   1.226  17.350  0.8902 -0.0018 -0.1626
  316TMC3    C3 4748   0.096   1.302  17.346  0.5162 -0.5242  0.6949
  316TMC3    C4 4749   4.640   1.338  17.161 -0.1468  0.2248  0.0596
  316TMC3    C5 4750   0.037   1.403  17.151  0.0922  0.4370 -0.2243
  316TMC3    C6 4751   0.133   1.386  17.245 -0.5209 -0.3493  0.0467
  316TMC3     C 4752   4.473   1.184  17.249 -0.8041  0.0948  0.1849
  316TMC3     O 4753   4.391   1.227  17.170 -0.3017 -0.3228  0.1783
  316TMC3     H 4754   4.660   1.178  17.440  2.3774 -0.3728  0.2641
  316TMC3    H1 4755   4.559   1.383  17.105 -0.6375 -1.3410 -0.4882
  316TMC3    H2 4756   0.230   1.435  17.241 -1.4638  1.3580 -1.9934
  316TMC3    C7 4757   0.048   1.530  17.073  0.1582  0.4452 -0.5473
  316TMC3    C8 4758   0.175   1.314  17.467  0.1313 -0.8758 -0.0667
  316TMC3    O1 4759   0.140   1.601  17.120  0.6269  0.1896 -0.0541
  316TMC3    O2 4760   0.247   1.411  17.478  0.3666 -0.2438 -0.5098
  317MPD2     C 4761   1.319   4.371  12.903 -0.1200 -0.5125  0.4024
  317MPD2    C1 4762   1.373   4.284  12.810  0.2669 -0.2457 -0.1646
  317MPD2    C2 4763   1.471   4.187  12.857  0.0980  0.5429 -0.0984
  317MPD2    C3 4764   1.509   4.181  12.995  0.5114 -0.2804 -0.3618
  317MPD2    C4 4765   1.469   4.289  13.079  0.1422  0.4256  0.7212
  317MPD2    C5 4766   1.371   4.375  13.032  0.3198  0.1308 -0.3660
  317MPD2     H 4767   1.504   4.108  12.790  0.0313 -1.0248  1.7252
  317MPD2    H1 4768   1.504   4.302  13.181  1.7430 -1.7035  0.4581
  317MPD2    H2 4769   1.257   4.454  12.871  1.1675 -0.1673 -1.2207
  317MPD2    H3 4770   1.336   4.460  13.089  3.1728 -0.0827  1.6828
  317MPD2     N 4771   1.606   4.088  13.035 -0.4210  0.0630 -0.1872
  317MPD2    H5 4772   1.639   4.032  12.957  0.8575  1.0325 -0.3501
  317MPD2    N1 4773   1.345   4.280  12.669  0.1654 -0.5197  0.6802
  317MPD2    H7 4774   1.404   4.216  12.616  3.0962  1.5619  1.4517
  318TMC3    C1 4775   1.719   3.951  13.189  0.8300 -0.2781 -0.3559
  318TMC3    C2 4776   1.695   3.865  13.295  0.3991 -0.9333 -1.0799
  318TMC3    C3 4777   1.780   3.752  13.300 -0.0887  0.0002  0.8368
  318TMC3    C4 4778   1.826   3.948  13.115  0.0962  0.4049 -0.4821
  318TMC3    C5 4779   1.923   3.850  13.148 -0.1791 -0.0827  0.1227
  318TMC3    C6 4780   1.897   3.749  13.231 -0.3796 -0.3574 -0.1183
  318TMC3     C 4781   1.625   4.055  13.170 -0.9803  0.2163 -0.5680
  318TMC3     O 4782   1.551   4.087  13.263  0.1389  0.0146 -0.1762
  318TMC3     H 4783   1.608   3.874  13.360  1.1290 -2.4159  0.1181
  318TMC3    H1 4784   1.844   4.024  13.040  0.2600  2.2310  1.4045
  318TMC3    H2 4785   1.968   3.670  13.253  0.1709 -0.5207 -2.4809
  318TMC3    C7 4786   2.048   3.855  13.083  0.7127 -0.6089 -0.0644
  318TMC3    C8 4787   1.747   3.638  13.390 -0.1991 -0.4487 -0.0209
  318TMC3    O1 4788   2.071   3.936  12.989  0.0216 -0.6819  0.2197
  318TMC3    O2 4789   1.840   3.574  13.441  0.1274 -0.0524  0.3282
  319MPD2     C 4790   2.125   0.466  16.328  0.9665  1.0399 -0.6702
  319MPD2    C1 4791   2.117   0.511  16.457  0.2930  0.4021  0.4681
  319MPD2    C2 4792   2.000   0.499  16.527 -0.0171  0.0711  0.3838
  319MPD2    C3 4793   1.881   0.465  16.463 -0.0369  0.2017  0.6215
  319MPD2    C4 4794   1.883   0.419  16.329  0.1785 -0.2502  0.1485
  319MPD2    C5 4795   2.006   0.423  16.266 -0.1135  0.1073  0.3866
  319MPD2     H 4796   2.003   0.518  16.634 -0.9727 -0.1025  0.4413
  319MPD2    H1 4797   1.799   0.373  16.278 -0.4476 -0.5682  1.4464
  319MPD2    H2 4798   2.218   0.474  16.274  1.4658 -1.7909 -0.2171
  319MPD2    H3 4799   2.011   0.387  16.163 -0.1022  0.0474  0.4080
  319MPD2     N 4800   1.760   0.464  16.526  0.2137  0.0814  0.4429
  319MPD2    H5 4801   1.687   0.442  16.458  1.4134 -0.9336 -0.5181
  319MPD2    N1 4802   2.233   0.560  16.524  0.0792  0.4019 -0.3246
  319MPD2    H7 4803   2.231   0.566  16.625 -0.5211 -0.0715 -0.3115
  320TMC3    C1 4804   1.600   0.484  16.672  0.0689 -0.2693  0.4990
  320TMC3    C2 4805   1.529   0.528  16.569 -0.5531 -0.2183 -0.6195
  320TMC3    C3 4806   1.433   0.452  16.502 -0.1341  0.5548 -0.6071
  320TMC3    C4 4807   1.578   0.355  16.713  0.6316  0.4173 -0.0391
  320TMC3    C5 4808   1.485   0.277  16.643  0.0902 -0.1784  0.3205
  320TMC3    C6 4809   1.420   0.315  16.530  0.0209  0.0405  0.0367
  320TMC3     C 4810   1.731   0.514  16.646 -0.0339  0.4652 -0.0872
  320TMC3     O 4811   1.799   0.542  16.743 -0.1373 -0.0462  0.0771
  320TMC3     H 4812   1.543   0.628  16.531  1.1716  0.4202  1.6969
  320TMC3    H1 4813   1.645   0.322  16.791  1.5323 -0.0257 -1.0027
  320TMC3    H2 4814   1.368   0.241  16.470  2.9484 -1.1019 -1.0970
  320TMC3    C7 4815   1.521   0.134  16.636  0.5606 -0.2157  0.6283
  320TMC3    C8 4816   1.446   0.473  16.361 -0.1700 -0.0227  0.2135
  320TMC3    O1 4817   1.519   0.082  16.527  0.2944  0.0180  0.1656
  320TMC3    O2 4818   1.545   0.527  16.315  0.0415 -0.1426 -0.5994
  321TMC3    C1 4819   2.452   0.624  16.552 -0.7726 -0.2053  0.3720
  321TMC3    C2 4820   2.426   0.628  16.688 -0.2353  0.0807  0.3473
  321TMC3    C3 4821   2.512   0.693  16.766 -0.2625 -0.3363 -0.6437
  321TMC3    C4 4822   2.563   0.688  16.498  0.4597  0.5466 -0.1968
  321TMC3    C5 4823   2.642   0.757  16.584  0.0426  0.0943  0.5296
  321TMC3    C6 4824   2.608   0.767  16.712  0.1962 -0.4105  0.5084
  321TMC3     C 4825   2.350   0.601  16.463  0.2067  0.0098 -0.6026
  321TMC3     O 4826   2.354   0.642  16.346 -0.8282  0.1543 -0.6536
  321TMC3     H 4827   2.343   0.571  16.730 -0.2279 -0.9383 -0.9987
  321TMC3    H1 4828   2.596   0.681  16.395  0.7188 -1.6356  0.0339
  321TMC3    H2 4829   2.655   0.838  16.779 -0.3542 -0.0268  0.4869
  321TMC3    C7 4830   2.782   0.723  16.566  0.7466 -0.2431 -0.0067
  321TMC3    C8 4831   2.561   0.636  16.885  0.1973  0.7368  0.2968
  321TMC3    O1 4832   2.833   0.734  16.451 -0.1873 -0.0088 -0.0459
  321TMC3    O2 4833   2.682   0.650  16.901  0.1437 -0.4621 -0.1676
  322MPD2     C 4834   1.139   1.795  13.569  0.4462  0.1805  0.2217
  322MPD2    C1 4835   1.229   1.757  13.671 -0.0190  0.6952  0.4969
  322MPD2    C2 4836   1.287   1.631  13.674 -0.3379 -0.1231 -0.8187
  322MPD2    C3 4837   1.263   1.549  13.570 -0.4959 -0.7434  0.3857
  322MPD2    C4 4838   1.173   1.587  13.467 -0.1481 -0.1503 -0.3191
  322MPD2    C5 4839   1.115   1.709  13.468 -0.3580  0.3610 -0.8953
  322MPD2     H 4840   1.365   1.597  13.741 -0.2246 -0.8809 -1.3281
  322MPD2    H1 4841   1.158   1.536  13.373 -1.6825 -0.5826  0.1743
  322MPD2    H2 4842   1.099   1.895  13.560 -1.5895 -0.8902 -2.6509
  322MPD2    H3 4843   1.050   1.746  13.390 -2.7243 -2.8670 -0.4547
  322MPD2     N 4844   1.332   1.423  13.555 -0.0759 -0.8056  0.0976
  322MPD2    H5 4845   1.375   1.385  13.639 -1.2869 -0.9951  0.6243
  322MPD2    N1 4846   1.293   1.853  13.765 -0.1280 -0.1247  0.2056
  322MPD2    H7 4847   1.363   1.815  13.827 -0.4776 -1.0005  0.0689
  323TMC3    C1 4848   1.364   2.036  13.875  0.3381  0.5281 -0.1055
  323TMC3    C2 4849   1.433   2.153  13.853 -0.0321 -0.0410  1.1351
  323TMC3    C3 4850   1.525   2.202  13.945  0.6580 -0.4050 -0.9535
  323TMC3    C4 4851   1.385   1.964  13.995 -0.4813  0.5989 -0.3324
  323TMC3    C5 4852   1.471   2.019  14.089 -0.2741 -0.5088 -0.1655
  323TMC3    C6 4853   1.544   2.137  14.067  0.1166 -0.1201 -0.1475
  323TMC3     C 4854   1.275   1.982  13.777 -0.3478  0.3277  0.0338
  323TMC3     O 4855   1.227   2.059  13.694  0.3165  0.3079  0.7821
  323TMC3     H 4856   1.422   2.200  13.756  1.0535  0.6695  1.3476
  323TMC3    H1 4857   1.323   1.879  14.020  0.7729 -0.2411 -0.0657
  323TMC3    H2 4858   1.628   2.162  14.131 -0.0673  2.2553 -0.8400
  323TMC3    C7 4859   1.522   1.928  14.189  0.4048  0.5927  0.6206
  323TMC3    C8 4860   1.620   2.306  13.910 -0.2003  0.1146 -0.1930
  323TMC3    O1 4861   1.497   1.811  14.166 -0.4297 -0.1162 -0.7209
  323TMC3    O2 4862   1.729   2.293  13.961 -0.4153  0.2293 -0.1104
  324MPD2     C 4863   4.275   3.706  14.768  0.5707  0.6572  0.0396
  324MPD2    C1 4864   4.260   3.627  14.657 -0.7766  0.0123 -0.3967
  324MPD2    C2 4865   4.133   3.600  14.617  0.3423  0.1189  0.3052
  324MPD2    C3 4866   4.023   3.659  14.683 -0.0243  0.6033 -0.5411
  324MPD2    C4 4867   4.043   3.759  14.773 -0.1917 -0.0346 -0.3137
  324MPD2    C5 4868   4.171   3.771  14.824 -0.5058 -0.7974 -0.5199
  324MPD2     H 4869   4.115   3.542  14.528  0.3729  0.0616  0.3366
  324MPD2    H1 4870   3.967   3.825  14.812  1.8718  0.5891  2.6173
  324MPD2    H2 4871   4.373   3.740  14.800  0.8794  1.5343 -1.8160
  324MPD2    H3 4872   4.189   3.835  14.910 -0.3587  1.2703 -2.0717
  324MPD2     N 4873   3.888   3.634  14.653  0.6209 -0.4795 -0.0574
  324MPD2    H5 4874   3.816   3.666  14.717  1.7891 -1.7329  1.8866
  324MPD2    N1 4875   4.373   3.567  14.603  0.3752 -0.2831 -0.3431
  324MPD2    H7 4876   4.464   3.575  14.649 -1.1291  3.2758  1.9443
  325TMC3    C1 4877   3.697   3.509  14.567  0.1022 -0.4253 -0.4341
  325TMC3    C2 4878   3.649   3.384  14.548  0.5509  0.2425  0.4235
  325TMC3    C3 4879   3.509   3.374  14.557  0.1902  0.5983  0.0998
  325TMC3    C4 4880   3.617   3.616  14.590  0.1036 -0.4393  0.3439
  325TMC3    C5 4881   3.482   3.601  14.597  0.0465 -0.3496  0.3936
  325TMC3    C6 4882   3.425   3.478  14.580  0.5696  0.1532  0.1951
  325TMC3     C 4883   3.846   3.531  14.569 -0.9123 -0.5748  0.7081
  325TMC3     O 4884   3.916   3.454  14.499  0.1510 -0.6298  0.3675
  325TMC3     H 4885   3.714   3.298  14.542  0.1672 -0.1982  2.3792
  325TMC3    H1 4886   3.658   3.716  14.592 -0.9969  0.0149 -0.5073
  325TMC3    H2 4887   3.332   3.443  14.625  1.5490 -1.7740  0.7355
  325TMC3    C7 4888   3.399   3.711  14.638  0.2253  0.9403  0.1951
  325TMC3    C8 4889   3.456   3.244  14.532 -0.6096  0.3170 -0.5062
  325TMC3    O1 4890   3.464   3.804  14.693 -0.1778  0.6149  0.0965
  325TMC3    O2 4891   3.533   3.151  14.560  0.8720 -0.3397 -0.8555
  326MPD2     C 4892   4.022   4.390  10.570  1.1426  0.6538  0.6494
  326MPD2    C1 4893   4.101   4.279  10.578 -0.1005 -0.7776 -0.0084
  326MPD2    C2 4894   4.227   4.284  10.637 -0.0462  0.3394  0.5422
  326MPD2    C3 4895   4.276   4.402  10.693 -0.4401  0.0291  0.0534
  326MPD2    C4 4896   4.195   4.512  10.689  1.1142  0.0285 -0.5266
  326MPD2    C5 4897   4.068   4.508  10.627  0.1161 -0.0008  0.5181
  326MPD2     H 4898   4.287   4.194  10.636  1.2129  1.1819 -1.1807
  326MPD2    H1 4899   4.232   4.600  10.740  1.6876 -0.0832 -0.7567
  326MPD2    H2 4900   3.929   4.397  10.514  0.7156 -0.9947  1.1439
  326MPD2    H3 4901   3.998   4.590  10.614 -0.1044 -0.3067 -0.2069
  326MPD2     N 4902   4.402   4.408  10.760  0.6764  0.1763  0.0517
  326MPD2    H5 4903   4.444   4.501  10.764  0.7571  0.0554  1.8054
  326MPD2    N1 4904   4.064   4.146  10.529 -0.7962  0.0200  0.0832
  326MPD2    H7 4905   4.133   4.076  10.556 -0.4991 -0.5879 -2.2205
  327TMC3    C1 4906   3.933   3.976  10.437  0.1382  0.3696 -0.1804
  327TMC3    C2 4907   3.889   3.967  10.307 -0.0451 -0.4726  0.7054
  327TMC3    C3 4908   3.950   3.882  10.221 -0.1482 -0.3968 -0.1951
  327TMC3    C4 4909   4.034   3.891  10.477  0.4152  0.6169 -0.6166
  327TMC3    C5 4910   4.075   3.795  10.390 -0.2072  0.1525 -0.3249
  327TMC3    C6 4911   4.048   3.797  10.258  0.1033 -0.2441  0.2144
  327TMC3     C 4912   3.947   4.118  10.473  0.1350  0.1494 -0.4465
  327TMC3     O 4913   3.864   4.195  10.433 -0.0117  0.0110 -0.4412
  327TMC3     H 4914   3.822   4.040  10.263  1.3853  1.1430  1.1857
  327TMC3    H1 4915   4.060   3.878  10.582 -0.6641  0.3758 -0.3805
  327TMC3    H2 4916   4.098   3.739  10.181  0.2918  0.3713 -0.1299
  327TMC3    C7 4917   4.173   3.692  10.426 -0.0736  0.1367 -0.2231
  327TMC3    C8 4918   3.933   3.930  10.082  0.0320  0.7128 -0.9661
  327TMC3    O1 4919   4.212   3.615  10.337  0.2837  0.4608  0.1587
  327TMC3    O2 4920   3.832   3.897  10.024  0.1372  0.2544  0.1242
  328MPD2     C 4921   1.993   3.522  16.564 -0.1376 -0.5385 -0.1632
  328MPD2    C1 4922   1.869   3.461  16.567  0.0183 -0.0550  0.4180
  328MPD2    C2 4923   1.770   3.502  16.655  0.7046  0.3554 -0.0276
  328MPD2    C3 4924   1.798   3.609  16.735  0.4399 -0.5468  0.8630
  328MPD2    C4 4925   1.927   3.661  16.743 -0.4599  0.2001 -0.2846
  328MPD2    C5 4926   2.021   3.619  16.657 -0.2081  0.0482 -0.5043
  328MPD2     H 4927   1.671   3.457  16.653  1.2509 -0.8222 -0.3310
  328MPD2    H1 4928   1.956   3.751  16.795 -0.8095  0.9488 -1.3816
  328MPD2    H2 4929   2.072   3.496  16.494  1.6227  0.1906  1.5282
  328MPD2    H3 4930   2.116   3.671  16.659  1.6351 -3.3105 -0.9241
  328MPD2     N 4931   1.703   3.676  16.819 -0.3060  0.0843  0.1061
  328MPD2    H5 4932   1.749   3.746  16.877  3.1901 -2.4716  0.4496
  328MPD2    N1 4933   1.855   3.351  16.480 -0.2600 -0.9440 -0.2935
  328MPD2    H7 4934   1.920   3.355  16.403  0.2761 -3.0447  0.0415
  329TMC3    C1 4935   1.789   3.147  16.405  0.5637 -0.3339  0.1470
  329TMC3    C2 4936   1.689   3.054  16.423 -0.2873  0.7381  0.6331
  329TMC3    C3 4937   1.718   2.918  16.432  0.2618 -1.1580  0.0032
  329TMC3    C4 4938   1.913   3.115  16.382  0.4450  0.1729  0.1910
  329TMC3    C5 4939   1.940   2.975  16.385 -0.7112 -0.0281  0.0948
  329TMC3    C6 4940   1.846   2.874  16.411  0.6480  0.3256  0.4824
  329TMC3     C 4941   1.764   3.252  16.493  0.2835  0.3266 -0.4510
  329TMC3     O 4942   1.675   3.237  16.574  0.2145 -0.4188  0.0143
  329TMC3     H 4943   1.586   3.089  16.417 -0.2551  0.9864  1.5664
  329TMC3    H1 4944   1.998   3.176  16.354  3.1882 -4.9719 -2.8422
  329TMC3    H2 4945   1.869   2.772  16.439  0.4495  0.0584 -0.3224
  329TMC3    C7 4946   2.080   2.950  16.373 -0.5159  0.1024  0.5442
  329TMC3    C8 4947   1.632   2.831  16.515  0.5100  0.4685  0.2428
  329TMC3    O1 4948   2.162   3.023  16.427  0.6299 -0.0917 -0.4856
  329TMC3    O2 4949   1.651   2.710  16.518 -0.3090 -0.3302 -0.0338
  330TMC3    C1 4950   0.042   2.111   9.593  0.8698  0.8462 -0.0474
  330TMC3    C2 4951   0.045   2.142   9.454 -0.7075  0.5240  0.2222
  330TMC3    C3 4952   0.157   2.099   9.385 -0.5039  0.3774 -0.4734
  330TMC3    C4 4953   0.141   2.037   9.646 -0.1722  0.5905 -0.3041
  330TMC3    C5 4954   0.246   1.999   9.567 -0.3335  0.4639  0.1868
  330TMC3    C6 4955   0.260   2.033   9.441  0.4625 -0.1885  0.4052
  330TMC3     C 4956   4.672   2.177   9.681  0.2344 -0.2500  0.0823
  330TMC3     O 4957   4.705   2.166   9.796 -0.2705 -0.1484  0.1947
  330TMC3     H 4958   4.720   2.221   9.398 -0.4681 -1.1000 -2.3238
  330TMC3    H1 4959   0.128   1.996   9.746 -0.4911 -1.8696 -1.3631
  330TMC3    H2 4960   0.340   2.005   9.374  1.0558 -0.7435  1.3522
  330TMC3    C7 4961   0.361   1.937   9.628 -0.3904 -0.1458 -0.0011
  330TMC3    C8 4962   0.156   2.113   9.240 -0.5732 -0.1382 -0.3397
  330TMC3    O1 4963   0.445   1.892   9.550  0.5692 -0.1044 -0.2932
  330TMC3    O2 4964   0.257   2.108   9.179  0.0329 -0.3079 -0.1258
  331MPD2     C 4965   2.034   2.364  12.192 -0.5266 -0.7580 -0.3391
  331MPD2    C1 4966   2.155   2.434  12.197  0.7070 -0.0436 -0.1811
  331MPD2    C2 4967   2.275   2.363  12.184 -0.1904 -0.7935  0.0691
  331MPD2    C3 4968   2.271   2.228  12.168  0.4063 -0.4372  0.1218
  331MPD2    C4 4969   2.151   2.157  12.159 -0.1757 -0.6674 -0.3156
  331MPD2    C5 4970   2.037   2.227  12.179  1.1074 -0.2648  0.4129
  331MPD2     H 4971   2.369   2.416  12.177 -0.3297 -0.6861 -0.8779
  331MPD2    H1 4972   2.149   2.049  12.158 -0.1488 -0.6669 -1.6977
  331MPD2    H2 4973   1.936   2.407  12.206  0.6415  1.2850  1.6044
  331MPD2    H3 4974   1.943   2.175  12.190  1.3573 -1.0120 -0.9264
  331MPD2     N 4975   2.391   2.171  12.124 -0.2107 -0.1082 -0.2755
  331MPD2    H5 4976   2.471   2.233  12.135 -0.9836  0.7108  0.6809
  331MPD2    N1 4977   2.143   2.575  12.206  0.1071 -0.2500  0.8219
  331MPD2    H7 4978   2.050   2.610  12.228 -0.0039 -0.1872  0.2630
  332TMC3    C1 4979   2.554   2.015  12.049  0.2801 -0.8894  0.4119
  332TMC3    C2 4980   2.607   2.103  11.960 -0.1784  0.4334 -0.0806
  332TMC3    C3 4981   2.719   2.066  11.901  1.0237  0.6880  0.4085
  332TMC3    C4 4982   2.630   1.902  12.080  0.0666  0.0082  0.1051
  332TMC3    C5 4983   2.756   1.878  12.025 -0.0079  0.2730 -0.3127
  332TMC3    C6 4984   2.805   1.963  11.931  0.3934 -0.1182  0.2529
  332TMC3     C 4985   2.422   2.037  12.107  1.1869  0.2982 -0.1716
  332TMC3     O 4986   2.349   1.941  12.125  0.0599 -0.2046  0.2583
  332TMC3     H 4987   2.555   2.195  11.936 -1.0018  0.2477  0.9849
  332TMC3    H1 4988   2.578   1.839  12.152  0.7242 -0.6725 -0.0244
  332TMC3    H2 4989   2.878   1.942  11.854 -0.7079  2.9917 -1.6434
  332TMC3    C7 4990   2.850   1.797  12.096 -0.2276 -0.6295  0.0774
  332TMC3    C8 4991   2.780   2.161  11.818  0.5994  0.1123  0.4575
  332TMC3    O1 4992   2.808   1.761  12.207  0.3656  0.2974 -0.1603
  332TMC3    O2 4993   2.895   2.186  11.837 -0.2152 -0.1326 -0.3462
  333MPD2     C 4994   2.774   2.006  10.913  0.0086  0.0965  0.5682
  333MPD2    C1 4995   2.910   2.008  10.896 -0.3046 -0.7337 -0.6363
  333MPD2    C2 4996   2.984   1.905  10.940 -0.2420  0.1494 -0.4743
  333MPD2    C3 4997   2.924   1.805  11.010 -0.0950  0.3945 -0.5223
  333MPD2    C4 4998   2.787   1.791  11.007 -0.1491  0.0755 -0.9163
  333MPD2    C5 4999   2.713   1.895  10.960  0.6406 -0.2678  0.4482
  333MPD2     H 5000   3.092   1.902  10.932 -0.3184  0.0450 -1.5731
  333MPD2    H1 5001   2.736   1.707  11.051  1.7869 -0.2069  0.7470
  333MPD2    H2 5002   2.704   2.086  10.893 -0.4747 -0.7364 -1.0649
  333MPD2    H3 5003   2.607   1.887  10.980  0.4517  0.0332 -0.4322
  333MPD2     N 5004   3.009   1.702  11.065 -0.0918 -0.5197 -0.6659
  333MPD2    H5 5005   3.106   1.703  11.037 -0.1000 -2.0179 -0.7375
  333MPD2    N1 5006   2.986   2.111  10.844 -0.4763  0.3953 -0.1960
  333MPD2    H7 5007   3.087   2.107  10.850 -0.5176  0.9878  0.9372
  334TMC3    C1 5008   3.042   2.339  10.774 -0.7343  0.1301 -0.5009
  334TMC3    C2 5009   3.142   2.290  10.695  0.0420  0.0786 -0.0291
  334TMC3    C3 5010   3.245   2.366  10.665 -1.0347  0.6603  0.9677
  334TMC3    C4 5011   3.020   2.467  10.801 -0.0467 -0.3264 -0.4867
  334TMC3    C5 5012   3.122   2.550  10.762  0.2707  0.2534  0.5070
  334TMC3    C6 5013   3.238   2.501  10.698  0.1105  0.0161 -0.5209
  334TMC3     C 5014   2.939   2.240  10.826  0.9581 -0.3114 -0.4611
  334TMC3     O 5015   2.823   2.279  10.838 -0.0788 -0.2491  0.1638
  334TMC3     H 5016   3.140   2.187  10.662 -0.4848  0.4894 -1.2896
  334TMC3    H1 5017   2.937   2.504  10.861  0.9459 -0.4257  0.9460
  334TMC3    H2 5018   3.315   2.565  10.656 -0.1615  1.1220  0.6569
  334TMC3    C7 5019   3.124   2.692  10.786  0.2030 -0.6290  0.4248
  334TMC3    C8 5020   3.351   2.315  10.586  1.0248  0.8921  0.0270
  334TMC3    O1 5021   3.224   2.761  10.763  0.0806  0.6798 -0.1095
  334TMC3    O2 5022   3.320   2.221  10.515  0.5917  0.2932 -0.6050
  335TMC3    C1 5023   2.657   3.936  17.494  0.0206 -0.9486 -0.5071
  335TMC3    C2 5024   2.590   3.858  17.400 -0.3079 -0.0964 -0.0585
  335TMC3    C3 5025   2.660   3.761  17.333  0.0451 -0.3534  0.8520
  335TMC3    C4 5026   2.772   3.899  17.546  0.3170  0.5589  0.1551
  335TMC3    C5 5027   2.832   3.788  17.486  0.1597  0.3277 -0.1057
  335TMC3    C6 5028   2.789   3.734  17.367 -0.6097  1.1126  0.2085
  335TMC3     C 5029   2.569   4.023  17.573  0.0437  0.1315  0.2942
  335TMC3     O 5030   2.445   4.008  17.556 -0.6226 -0.7323 -0.5000
  335TMC3     H 5031   2.488   3.887  17.375 -1.0726 -1.5577  1.3600
  335TMC3    H1 5032   2.813   3.946  17.635 -1.4051  2.4895 -0.0545
  335TMC3    H2 5033   2.843   3.651  17.322 -0.7093  1.5494 -0.7026
  335TMC3    C7 5034   2.973   3.779  17.511 -0.2737  0.0943  0.4163
  335TMC3    C8 5035   2.626   3.728  17.195  0.1015  0.3759 -0.1531
  335TMC3    O1 5036   3.033   3.725  17.418  0.3187 -0.5781  0.0409
  335TMC3    O2 5037   2.724   3.724  17.123 -0.1159 -0.1080 -0.0041
  336MPD2     C 5038   2.561   1.434  15.853 -1.0349 -0.6908  0.0359
  336MPD2    C1 5039   2.445   1.409  15.783 -0.3662  0.3564  0.4040
  336MPD2    C2 5040   2.366   1.299  15.811 -0.2886  0.9271 -0.8005
  336MPD2    C3 5041   2.409   1.208  15.914 -0.1523  1.0231  0.1735
  336MPD2    C4 5042   2.530   1.226  15.969 -0.6830  0.5829 -0.1375
  336MPD2    C5 5043   2.604   1.338  15.939  0.1653  0.9303  0.3062
  336MPD2     H 5044   2.269   1.288  15.764  0.6426 -2.4729 -1.9271
  336MPD2    H1 5045   2.585   1.153  16.027 -2.5289 -2.2905 -2.0144
  336MPD2    H2 5046   2.623   1.521  15.834 -1.8553  0.0339  0.7241
  336MPD2    H3 5047   2.696   1.359  15.992  1.8100  0.0884 -2.2129
  336MPD2     N 5048   2.332   1.090  15.948  0.6199  0.1947  0.2942
  336MPD2    H5 5049   2.369   1.033  16.023 -0.6552 -0.8004  0.1531
  336MPD2    N1 5050   2.390   1.501  15.698  0.8314 -0.0732  0.3030
  336MPD2    H7 5051   2.295   1.500  15.661  1.0369 -1.7790 -0.1923
  337TMC3    C1 5052   2.381   1.712  15.581  0.1072  0.5121  0.2958
  337TMC3    C2 5053   2.245   1.704  15.566 -0.1381  0.2783  0.1881
  337TMC3    C3 5054   2.183   1.804  15.496  0.5670 -0.2730  0.4823
  337TMC3    C4 5055   2.453   1.826  15.544 -1.1484  0.0969  0.7161
  337TMC3    C5 5056   2.391   1.925  15.481  0.1415  0.0125 -0.1341
  337TMC3    C6 5057   2.254   1.918  15.456 -0.3377 -0.2795 -0.4368
  337TMC3     C 5058   2.461   1.605  15.644  0.1990  0.3308 -0.6810
  337TMC3     O 5059   2.581   1.607  15.623 -0.2156  0.6409 -0.3282
  337TMC3     H 5060   2.205   1.604  15.577 -0.1478  0.3861  1.2010
  337TMC3    H1 5061   2.560   1.835  15.559 -1.4669  2.3853  1.6436
  337TMC3    H2 5062   2.208   2.011  15.424  0.2578 -0.1629 -0.9590
  337TMC3    C7 5063   2.467   2.046  15.449 -0.4508  0.4021  0.3743
  337TMC3    C8 5064   2.042   1.803  15.507 -0.5156  0.1158  0.7271
  337TMC3    O1 5065   2.590   2.035  15.461  0.8916  0.2021  0.1574
  337TMC3    O2 5066   1.998   1.737  15.598  0.0439 -0.5638 -1.4686
  338MPD2     C 5067   2.526   1.014   0.830 -0.4435  0.5335  0.2542
  338MPD2    C1 5068   2.449   0.999   0.716  0.4105 -0.6369  0.1803
  338MPD2    C2 5069   2.334   1.081   0.694  0.8866  0.3642  1.1759
  338MPD2    C3 5070   2.296   1.170   0.793  0.3941 -0.2238  0.5445
  338MPD2    C4 5071   2.385   1.184   0.903  0.2977 -0.0396 -0.1787
  338MPD2    C5 5072   2.489   1.104   0.924 -0.0461  0.0911  0.1833
  338MPD2     H 5073   2.273   1.052   0.610  1.7283 -0.5571  0.8773
  338MPD2    H1 5074   2.367   1.259   0.979 -0.5543  1.7469 -2.1587
  338MPD2    H2 5075   2.614   0.955   0.853  0.2953  1.9475  1.1126
  338MPD2    H3 5076   2.539   1.106   1.021 -0.7540  0.8523  0.5261
  338MPD2     N 5077   2.184   1.250   0.773  0.0841 -0.5775 -0.7912
  338MPD2    H5 5078   2.135   1.243   0.685 -0.1165  1.1354 -0.8045
  338MPD2    N1 5079   2.486   0.903   0.609 -0.6553  0.4256  0.1253
  338MPD2    H7 5080   2.425   0.896   0.529  0.2211 -1.4520 -0.3902
  339TMC3    C1 5081   1.971   1.335   0.824  0.0531  0.7236  0.6741
  339TMC3    C2 5082   1.894   1.282   0.924 -0.1624  0.4123 -0.5970
  339TMC3    C3 5083   1.783   1.214   0.890  0.4547 -0.5766 -0.4550
  339TMC3    C4 5084   1.945   1.306   0.691  0.1997  1.1718  0.0857
  339TMC3    C5 5085   1.853   1.212   0.664 -0.1871  0.1203 -0.0219
  339TMC3    C6 5086   1.761   1.172   0.761 -0.5334  0.6259 -1.1086
  339TMC3     C 5087   2.115   1.323   0.863  0.2827  0.1773 -0.0820
  339TMC3     O 5088   2.156   1.339   0.974 -0.1536 -0.2532 -0.3825
  339TMC3     H 5089   1.920   1.297   1.028 -1.7321  1.8795 -0.4080
  339TMC3    H1 5090   1.993   1.361   0.611  1.7744 -1.9655 -1.0763
  339TMC3    H2 5091   1.672   1.112   0.742  0.0526 -0.4448 -0.4796
  339TMC3    C7 5092   1.849   1.151   0.535 -0.0234 -0.0095 -0.5060
  339TMC3    C8 5093   1.662   1.226   0.967 -0.3093  0.6303  0.0036
  339TMC3    O1 5094   1.927   1.199   0.453 -0.2179 -0.1680  0.6894
  339TMC3    O2 5095   1.559   1.223   0.905 -0.0516  0.3603  0.3336
  340MPD2     C 5096   2.726   3.624  10.395  0.4449 -0.3961 -0.8396
  340MPD2    C1 5097   2.800   3.550  10.296 -0.3645 -0.5985 -0.7092
  340MPD2    C2 5098   2.935   3.586  10.284  0.5602  0.4382  0.6228
  340MPD2    C3 5099   2.995   3.678  10.370 -0.7789  0.7908  0.3625
  340MPD2    C4 5100   2.918   3.748  10.462  0.7984  0.1612  0.2394
  340MPD2    C5 5101   2.782   3.725  10.467  0.6358 -0.1856 -0.0616
  340MPD2     H 5102   2.986   3.568  10.190 -1.4150  1.4322 -0.6312
  340MPD2    H1 5103   2.968   3.821  10.525  0.1580  0.3385  0.5350
  340MPD2    H2 5104   2.619   3.617  10.403  0.5383  0.4959  1.1562
  340MPD2    H3 5105   2.715   3.770  10.540 -1.0627  0.7481 -2.1999
  340MPD2     N 5106   3.129   3.714  10.338 -0.6019  0.1717  0.1398
  340MPD2    H5 5107   3.170   3.669  10.257  0.1099  1.3178 -0.1454
  340MPD2    N1 5108   2.747   3.444  10.216 -0.1882 -0.3350 -0.2072
  340MPD2    H7 5109   2.812   3.390  10.160  1.6042 -2.2150  3.6269
  341TMC3    C1 5110   2.609   3.255  10.183 -0.1563  0.4029  0.1329
  341TMC3    C2 5111   2.600   3.163  10.280 -0.0209  0.1216  0.2470
  341TMC3    C3 5112   2.640   3.035  10.250 -0.9141  0.1532  1.0050
  341TMC3    C4 5113   2.679   3.224  10.068 -0.6329 -0.6622 -0.2651
  341TMC3    C5 5114   2.725   3.101  10.039 -0.4429 -0.1132  0.1346
  341TMC3    C6 5115   2.705   3.004  10.131  0.8167 -0.1995 -0.0259
  341TMC3     C 5116   2.619   3.393  10.232 -0.5578  0.2418  0.1656
  341TMC3     O 5117   2.536   3.420  10.319 -0.0706  0.0999 -0.3608
  341TMC3     H 5118   2.542   3.192  10.367  0.0007  1.7288 -0.2765
  341TMC3    H1 5119   2.705   3.302   9.998  0.0358 -0.2614  0.4293
  341TMC3    H2 5120   2.739   2.904  10.110 -1.8884 -0.3752 -3.4966
  341TMC3    C7 5121   2.817   3.075   9.928 -0.6287  1.0041 -0.2140
  341TMC3    C8 5122   2.613   2.930  10.346  0.2298  0.2070 -0.9209
  341TMC3    O1 5123   2.867   2.966   9.930  0.2457  0.4765 -0.0294
  341TMC3    O2 5124   2.639   2.812  10.320  0.1742 -0.6407 -0.3400
  342MPD2     C 5125   0.388   1.968  17.456  0.8643  0.5365 -0.3033
  342MPD2    C1 5126   0.521   1.969  17.417 -0.9707 -0.1964 -0.3763
  342MPD2    C2 5127   0.603   2.079  17.452  0.6290 -0.4313 -0.1909
  342MPD2    C3 5128   0.551   2.186  17.527  0.5581 -0.8956  0.6040
  342MPD2    C4 5129   0.424   2.179  17.572  0.3809  0.4885 -0.1104
  342MPD2    C5 5130   0.341   2.077  17.532  0.2462 -0.0747 -1.2249
  342MPD2     H 5131   0.709   2.063  17.437  0.3698 -0.8987 -1.5324
  342MPD2    H1 5132   0.371   2.255  17.629  0.2661  0.0524  0.3672
  342MPD2    H2 5133   0.316   1.900  17.413  1.1881 -0.3572  0.5633
  342MPD2    H3 5134   0.236   2.085  17.555  0.0848 -0.8672 -1.6812
  342MPD2     N 5135   0.644   2.290  17.572 -0.0334 -0.7312  0.3397
  342MPD2    H5 5136   0.744   2.274  17.560  0.3755  2.2162 -0.1517
  342MPD2    N1 5137   0.571   1.855  17.353 -0.3986  0.5516 -0.5011
  342MPD2    H7 5138   0.666   1.859  17.316  0.1292  1.9225  0.9818
  343TMC3    C1 5139   0.585   1.641  17.249  0.0745  0.0673  0.9066
  343TMC3    C2 5140   0.655   1.691  17.137 -0.6502 -0.3815  0.5024
  343TMC3    C3 5141   0.731   1.604  17.067 -0.2383 -0.4192 -0.4034
  343TMC3    C4 5142   0.588   1.504  17.276  0.0046 -0.1487  0.7334
  343TMC3    C5 5143   0.673   1.420  17.196  0.3306 -0.1952  1.1709
  343TMC3    C6 5144   0.741   1.472  17.091  0.1677 -0.2361  0.0572
  343TMC3     C 5145   0.515   1.730  17.350 -0.3136  0.0160 -0.2170
  343TMC3     O 5146   0.427   1.682  17.420  0.0388  0.6953 -0.3624
  343TMC3     H 5147   0.648   1.795  17.107 -0.3635 -0.0179  1.6875
  343TMC3    H1 5148   0.519   1.456  17.344  0.0942 -1.4549 -0.0868
  343TMC3    H2 5149   0.800   1.410  17.024 -0.7821 -1.5740  0.4681
  343TMC3    C7 5150   0.662   1.278  17.211 -0.0491  0.2789 -0.8447
  343TMC3    C8 5151   0.788   1.654  16.945 -0.0539 -0.1331  0.3496
  343TMC3    O1 5152   0.685   1.211  17.115 -0.1329 -0.1129 -0.5234
  343TMC3    O2 5153   0.811   1.772  16.930  0.2435 -0.6526  0.5554
  344MPD2     C 5154   1.751   1.194  10.050  1.2379  0.4136 -0.3081
  344MPD2    C1 5155   1.747   1.293  10.148  0.3292 -0.4092 -0.3195
  344MPD2    C2 5156   1.825   1.409  10.141 -0.7407 -0.5998 -0.4903
  344MPD2    C3 5157   1.900   1.437  10.030  0.2846  0.1235  0.0326
  344MPD2    C4 5158   1.895   1.340   9.927  0.7229 -0.1109 -0.1317
  344MPD2    C5 5159   1.824   1.221   9.937 -0.2443 -0.1215  0.3695
  344MPD2     H 5160   1.829   1.471  10.230  1.2447 -1.7820  0.2318
  344MPD2    H1 5161   1.946   1.354   9.832  1.1824  2.0322  0.4446
  344MPD2    H2 5162   1.681   1.113  10.062  1.0851  0.1279 -3.1608
  344MPD2    H3 5163   1.830   1.145   9.859  1.4661  0.2279  0.1611
  344MPD2     N 5164   1.993   1.535  10.011  0.5422 -0.2191 -0.3620
  344MPD2    H5 5165   2.041   1.533   9.922  2.0749  1.1597  0.4399
  344MPD2    N1 5166   1.653   1.261  10.253  0.1036  0.0100 -0.0701
  344MPD2    H7 5167   1.608   1.170  10.253 -1.4434  0.7724 -1.4791
  345TMC3    C1 5168   2.089   1.749  10.029 -0.1173 -0.0711  0.0151
  345TMC3    C2 5169   2.113   1.865  10.100 -0.6490 -0.2163 -0.3397
  345TMC3    C3 5170   2.165   1.974  10.033  0.4877  0.6475  0.2371
  345TMC3    C4 5171   2.100   1.754   9.890 -0.1392  0.0246 -0.0113
  345TMC3    C5 5172   2.154   1.858   9.820 -0.1484 -0.1933 -0.5682
  345TMC3    C6 5173   2.183   1.971   9.898 -0.2947 -0.4294 -0.0071
  345TMC3     C 5174   2.015   1.642  10.092 -0.8402  0.5608  1.1062
  345TMC3     O 5175   1.989   1.653  10.212  0.2404  0.1713  0.2818
  345TMC3     H 5176   2.092   1.870  10.206  0.4743 -0.1029 -0.1193
  345TMC3    H1 5177   2.055   1.673   9.833 -1.8867  0.6181  0.5341
  345TMC3    H2 5178   2.242   2.055   9.861  0.2542 -1.6959 -2.0037
  345TMC3    C7 5179   2.069   1.893   9.711 -0.4794 -0.2443  0.5737
  345TMC3    C8 5180   2.111   2.107  10.069  0.2298  0.3839  0.1116
  345TMC3    O1 5181   2.029   1.808   9.632  0.0447  0.2587  0.2493
  345TMC3    O2 5182   2.096   2.170   9.967  0.0054 -0.2912 -0.0140
  346MPD2     C 5183   2.084   3.157  14.293 -0.0507 -0.3020 -0.1250
  346MPD2    C1 5184   2.161   3.258  14.235 -0.2375 -0.8216  0.6162
  346MPD2    C2 5185   2.252   3.331  14.304  0.4139 -0.1133  0.0738
  346MPD2    C3 5186   2.263   3.314  14.439  0.2400 -0.3461 -0.5456
  346MPD2    C4 5187   2.200   3.209  14.495  0.3991 -0.2414  0.7533
  346MPD2    C5 5188   2.115   3.125  14.422 -0.2812  0.2259 -0.1570
  346MPD2     H 5189   2.305   3.406  14.246 -0.4246  2.8349  3.1394
  346MPD2    H1 5190   2.219   3.186  14.600  2.0867 -0.3060  0.4298
  346MPD2    H2 5191   2.002   3.109  14.241 -0.8728  1.8413 -0.8083
  346MPD2    H3 5192   2.063   3.043  14.471  1.2943 -0.8763 -0.3163
  346MPD2     N 5193   2.352   3.399  14.518  0.3944 -0.5702  0.2860
  346MPD2    H5 5194   2.406   3.465  14.464 -0.9506  0.3049  0.0145
  346MPD2    N1 5195   2.135   3.290  14.102  1.1136 -0.0845  0.0270
  346MPD2    H7 5196   2.195   3.358  14.056  1.0840  0.1424  0.3212
  347TMC3    C1 5197   2.406   3.542  14.691 -0.1026  1.0247  0.0962
  347TMC3    C2 5198   2.533   3.572  14.639 -0.4075  0.3810  1.1371
  347TMC3    C3 5199   2.593   3.683  14.688  1.1819  0.5191 -0.2572
  347TMC3    C4 5200   2.361   3.606  14.804  0.1950 -0.2950 -0.4225
  347TMC3    C5 5201   2.434   3.715  14.852  0.7723 -0.0884  0.3639
  347TMC3    C6 5202   2.548   3.758  14.792  0.2795  0.7327  0.8507
  347TMC3     C 5203   2.325   3.428  14.650  0.2870  0.1587  0.1066
  347TMC3     O 5204   2.237   3.387  14.724 -0.3567  0.2605  0.3063
  347TMC3     H 5205   2.574   3.511  14.560 -1.9578  2.7771 -1.5249
  347TMC3    H1 5206   2.271   3.578  14.858  0.6261  2.1703  1.5728
  347TMC3    H2 5207   2.595   3.851  14.824  0.2077  1.1963 -0.4036
  347TMC3    C7 5208   2.382   3.776  14.969 -0.3670 -0.3652 -0.5036
  347TMC3    C8 5209   2.732   3.703  14.646  0.4741  0.3836  0.5165
  347TMC3    O1 5210   2.468   3.817  15.046 -0.0558 -0.0207  0.2478
  347TMC3    O2 5211   2.782   3.634  14.565 -0.1148 -0.5278 -0.2798
  348MPD2     C 5212   0.448   2.927  12.177  0.5624 -0.1741 -0.4483
  348MPD2    C1 5213   0.546   2.847  12.124 -0.2118  0.0643  0.8294
  348MPD2    C2 5214   0.583   2.882  11.996 -0.4195  0.6867 -0.9957
  348MPD2    C3 5215   0.530   2.991  11.930 -0.0804 -0.1913  0.3547
  348MPD2    C4 5216   0.435   3.072  11.989  0.2219 -0.9013  0.0693
  348MPD2    C5 5217   0.396   3.037  12.117  0.9876 -1.1852  0.1649
  348MPD2     H 5218   0.662   2.833  11.941 -0.2135  1.6130 -1.5192
  348MPD2    H1 5219   0.386   3.154  11.937  1.8960  0.1087  0.1002
  348MPD2    H2 5220   0.413   2.908  12.277  1.5938 -0.2048 -0.0894
  348MPD2    H3 5221   0.323   3.092  12.175  1.0068  2.2608 -3.0695
  348MPD2     N 5222   0.567   3.011  11.794  0.2049  0.0753  0.5264
  348MPD2    H5 5223   0.609   2.932  11.746 -1.6290 -1.0880  0.8359
  348MPD2    N1 5224   0.616   2.742  12.191  0.1855  0.3829  0.4373
  348MPD2    H7 5225   0.695   2.706  12.140 -1.0021 -0.8435 -0.5337
  349TMC3    C1 5226   0.689   2.621  12.372  0.5431  0.0054  0.2618
  349TMC3    C2 5227   0.657   2.494  12.381  0.0891  0.9784  0.3226
  349TMC3    C3 5228   0.730   2.397  12.319  0.5065 -0.0624 -0.6408
  349TMC3    C4 5229   0.810   2.655  12.322 -0.0281 -0.4244  0.5285
  349TMC3    C5 5230   0.878   2.563  12.249 -0.2587  0.0144  0.1533
  349TMC3    C6 5231   0.837   2.438  12.246 -0.2786  0.1444  0.0138
  349TMC3     C 5232   0.584   2.698  12.316 -0.5768  0.3120  0.3848
  349TMC3     O 5233   0.486   2.726  12.385 -0.0504  0.1674 -0.1696
  349TMC3     H 5234   0.559   2.467  12.419  0.4707 -0.9530 -0.0814
  349TMC3    H1 5235   0.840   2.757  12.343  2.8008 -1.1388 -0.0169
  349TMC3    H2 5236   0.890   2.364  12.187 -0.4042 -0.2870  0.4376
  349TMC3    C7 5237   0.931   2.613  12.123  0.5404  0.1631 -1.0169
  349TMC3    C8 5238   0.736   2.271  12.383 -0.1260 -0.2107  0.0143
  349TMC3    O1 5239   0.921   2.536  12.031 -0.3542 -0.3599 -0.5553
  349TMC3    O2 5240   0.719   2.271  12.505 -0.4328 -0.4496  0.1891
  350MPD2     C 5241   0.444   4.323   9.845  0.1303 -0.1864  0.0109
  350MPD2    C1 5242   0.314   4.373   9.858 -0.3008  0.1039  0.2251
  350MPD2    C2 5243   0.292   4.509   9.857  0.1429  0.0702 -0.2224
  350MPD2    C3 5244   0.396   4.592   9.833  0.6256 -0.5023 -0.3636
  350MPD2    C4 5245   0.524   4.538   9.816  0.4800  0.8487  0.7529
  350MPD2    C5 5246   0.550   4.409   9.824 -0.1726  0.7461  0.6191
  350MPD2     H 5247   0.189   4.542   9.861 -0.2079 -1.4213  3.0958
  350MPD2    H1 5248   0.612   4.599   9.803  0.3798  1.1846  1.6450
  350MPD2    H2 5249   0.460   4.216   9.851 -0.3163 -0.2647 -0.2133
  350MPD2    H3 5250   0.652   4.373   9.824  0.0868  1.4740  1.1617
  350MPD2     N 5251   0.365   0.003   9.826  0.0943 -0.2957 -0.4119
  350MPD2    H5 5252   0.268   0.029   9.841  0.5338  0.4532  1.2222
  350MPD2    N1 5253   0.198   4.283   9.866  0.3199  1.1823  0.1845
  350MPD2    H7 5254   0.111   4.334   9.872  1.1462  2.6124 -0.0047
  351TMC3    C1 5255   0.059   4.091   9.869  0.1316 -0.6565 -0.3773
  351TMC3    C2 5256   0.044   3.954   9.853 -0.8873  0.9810 -0.1450
  351TMC3    C3 5257   4.637   3.906   9.835  0.8070 -0.0748  0.0995
  351TMC3    C4 5258   4.684   4.182   9.884 -0.0257 -0.0088 -0.0561
  351TMC3    C5 5259   4.557   4.134   9.871  0.2478  0.4533 -0.1193
  351TMC3    C6 5260   4.537   4.001   9.839  0.4635 -0.1734  0.6245
  351TMC3     C 5261   0.195   4.146   9.881 -0.4790  0.1130  0.1476
  351TMC3     O 5262   0.291   4.066   9.889  0.6720  0.1099 -0.3556
  351TMC3     H 5263   0.137   3.898   9.842 -0.2537  1.6128  1.9141
  351TMC3    H1 5264   4.692   4.280   9.929 -2.1448  0.4765 -0.7196
  351TMC3    H2 5265   4.438   3.960   9.818  0.9446 -1.8647  1.6108
  351TMC3    C7 5266   4.471   4.227   9.800 -0.3324 -0.1633  0.2452
  351TMC3    C8 5267   4.625   3.772   9.780  0.4408 -0.1806  0.3451
  351TMC3    O1 5268   4.523   4.334   9.773  1.0033 -0.0246 -0.4286
  351TMC3    O2 5269   0.009   3.710   9.775 -0.4682  0.0570 -0.0464
  352MPD2     C 5270   2.004   3.144   0.971  0.0856 -0.1693  0.0511
  352MPD2    C1 5271   1.952   3.074   0.865 -0.0418 -0.0633  0.5907
  352MPD2    C2 5272   1.991   2.941   0.842 -0.1861  0.6028 -0.1286
  352MPD2    C3 5273   2.088   2.879   0.929 -0.8621  0.8165 -0.0650
  352MPD2    C4 5274   2.125   2.950   1.039 -0.1473  0.3025 -0.1621
  352MPD2    C5 5275   2.088   3.080   1.054 -0.1029  1.0030 -0.2248
  352MPD2     H 5276   1.962   2.885   0.754 -1.7003 -1.3404  1.5818
  352MPD2    H1 5277   2.191   2.910   1.115  1.7256  0.7167 -1.5806
  352MPD2    H2 5278   1.977   3.246   0.996 -0.9525 -0.9804  2.2611
  352MPD2    H3 5279   2.117   3.139   1.140 -1.8254  2.3204 -0.5517
  352MPD2     N 5280   2.142   2.753   0.914  0.2940  0.0637  0.3228
  352MPD2    H5 5281   2.199   2.713   0.988 -0.8819 -0.9780  0.6551
  352MPD2    N1 5282   1.863   3.134   0.782  0.4796 -0.0189  0.4997
  352MPD2    H7 5283   1.826   3.220   0.822 -1.9013 -0.2077 -1.3145
  353TMC3    C1 5284   2.165   2.524   0.843  0.8472 -0.0877 -0.3700
  353TMC3    C2 5285   2.299   2.517   0.867  0.0694  0.1453  0.0144
  353TMC3    C3 5286   2.356   2.394   0.851 -0.6589 -0.0218 -0.3093
  353TMC3    C4 5287   2.088   2.422   0.807  0.0833 -0.0232 -0.1322
  353TMC3    C5 5288   2.147   2.303   0.781  0.0228 -0.6595 -0.7175
  353TMC3    C6 5289   2.281   2.290   0.800  0.1722  0.2048  0.4702
  353TMC3     C 5290   2.097   2.653   0.826  0.4668  0.1990 -0.5404
  353TMC3     O 5291   2.007   2.657   0.739  0.1712 -0.1074  0.2837
  353TMC3     H 5292   2.349   2.607   0.901  1.2096  1.2516 -4.5721
  353TMC3    H1 5293   1.982   2.440   0.797  0.3561  1.1574 -0.8356
  353TMC3    H2 5294   2.329   2.206   0.751 -1.4622  0.3831 -1.4443
  353TMC3    C7 5295   2.080   2.209   0.705  0.0152 -0.1931  0.7251
  353TMC3    C8 5296   2.481   2.372   0.919 -0.5352 -0.3283  0.1617
  353TMC3    O1 5297   2.156   2.147   0.629 -0.4805  0.6310 -0.1952
  353TMC3    O2 5298   2.525   2.464   0.988  0.0915  0.2746  0.3476
  354TMC3    C1 5299   4.134   4.263  13.539 -0.6027  0.0605  0.0874
  354TMC3    C2 5300   4.168   4.392  13.501  0.5477 -0.8513  1.3391
  354TMC3    C3 5301   4.091   4.440  13.396 -0.4198  0.0044 -0.1812
  354TMC3    C4 5302   4.029   4.193  13.481  0.4360  0.0500  0.2414
  354TMC3    C5 5303   3.971   4.242  13.370  0.4093  0.5418 -0.8854
  354TMC3    C6 5304   4.002   4.369  13.325  0.3759  0.5271 -0.2236
  354TMC3     C 5305   4.178   4.209  13.669 -0.4117 -0.0637 -0.4259
  354TMC3     O 5306   4.114   4.116  13.712 -0.5718 -0.2348  0.2431
  354TMC3     H 5307   4.237   4.458  13.552  1.0143 -0.2022 -0.1102
  354TMC3    H1 5308   4.024   4.087  13.503 -1.1244 -0.4129 -2.3236
  354TMC3    H2 5309   3.947   4.418  13.246 -2.3182 -3.1851 -0.6752
  354TMC3    C7 5310   3.952   4.138  13.270 -0.1221  0.0248 -0.2813
  354TMC3    C8 5311   4.152   4.540  13.314  0.0704 -0.2565  0.3545
  354TMC3    O1 5312   3.890   4.035  13.311  0.2783 -0.1551 -0.4581
  354TMC3    O2 5313   4.161   4.515  13.195 -0.1626 -0.5163 -0.6787
  355MPD2     C 5314   4.435   0.564  11.461  0.5616 -0.6172  0.6716
  355MPD2    C1 5315   4.541   0.559  11.374 -0.5280  0.5268 -0.2122
  355MPD2    C2 5316   4.660   0.500  11.411 -0.2031 -0.3355  0.0363
  355MPD2    C3 5317   4.679   0.461  11.541  0.2613 -0.0481 -0.3629
  355MPD2    C4 5318   4.570   0.456  11.631  1.4486 -0.3574  0.1584
  355MPD2    C5 5319   4.449   0.505  11.582 -0.3990  0.1664 -0.5064
  355MPD2     H 5320   0.013   0.489  11.334  1.7284 -0.9249  2.0316
  355MPD2    H1 5321   4.579   0.418  11.733 -0.6653 -1.1459  0.0629
  355MPD2    H2 5322   4.339   0.603  11.432  1.4564  0.6881 -0.5128
  355MPD2    H3 5323   4.363   0.499  11.648  0.2456  1.4697  0.4405
  355MPD2     N 5324   0.088   0.421  11.583  0.3556 -0.1945 -0.4066
  355MPD2    H5 5325   0.114   0.440  11.680 -0.8468 -0.8640  0.0466
  355MPD2    N1 5326   4.501   0.596  11.238 -0.2168  0.3073 -0.0438
  355MPD2    H7 5327   4.406   0.628  11.219  0.5749  2.3908 -0.6037
  356TMC3    C1 5328   0.312   0.417  11.550  1.3811 -0.3362  0.6627
  356TMC3    C2 5329   0.392   0.477  11.449 -0.5629 -0.4437  0.7545
  356TMC3    C3 5330   0.489   0.567  11.492  0.5412 -0.8375 -0.1685
  356TMC3    C4 5331   0.322   0.460  11.679 -0.2149 -0.5154 -0.5084
  356TMC3    C5 5332   0.418   0.548  11.709 -0.3555 -0.0697 -0.4783
  356TMC3    C6 5333   0.505   0.609  11.618  0.0838  0.0355 -0.2755
  356TMC3     C 5334   0.184   0.382  11.494 -0.2431  0.0923 -1.6251
  356TMC3     O 5335   0.179   0.344  11.376  0.6820 -0.3252  0.5644
  356TMC3     H 5336   0.377   0.450  11.345 -0.1618 -2.6534  1.2717
  356TMC3    H1 5337   0.264   0.425  11.764 -0.6342  0.6375 -0.3194
  356TMC3    H2 5338   0.584   0.679  11.641 -1.6821  2.0273 -0.2796
  356TMC3    C7 5339   0.424   0.579  11.851 -0.1724 -0.5242  1.2180
  356TMC3    C8 5340   0.554   0.636  11.389 -0.7035 -0.2996 -0.2377
  356TMC3    O1 5341   0.388   0.495  11.930  0.5372 -0.0620 -0.4446
  356TMC3    O2 5342   0.557   0.575  11.282  0.0515 -0.2477 -0.5148
  357MPD2     C 5343   4.096   0.270   0.733  0.9776  0.1744 -0.2956
  357MPD2    C1 5344   4.142   0.176   0.816 -0.1927  0.1353  0.2840
  357MPD2    C2 5345   4.082   0.159   0.940  0.4727  0.1038 -0.2286
  357MPD2    C3 5346   3.986   0.255   0.984 -0.2045 -0.4027 -0.0148
  357MPD2    C4 5347   3.944   0.356   0.900 -0.1473  0.9312  0.1045
  357MPD2    C5 5348   3.994   0.347   0.770  0.0474  0.4160 -0.8738
  357MPD2     H 5349   4.112   0.075   1.003  2.2735  1.5950  0.8939
  357MPD2    H1 5350   3.872   0.434   0.922 -2.6081 -0.9786 -1.2084
  357MPD2    H2 5351   4.146   0.282   0.637  1.5566  1.7999  0.2054
  357MPD2    H3 5352   3.947   0.421   0.706 -2.8223 -0.9607 -0.3850
  357MPD2     N 5353   3.924   0.250   1.109 -0.0916  1.2179 -0.5154
  357MPD2    H5 5354   3.855   0.322   1.130 -1.6572  0.0489 -1.6928
  357MPD2    N1 5355   4.243   0.092   0.773 -0.3798  0.2546  0.0011
  357MPD2    H7 5356   4.259   0.081   0.674 -0.5523  1.5433 -0.1603
  358TMC3    C1 5357   4.423   4.651   0.794 -0.3228  0.3836 -0.2827
  358TMC3    C2 5358   4.381   4.585   0.680 -0.5859  0.1027  0.3116
  358TMC3    C3 5359   4.443   4.468   0.641  0.0207  0.1526 -0.6156
  358TMC3    C4 5360   4.514   4.593   0.877  0.3350 -0.2694  0.1302
  358TMC3    C5 5361   4.574   4.470   0.843 -0.3732  0.0156 -0.0849
  358TMC3    C6 5362   4.542   4.412   0.722  0.2084  0.1016 -0.5384
  358TMC3     C 5363   4.332   0.031   0.862  0.6978  0.3710  0.4580
  358TMC3     O 5364   4.362   0.068   0.978  0.0475 -0.1668  0.1818
  358TMC3     H 5365   4.304   4.630   0.618 -2.2796 -1.2858  1.4293
  358TMC3    H1 5366   4.551   4.652   0.960  2.1631 -0.8379 -0.2741
  358TMC3    H2 5367   4.587   4.315   0.706 -0.7837 -0.1723 -1.6983
  358TMC3    C7 5368   4.657   4.400   0.940  0.3170 -0.1391 -1.0496
  358TMC3    C8 5369   4.406   4.386   0.532  0.2392  0.3906 -0.2479
  358TMC3    O1 5370   0.005   4.306   0.906  0.1508 -0.1995  0.1970
  358TMC3    O2 5371   4.480   4.289   0.514 -0.0780 -0.1351 -0.6476
  359MPD2     C 5372   4.654   3.201  12.541  0.3592 -0.0257  0.3521
  359MPD2    C1 5373   4.627   3.305  12.452  0.2313  1.1154  0.1944
  359MPD2    C2 5374   4.505   3.370  12.458 -0.0574 -0.4418 -0.0743
  359MPD2    C3 5375   4.407   3.337  12.549 -0.8269  0.1851  0.0248
  359MPD2    C4 5376   4.434   3.232  12.633  0.4408  0.0321  0.2162
  359MPD2    C5 5377   4.554   3.166  12.631  0.6631  0.1507 -0.0395
  359MPD2     H 5378   4.487   3.456  12.396  0.5699  0.3414  0.8240
  359MPD2    H1 5379   4.365   3.213  12.715  0.7088  0.1972  0.4788
  359MPD2    H2 5380   0.025   3.147  12.548  0.4961  0.1603 -0.0193
  359MPD2    H3 5381   4.581   3.105  12.716 -1.7965  0.1423  0.7314
  359MPD2     N 5382   4.287   3.400  12.572 -0.1735  0.2468 -0.2262
  359MPD2    H5 5383   4.215   3.366  12.636  0.1466 -0.5099 -0.2685
  359MPD2    N1 5384   4.718   3.337  12.346  0.2614  0.1660  0.0570
  359MPD2    H7 5385   4.682   3.405  12.280  1.0247  1.7971  1.3184
  360TMC3    C1 5386   0.195   3.345  12.218 -0.0078 -0.5755 -0.4627
  360TMC3    C2 5387   0.331   3.358  12.230 -0.5600  0.8622  0.2604
  360TMC3    C3 5388   0.403   3.417  12.122  0.5482 -0.6569  0.4897
  360TMC3    C4 5389   0.140   3.338  12.094 -0.4411 -0.3432 -0.6836
  360TMC3    C5 5390   0.218   3.375  11.985  0.0861 -0.4841  0.2662
  360TMC3    C6 5391   0.344   3.440  12.000  0.3398  0.4674 -0.1555
  360TMC3     C 5392   0.126   3.300  12.332  0.5925 -0.3542 -0.0229
  360TMC3     O 5393   0.187   3.225  12.412 -0.6193 -0.2179  0.2012
  360TMC3     H 5394   0.378   3.349  12.328  0.9185 -1.1658 -0.6455
  360TMC3    H1 5395   0.036   3.311  12.078 -0.2687 -1.3183 -0.1863
  360TMC3    H2 5396   0.399   3.461  11.909  0.3964 -1.2532 -0.5216
  360TMC3    C7 5397   0.160   3.375  11.851 -0.4254  0.2768  0.1154
  360TMC3    C8 5398   0.540   3.432  12.144 -0.0539 -0.0063  0.4492
  360TMC3    O1 5399   0.193   3.468  11.780 -0.1413 -0.2632 -0.3157
  360TMC3    O2 5400   0.564   3.442  12.265  0.1430  0.5603  0.4089
  361MPD2     C 5401   1.413   2.247  16.545  0.0105  0.6737  0.7710
  361MPD2    C1 5402   1.388   2.251  16.679 -0.4700 -0.2913 -0.1838
  361MPD2    C2 5403   1.449   2.161  16.760 -0.2539  0.1259  0.4105
  361MPD2    C3 5404   1.539   2.063  16.717 -0.3563  0.7727  0.0637
  361MPD2    C4 5405   1.557   2.055  16.573  0.0037 -0.1561  0.4608
  361MPD2    C5 5406   1.494   2.151  16.491  0.4955  0.0762  0.4618
  361MPD2     H 5407   1.431   2.162  16.867 -1.3596  1.4561  0.2079
  361MPD2    H1 5408   1.626   1.987  16.525 -0.3237  0.4020 -0.8041
  361MPD2    H2 5409   1.364   2.321  16.481 -0.2743  0.9827  1.3463
  361MPD2    H3 5410   1.511   2.166  16.385 -0.4527  3.1377  0.7391
  361MPD2     N 5411   1.615   1.983  16.801  0.1348 -0.0132 -0.3167
  361MPD2    H5 5412   1.676   1.909  16.769  0.4183 -0.0039  0.1939
  361MPD2    N1 5413   1.300   2.345  16.727 -0.3624 -0.7512  0.5025
  361MPD2    H7 5414   1.265   2.403  16.652  0.3015 -1.9565 -0.7451
  362TMC3    C1 5415   1.174   2.472  16.872  0.5044  0.5834 -0.2280
  362TMC3    C2 5416   1.083   2.469  16.975  0.5196 -0.5882 -0.0531
  362TMC3    C3 5417   1.004   2.571  16.996  0.3741  0.6784 -0.1617
  362TMC3    C4 5418   1.172   2.572  16.775 -0.3822 -0.3201 -0.1337
  362TMC3    C5 5419   1.079   2.674  16.795  0.3955  0.5126 -0.0751
  362TMC3    C6 5420   0.998   2.679  16.907  0.3255  0.0516  0.0911
  362TMC3     C 5421   1.254   2.354  16.854 -0.0471 -0.0503  0.9699
  362TMC3     O 5422   1.263   2.281  16.951 -0.1368  0.1247  0.2333
  362TMC3     H 5423   1.063   2.380  17.033  0.3651 -0.2872  0.3522
  362TMC3    H1 5424   1.237   2.572  16.688 -1.5984  0.1124 -1.0403
  362TMC3    H2 5425   0.927   2.759  16.924  0.4251  0.3653 -0.9860
  362TMC3    C7 5426   1.041   2.761  16.686  0.2207 -0.8128  0.2378
  362TMC3    C8 5427   0.897   2.556  17.098 -0.9420 -0.8365  0.1133
  362TMC3    O1 5428   0.963   2.852  16.717 -0.6768 -0.3011  0.3429
  362TMC3    O2 5429   0.865   2.444  17.124  0.3644 -0.4497 -0.5895
  363TMC3    C1 5430   1.245   0.207   9.246 -0.2630  0.1307 -0.6080
  363TMC3    C2 5431   1.208   0.138   9.357  0.2484 -0.3029  0.0189
  363TMC3    C3 5432   1.132   0.214   9.440  0.2892 -0.1577 -0.1498
  363TMC3    C4 5433   1.246   0.338   9.235 -0.2541  0.1933 -0.1707
  363TMC3    C5 5434   1.207   0.414   9.343  0.2524 -0.0931  0.5571
  363TMC3    C6 5435   1.139   0.352   9.447  0.2023  0.3522  0.1219
  363TMC3     C 5436   1.308   0.122   9.149 -0.2364 -0.5147 -0.1286
  363TMC3     O 5437   1.323   0.006   9.179 -0.2791  0.2582  0.3160
  363TMC3     H 5438   1.197   0.030   9.360  2.0573 -0.4499  1.1803
  363TMC3    H1 5439   1.310   0.387   9.162 -1.8740  0.8272 -1.1637
  363TMC3    H2 5440   1.102   0.400   9.537 -3.3673  1.0713 -1.7577
  363TMC3    C7 5441   1.238   0.558   9.345  0.3011 -0.5693  0.1229
  363TMC3    C8 5442   1.043   0.149   9.541  0.7235  0.6382  0.1643
  363TMC3    O1 5443   1.316   0.590   9.255  0.4568  0.5970  0.7315
  363TMC3    O2 5444   0.942   0.213   9.568  0.0651 -0.3826  0.2527
  364MPD2     C 5445   4.004   4.334   9.772  1.0318 -0.2473  0.0654
  364MPD2    C1 5446   4.090   4.345   9.880  0.1111 -0.4621 -0.2193
  364MPD2    C2 5447   4.086   4.242   9.969  0.3281  1.0106  0.1102
  364MPD2    C3 5448   3.997   4.135   9.962  0.6379 -0.0250  1.3562
  364MPD2    C4 5449   3.904   4.133   9.858  0.5065  0.3648  0.4395
  364MPD2    C5 5450   3.914   4.228   9.765 -0.9059 -0.7483  0.2215
  364MPD2     H 5451   4.150   4.245  10.057  0.4831 -0.7254  0.0660
  364MPD2    H1 5452   3.837   4.050   9.835  1.2912 -0.6196  1.6536
  364MPD2    H2 5453   4.000   4.410   9.694  0.6671  0.4691  0.7780
  364MPD2    H3 5454   3.853   4.213   9.677 -0.8119  0.1863 -0.0068
  364MPD2     N 5455   4.006   4.038  10.063  0.6271  0.0212  0.2852
  364MPD2    H5 5456   4.083   4.047  10.129  1.0118 -0.1065 -0.1445
  364MPD2    N1 5457   4.182   4.453   9.898 -0.3856 -0.7508  0.4442
  364MPD2    H7 5458   4.250   4.445   9.972  0.2795  0.0304 -0.0799
  365TMC3    C1 5459   4.297   4.659   9.872  0.1557  0.5965  0.5700
  365TMC3    C2 5460   4.409   4.602   9.926 -0.0072  0.0625  0.1534
  365TMC3    C3 5461   4.510   4.697   9.960  1.1754 -1.0049 -0.3822
  365TMC3    C4 5462   4.283   0.073   9.853  0.0732  0.3435  0.3989
  365TMC3    C5 5463   4.387   0.151   9.874  0.7003  0.1593 -0.0500
  365TMC3    C6 5464   4.501   0.108   9.929 -0.3623  0.2008 -1.2650
  365TMC3     C 5465   4.185   4.574   9.829  0.1857  0.6794 -0.3085
  365TMC3     O 5466   4.090   4.627   9.771 -0.0386 -0.5600  0.5804
  365TMC3     H 5467   4.422   4.496   9.941 -0.6355  0.1087  0.9739
  365TMC3    H1 5468   4.191   0.109   9.808  0.3764 -0.3606 -0.8020
  365TMC3    H2 5469   4.583   0.178   9.920 -1.6243  2.0011  1.2324
  365TMC3    C7 5470   4.360   0.292   9.894 -0.6244 -0.2130  0.3774
  365TMC3    C8 5471   4.639   4.657  10.019 -0.1405  0.3796  0.1323
  365TMC3    O1 5472   4.427   0.377   9.833  0.4561 -0.8091 -0.1810
  365TMC3    O2 5473   0.018   4.721   9.993  0.2750  0.6562  0.0312
  366MPD2     C 5474   1.541   0.754  15.335  0.5483  0.3489 -0.6915
  366MPD2    C1 5475   1.660   0.804  15.282  0.0449  0.4178 -0.2202
  366MPD2    C2 5476   1.751   0.713  15.222  0.4304  0.2291 -0.0250
  366MPD2    C3 5477   1.702   0.591  15.190 -0.2634  0.5251  0.2971
  366MPD2    C4 5478   1.582   0.547  15.232 -0.5897  0.1878  0.7313
  366MPD2    C5 5479   1.504   0.625  15.317  0.4159  0.2916 -0.4863
  366MPD2     H 5480   1.850   0.743  15.191  0.9494 -1.7838 -0.3357
  366MPD2    H1 5481   1.537   0.452  15.206 -1.1264  0.1023  1.9760
  366MPD2    H2 5482   1.474   0.818  15.392 -1.0194  0.4705 -2.6854
  366MPD2    H3 5483   1.406   0.597  15.354  0.2834  0.6827 -0.5375
  366MPD2     N 5484   1.796   0.514  15.124  0.1261 -0.4648  0.6197
  366MPD2    H5 5485   1.882   0.554  15.088  1.2751 -2.1654  1.5176
  366MPD2    N1 5486   1.689   0.943  15.290 -1.3859  0.6294  0.3120
  366MPD2    H7 5487   1.778   0.977  15.254 -0.9102 -1.1638 -0.1694
  367TMC3    C1 5488   1.650   1.167  15.271  0.1672 -0.5468 -0.1807
  367TMC3    C2 5489   1.760   1.192  15.347  0.8639  0.0455 -0.1098
  367TMC3    C3 5490   1.853   1.265  15.276  0.5395  0.8291 -0.7081
  367TMC3    C4 5491   1.644   1.191  15.137 -0.0093  0.3427  0.2241
  367TMC3    C5 5492   1.752   1.234  15.070  0.0130 -0.1427  0.0157
  367TMC3    C6 5493   1.851   1.281  15.142 -0.5189  0.3028  0.4440
  367TMC3     C 5494   1.589   1.044  15.300 -0.8671  0.5213  0.5275
  367TMC3     O 5495   1.467   1.035  15.297 -0.1927  0.1569 -0.2182
  367TMC3     H 5496   1.774   1.173  15.453  0.8212 -0.6790 -0.2339
  367TMC3    H1 5497   1.554   1.151  15.092  1.0832 -3.7532  1.6654
  367TMC3    H2 5498   1.934   1.327  15.089 -0.8864  1.3117  0.7419
  367TMC3    C7 5499   1.744   1.277  14.927  0.0827 -0.1632  0.1489
  367TMC3    C8 5500   1.980   1.299  15.340  0.1067  0.2621  0.5144
  367TMC3    O1 5501   1.824   1.354  14.879  0.4289 -0.3848 -0.4852
  367TMC3    O2 5502   2.028   1.227  15.429  0.4864  0.4783  0.0179
  368MPD2     C 5503   2.936   2.710  12.714  0.6456  0.4494 -0.4954
  368MPD2    C1 5504   3.031   2.722  12.815 -0.2370 -0.1636 -0.2832
  368MPD2    C2 5505   3.144   2.642  12.811  0.5620  0.0237 -1.1808
  368MPD2    C3 5506   3.173   2.560  12.698  0.2013  0.3700  0.2177
  368MPD2    C4 5507   3.071   2.535  12.609  0.2210  0.5123  0.5275
  368MPD2    C5 5508   2.958   2.614  12.620 -0.7187 -0.4710 -0.9218
  368MPD2     H 5509   3.224   2.651  12.882 -1.1578  0.2991  0.7246
  368MPD2    H1 5510   3.071   2.469  12.523  0.1097  1.5911 -0.3023
  368MPD2    H2 5511   2.844   2.768  12.708 -1.5005 -2.9154  0.2802
  368MPD2    H3 5512   2.884   2.601  12.542 -1.5998  0.9847 -0.3286
  368MPD2     N 5513   3.299   2.499  12.675 -0.4395  0.7297 -0.2363
  368MPD2    H5 5514   3.309   2.469  12.578  0.4755  2.0106 -0.5443
  368MPD2    N1 5515   3.043   2.840  12.902  0.0729  0.7880  0.0732
  368MPD2    H7 5516   3.129   2.848  12.955  0.1907 -2.5128  0.3709
  369TMC3    C1 5517   2.974   3.032  13.026 -0.3862  0.3085 -0.4585
  369TMC3    C2 5518   3.099   3.087  13.019  0.0879  0.0168 -0.6713
  369TMC3    C3 5519   3.124   3.178  13.116  0.0776  0.4166  0.0260
  369TMC3    C4 5520   2.880   3.049  13.129  0.4091  0.3888 -0.3528
  369TMC3    C5 5521   2.918   3.130  13.232  0.1024  0.1237  0.1476
  369TMC3    C6 5522   3.037   3.202  13.226  1.1924 -0.1485 -0.3777
  369TMC3     C 5523   2.941   2.922  12.935 -0.6683  0.3428  0.2324
  369TMC3     O 5524   2.821   2.893  12.932 -0.2831  0.6692  0.1310
  369TMC3     H 5525   3.177   3.064  12.948  0.1916 -1.8669  0.0351
  369TMC3    H1 5526   2.791   2.988  13.122  0.8249 -0.0369 -1.8394
  369TMC3    H2 5527   3.056   3.270  13.308 -1.3204  0.7707 -0.5293
  369TMC3    C7 5528   2.843   3.133  13.361 -1.2844  0.2996 -0.2671
  369TMC3    C8 5529   3.227   3.274  13.083 -0.5012  0.0274  1.1390
  369TMC3    O1 5530   2.903   3.171  13.464  0.6581  0.4186 -0.2553
  369TMC3    O2 5531   3.259   3.275  12.965 -0.3797  0.4383  0.1702
  370TMC3    C1 5532   2.663   3.371  16.596 -0.1154 -0.4761  0.1481
  370TMC3    C2 5533   2.614   3.275  16.679  0.4668 -0.1390  0.4371
  370TMC3    C3 5534   2.573   3.157  16.617  0.1751  0.5505  0.5583
  370TMC3    C4 5535   2.662   3.359  16.454 -0.2657  0.7919  0.2396
  370TMC3    C5 5536   2.625   3.240  16.404 -0.0018 -0.3928  0.0405
  370TMC3    C6 5537   2.581   3.134  16.480 -0.2194  0.4480  0.7760
  370TMC3     C 5538   2.752   3.474  16.652 -0.1588 -0.4572  0.2374
  370TMC3     O 5539   2.789   3.453  16.767 -0.2528 -0.3325 -0.2298
  370TMC3     H 5540   2.626   3.284  16.786  0.6447 -1.1857  0.5064
  370TMC3    H1 5541   2.701   3.428  16.379 -0.0429 -0.8014 -1.1248
  370TMC3    H2 5542   2.535   3.043  16.445  0.9561  0.6371 -1.2454
  370TMC3    C7 5543   2.680   3.208  16.277  0.1693 -0.1715 -0.2902
  370TMC3    C8 5544   2.530   3.041  16.700  0.4307  0.5196 -1.0710
  370TMC3    O1 5545   2.693   3.300  16.197 -0.2235 -0.2967  0.2986
  370TMC3    O2 5546   2.538   2.934  16.641 -0.3189 -0.0396  0.0198
  371TMC3    C1 5547   4.007   1.630  15.553  0.6972  0.1017 -0.1680
  371TMC3    C2 5548   3.871   1.623  15.568 -0.0283 -0.2940  0.0743
  371TMC3    C3 5549   3.801   1.735  15.574  0.4272  0.2260  0.8585
  371TMC3    C4 5550   4.077   1.748  15.536 -0.1106 -0.0143 -0.3317
  371TMC3    C5 5551   4.003   1.863  15.543 -0.3716  0.0495 -0.1804
  371TMC3    C6 5552   3.867   1.857  15.554 -1.5485  0.1477  0.3693
  371TMC3     C 5553   4.076   1.512  15.533 -0.4952  0.0258 -0.1389
  371TMC3     O 5554   4.192   1.515  15.488  0.6383 -0.2615 -0.3069
  371TMC3     H 5555   3.815   1.531  15.563  0.5694 -0.6039 -0.8952
  371TMC3    H1 5556   4.185   1.749  15.522  0.1884 -1.8419  1.8556
  371TMC3    H2 5557   3.811   1.948  15.539  0.7469  1.7325  1.3859
  371TMC3    C7 5558   4.071   1.988  15.554 -0.2501  0.7938 -0.0514
  371TMC3    C8 5559   3.661   1.730  15.603 -0.3475  0.3047 -0.6828
  371TMC3    O1 5560   4.018   2.078  15.490 -0.0636  0.2533  0.6398
  371TMC3    O2 5561   3.604   1.623  15.589  0.6015 -0.2617 -0.4390
  372MPD2     C 5562   3.190   2.958  13.484 -0.1206 -0.1414  0.8700
  372MPD2    C1 5563   3.312   2.894  13.459 -0.5306 -0.5110 -0.4596
  372MPD2    C2 5564   3.311   2.757  13.444 -0.3169  0.1219  0.3913
  372MPD2    C3 5565   3.190   2.691  13.463 -0.2317 -0.2347 -0.7088
  372MPD2    C4 5566   3.069   2.759  13.477  0.3586  0.5864  0.0193
  372MPD2    C5 5567   3.068   2.896  13.488  0.8505 -0.4911 -0.0957
  372MPD2     H 5568   3.407   2.707  13.430 -0.7069  0.0044 -1.9091
  372MPD2    H1 5569   2.973   2.715  13.500  0.0370  2.3198  1.9791
  372MPD2    H2 5570   3.185   3.063  13.508  0.2573 -0.4139  2.1445
  372MPD2    H3 5571   2.973   2.946  13.505  2.0305  0.7879  2.6162
  372MPD2     N 5572   3.200   2.555  13.468 -0.2112  0.0951 -0.2311
  372MPD2    H5 5573   3.290   2.508  13.466  0.7699  1.9269  1.3215
  372MPD2    N1 5574   3.435   2.962  13.457 -0.2619  0.3832  0.4694
  372MPD2    H7 5575   3.517   2.907  13.434 -0.3072  0.6571 -0.3733
  373TMC3    C1 5576   3.137   2.336  13.490  0.2004  0.1271  0.1751
  373TMC3    C2 5577   3.100   2.273  13.601 -0.0034  0.0449  0.1079
  373TMC3    C3 5578   3.177   2.171  13.649  0.2455  0.2214 -0.1288
  373TMC3    C4 5579   3.262   2.308  13.433  0.1603  0.4496 -0.5034
  373TMC3    C5 5580   3.328   2.199  13.475 -0.0918 -0.0123 -0.1953
  373TMC3    C6 5581   3.293   2.126  13.587  0.0181 -0.8431  0.0959
  373TMC3     C 5582   3.091   2.474  13.481  0.8086 -0.6817  0.3804
  373TMC3     O 5583   2.981   2.492  13.535 -0.5038 -0.4502 -0.0605
  373TMC3     H 5584   3.009   2.305  13.651  0.3208  2.3024 -0.7401
  373TMC3    H1 5585   3.284   2.345  13.334 -1.4950 -2.0960 -1.8206
  373TMC3    H2 5586   3.352   2.042  13.620 -0.4900 -2.4203 -3.0250
  373TMC3    C7 5587   3.436   2.147  13.387  0.5537  0.5706  0.2626
  373TMC3    C8 5588   3.194   2.166  13.796  0.4225 -0.2723 -0.8608
  373TMC3    O1 5589   3.425   2.167  13.268  0.3408 -0.5875 -0.3757
  373TMC3    O2 5590   3.281   2.094  13.847  0.1941  0.1093 -0.5135
  374TMC3    C1 5591   3.664   2.625  10.345 -0.1949  0.3595  0.3222
  374TMC3    C2 5592   3.791   2.648  10.300  0.4769  0.0147 -0.0590
  374TMC3    C3 5593   3.832   2.581  10.190  0.2201 -0.6396  0.6163
  374TMC3    C4 5594   3.572   2.550  10.281 -0.0237 -0.3311  0.3872
  374TMC3    C5 5595   3.616   2.492  10.165 -0.4131  0.5881  0.2215
  374TMC3    C6 5596   3.743   2.503  10.120 -0.3877  0.0554  0.0525
  374TMC3     C 5597   3.614   2.683  10.469  0.7484  0.4669 -0.6832
  374TMC3     O 5598   3.496   2.672  10.495 -0.1287 -0.0731  0.2253
  374TMC3     H 5599   3.856   2.719  10.351  0.6128 -0.9717  1.1535
  374TMC3    H1 5600   3.474   2.534  10.324 -0.0914  3.7903  1.7937
  374TMC3    H2 5601   3.763   2.476  10.017  0.7772  0.4524  0.1763
  374TMC3    C7 5602   3.514   2.461  10.065 -0.1538 -0.4265  0.4901
  374TMC3    C8 5603   3.965   2.591  10.141  0.8497 -0.6517  0.2766
  374TMC3    O1 5604   3.562   2.416   9.963  0.2975  0.0215  0.0974
  374TMC3    O2 5605   3.987   2.548  10.026  0.7942  0.6658  0.3117
  375MPD2     C 5606   4.282   3.632  17.231 -0.3712  0.0398 -0.5414
  375MPD2    C1 5607   4.211   3.703  17.139  0.0246 -0.0845  0.1937
  375MPD2    C2 5608   4.253   3.702  17.008  0.0821  0.0667  0.6360
  375MPD2    C3 5609   4.366   3.642  16.967  0.5704 -0.2558  0.2922
  375MPD2    C4 5610   4.437   3.576  17.063 -0.8625 -0.4177 -0.3239
  375MPD2    C5 5611   4.398   3.573  17.192 -0.6977  0.5302  0.1180
  375MPD2     H 5612   4.195   3.768  16.945  4.0726  3.0601  0.0943
  375MPD2    H1 5613   4.529   3.532  17.025 -0.8916 -0.1569 -0.6935
  375MPD2    H2 5614   4.241   3.614  17.330 -1.1578 -0.1052 -0.8954
  375MPD2    H3 5615   4.453   3.509  17.260 -2.1020 -1.5082 -0.6573
  375MPD2     N 5616   4.401   3.621  16.829 -0.2969  0.3675  0.3253
  375MPD2    H5 5617   4.475   3.554  16.811  0.7566  1.7589 -0.4462
  375MPD2    N1 5618   4.085   3.764  17.170  0.4978  0.2515  0.4499
  375MPD2    H7 5619   4.045   3.827  17.102  2.0967 -0.3359 -1.0256
  376TMC3    C1 5620   4.347   3.617  16.596 -0.4249  0.1603 -0.2318
  376TMC3    C2 5621   4.449   3.524  16.564 -0.8074  0.0080  0.1551
  376TMC3    C3 5622   4.438   3.454  16.446 -0.0625 -0.6784  0.1622
  376TMC3    C4 5623   4.248   3.647  16.511  0.3243 -0.2738 -0.6894
  376TMC3    C5 5624   4.240   3.564  16.398  0.4791  0.8263 -0.1767
  376TMC3    C6 5625   4.332   3.474  16.360 -0.1244 -0.0954  0.0968
  376TMC3     C 5626   4.332   3.676  16.725 -0.1518  0.2898 -0.5792
  376TMC3     O 5627   4.231   3.744  16.736  0.0331  0.1165 -0.0953
  376TMC3     H 5628   4.533   3.511  16.632 -0.8649 -0.0404  0.2168
  376TMC3    H1 5629   4.177   3.729  16.521 -0.1268 -0.9740  1.6596
  376TMC3    H2 5630   4.311   3.407  16.278 -1.6417 -0.0201  0.4160
  376TMC3    C7 5631   4.126   3.583  16.310 -0.7964 -0.0535  0.8250
  376TMC3    C8 5632   4.530   3.355  16.402 -0.3318  1.3364  0.1733
  376TMC3    O1 5633   4.140   3.550  16.193 -0.0689 -0.5676 -0.1213
  376TMC3    O2 5634   4.519   3.330  16.286 -0.2367  0.0153 -0.0050
  377MPD2     C 5635   2.420   2.956  12.923  0.5022  0.0943 -0.3176
  377MPD2    C1 5636   2.352   3.057  12.862  0.8764  0.0295 -0.8659
  377MPD2    C2 5637   2.234   3.102  12.916  0.3894  0.1187  0.4941
  377MPD2    C3 5638   2.184   3.048  13.034 -0.1207 -0.1843 -0.4323
  377MPD2    C4 5639   2.258   2.952  13.100  0.5238 -0.1502 -0.7439
  377MPD2    C5 5640   2.381   2.914  13.046 -0.4330  0.1459  0.0107
  377MPD2     H 5641   2.169   3.178  12.873  0.2767 -0.5342 -0.4902
  377MPD2    H1 5642   2.223   2.895  13.185  1.2540 -0.5976 -0.7338
  377MPD2    H2 5643   2.510   2.908  12.885 -0.2876 -1.3229 -0.3773
  377MPD2    H3 5644   2.437   2.845  13.109  2.0054  1.7525 -0.3879
  377MPD2     N 5645   2.060   3.073  13.096  0.2079  0.1643 -0.2903
  377MPD2    H5 5646   2.044   3.029  13.186  1.9102  1.8423  0.8375
  377MPD2    N1 5647   2.401   3.094  12.730  0.7209  0.0169 -0.2921
  377MPD2    H7 5648   2.481   3.043  12.694  0.3056 -0.8408 -0.0140
  378TMC3    C1 5649   2.371   3.273  12.290  0.2595  0.0205 -0.0928
  378TMC3    C2 5650   2.316   3.234  12.409  0.3311  0.3861  0.2261
  378TMC3    C3 5651   2.398   3.201  12.516  0.2291 -0.5918  0.0210
  378TMC3    C4 5652   2.498   3.307  12.282 -0.3210  0.3873  0.4083
  378TMC3    C5 5653   2.575   3.288  12.391  0.0245 -0.7114 -0.5178
  378TMC3    C6 5654   2.530   3.223  12.505  0.6252  0.6488 -0.0562
  378TMC3     C 5655   2.279   3.346  12.203 -0.8313 -0.4767  0.5413
  378TMC3     O 5656   2.168   3.373  12.248 -0.0871  0.0615 -0.0669
  378TMC3     H 5657   2.210   3.214  12.421  0.1836  1.0463  0.0614
  378TMC3    H1 5658   2.527   3.382  12.210 -0.4558 -0.0966 -0.1525
  378TMC3    H2 5659   2.600   3.205  12.586 -0.9324 -1.9783  0.7274
  378TMC3    C7 5660   2.714   3.316  12.390  0.2586  0.3736 -0.7463
  378TMC3    C8 5661   2.331   3.172  12.644  0.1912 -0.1418 -0.3209
  378TMC3    O1 5662   2.773   3.329  12.497 -0.1976 -0.2038 -0.3461
  378TMC3    O2 5663   2.214   3.211  12.652 -0.2972 -1.0113  0.7846
  379MPD2     C 5664   3.044   1.273  15.903  0.0460  0.2496  0.0810
  379MPD2    C1 5665   2.955   1.165  15.886 -0.2951 -0.1970 -0.0042
  379MPD2    C2 5666   2.945   1.071  15.981 -0.1368  0.1026  0.3580
  379MPD2    C3 5667   3.022   1.091  16.095 -0.3907  0.0456 -0.2019
  379MPD2    C4 5668   3.100   1.200  16.116  0.0542  0.7700  0.1860
  379MPD2    C5 5669   3.108   1.299  16.024  0.2875  0.8533  0.1129
  379MPD2     H 5670   2.888   0.980  15.972 -2.3182  1.4990 -0.0305
  379MPD2    H1 5671   3.174   1.206  16.195 -0.4434 -0.0388  0.7091
  379MPD2    H2 5672   3.059   1.338  15.817  0.6403 -2.0697 -1.5674
  379MPD2    H3 5673   3.187   1.372  16.039  0.1688  1.2798 -1.3362
  379MPD2     N 5674   3.029   0.991  16.192 -0.5243  0.3482 -0.1343
  379MPD2    H5 5675   3.002   0.900  16.157  1.6302 -1.1503  2.0873
  379MPD2    N1 5676   2.871   1.173  15.769  0.2339 -0.2323  0.2310
  379MPD2    H7 5677   2.879   1.262  15.721 -1.4298 -1.1638 -1.8047
  380TMC3    C1 5678   2.760   1.107  15.589 -0.4562  0.4577 -1.0035
  380TMC3    C2 5679   2.872   1.085  15.517  0.2772 -0.3961  0.3340
  380TMC3    C3 5680   2.901   1.137  15.394 -0.4960 -0.1396 -0.2948
  380TMC3    C4 5681   2.678   1.204  15.554 -0.4779 -0.2133  0.2809
  380TMC3    C5 5682   2.711   1.267  15.437 -0.0435 -0.0896 -0.6684
  380TMC3    C6 5683   2.821   1.238  15.364 -1.0543 -0.1589 -0.0099
  380TMC3     C 5684   2.772   1.083  15.730  0.0156 -0.2948  0.2788
  380TMC3     O 5685   2.754   0.972  15.775 -0.1669 -0.0561 -0.7702
  380TMC3     H 5686   2.920   0.997  15.558 -0.2398 -0.4112  0.9039
  380TMC3    H1 5687   2.596   1.234  15.618  0.0513 -0.9883  1.3166
  380TMC3    H2 5688   2.845   1.299  15.277  2.1896  0.2618  1.1922
  380TMC3    C7 5689   2.632   1.387  15.383 -0.0390 -0.4312  0.0833
  380TMC3    C8 5690   3.039   1.172  15.365 -0.2961 -0.2115 -0.4955
  380TMC3    O1 5691   2.689   1.461  15.303 -0.5669 -0.4529 -0.3725
  380TMC3    O2 5692   3.059   1.222  15.256 -0.1808 -0.1396  0.2608
  381TMC3    C1 5693   2.698   2.275  16.372  0.2637 -0.3999 -0.1271
  381TMC3    C2 5694   2.801   2.360  16.390 -0.7945  0.1504 -0.0195
  381TMC3    C3 5695   2.784   2.460  16.480 -0.1898 -0.4467 -0.2464
  381TMC3    C4 5696   2.578   2.303  16.430  0.2648  0.3333 -0.8045
  381TMC3    C5 5697   2.567   2.406  16.517  0.1761 -0.4281  0.5122
  381TMC3    C6 5698   2.668   2.487  16.550  0.1695  0.0459  0.5565
  381TMC3     C 5699   2.701   2.183  16.261 -0.1139  0.2274  0.3083
  381TMC3     O 5700   2.593   2.145  16.213 -0.1092  0.4700 -0.2876
  381TMC3     H 5701   2.892   2.337  16.336  0.6363 -0.4845  2.6469
  381TMC3    H1 5702   2.489   2.249  16.399 -0.7346  0.6358  1.4951
  381TMC3    H2 5703   2.656   2.566  16.623 -1.9638 -0.9533  1.2970
  381TMC3    C7 5704   2.447   2.419  16.594 -0.1734 -0.8165 -0.0816
  381TMC3    C8 5705   2.878   2.572  16.453 -0.2580 -1.0813 -0.1363
  381TMC3    O1 5706   2.387   2.312  16.618 -1.0477 -0.5524 -0.4317
  381TMC3    O2 5707   2.951   2.562  16.356 -0.3426 -0.2933 -0.0944
  382MPD2     C 5708   1.293   0.387   0.156  0.0434 -0.4677 -0.3234
  382MPD2    C1 5709   1.423   0.352   0.123  0.0456  0.3354 -0.7404
  382MPD2    C2 5710   1.459   0.218   0.112 -0.4229 -0.0448  0.9501
  382MPD2    C3 5711   1.370   0.120   0.133  0.3930 -0.5981 -0.0914
  382MPD2    C4 5712   1.240   0.154   0.176  0.2907  0.5433 -0.4696
  382MPD2    C5 5713   1.203   0.292   0.183 -0.1422 -0.1845  0.1398
  382MPD2     H 5714   1.557   0.189   0.076 -0.6538  1.1692 -0.6437
  382MPD2    H1 5715   1.169   0.077   0.202  0.3543 -0.2357 -2.6569
  382MPD2    H2 5716   1.273   0.493   0.164 -2.0220 -0.8983  0.3137
  382MPD2    H3 5717   1.105   0.312   0.225 -0.1235 -0.0730  0.1304
  382MPD2     N 5718   1.406   4.704   0.131 -0.7244  0.1626 -0.1426
  382MPD2    H5 5719   1.336   4.636   0.159 -1.1876  1.3368  1.5734
  382MPD2    N1 5720   1.515   0.453   0.079  0.4311  0.1863 -0.2622
  382MPD2    H7 5721   1.608   0.436   0.042 -0.6329 -1.6253 -2.1257
  383TMC3    C1 5722   1.520   4.505   0.085 -0.1035  0.1653  0.4192
  383TMC3    C2 5723   1.405   4.445   0.056  0.4428  0.7886  0.2814
  383TMC3    C3 5724   1.415   4.310   0.039  0.7334  0.2415  0.4750
  383TMC3    C4 5725   1.640   4.443   0.109  0.5142  0.3772  0.1318
  383TMC3    C5 5726   1.643   4.311   0.101 -0.5222  0.3552  0.7134
  383TMC3    C6 5727   1.531   4.238   0.068 -0.8345 -0.5015 -0.1341
  383TMC3     C 5728   1.523   4.651   0.083 -0.6205 -0.3516 -0.3751
  383TMC3     O 5729   1.626   4.700   0.037  0.8630 -0.7387 -0.1701
  383TMC3     H 5730   1.311   4.498   0.051 -0.6156 -0.9711  1.3497
  383TMC3    H1 5731   1.723   4.506   0.140  1.5288 -0.4682 -0.8445
  383TMC3    H2 5732   1.544   4.133   0.044  1.6583  0.0389 -1.1437
  383TMC3    C7 5733   1.777   4.243   0.066 -0.1176 -0.1404  0.1355
  383TMC3    C8 5734   1.303   4.240  17.680 -0.3142 -0.0286 -0.6369
  383TMC3    O1 5735   1.865   4.323   0.047  0.5009  0.1315  0.0493
  383TMC3    O2 5736   1.192   4.288   0.009 -0.5219  0.0489  0.4683
  384MPD2     C 5737   3.529   1.614  11.632  0.1628  0.1922  0.4881
  384MPD2    C1 5738   3.543   1.501  11.706 -0.3898 -0.2008  0.1247
  384MPD2    C2 5739   3.614   1.388  11.662  0.1765  0.3405  0.1362
  384MPD2    C3 5740   3.674   1.397  11.539  0.2910 -0.2476 -0.6814
  384MPD2    C4 5741   3.668   1.514  11.466 -0.0209  0.3258 -0.2828
  384MPD2    C5 5742   3.599   1.620  11.513  0.1343 -0.0624 -0.0931
  384MPD2     H 5743   3.628   1.298  11.721 -0.5694 -0.3897 -0.7952
  384MPD2    H1 5744   3.734   1.509  11.380  1.4605 -2.2019  0.9980
  384MPD2    H2 5745   3.466   1.698  11.659 -0.1465  0.3574 -0.7444
  384MPD2    H3 5746   3.597   1.717  11.464  1.8577  1.2275  2.3712
  384MPD2     N 5747   3.730   1.276  11.482 -0.2193 -0.1929 -0.2305
  384MPD2    H5 5748   3.737   1.200  11.548 -0.2204  1.6337  1.8476
  384MPD2    N1 5749   3.487   1.493  11.835 -0.7051 -0.2785 -0.0849
  384MPD2    H7 5750   3.515   1.420  11.900  0.1364 -1.3524 -1.6536
  385TMC3    C1 5751   3.819   1.116  11.353 -0.3924 -0.9162 -0.9923
  385TMC3    C2 5752   3.758   1.024  11.275 -0.5422 -0.2724 -0.4265
  385TMC3    C3 5753   3.744   0.895  11.322  0.1488  0.4148  0.3578
  385TMC3    C4 5754   3.875   1.072  11.474  1.5234  0.0897  0.5332
  385TMC3    C5 5755   3.856   0.949  11.529  0.4352  0.6176 -0.5864
  385TMC3    C6 5756   3.794   0.853  11.441 -1.2318 -0.3512  0.4683
  385TMC3     C 5757   3.765   1.247  11.351  0.4286  0.2091  0.4313
  385TMC3     O 5758   3.751   1.308  11.249 -0.2831  0.4390  0.4867
  385TMC3     H 5759   3.714   1.067  11.186  0.7357 -0.9918 -1.4037
  385TMC3    H1 5760   3.936   1.139  11.534 -0.9653  1.5990  1.3490
  385TMC3    H2 5761   3.786   0.750  11.475 -0.0722 -0.0231  1.7401
  385TMC3    C7 5762   3.787   0.972  11.651 -0.0231  0.8894  0.8946
  385TMC3    C8 5763   3.652   0.803  11.265 -0.3493 -0.3295 -0.0567
  385TMC3    O1 5764   3.757   1.084  11.674  0.7075  0.2307  0.5400
  385TMC3    O2 5765   3.583   0.749  11.347  0.1112  0.6464 -0.5994
  386TMC3    C1 5766   4.276   3.347  11.897 -0.8180  1.0213 -0.5003
  386TMC3    C2 5767   4.253   3.326  11.764 -0.1332  1.1037  0.8436
  386TMC3    C3 5768   4.134   3.363  11.714 -0.1441  0.3555 -0.5705
  386TMC3    C4 5769   4.193   3.417  11.975  0.3957 -0.1198  0.2951
  386TMC3    C5 5770   4.075   3.459  11.916 -0.5807  0.1338  1.0701
  386TMC3    C6 5771   4.043   3.432  11.786  0.4228  0.1785  0.0455
  386TMC3     C 5772   4.368   3.284  11.981  1.0838  0.0509 -0.9690
  386TMC3     O 5773   4.438   3.352  12.056  0.1472  0.2178  0.3388
  386TMC3     H 5774   4.330   3.282  11.701 -2.1353 -1.0699 -0.1317
  386TMC3    H1 5775   4.221   3.430  12.080 -0.0830  0.2584  0.3727
  386TMC3    H2 5776   3.953   3.480  11.749  1.4384  0.1104 -2.5115
  386TMC3    C7 5777   3.974   3.500  12.005  0.5919  0.1300 -0.1764
  386TMC3    C8 5778   4.117   3.339  11.568 -0.9988  0.3576  0.3610
  386TMC3    O1 5779   4.023   3.526  12.112  0.0979  0.0169 -0.0120
  386TMC3    O2 5780   4.205   3.273  11.519  0.4995 -0.1385  0.7645
  387MPD2     C 5781   1.575   3.516   9.524  0.3943 -0.8666 -0.0769
  387MPD2    C1 5782   1.586   3.456   9.645  0.4150  0.5988 -0.2610
  387MPD2    C2 5783   1.571   3.321   9.655 -0.4803  0.3542 -0.0855
  387MPD2    C3 5784   1.570   3.231   9.549 -0.7780 -0.0913 -0.2375
  387MPD2    C4 5785   1.575   3.291   9.424 -0.1582  1.1142 -0.3310
  387MPD2    C5 5786   1.588   3.427   9.423 -0.2285 -0.1467 -0.3752
  387MPD2     H 5787   1.590   3.270   9.749 -0.6695  2.6760  1.2031
  387MPD2    H1 5788   1.580   3.228   9.337  0.0840 -0.4093  0.7828
  387MPD2    H2 5789   1.590   3.621   9.503  0.8340 -1.2171 -1.5173
  387MPD2    H3 5790   1.599   3.478   9.328  1.7448  0.6044  0.2531
  387MPD2     N 5791   1.604   3.096   9.581 -0.0722 -0.2723 -0.2135
  387MPD2    H5 5792   1.617   3.070   9.678 -0.7240 -0.2004 -0.1087
  387MPD2    N1 5793   1.600   3.520   9.771  0.1680  0.1973 -0.4229
  387MPD2    H7 5794   1.604   3.457   9.851 -1.6235  0.4396 -0.1458
  388TMC3    C1 5795   1.677   3.689   9.913 -0.2815 -0.8712  0.3204
  388TMC3    C2 5796   1.665   3.814   9.967 -0.7059 -0.7537 -0.5336
  388TMC3    C3 5797   1.740   3.844  10.081 -0.6227 -0.7460 -0.5131
  388TMC3    C4 5798   1.767   3.595   9.968  0.3004  0.2079  0.4984
  388TMC3    C5 5799   1.844   3.634  10.079 -0.0677 -0.2132  1.0674
  388TMC3    C6 5800   1.822   3.750  10.140 -0.4496 -0.0412 -0.7214
  388TMC3     C 5801   1.616   3.658   9.781 -0.5924  0.1046 -0.1717
  388TMC3     O 5802   1.593   3.747   9.702 -0.0506 -0.1113 -0.1601
  388TMC3     H 5803   1.605   3.893   9.924  0.6747  1.3671  1.4788
  388TMC3    H1 5804   1.776   3.496   9.926  0.7990  1.2872 -1.9280
  388TMC3    H2 5805   1.884   3.777  10.225 -0.9550 -0.5702 -0.1862
  388TMC3    C7 5806   1.933   3.531  10.144 -0.6980 -0.0266 -0.4526
  388TMC3    C8 5807   1.733   3.982  10.122 -0.2594  0.6849  0.4760
  388TMC3    O1 5808   1.931   3.542  10.266 -0.4598  0.5388 -0.7052
  388TMC3    O2 5809   1.726   4.061  10.028  0.0345  0.0368  0.2932
  389MPD2     C 5810   1.020   1.323  10.288 -0.1779 -0.1527  1.0880
  389MPD2    C1 5811   0.964   1.199  10.247  0.4751 -0.2099 -0.0718
  389MPD2    C2 5812   0.880   1.123  10.339  0.0348  0.1427 -0.3136
  389MPD2    C3 5813   0.848   1.175  10.461  0.0585  1.0455 -0.0019
  389MPD2    C4 5814   0.905   1.304  10.489  0.0581  0.1280 -0.0576
  389MPD2    C5 5815   0.979   1.375  10.405  0.0471  0.0980  0.0448
  389MPD2     H 5816   0.837   1.031  10.302  1.0575 -0.0381 -1.0605
  389MPD2    H1 5817   0.884   1.341  10.588  0.2848  0.7403 -0.2409
  389MPD2    H2 5818   1.089   1.377  10.224 -0.0695 -0.4423  0.9589
  389MPD2    H3 5819   1.012   1.473  10.438  1.7044 -0.4136 -0.0922
  389MPD2     N 5820   0.761   1.108  10.556  0.0025  0.9352  0.0393
  389MPD2    H5 5821   0.766   1.141  10.652 -3.4478 -0.0322  0.5359
  389MPD2    N1 5822   0.994   1.152  10.120  0.2653 -0.4258  0.0875
  389MPD2    H7 5823   1.064   1.209  10.074  0.0970  1.2528  1.9128
  390TMC3    C1 5824   0.579   1.003  10.639  0.4023 -0.4372  0.5275
  390TMC3    C2 5825   0.649   1.035  10.750 -0.0967 -1.0860  0.0114
  390TMC3    C3 5826   0.581   1.100  10.852 -0.3904  0.0526 -0.5812
  390TMC3    C4 5827   0.454   1.045  10.609  0.2023  0.0972  0.2635
  390TMC3    C5 5828   0.386   1.116  10.708  0.4844  0.6365 -0.2458
  390TMC3    C6 5829   0.452   1.142  10.830  0.6486 -0.6866 -0.0532
  390TMC3     C 5830   0.676   1.010  10.529  0.4580  0.5566  0.3808
  390TMC3     O 5831   0.640   0.979  10.419  0.3376  0.3248  0.0340
  390TMC3     H 5832   0.747   0.995  10.775  0.8951  0.3771 -1.5373
  390TMC3    H1 5833   0.408   1.009  10.518  0.8449 -1.5447  0.5838
  390TMC3    H2 5834   0.420   1.234  10.878  0.8193 -0.1406 -0.9811
  390TMC3    C7 5835   0.246   1.076  10.717  0.2831 -0.7078  0.1711
  390TMC3    C8 5836   0.670   1.193  10.925  0.2971  0.3075  0.4561
  390TMC3    O1 5837   0.191   1.038  10.613 -0.1718 -0.3097  0.3143
  390TMC3    O2 5838   0.766   1.227  10.859 -0.2349  0.3072  0.0431
  391MPD2     C 5839   0.255   2.695  11.369 -0.3315  0.0656  0.2072
  391MPD2    C1 5840   0.318   2.802  11.305 -0.3380 -0.2494  0.1762
  391MPD2    C2 5841   0.259   2.847  11.188  0.1266 -0.1424 -0.3717
  391MPD2    C3 5842   0.148   2.780  11.133 -0.5840  0.6539  0.4357
  391MPD2    C4 5843   0.091   2.673  11.188 -0.3370 -0.4376 -0.4051
  391MPD2    C5 5844   0.142   2.639  11.312  0.1389 -0.5280  0.1059
  391MPD2     H 5845   0.285   2.933  11.128 -1.8354 -0.0853 -1.1430
  391MPD2    H1 5846   0.006   2.620  11.147 -0.2270 -1.5615  0.8279
  391MPD2    H2 5847   0.311   2.659  11.455  0.9166 -0.2834 -0.7470
  391MPD2    H3 5848   0.105   2.556  11.372 -0.6831 -0.0731  0.2301
  391MPD2     N 5849   0.109   2.836  11.004  1.3400 -0.0650 -0.3156
  391MPD2    H5 5850   0.155   2.916  10.962  0.6346  0.2110 -0.5499
  391MPD2    N1 5851   0.434   2.860  11.361  0.0430 -0.1956 -0.1074
  391MPD2    H7 5852   0.462   2.826  11.453  0.8846  0.0639 -0.2637
  392TMC3    C1 5853   4.710   2.846  10.806 -0.1965 -0.3522 -0.1691
  392TMC3    C2 5854   4.592   2.833  10.738  0.2012  0.0087 -0.2595
  392TMC3    C3 5855   4.580   2.876  10.612  1.1013  0.5121  0.1827
  392TMC3    C4 5856   0.094   2.903  10.744  0.1181 -0.0139  0.5446
  392TMC3    C5 5857   0.074   2.958  10.618 -0.1622 -1.0697  0.9146
  392TMC3    C6 5858   4.677   2.948  10.549 -0.3726 -0.0803 -0.0198
  392TMC3     C 5859   0.002   2.788  10.936 -0.8756  0.2543  0.4903
  392TMC3     O 5860   4.641   2.702  10.954  0.3340  0.1568  0.3258
  392TMC3     H 5861   4.506   2.790  10.790  0.2410  0.0474 -0.1606
  392TMC3    H1 5862   0.193   2.885  10.784  1.3379 -2.8822 -3.7300
  392TMC3    H2 5863   4.659   2.980  10.447 -0.1745  0.1872  0.0289
  392TMC3    C7 5864   0.187   3.043  10.579  0.0234 -0.2805 -0.0910
  392TMC3    C8 5865   4.481   2.802  10.536  0.1490 -0.7091  0.2494
  392TMC3    O1 5866   0.281   3.061  10.656 -0.1474  0.5604  0.2652
  392TMC3    O2 5867   4.391   2.745  10.598  0.6959 -0.1918 -0.0046
  393TMC3    C1 5868   4.267   0.920  10.290  0.1485  0.2858  0.3198
  393TMC3    C2 5869   4.138   0.947  10.337 -0.0603 -0.0362  0.1028
  393TMC3    C3 5870   4.059   0.837  10.370 -0.2079  0.1266  0.4976
  393TMC3    C4 5871   4.313   0.794  10.280  0.1133 -0.1090  0.4733
  393TMC3    C5 5872   4.238   0.687  10.320  0.0452 -0.1260 -0.6084
  393TMC3    C6 5873   4.111   0.711  10.369 -0.4218  0.1618 -0.7312
  393TMC3     C 5874   4.336   1.015  10.205 -0.3722 -0.9202  0.2731
  393TMC3     O 5875   4.407   0.971  10.114 -0.7072  0.1053 -0.5694
  393TMC3     H 5876   4.111   1.051  10.347  1.6424  0.5871 -1.5921
  393TMC3    H1 5877   4.419   0.789  10.257  0.0699  0.0514  0.2352
  393TMC3    H2 5878   4.040   0.630  10.383  1.2415 -0.7478  2.1825
  393TMC3    C7 5879   4.281   0.548  10.314 -0.4314  0.0484  0.5131
  393TMC3    C8 5880   3.918   0.854  10.355 -0.5342  0.3456 -0.6097
  393TMC3    O1 5881   4.227   0.458  10.377 -0.1190 -0.0731  0.1635
  393TMC3    O2 5882   3.862   0.759  10.315 -0.2108 -0.2897 -0.3490
  394TMC3    C1 5883   1.023   1.025   9.934 -0.0557 -0.3912  0.3898
  394TMC3    C2 5884   1.044   0.899   9.891  0.6385 -1.3369  0.6414
  394TMC3    C3 5885   1.133   0.876   9.786 -0.2865  0.8232 -0.5862
  394TMC3    C4 5886   1.065   1.136   9.854 -0.0086 -0.4635 -0.0695
  394TMC3    C5 5887   1.164   1.102   9.766  0.2603 -0.2604 -0.0432
  394TMC3    C6 5888   1.211   0.979   9.735 -0.5932  0.1663 -0.1034
  394TMC3     C 5889   0.955   1.037  10.064  0.1692  0.1396 -0.0772
  394TMC3     O 5890   0.889   0.949  10.108 -0.2431 -0.3510  0.2591
  394TMC3     H 5891   1.020   0.825   9.967 -0.8725  0.2679  1.7235
  394TMC3    H1 5892   1.041   1.236   9.889 -0.8403 -0.5015 -0.5127
  394TMC3    H2 5893   1.292   0.973   9.663  1.0427  3.0056  1.5097
  394TMC3    C7 5894   1.234   1.215   9.697 -0.3161  0.1215 -0.3235
  394TMC3    C8 5895   1.201   0.748   9.788 -0.0564  0.1230  0.7992
  394TMC3    O1 5896   1.173   1.317   9.670  0.3036  0.0729 -0.0343
  394TMC3    O2 5897   1.317   0.749   9.755 -0.1170  0.0305  0.1066
  395TMC3    C1 5898   0.630   3.417  14.548  0.3439 -0.4206  0.4034
  395TMC3    C2 5899   0.503   3.457  14.516 -0.2989  0.2083  0.6391
  395TMC3    C3 5900   0.459   3.582  14.532  0.0854  0.8627  0.2952
  395TMC3    C4 5901   0.715   3.519  14.584  0.4649  0.5179  0.3153
  395TMC3    C5 5902   0.679   3.644  14.588  0.3674  0.1663 -0.3333
  395TMC3    C6 5903   0.552   3.679  14.557 -0.3862  0.6272  0.0522
  395TMC3     C 5904   0.622   3.321  14.663 -0.7384  0.3959 -0.5771
  395TMC3     O 5905   0.634   3.364  14.773 -0.1474  0.1443 -0.2432
  395TMC3     H 5906   0.439   3.377  14.480  0.0814  1.2152 -2.3497
  395TMC3    H1 5907   0.814   3.495  14.623  0.0548 -0.2410  0.8999
  395TMC3    H2 5908   0.525   3.783  14.571 -1.1335  0.4848 -0.3334
  395TMC3    C7 5909   0.775   3.746  14.597 -1.1245 -0.0276 -0.6365
  395TMC3    C8 5910   0.338   3.591  14.622  0.1621  0.2536  0.5096
  395TMC3    O1 5911   0.742   3.854  14.649  0.5033 -0.2711 -0.2175
  395TMC3    O2 5912   0.349   3.690  14.689 -0.5406 -0.2380  0.9831
  396MPD2     C 5913   4.287   4.058  16.802  0.0691 -0.0109  0.4699
  396MPD2    C1 5914   4.411   4.011  16.821 -0.0980 -0.0243  0.1010
  396MPD2    C2 5915   4.483   3.977  16.711  0.1862 -0.2544 -0.4370
  396MPD2    C3 5916   4.438   4.017  16.586 -0.0382  0.3609  0.3239
  396MPD2    C4 5917   4.306   4.060  16.569 -0.0458 -0.4383 -0.2276
  396MPD2    C5 5918   4.227   4.076  16.675  0.8314 -0.1680 -0.9064
  396MPD2     H 5919   4.575   3.923  16.731  0.9049  1.3707  0.6317
  396MPD2    H1 5920   4.261   4.064  16.471  0.1398  0.0365 -0.2896
  396MPD2    H2 5921   4.231   4.104  16.882  0.4715  1.4356 -0.0824
  396MPD2    H3 5922   4.125   4.110  16.667  0.7990 -0.3013 -1.0517
  396MPD2     N 5923   4.528   3.993  16.476  0.1889  0.6868 -0.0892
  396MPD2    H5 5924   4.621   3.958  16.496 -1.0810 -4.8456 -4.0329
  396MPD2    N1 5925   4.445   3.983  16.959 -0.6642  0.3980  1.1150
  396MPD2    H7 5926   4.382   4.038  17.016  1.1058  0.8701  2.6259
  397TMC3    C1 5927   4.593   3.932  17.129 -0.2359  0.0672 -0.5327
  397TMC3    C2 5928   4.719   3.880  17.143  0.4544  0.2480  0.6720
  397TMC3    C3 5929   0.028   3.808  17.250 -0.0756 -0.2371  0.3925
  397TMC3    C4 5930   4.497   3.907  17.226  0.2679  0.1085 -0.1526
  397TMC3    C5 5931   4.531   3.832  17.338 -0.2174  0.2531 -0.0798
  397TMC3    C6 5932   4.658   3.787  17.351 -0.3005  0.5285 -0.0782
  397TMC3     C 5933   4.557   3.905  16.991  0.0501 -0.2623  0.9274
  397TMC3     O 5934   4.649   3.857  16.921  0.0176  0.7136 -0.0657
  397TMC3     H 5935   0.076   3.921  17.084  0.5052  1.0953  1.3223
  397TMC3    H1 5936   4.396   3.945  17.218  0.7982  1.0879 -2.2277
  397TMC3    H2 5937   4.681   3.720  17.434  0.5553 -1.4021 -1.8801
  397TMC3    C7 5938   4.443   3.864  17.453 -0.5389  0.0574  0.1236
  397TMC3    C8 5939   0.113   3.693  17.221  0.3655 -0.6920  0.9936
  397TMC3    O1 5940   4.324   3.881  17.443  0.4835 -0.0876 -0.5720
  397TMC3    O2 5941   0.134   3.606  17.301  0.3896 -0.3484  0.3472
  398MPD2     C 5942   2.636   0.374  17.678 -0.2330 -0.3954 -0.1252
  398MPD2    C1 5943   2.737   0.357   0.081  0.2902  0.4653  1.1068
  398MPD2    C2 5944   2.836   0.449   0.094  0.9946 -0.3021 -0.4249
  398MPD2    C3 5945   2.838   0.558   0.010  0.3691  0.3157  0.5035
  398MPD2    C4 5946   2.743   0.567  17.605 -0.1590  0.5544 -0.1033
  398MPD2    C5 5947   2.640   0.476  17.589 -0.2636 -0.0989  0.5604
  398MPD2     H 5948   2.908   0.432   0.173  0.0004 -3.6381 -0.2125
  398MPD2    H1 5949   2.751   0.645  17.530  0.6211  0.6258  0.0486
  398MPD2    H2 5950   2.571   0.289  17.663 -1.7117  0.9125 -1.2446
  398MPD2    H3 5951   2.562   0.478  17.514  1.3373 -1.7385 -1.1671
  398MPD2     N 5952   2.962   0.635   0.012 -0.0644 -0.0530  0.0712
  398MPD2    H5 5953   3.036   0.599   0.071 -0.5083 -1.7077 -0.3684
  398MPD2    N1 5954   2.734   0.259   0.186  0.2859 -0.3968  0.5752
  398MPD2    H7 5955   2.817   0.248   0.244  0.2755  1.1359  0.8852
  399TMC3    C1 5956   2.676   0.063   0.309  0.0740 -0.5942  0.2320
  399TMC3    C2 5957   2.806   0.046   0.342  0.2764  0.0225 -0.2293
  399TMC3    C3 5958   2.830   4.700   0.454  0.9612 -0.3282  0.3185
  399TMC3    C4 5959   2.568   0.013   0.382 -0.3198 -0.0987 -0.8302
  399TMC3    C5 5960   2.606   4.667   0.496 -0.4864  0.0804 -0.9316
  399TMC3    C6 5961   2.738   4.650   0.534 -0.2337  0.2043  0.0677
  399TMC3     C 5962   2.635   0.164   0.213 -0.2861 -0.1105  0.0541
  399TMC3     O 5963   2.518   0.173   0.173  0.5905  1.0542  0.0182
  399TMC3     H 5964   2.875   0.086   0.269 -2.3495  1.8585 -1.7091
  399TMC3    H1 5965   2.469   0.006   0.338 -0.7776  2.4469 -0.2181
  399TMC3    H2 5966   2.763   4.589   0.620  1.5315  0.4857 -0.2329
  399TMC3    C7 5967   2.491   4.623   0.580 -0.2652  0.7513 -0.3298
  399TMC3    C8 5968   2.965   4.721   0.505  0.4021 -0.7020  0.3365
  399TMC3    O1 5969   2.384   4.593   0.527 -0.1120 -0.1069 -0.1499
  399TMC3    O2 5970   3.029   0.083   0.445 -0.5880  0.4139  0.2360
  400TMC3    C1 5971   1.488   3.779  16.860 -0.0818  0.1138  0.4322
  400TMC3    C2 5972   1.354   3.757  16.868 -0.3643 -0.1027 -0.0699
  400TMC3    C3 5973   1.280   3.838  16.952  0.4118  0.4692  0.4716
  400TMC3    C4 5974   1.548   3.864  16.955 -0.0467 -0.3788  0.2671
  400TMC3    C5 5975   1.467   3.943  17.034 -0.1481  0.2414  0.1297
  400TMC3    C6 5976   1.334   3.930  17.038  0.0280 -0.2135  0.6160
  400TMC3     C 5977   1.569   3.667  16.806  0.5467 -0.1212 -0.7969
  400TMC3     O 5978   1.507   3.593  16.735 -0.0495 -0.4058  0.1484
  400TMC3     H 5979   1.312   3.672  16.816 -2.0762  0.6813  0.0332
  400TMC3    H1 5980   1.651   3.899  16.954  0.3393 -1.5508 -0.2521
  400TMC3    H2 5981   1.269   3.987  17.104  0.3265  0.2248  0.5290
  400TMC3    C7 5982   1.536   4.027  17.139 -0.1780 -0.1798  0.7842
  400TMC3    C8 5983   1.132   3.836  16.936  0.0413 -0.5542 -0.1889
  400TMC3    O1 5984   1.644   3.990  17.184 -0.2674 -0.1725  0.1575
  400TMC3    O2 5985   1.067   3.902  17.018 -0.1250  0.1680 -0.5130
  401MPD2     C 5986   0.325   3.335   0.557 -0.3080 -0.3688 -0.4005
  401MPD2    C1 5987   0.388   3.262   0.657  0.4202 -0.6373 -0.2484
  401MPD2    C2 5988   0.402   3.119   0.640 -0.3345  0.0674 -0.3270
  401MPD2    C3 5989   0.361   3.048   0.535  0.1750 -0.6306 -0.0063
  401MPD2    C4 5990   0.314   3.127   0.431 -0.0217  0.3206 -0.0970
  401MPD2    C5 5991   0.291   3.262   0.446 -0.8843 -1.0416  0.0918
  401MPD2     H 5992   0.448   3.071   0.726  3.0222  2.0627 -1.0486
  401MPD2    H1 5993   0.276   3.083   0.339 -0.3175  2.9262 -1.1955
  401MPD2    H2 5994   0.288   3.436   0.574  0.3360 -0.2157  0.0916
  401MPD2    H3 5995   0.238   3.305   0.362 -0.0030 -3.1264 -1.5137
  401MPD2     N 5996   0.381   2.905   0.524  0.6577 -0.0506 -0.1263
  401MPD2    H5 5997   0.438   2.863   0.596 -0.2885  0.0287  0.6752
  401MPD2    N1 5998   0.431   3.311   0.787 -0.0788 -0.5427  0.0568
  401MPD2    H7 5999   0.481   3.246   0.847  2.4958  1.7702  0.4501
  402TMC3    C1 6000   0.368   2.690   0.454 -0.1178  0.1087 -0.3853
  402TMC3    C2 6001   0.381   2.644   0.584  0.2841  0.8414 -0.7534
  402TMC3    C3 6002   0.383   2.506   0.586 -0.3117  0.4363 -0.4380
  402TMC3    C4 6003   0.353   2.614   0.338 -1.3087  0.0385  0.0732
  402TMC3    C5 6004   0.373   2.478   0.351  0.4530 -0.0456 -0.3984
  402TMC3    C6 6005   0.395   2.427   0.477  0.6826  0.2038  0.5169
  402TMC3     C 6006   0.333   2.826   0.430 -0.1676 -0.1794  0.1084
  402TMC3     O 6007   0.268   2.854   0.332 -0.1990  0.3651  0.2113
  402TMC3     H 6008   0.390   2.702   0.676 -1.6631  0.7165 -0.4950
  402TMC3    H1 6009   0.330   2.648   0.238  1.3161 -0.1896 -0.6074
  402TMC3    H2 6010   0.376   2.321   0.490 -1.2288  0.3893 -0.7823
  402TMC3    C7 6011   0.294   2.399   0.261 -1.1123 -0.9326 -0.0417
  402TMC3    C8 6012   0.331   2.435   0.702  0.4125 -0.2603 -0.1820
  402TMC3    O1 6013   0.194   2.447   0.215  0.1157 -0.2901 -0.2553
  402TMC3    O2 6014   0.366   2.320   0.718  0.6917  0.1546  0.2821
  403MPD2     C 6015   2.668   1.597  13.553 -0.3222 -0.3705  0.6542
  403MPD2    C1 6016   2.753   1.534  13.458  0.8560 -0.2137 -0.3131
  403MPD2    C2 6017   2.891   1.556  13.459 -0.3602 -0.4568 -0.3435
  403MPD2    C3 6018   2.942   1.632  13.560  0.4249 -0.1034  0.6052
  403MPD2    C4 6019   2.856   1.705  13.648  0.1735 -0.6208  0.3762
  403MPD2    C5 6020   2.722   1.693  13.633  0.2800  0.0133  0.6869
  403MPD2     H 6021   2.953   1.510  13.382  1.0197  0.7901  0.0164
  403MPD2    H1 6022   2.893   1.758  13.734 -0.5125  0.7737 -0.1850
  403MPD2    H2 6023   2.560   1.585  13.548 -0.4025  0.5524  0.1504
  403MPD2    H3 6024   2.660   1.743  13.707 -1.1162  1.8899 -1.7498
  403MPD2     N 6025   3.080   1.635  13.578 -0.1135  0.5969 -0.3686
  403MPD2    H5 6026   3.137   1.567  13.527 -0.7565  1.1386 -1.8008
  403MPD2    N1 6027   2.687   1.447  13.365 -0.1739  0.1198 -0.6054
  403MPD2    H7 6028   2.592   1.422  13.390 -0.1387  1.5105  0.9070
  404TMC3    C1 6029   2.691   1.286  13.196 -0.2687  1.1326 -0.3103
  404TMC3    C2 6030   2.681   1.180  13.283 -0.3225  0.0139 -0.0241
  404TMC3    C3 6031   2.731   1.061  13.230  0.7239  0.2104  0.0446
  404TMC3    C4 6032   2.723   1.274  13.065  0.1517 -0.7071  0.6233
  404TMC3    C5 6033   2.741   1.147  13.009  1.0760  0.3310 -0.6573
  404TMC3    C6 6034   2.758   1.048  13.093  0.2515 -0.0686  0.5855
  404TMC3     C 6035   2.744   1.409  13.248 -0.1610 -0.0057  0.2984
  404TMC3     O 6036   2.840   1.452  13.186  0.3226 -0.1866  0.1033
  404TMC3     H 6037   2.686   1.199  13.389  1.0572 -0.8419  0.0735
  404TMC3    H1 6038   2.715   1.355  12.994  0.4888 -2.3819 -1.3319
  404TMC3    H2 6039   2.802   0.956  13.056  0.0021 -0.6766  1.7847
  404TMC3    C7 6040   2.794   1.138  12.876 -0.6325 -0.2872 -0.7598
  404TMC3    C8 6041   2.805   0.981  13.316 -0.1815 -0.2685 -0.0506
  404TMC3    O1 6042   2.846   1.243  12.836  0.3196 -0.0740 -0.1934
  404TMC3    O2 6043   2.908   0.942  13.277  0.1326 -0.2082 -0.0936
  405MPD2     C 6044   3.372   2.227  14.620  0.2647  0.8224  0.0894
  405MPD2    C1 6045   3.474   2.159  14.552 -0.3809 -0.2322  0.0551
  405MPD2    C2 6046   3.439   2.100  14.434 -0.0078  0.3350 -0.2735
  405MPD2    C3 6047   3.309   2.102  14.388  0.2516  0.4090 -0.5891
  405MPD2    C4 6048   3.211   2.179  14.449 -0.1455  1.0288  0.1352
  405MPD2    C5 6049   3.241   2.236  14.573  0.6970 -1.3109  0.0456
  405MPD2     H 6050   3.515   2.038  14.388 -1.3146 -1.6457  0.2489
  405MPD2    H1 6051   3.109   2.173  14.413 -0.5358 -0.8042  1.5304
  405MPD2    H2 6052   3.391   2.265  14.720 -0.0617  2.0473 -0.3089
  405MPD2    H3 6053   3.166   2.287  14.634 -1.9580 -1.9143 -2.7145
  405MPD2     N 6054   3.292   2.031  14.266 -0.0972 -0.1191 -0.6409
  405MPD2    H5 6055   3.381   2.002  14.229 -0.3012 -0.0189 -1.2181
  405MPD2    N1 6056   3.601   2.150  14.617 -1.1908 -0.8596  0.1032
  405MPD2    H7 6057   3.616   2.186  14.711  2.1293 -2.0776  0.0646
  406TMC3    C1 6058   3.115   1.699  14.035 -0.0930  0.3599 -0.1715
  406TMC3    C2 6059   3.230   1.635  14.026  0.2264 -0.2923  0.0172
  406TMC3    C3 6060   3.337   1.717  14.059 -0.0060  0.9906 -0.4184
  406TMC3    C4 6061   3.095   1.826  14.082  0.5683  0.0478  0.5541
  406TMC3    C5 6062   3.200   1.900  14.108  0.1511  0.0423  0.1558
  406TMC3    C6 6063   3.323   1.849  14.098  0.7213  0.2269 -0.0886
  406TMC3     C 6064   2.986   1.623  14.015  0.7943 -0.3576  0.7916
  406TMC3     O 6065   2.983   1.540  13.922 -0.6956  0.0894 -0.3555
  406TMC3     H 6066   3.238   1.531  13.996  0.3785  0.0407 -1.1009
  406TMC3    H1 6067   2.993   1.865  14.083  0.6859  0.3642 -0.1553
  406TMC3    H2 6068   3.396   1.915  14.054  1.2792  0.0683  0.5988
  406TMC3    C7 6069   3.178   2.021  14.185  0.0398 -0.2307  0.1616
  406TMC3    C8 6070   3.463   1.649  14.072 -0.5032  0.6875 -0.1567
  406TMC3    O1 6071   3.070   2.076  14.197 -0.6386  0.0036  0.8064
  406TMC3    O2 6072   3.456   1.528  14.043  0.7103  0.3434  0.2292
  407MPD2     C 6073   1.106   2.936   9.194  0.3503  0.0411 -0.0522
  407MPD2    C1 6074   1.213   2.946   9.267  0.3854 -0.2048 -0.0068
  407MPD2    C2 6075   1.214   2.936   9.404 -0.0193 -0.3850 -0.0931
  407MPD2    C3 6076   1.095   2.915   9.478  0.1024 -0.3224 -0.5177
  407MPD2    C4 6077   0.976   2.899   9.404 -0.1229  0.7620 -0.7160
  407MPD2    C5 6078   0.989   2.901   9.264  0.0372 -0.3896  0.3903
  407MPD2     H 6079   1.311   2.941   9.452 -0.2770 -0.2396  0.4183
  407MPD2    H1 6080   0.889   2.862   9.457  0.6540  2.4266  1.7189
  407MPD2    H2 6081   1.112   2.926   9.087 -0.4787  1.7981 -0.2584
  407MPD2    H3 6082   0.905   2.885   9.198 -0.2271 -2.2268  1.1756
  407MPD2     N 6083   1.099   2.902   9.619 -0.4841 -0.3578 -0.2800
  407MPD2    H5 6084   1.189   2.885   9.662 -1.2989 -2.2871  0.6602
  407MPD2    N1 6085   1.342   2.962   9.218 -0.3078  0.4236  0.1059
  407MPD2    H7 6086   1.424   2.941   9.275 -0.4599 -0.8185 -0.1311
  408TMC3    C1 6087   1.503   3.011   9.053 -0.4684 -0.2061 -0.2920
  408TMC3    C2 6088   1.587   2.915   9.092  0.0230 -0.6839 -0.3649
  408TMC3    C3 6089   1.723   2.936   9.094  0.2884  0.8268  1.0634
  408TMC3    C4 6090   1.548   3.140   9.022 -0.5101  0.7825  0.4183
  408TMC3    C5 6091   1.683   3.159   9.045 -0.3786 -0.4376  0.0618
  408TMC3    C6 6092   1.773   3.060   9.084  0.2427  0.1409  1.1420
  408TMC3     C 6093   1.363   3.002   9.088  1.1524  1.1920  0.3314
  408TMC3     O 6094   1.286   3.060   9.014 -0.1552 -0.1245 -0.2272
  408TMC3     H 6095   1.542   2.818   9.112  0.9751 -0.1930  4.1602
  408TMC3    H1 6096   1.488   3.228   9.000 -0.7604  0.3346 -0.6769
  408TMC3    H2 6097   1.879   3.084   9.085  0.1297  0.7641 -1.7509
  408TMC3    C7 6098   1.731   3.291   9.078 -0.6979 -0.3722 -0.3308
  408TMC3    C8 6099   1.801   2.820   9.135 -0.5394  0.1009 -0.3412
  408TMC3    O1 6100   1.817   3.302   9.161 -0.0181 -0.4107  0.0490
  408TMC3    O2 6101   1.748   2.712   9.106 -0.0007 -0.2031  0.8002
  409MPD2     C 6102   0.152   3.455   0.053 -0.3700  0.1836 -0.1509
  409MPD2    C1 6103   0.286   3.481   0.066 -0.2096  0.1143  0.0650
  409MPD2    C2 6104   0.332   3.610   0.050 -0.1456  0.6638 -0.0009
  409MPD2    C3 6105   0.253   3.710  17.694 -0.1349 -0.8607 -0.3286
  409MPD2    C4 6106   0.121   3.681  17.681  0.4969  0.4508 -0.0915
  409MPD2    C5 6107   0.073   3.558   0.012  0.3066 -0.8246 -0.5350
  409MPD2     H 6108   0.438   3.628   0.065  0.4291 -1.9514 -1.0320
  409MPD2    H1 6109   0.049   3.759  17.656 -1.2560 -0.4074  2.2172
  409MPD2    H2 6110   0.110   3.356   0.056 -0.3982  0.2507  1.5807
  409MPD2    H3 6111   4.690   3.543  17.684  0.1900  0.6928 -1.0100
  409MPD2     N 6112   0.299   3.835  17.654 -0.1215  0.7011 -0.8460
  409MPD2    H5 6113   0.229   3.901  17.622 -0.6909  0.7681  0.5714
  409MPD2    N1 6114   0.379   3.379   0.090  0.6271 -0.2059 -0.6793
  409MPD2    H7 6115   0.470   3.417   0.111  0.1157 -0.1173  1.4537
  410TMC3    C1 6116   0.439   3.999  17.580 -0.3549  0.1830  0.8904
  410TMC3    C2 6117   0.568   4.052  17.602  0.3658  0.2416 -0.2125
  410TMC3    C3 6118   0.645   4.089  17.497  0.8843  0.4288  0.4173
  410TMC3    C4 6119   0.391   3.978  17.451  0.1316 -0.0093 -0.5796
  410TMC3    C5 6120   0.470   4.026  17.352 -0.0990  0.0428  0.0183
  410TMC3    C6 6121   0.596   4.074  17.367  0.6338  0.3521  0.2736
  410TMC3     C 6122   0.428   3.876  17.654  0.7386  0.4788 -0.1268
  410TMC3     O 6123   0.531   3.817  17.682  0.1402 -0.2030 -0.4198
  410TMC3     H 6124   0.614   4.052   0.006  1.9789  0.7093 -0.9713
  410TMC3    H1 6125   0.295   3.937  17.423 -0.2235  0.8564 -0.6118
  410TMC3    H2 6126   0.662   4.078  17.281  0.9105  0.3924  0.4876
  410TMC3    C7 6127   0.435   3.972  17.220 -0.6710 -0.6311  0.2589
  410TMC3    C8 6128   0.785   4.117  17.525  0.3698  0.8785  0.2402
  410TMC3    O1 6129   0.363   3.872  17.219 -0.0601 -0.2163  0.2564
  410TMC3    O2 6130   0.824   4.197  17.611  0.3405  0.2724 -0.0947
  411MPD2     C 6131   1.155   4.564  14.391 -0.1043 -0.1750  0.5517
  411MPD2    C1 6132   1.027   4.539  14.363  0.0041  0.0037  0.0133
  411MPD2    C2 6133   0.999   4.417  14.312 -0.2289 -0.7008  0.0190
  411MPD2    C3 6134   1.093   4.314  14.304 -0.5792 -0.2220 -0.2826
  411MPD2    C4 6135   1.223   4.338  14.336 -0.0443 -0.2218 -0.0031
  411MPD2    C5 6136   1.248   4.467  14.369  0.4739  0.3012 -0.0432
  411MPD2     H 6137   0.895   4.393  14.291 -0.0172 -3.0653  1.6732
  411MPD2    H1 6138   1.303   4.270  14.311  0.6730 -0.1577  2.1190
  411MPD2    H2 6139   1.182   4.664  14.423  2.4829 -0.6488 -0.1757
  411MPD2    H3 6140   1.353   4.494  14.371  0.6448 -0.4397  0.9590
  411MPD2     N 6141   1.063   4.173  14.276 -0.7108 -0.1947 -0.5556
  411MPD2    H5 6142   1.139   4.111  14.251 -0.8055 -1.3871  2.0732
  411MPD2    N1 6143   0.927   4.641  14.368 -0.6843  0.1508 -0.1343
  411MPD2    H7 6144   0.934   0.000  14.427  0.0684 -0.0813  0.1007
  412TMC3    C1 6145   0.918   3.989  14.230 -0.2315  0.2587  0.0129
  412TMC3    C2 6146   0.820   3.918  14.284 -0.7557  0.0576  0.3224
  412TMC3    C3 6147   0.761   3.821  14.207  0.6678 -0.1286  0.6033
  412TMC3    C4 6148   0.951   3.976  14.097  0.2275 -0.0888  0.1900
  412TMC3    C5 6149   0.875   3.888  14.027  0.7534 -0.5184 -0.4356
  412TMC3    C6 6150   0.796   3.795  14.078 -0.3132  0.4289  0.1811
  412TMC3     C 6151   0.938   4.118  14.298 -0.3825 -0.3617  0.0410
  412TMC3     O 6152   0.835   4.164  14.347 -0.1607 -0.3278  0.0405
  412TMC3     H 6153   0.796   3.935  14.388 -2.7993  1.4494 -0.3793
  412TMC3    H1 6154   1.011   4.053  14.051 -1.2480  2.0205  1.7986
  412TMC3    H2 6155   0.736   3.731  14.014  1.5171 -0.1778 -0.9136
  412TMC3    C7 6156   0.816   3.964  13.915 -0.9245  0.4664  0.3836
  412TMC3    C8 6157   0.621   3.807  14.239 -1.2208  0.7525  0.0348
  412TMC3    O1 6158   0.891   4.047  13.867 -1.0761  0.1344 -0.5876
  412TMC3    O2 6159   0.570   3.903  14.302  0.1022  0.1764 -0.8248
  413MPD2     C 6160   2.546   3.096  15.296 -0.4712  0.0040  0.4371
  413MPD2    C1 6161   2.453   2.998  15.278 -0.2806  0.4791 -0.1556
  413MPD2    C2 6162   2.497   2.864  15.284  0.6210  0.0925  1.0481
  413MPD2    C3 6163   2.630   2.833  15.290  0.4842 -0.7667 -0.8015
  413MPD2    C4 6164   2.722   2.933  15.297 -0.3922  0.5913 -0.1437
  413MPD2    C5 6165   2.678   3.059  15.303  0.0612  0.3250 -1.0560
  413MPD2     H 6166   2.423   2.787  15.263 -0.2078  0.9111  0.9800
  413MPD2    H1 6167   2.828   2.914  15.308 -0.8357 -0.6959  1.7774
  413MPD2    H2 6168   2.528   3.203  15.307  0.2217  0.2078 -0.4071
  413MPD2    H3 6169   2.743   3.146  15.303  0.1954  0.2058  2.1861
  413MPD2     N 6170   2.657   2.699  15.291  0.7436 -0.0710  0.7960
  413MPD2    H5 6171   2.581   2.631  15.285  1.7051 -0.9706 -0.8830
  413MPD2    N1 6172   2.325   3.048  15.248  0.7359 -0.4238 -0.6897
  413MPD2    H7 6173   2.296   3.146  15.255 -0.3990 -0.8427  0.5118
  414TMC3    C1 6174   2.768   2.508  15.269 -0.6745  0.1152  0.2197
  414TMC3    C2 6175   2.849   2.431  15.345  0.5079 -0.4468 -0.6915
  414TMC3    C3 6176   2.838   2.296  15.333  0.0141 -0.0028 -0.2809
  414TMC3    C4 6177   2.663   2.459  15.203  0.2080 -1.2322  0.4488
  414TMC3    C5 6178   2.663   2.322  15.185 -0.4089 -0.0204 -0.5079
  414TMC3    C6 6179   2.743   2.239  15.254  0.4644 -0.4401 -0.1856
  414TMC3     C 6180   2.790   2.648  15.287 -0.1084  0.2237  1.0527
  414TMC3     O 6181   2.901   2.705  15.301 -0.4627  0.6672 -0.6593
  414TMC3     H 6182   2.928   2.485  15.396 -1.1996  0.7340  0.6958
  414TMC3    H1 6183   2.622   2.520  15.123  0.9028 -1.5308 -0.1369
  414TMC3    H2 6184   2.743   2.131  15.243 -0.2365 -0.7091  2.2790
  414TMC3    C7 6185   2.602   2.265  15.063 -0.5032  0.6029  0.4185
  414TMC3    C8 6186   2.953   2.210  15.357  0.6071  0.1306 -0.2399
  414TMC3    O1 6187   2.491   2.315  15.050  1.1271 -0.3647  0.3432
  414TMC3    O2 6188   2.943   2.092  15.334  0.3977 -0.1475 -0.2711
  415TMC3    C1 6189   4.589   0.347   9.575 -0.0380  0.3112 -0.5747
  415TMC3    C2 6190   4.628   0.216   9.601 -0.1356 -0.3299 -0.9296
  415TMC3    C3 6191   4.554   0.114   9.543  1.0459 -0.1122  0.8745
  415TMC3    C4 6192   4.484   0.376   9.485 -0.1218 -0.2862 -0.2879
  415TMC3    C5 6193   4.432   0.272   9.418 -0.0778 -0.6040 -0.4196
  415TMC3    C6 6194   4.465   0.142   9.448  0.2069  0.2653 -0.1074
  415TMC3     C 6195   4.677   0.450   9.616  0.3785 -0.2946 -0.4866
  415TMC3     O 6196   0.075   0.431   9.628 -0.2900 -0.2999  0.0421
  415TMC3     H 6197   4.711   0.194   9.667 -0.7023 -0.1197 -0.1425
  415TMC3    H1 6198   4.458   0.480   9.470 -4.2098 -1.3421 -0.4932
  415TMC3    H2 6199   4.409   0.062   9.401  0.7292 -1.1232  1.6284
  415TMC3    C7 6200   4.340   0.296   9.314 -0.4623  0.0525  0.1236
  415TMC3    C8 6201   4.596   4.693   9.539 -0.5299  0.4158  0.2431
  415TMC3    O1 6202   4.267   0.202   9.270 -0.7139  0.5435 -0.2307
  415TMC3    O2 6203   4.508   4.613   9.521 -0.3414 -0.1668  0.0010
  416MPD2     C 6204   0.212   4.448  11.265 -0.2418  1.1577  0.1350
  416MPD2    C1 6205   0.132   4.400  11.372 -0.7805 -0.2388  0.6361
  416MPD2    C2 6206   0.076   4.273  11.369 -0.0746  0.0947 -0.2195
  416MPD2    C3 6207   0.090   4.199  11.250  0.0104 -0.4196 -0.1462
  416MPD2    C4 6208   0.163   4.247  11.138 -0.2925 -0.0994  1.1007
  416MPD2    C5 6209   0.220   4.374  11.148 -0.3639  1.0490  0.0271
  416MPD2     H 6210   0.013   4.238  11.450 -0.6207  0.9318 -0.2837
  416MPD2    H1 6211   0.171   4.193  11.044  0.2152 -0.7563  1.5203
  416MPD2    H2 6212   0.260   4.545  11.270 -0.4280  1.3930 -2.2999
  416MPD2    H3 6213   0.291   4.400  11.071  0.8697  0.2295  0.8885
  416MPD2     N 6214   0.027   4.079  11.232  0.2586 -0.1966  0.1826
  416MPD2    H5 6215   0.031   4.033  11.141 -1.3565 -0.1400  0.0775
  416MPD2    N1 6216   0.109   4.487  11.478 -0.0570 -0.1121  0.7545
  416MPD2    H7 6217   0.143   4.582  11.471 -0.0630 -0.1857 -0.2714
  417TMC3    C1 6218   0.023   4.596  11.666 -0.3663  0.6042 -0.1395
  417TMC3    C2 6219   4.695   4.581  11.792  0.8341  0.8061  0.3107
  417TMC3    C3 6220   4.615   4.686  11.830 -0.6979  0.3353 -0.5185
  417TMC3    C4 6221   0.001   4.707  11.590 -0.2718  0.2265  0.9290
  417TMC3    C5 6222   4.648   0.082  11.634  0.0957 -0.1636 -0.1114
  417TMC3    C6 6223   4.589   0.078  11.755 -0.3740 -0.1123  0.3874
  417TMC3     C 6224   0.035   4.468  11.589  0.0846 -0.4208 -0.0174
  417TMC3     O 6225   0.014   4.364  11.658  0.8975  0.6932 -0.2408
  417TMC3     H 6226   4.720   4.498  11.857  0.4032  0.9489  0.6633
  417TMC3    H1 6227   0.061   4.715  11.500  1.3132  0.4652  2.0036
  417TMC3    H2 6228   4.539   0.166  11.795 -0.6683  0.5372 -1.3805
  417TMC3    C7 6229   4.567   0.124  11.519 -0.2472 -0.5500  0.3652
  417TMC3    C8 6230   4.556   4.680  11.964 -0.0702  0.1848 -0.3108
  417TMC3    O1 6231   4.620   0.107  11.408 -0.3951 -0.0634  0.3820
  417TMC3    O2 6232   4.516   0.067  12.002  0.9377 -0.2108 -0.7717
  418TMC3    C1 6233   3.340   0.813  17.637  0.1228 -0.2946 -0.0752
  418TMC3    C2 6234   3.212   0.822  17.596 -0.2057 -0.0497  0.0422
  418TMC3    C3 6235   3.107   0.820  17.685  0.5123  0.0140  0.6738
  418TMC3    C4 6236   3.373   0.822   0.075 -0.3344 -0.1151 -0.4389
  418TMC3    C5 6237   3.266   0.813   0.164 -0.6612  0.7917 -0.3644
  418TMC3    C6 6238   3.137   0.805   0.121 -0.2206 -0.3459  0.0000
  418TMC3     C 6239   3.435   0.779  17.536 -0.0546  0.3875 -0.4337
  418TMC3     O 6240   3.423   0.824  17.421  0.4049 -0.3959 -0.3050
  418TMC3     H 6241   3.191   0.808  17.490 -0.4206  2.1118 -0.2065
  418TMC3    H1 6242   3.476   0.828   0.107 -0.6989  0.9828  0.5250
  418TMC3    H2 6243   3.055   0.801   0.191 -1.7456 -2.4875 -1.9221
  418TMC3    C7 6244   3.280   0.781   0.312  0.6550 -1.0340  0.6941
  418TMC3    C8 6245   2.986   0.757  17.636 -0.1314  0.2010 -0.4104
  418TMC3    O1 6246   3.202   0.699   0.357 -0.1358 -0.6656  0.3943
  418TMC3    O2 6247   2.920   0.804  17.546  0.4157  0.0106  0.1891
  419MPD2     C 6248   2.340   3.975  12.552 -0.4726 -0.0380 -0.6130
  419MPD2    C1 6249   2.235   4.062  12.542 -0.5699  0.6731 -0.1087
  419MPD2    C2 6250   2.188   4.129  12.654 -0.1635  0.5729 -0.2982
  419MPD2    C3 6251   2.253   4.115  12.771 -0.0127  0.2574  0.3192
  419MPD2    C4 6252   2.363   4.036  12.775  1.0930 -0.2221  0.1348
  419MPD2    C5 6253   2.408   3.963  12.669  0.5384  0.5436  0.1276
  419MPD2     H 6254   2.098   4.188  12.643 -0.1784  0.2325 -1.9151
  419MPD2    H1 6255   2.411   4.009  12.868 -2.0169 -0.5424  1.6641
  419MPD2    H2 6256   2.380   3.922  12.467  1.7166  1.4904 -0.5375
  419MPD2    H3 6257   2.490   3.894  12.683  0.4643  0.0724 -1.8206
  419MPD2     N 6258   2.201   4.192  12.880 -0.6683  0.1299  0.4766
  419MPD2    H5 6259   2.120   4.251  12.862 -0.6700  0.2646  0.9194
  419MPD2    N1 6260   2.169   4.091  12.416 -0.7442  0.1213  0.8644
  419MPD2    H7 6261   2.109   4.173  12.417 -2.0710 -0.8421 -0.9314
  420TMC3    C1 6262   2.163   4.271  13.094 -0.5679  0.7053  0.9393
  420TMC3    C2 6263   2.029   4.282  13.062  0.0954  0.8153 -0.4124
  420TMC3    C3 6264   1.942   4.342  13.152 -0.6490 -0.2921 -0.6813
  420TMC3    C4 6265   2.200   4.299  13.220  0.2089 -0.3262  0.0489
  420TMC3    C5 6266   2.115   4.359  13.309 -0.2110 -0.0014 -0.1212
  420TMC3    C6 6267   1.984   4.382  13.278 -0.1763  0.2830 -0.5295
  420TMC3     C 6268   2.246   4.191  13.012  0.3000  0.6025 -0.8886
  420TMC3     O 6269   2.352   4.154  13.065  0.0288 -0.8554  0.7105
  420TMC3     H 6270   1.981   4.269  12.966  1.2008 -1.6209 -0.6297
  420TMC3    H1 6271   2.303   4.283  13.250  0.4253  0.8282 -0.0609
  420TMC3    H2 6272   1.926   4.433  13.353  2.1850  2.5266 -0.2022
  420TMC3    C7 6273   2.153   4.399  13.451 -0.0498  0.2722 -0.2157
  420TMC3    C8 6274   1.838   4.418  13.086  0.5540  0.6100 -0.1494
  420TMC3    O1 6275   2.060   4.415  13.528 -0.0411 -0.3833  0.3616
  420TMC3    O2 6276   1.857   4.460  12.975  0.2543 -0.7674 -0.1684
  421TMC3    C1 6277   3.294   1.683  13.683  0.1999  0.7675  0.0503
  421TMC3    C2 6278   3.379   1.789  13.718  0.9116 -0.5393  0.2778
  421TMC3    C3 6279   3.510   1.758  13.732 -0.7348 -0.0997 -0.3509
  421TMC3    C4 6280   3.340   1.559  13.649  0.1010 -0.3065  0.1261
  421TMC3    C5 6281   3.475   1.540  13.668 -0.0279 -0.1910  0.6203
  421TMC3    C6 6282   3.564   1.639  13.709  0.0313 -1.2909  0.4574
  421TMC3     C 6283   3.157   1.723  13.659  0.2494 -0.2462  0.7506
  421TMC3     O 6284   3.109   1.814  13.722 -0.1205  0.2752 -0.5791
  421TMC3     H 6285   3.331   1.879  13.754  2.1680  0.7716 -1.3362
  421TMC3    H1 6286   3.270   1.478  13.635  0.0663 -0.3354  0.4592
  421TMC3    H2 6287   3.669   1.623  13.725  0.6442  2.2307 -0.0708
  421TMC3    C7 6288   3.536   1.414  13.657 -0.3993 -0.2989  0.4246
  421TMC3    C8 6289   3.590   1.875  13.778  0.4436 -0.6293 -0.4437
  421TMC3    O1 6290   3.652   1.405  13.698 -0.2599 -0.3066  0.0922
  421TMC3    O2 6291   3.548   1.982  13.738 -0.1537 -0.2450 -0.2952
  422TMC3    C1 6292   0.930   2.313  12.813 -0.6805 -0.1709 -0.1472
  422TMC3    C2 6293   0.920   2.402  12.919 -0.1897  0.5012 -0.5238
  422TMC3    C3 6294   0.818   2.395  13.007  0.8579 -0.2627  0.7329
  422TMC3    C4 6295   0.834   2.220  12.798  0.0441 -0.4727  0.5884
  422TMC3    C5 6296   0.732   2.211  12.890 -0.4059  0.6116  0.4126
  422TMC3    C6 6297   0.713   2.296  12.997  1.1941 -0.2730  0.8087
  422TMC3     C 6298   1.016   2.360  12.703  0.0805 -0.2735  0.5069
  422TMC3     O 6299   1.074   2.469  12.725  0.5053  0.1132 -0.1245
  422TMC3     H 6300   0.997   2.476  12.939 -1.9505  1.8937  1.1184
  422TMC3    H1 6301   0.821   2.169  12.703  0.1894  0.4600  0.0663
  422TMC3    H2 6302   0.625   2.280  13.058 -1.0389  0.1680 -2.3154
  422TMC3    C7 6303   0.629   2.119  12.853 -0.6348 -0.5014 -0.1293
  422TMC3    C8 6304   0.813   2.512  13.100 -0.6947  0.3232 -0.3017
  422TMC3    O1 6305   0.666   2.029  12.785 -0.3311  0.9206 -0.2445
  422TMC3    O2 6306   0.917   2.565  13.130 -0.0957 -0.3272  0.3381
  423MPD2     C 6307   1.609   3.260  17.672  0.3332  0.3684  0.5053
  423MPD2    C1 6308   1.687   3.189   0.061  1.0590 -0.0027 -0.0315
  423MPD2    C2 6309   1.771   3.092   0.012  0.7697  0.1777 -0.3183
  423MPD2    C3 6310   1.785   3.075  17.565 -0.3806 -0.3461  0.0108
  423MPD2    C4 6311   1.704   3.149  17.483  0.3416  0.3129  0.0186
  423MPD2    C5 6312   1.618   3.242  17.535 -0.0573 -0.5802 -0.1579
  423MPD2     H 6313   1.829   3.039   0.086 -1.3432  0.8345  1.8198
  423MPD2    H1 6314   1.709   3.127  17.377 -1.5447  0.8133 -0.1680
  423MPD2    H2 6315   1.547   3.340   0.016 -0.1347 -0.3669  1.3199
  423MPD2    H3 6316   1.544   3.289  17.471  1.1381  0.5367 -0.6999
  423MPD2     N 6317   1.878   2.992  17.514 -0.1109  0.2739 -0.0834
  423MPD2    H5 6318   1.911   2.999  17.419 -2.6208  0.8081 -0.9080
  423MPD2    N1 6319   1.696   3.209   0.198 -0.1204  0.2233  0.7460
  423MPD2    H7 6320   1.750   3.143   0.253 -0.7346  1.6970  3.1289
  424TMC3    C1 6321   1.636   3.278   0.419 -0.4144 -0.2844 -0.4662
  424TMC3    C2 6322   1.732   3.200   0.474  0.5193  0.5870 -0.2115
  424TMC3    C3 6323   1.727   3.185   0.608  1.0497  0.3284 -0.7438
  424TMC3    C4 6324   1.527   3.328   0.487  0.1547 -0.3716  0.6712
  424TMC3    C5 6325   1.524   3.295   0.623 -0.1636 -0.0047  1.2302
  424TMC3    C6 6326   1.614   3.213   0.681  0.2876 -0.1458  0.0152
  424TMC3     C 6327   1.639   3.307   0.274  0.3700  0.4702  0.2963
  424TMC3     O 6328   1.588   3.413   0.238  0.1787  0.0898 -0.5697
  424TMC3     H 6329   1.812   3.152   0.419 -0.8680 -0.1890 -1.5474
  424TMC3    H1 6330   1.445   3.371   0.431  0.9390  0.9693  0.5532
  424TMC3    H2 6331   1.613   3.193   0.787 -0.1792 -1.9055 -0.3165
  424TMC3    C7 6332   1.421   3.358   0.703 -0.5237  0.0990 -0.0144
  424TMC3    C8 6333   1.822   3.089   0.660 -0.3561 -0.2809 -0.0887
  424TMC3    O1 6334   1.352   3.442   0.646  0.0844 -0.1989 -0.1562
  424TMC3    O2 6335   1.868   3.000   0.589 -0.2978  0.3787 -0.4862
  425MPD2     C 6336   1.376   2.424  17.233 -0.1387  0.1987  0.2372
  425MPD2    C1 6337   1.327   2.338  17.328  0.5425  0.2573  0.2614
  425MPD2    C2 6338   1.243   2.390  17.424 -0.7712  0.5012  0.5263
  425MPD2    C3 6339   1.177   2.507  17.402 -0.1243 -0.1061  0.3308
  425MPD2    C4 6340   1.234   2.602  17.318 -0.6047  0.3851  0.4018
  425MPD2    C5 6341   1.339   2.557  17.243 -0.8670  0.3193 -0.0195
  425MPD2     H 6342   1.197   2.317  17.491 -1.6199 -0.1932 -0.8177
  425MPD2    H1 6343   1.180   2.691  17.288 -0.4803  0.4762  0.4436
  425MPD2    H2 6344   1.454   2.398  17.162  2.3109  2.2410  2.1675
  425MPD2    H3 6345   1.389   2.621  17.171  3.3384 -0.2798  2.3574
  425MPD2     N 6346   1.055   2.529  17.465 -0.0585  0.0524 -0.8792
  425MPD2    H5 6347   1.013   2.444  17.500 -1.4257  0.7798 -0.7239
  425MPD2    N1 6348   1.380   2.202  17.332  0.0171 -0.1835  0.0776
  425MPD2    H7 6349   1.442   2.175  17.257 -0.8203 -1.7257 -0.0570
  426TMC3    C1 6350   1.360   1.964  17.378 -0.6175  1.1214 -0.7565
  426TMC3    C2 6351   1.372   1.937  17.241  0.3493  0.6130 -0.3283
  426TMC3    C3 6352   1.334   1.815  17.190 -0.7718 -0.4426 -0.4727
  426TMC3    C4 6353   1.312   1.869  17.464  0.1902  0.8163  0.0460
  426TMC3    C5 6354   1.297   1.741  17.413 -0.1291 -0.4685 -0.2581
  426TMC3    C6 6355   1.315   1.716  17.277 -0.6717 -0.8299 -0.7082
  426TMC3     C 6356   1.343   2.102  17.422 -0.2645  0.4396  0.1860
  426TMC3     O 6357   1.290   2.116  17.533  0.0848  0.6351 -0.2223
  426TMC3     H 6358   1.391   2.014  17.167 -0.3672  1.0141 -0.0991
  426TMC3    H1 6359   1.298   1.898  17.568  0.6288 -1.5615  0.7677
  426TMC3    H2 6360   1.294   1.615  17.242 -2.3149 -0.1174 -1.7921
  426TMC3    C7 6361   1.233   1.643  17.499 -0.0985  0.2160  0.6424
  426TMC3    C8 6362   1.338   1.785  17.049  0.6937 -0.3165 -0.4929
  426TMC3    O1 6363   1.234   1.525  17.464 -0.5886 -0.1519 -0.0180
  426TMC3    O2 6364   1.366   1.670  17.021 -0.7257 -0.5399 -0.2539
  427MPD2     C 6365   4.581   4.320  14.654  0.3108 -0.1909 -0.3171
  427MPD2    C1 6366   4.570   4.313  14.789 -0.3538 -0.0500 -0.5006
  427MPD2    C2 6367   4.451   4.354  14.850 -0.0777 -0.2919  0.1041
  427MPD2    C3 6368   4.345   4.403  14.780 -0.2702 -0.0130 -0.8157
  427MPD2    C4 6369   4.363   4.419  14.647  0.1733 -0.9111 -0.1802
  427MPD2    C5 6370   4.476   4.384  14.585 -0.2551  0.6073 -0.0667
  427MPD2     H 6371   4.442   4.325  14.954 -0.2900  1.1930  0.5056
  427MPD2    H1 6372   4.284   4.467  14.592  0.2803 -0.3268  0.1756
  427MPD2    H2 6373   4.672   4.301  14.598  0.0330 -1.1712 -0.4227
  427MPD2    H3 6374   4.479   4.386  14.476 -0.7648  0.2482 -0.0885
  427MPD2     N 6375   4.232   4.465  14.832  0.3551 -0.1882 -0.1960
  427MPD2    H5 6376   4.165   4.498  14.762  1.7581  0.3312 -1.2912
  427MPD2    N1 6377   4.669   4.254  14.873  0.1089 -0.2267 -0.2519
  427MPD2    H7 6378   4.661   4.253  14.974  0.1647  0.1733 -0.2433
  428TMC3    C1 6379   0.157   4.171  14.930  0.5469  0.1750 -0.1919
  428TMC3    C2 6380   0.109   4.081  15.023 -0.5823  0.3078  0.5747
  428TMC3    C3 6381   0.210   3.998  15.075  0.8332  0.2335 -0.9555
  428TMC3    C4 6382   0.287   4.189  14.892  0.1147 -0.1233 -0.0523
  428TMC3    C5 6383   0.380   4.116  14.966  0.1471 -0.3989 -0.1097
  428TMC3    C6 6384   0.343   4.020  15.053  0.1490  0.5717  0.8818
  428TMC3     C 6385   0.067   4.207  14.825 -0.1266 -0.2773  0.2720
  428TMC3     O 6386   0.123   4.220  14.716 -0.1512 -0.1282 -0.4838
  428TMC3     H 6387   0.004   4.056  15.015 -0.5048 -0.2490  1.3014
  428TMC3    H1 6388   0.317   4.271  14.827  0.4238  0.1163  0.3899
  428TMC3    H2 6389   0.414   3.943  15.084  0.1634  0.5398  0.7701
  428TMC3    C7 6390   0.494   4.191  15.024  0.4078 -0.3481  0.2963
  428TMC3    C8 6391   0.181   3.869  15.140 -0.0722 -0.3068  0.2044
  428TMC3    O1 6392   0.511   4.160  15.137 -0.4555  0.3361 -0.0242
  428TMC3    O2 6393   0.261   3.783  15.128 -0.4602 -0.4439  0.1161
  429MPD2     C 6394   0.856   4.598   0.395 -0.1888  0.3782 -0.2791
  429MPD2    C1 6395   0.902   4.491   0.320  0.2550 -1.2486  0.2468
  429MPD2    C2 6396   0.925   4.515   0.190  0.1766 -0.2712 -0.6654
  429MPD2    C3 6397   0.919   4.645   0.135 -0.8531  0.4471  0.1145
  429MPD2    C4 6398   0.881   0.026   0.216  0.1119 -0.0106 -0.3447
  429MPD2    C5 6399   0.835   0.000   0.341 -0.0037  0.7419 -0.7160
  429MPD2     H 6400   0.974   4.439   0.130 -2.1020 -1.3850 -1.0803
  429MPD2    H1 6401   0.865   0.125   0.175 -1.7617 -0.6805 -1.2636
  429MPD2    H2 6402   0.820   4.581   0.496  0.1134  1.9040  0.0909
  429MPD2    H3 6403   0.787   0.076   0.401 -2.1873 -0.1174 -1.3751
  429MPD2     N 6404   0.966   4.668  17.694 -0.6882 -0.3849  0.2065
  429MPD2    H5 6405   0.981   4.584  17.638  0.9879 -0.6049  0.9857
  429MPD2    N1 6406   0.930   4.359   0.377  0.2850 -0.1196  0.8074
  429MPD2    H7 6407   0.960   4.286   0.313  1.6135  0.3807  0.8677
  430TMC3    C1 6408   1.040   0.072  17.503 -0.4382  0.1570  0.4838
  430TMC3    C2 6409   1.003   0.170  17.416  0.0699  0.5315  0.7360
  430TMC3    C3 6410   1.052   0.149  17.289  0.3155 -0.0842 -0.8438
  430TMC3    C4 6411   1.126   4.694  17.487 -0.2138 -0.0876 -0.2696
  430TMC3    C5 6412   1.177   4.688  17.361  0.0682 -0.0100  0.2914
  430TMC3    C6 6413   1.136   0.048  17.259 -0.2357 -0.1225 -0.0984
  430TMC3     C 6414   0.966   0.067  17.626 -0.0426  0.0985 -0.3525
  430TMC3     O 6415   0.945   0.180  17.667 -0.0779 -0.0431 -0.0002
  430TMC3     H 6416   0.923   0.240  17.441  0.6710  1.7381 -0.7401
  430TMC3    H1 6417   1.176   4.630  17.559 -0.1159 -1.1221 -1.2452
  430TMC3    H2 6418   1.193   0.050  17.167  1.8797 -1.5511  1.1822
  430TMC3    C7 6419   1.240   4.569  17.320  0.7265  0.8131  1.0492
  430TMC3    C8 6420   1.001   0.225  17.176 -0.1787  0.3873  0.4047
  430TMC3    O1 6421   1.210   4.510  17.219  0.9844 -0.2720  0.6236
  430TMC3    O2 6422   0.954   0.336  17.199  0.5878  0.2175 -0.2516
  431MPD2     C 6423   2.192   0.081  12.557  0.0015 -0.3685  0.3790
  431MPD2    C1 6424   2.271   0.075  12.448  0.3985  0.3105  0.4963
  431MPD2    C2 6425   2.241   4.710  12.348  0.1689  0.3487  0.2012
  431MPD2    C3 6426   2.129   4.628  12.357  0.5371  0.0023  0.8956
  431MPD2    C4 6427   2.051   4.637  12.468  0.1142 -0.5429 -0.5073
  431MPD2    C5 6428   2.086   4.720  12.570  0.1401  0.0928  0.0130
  431MPD2     H 6429   2.299   4.716  12.256 -1.4687 -0.9105 -0.9139
  431MPD2    H1 6430   1.968   4.569  12.483  0.5432 -0.9864 -0.1588
  431MPD2    H2 6431   2.210   0.159  12.630 -1.2818 -0.0223  0.3165
  431MPD2    H3 6432   2.020   0.006  12.655  0.1128 -3.0383  0.3100
  431MPD2     N 6433   2.101   4.521  12.269  0.5549  0.2029  0.4037
  431MPD2    H5 6434   2.034   4.451  12.303  2.4670 -1.5101  0.6636
  431MPD2    N1 6435   2.392   0.150  12.432  0.4180 -0.9750 -0.3269
  431MPD2    H7 6436   2.438   0.151  12.342  4.1411  0.2038  1.6201
  432TMC3    C1 6437   2.133   4.366  12.109  0.1147 -0.7776  0.0695
  432TMC3    C2 6438   2.175   4.333  11.981 -0.7858 -0.4473 -0.0030
  432TMC3    C3 6439   2.191   4.199  11.963 -0.5038  0.5948  0.2619
  432TMC3    C4 6440   2.133   4.276  12.209  0.0556  0.3306 -0.6039
  432TMC3    C5 6441   2.157   4.139  12.186  0.3532 -0.0195  0.3540
  432TMC3    C6 6442   2.191   4.101  12.059 -0.6311 -0.1642 -0.0682
  432TMC3     C 6443   2.162   4.500  12.154 -0.2768 -0.0420  0.3296
  432TMC3     O 6444   2.246   4.562  12.088 -0.1843 -0.2556 -0.1106
  432TMC3     H 6445   2.178   4.407  11.902  0.1845 -1.5251 -0.9690
  432TMC3    H1 6446   2.119   4.300  12.314 -0.8852  1.2301 -0.9322
  432TMC3    H2 6447   2.226   4.001  12.037 -1.7959 -1.0909  2.2384
  432TMC3    C7 6448   2.190   4.040  12.291 -0.5373 -0.5468  0.4021
  432TMC3    C8 6449   2.220   4.152  11.829 -0.5144  0.1333  0.4673
  432TMC3    O1 6450   2.256   3.942  12.258  0.0175  0.6400 -0.2913
  432TMC3    O2 6451   2.162   4.047  11.793  0.6365  0.2288 -0.2499
  433MPD2     C 6452   0.895   3.400  10.670 -0.0583 -0.9570 -0.0989
  433MPD2    C1 6453   0.982   3.293  10.698  0.2161 -0.0584 -0.3622
  433MPD2    C2 6454   1.025   3.270  10.831  0.4499 -0.3926 -0.1986
  433MPD2    C3 6455   0.986   3.352  10.930 -0.4585 -0.9647  0.0020
  433MPD2    C4 6456   0.904   3.457  10.895  0.1239 -0.2956 -0.2048
  433MPD2    C5 6457   0.860   3.479  10.773 -0.1337  0.2620  0.1003
  433MPD2     H 6458   1.075   3.180  10.864  0.1119 -0.3775  0.3516
  433MPD2    H1 6459   0.885   3.535  10.967  0.7738 -0.2845 -0.0454
  433MPD2    H2 6460   0.859   3.426  10.570  2.6565 -0.4691 -0.9430
  433MPD2    H3 6461   0.796   3.567  10.770 -2.3119 -1.2498  2.2423
  433MPD2     N 6462   1.016   3.321  11.066 -0.8359  0.0573 -0.0330
  433MPD2    H5 6463   1.040   3.224  11.086  0.5710  0.6076  0.9444
  433MPD2    N1 6464   1.016   3.202  10.593 -0.1515 -0.5438 -0.3805
  433MPD2    H7 6465   0.983   3.232  10.502 -0.8063 -0.3178 -0.0706
  434TMC3    C1 6466   1.114   3.007  10.497  0.0194 -0.4085  0.1907
  434TMC3    C2 6467   1.191   2.903  10.541  0.2028  0.1506  0.1765
  434TMC3    C3 6468   1.163   2.774  10.512 -0.9641  0.0160 -0.0402
  434TMC3    C4 6469   1.003   2.978  10.422  0.7267 -0.5595 -0.3008
  434TMC3    C5 6470   0.979   2.849  10.390 -0.4011 -0.5274  0.0044
  434TMC3    C6 6471   1.048   2.747  10.443  0.1193 -0.2335  0.1752
  434TMC3     C 6472   1.091   3.085  10.612  0.1100 -0.3597 -0.1309
  434TMC3     O 6473   1.118   3.024  10.716  0.1426 -0.3573  0.8102
  434TMC3     H 6474   1.280   2.932  10.595 -0.9985  1.7226  1.2915
  434TMC3    H1 6475   0.928   3.054  10.401 -0.6010 -1.4918  1.0512
  434TMC3    H2 6476   1.007   2.648  10.436 -0.5590 -0.0087  0.9042
  434TMC3    C7 6477   0.890   2.832  10.276 -0.3820  0.6470 -0.3328
  434TMC3    C8 6478   1.212   2.668  10.599  0.7606 -0.2146 -0.4989
  434TMC3    O1 6479   0.808   2.911  10.232  0.6083  0.2343  0.3633
  434TMC3    O2 6480   1.281   2.702  10.693  0.3934 -0.0848  0.4786
  435MPD2     C 6481   2.756   3.471  15.742 -0.1719 -0.4690  0.2711
  435MPD2    C1 6482   2.763   3.448  15.880 -0.6511  0.3476  0.5484
  435MPD2    C2 6483   2.880   3.407  15.939  0.6130  0.7305 -0.6652
  435MPD2    C3 6484   2.981   3.358  15.855  0.4805  0.0228 -0.3866
  435MPD2    C4 6485   2.971   3.377  15.723 -0.6574 -0.3844  0.7736
  435MPD2    C5 6486   2.865   3.440  15.670  0.0205 -0.4723  0.4601
  435MPD2     H 6487   2.893   3.394  16.046 -0.7570  1.7012 -0.3834
  435MPD2    H1 6488   3.046   3.338  15.655  0.7733  0.4732  1.8554
  435MPD2    H2 6489   2.667   3.502  15.689  0.3408 -2.0476 -1.4877
  435MPD2    H3 6490   2.854   3.442  15.562 -0.3372  0.5880  0.5134
  435MPD2     N 6491   3.073   3.267  15.911  0.7543  0.0561  0.1165
  435MPD2    H5 6492   3.068   3.269  16.012  0.4768 -0.6473  0.1186
  435MPD2    N1 6493   2.649   3.454  15.966 -0.1929  0.2349 -0.2288
  435MPD2    H7 6494   2.677   3.441  16.063 -0.3470  1.1807 -0.0608
  436TMC3    C1 6495   2.382   3.584  16.232  0.2512 -0.6377  0.2376
  436TMC3    C2 6496   2.478   3.549  16.140  1.0397 -0.1673  0.7874
  436TMC3    C3 6497   2.426   3.479  16.033  0.1381  0.4141  0.0387
  436TMC3    C4 6498   2.251   3.544  16.228 -0.0284 -0.4824 -0.4351
  436TMC3    C5 6499   2.209   3.467  16.121  0.1929 -0.2632  0.0505
  436TMC3    C6 6500   2.295   3.444  16.022 -0.0146 -0.0153 -0.3147
  436TMC3     C 6501   2.435   3.674  16.335  0.3676  0.2946  0.2491
  436TMC3     O 6502   2.556   3.677  16.345  0.0918  0.3858 -0.3536
  436TMC3     H 6503   2.581   3.576  16.158  1.1578  1.7950 -2.9669
  436TMC3    H1 6504   2.189   3.567  16.314 -0.3619 -1.4421 -0.4156
  436TMC3    H2 6505   2.260   3.398  15.930  0.3435  2.2014 -1.5796
  436TMC3    C7 6506   2.101   3.375  16.143  0.1284  0.2027  0.4118
  436TMC3    C8 6507   2.518   3.465  15.922 -0.1325 -0.1711  0.4539
  436TMC3    O1 6508   2.015   3.403  16.220 -0.0176 -0.4780  0.6510
  436TMC3    O2 6509   2.459   3.445  15.817  0.1825  0.4749  0.1732
  437TMC3    C1 6510   1.461   0.822  12.600 -0.0819  0.3268  0.0979
  437TMC3    C2 6511   1.355   0.903  12.612  0.3261  1.3528  0.1546
  437TMC3    C3 6512   1.346   1.016  12.532 -0.0737  0.2993  0.6617
  437TMC3    C4 6513   1.562   0.854  12.509  0.1923  0.0233 -0.1738
  437TMC3    C5 6514   1.548   0.971  12.430 -0.7613 -0.0623 -0.0121
  437TMC3    C6 6515   1.442   1.057  12.446 -0.5238  0.0088  0.0267
  437TMC3     C 6516   1.479   0.722  12.703 -0.8923 -0.1900  0.0905
  437TMC3     O 6517   1.377   0.696  12.762  0.0310 -0.2537  0.7788
  437TMC3     H 6518   1.268   0.891  12.675 -0.1303  0.6392 -0.6190
  437TMC3    H1 6519   1.635   0.776  12.491  0.2125  0.1807 -0.7772
  437TMC3    H2 6520   1.421   1.127  12.366  0.9464  1.2850  0.7505
  437TMC3    C7 6521   1.601   0.963  12.297  0.6368  0.2328 -0.3950
  437TMC3    C8 6522   1.245   1.112  12.567  0.0978 -0.7659  0.4405
  437TMC3    O1 6523   1.524   0.984  12.202  0.3540  0.2336 -0.7375
  437TMC3    O2 6524   1.136   1.070  12.610 -0.3105 -0.0853  0.1333
  438MPD2     C 6525   4.030   1.451  16.418  0.4035  0.5570  0.0100
  438MPD2    C1 6526   4.147   1.402  16.487 -0.7210  0.4342  0.1842
  438MPD2    C2 6527   4.175   1.457  16.611 -0.2977  0.1302  0.6421
  438MPD2    C3 6528   4.093   1.555  16.675  0.1517  0.2333 -0.2024
  438MPD2    C4 6529   3.977   1.586  16.611 -0.4969 -0.5152 -1.2029
  438MPD2    C5 6530   3.950   1.543  16.487  0.0691  0.5323  0.3952
  438MPD2     H 6531   4.273   1.434  16.653  0.7644  0.2606 -1.7648
  438MPD2    H1 6532   3.901   1.652  16.652  0.3250 -1.4904  1.9206
  438MPD2    H2 6533   3.997   1.421  16.319 -1.4620  0.6812  0.6050
  438MPD2    H3 6534   3.857   1.576  16.441 -0.1493  2.0988  1.9663
  438MPD2     N 6535   4.116   1.600  16.806  0.3201 -0.2703  0.9597
  438MPD2    H5 6536   4.052   1.659  16.858 -1.2630 -1.7997  0.7356
  438MPD2    N1 6537   4.223   1.295  16.434 -0.7167  0.0120 -0.5773
  438MPD2    H7 6538   4.315   1.290  16.475 -1.3064  1.8694  0.9825
  439TMC3    C1 6539   4.287   1.120  16.293  0.4506  0.4062 -0.3131
  439TMC3    C2 6540   4.249   1.036  16.197 -0.8481  0.0197 -0.3455
  439TMC3    C3 6541   4.325   0.921  16.189  0.2216  0.1241 -0.2034
  439TMC3    C4 6542   4.398   1.104  16.366 -0.0342 -0.4960  0.0917
  439TMC3    C5 6543   4.471   0.992  16.354 -0.1381 -0.1007  0.3502
  439TMC3    C6 6544   4.438   0.905  16.256 -0.4588  0.1654 -0.6559
  439TMC3     C 6545   4.183   1.216  16.327 -0.0298  0.3278 -0.8839
  439TMC3     O 6546   4.082   1.225  16.258  0.0533 -0.0799 -0.2153
  439TMC3     H 6547   4.159   1.049  16.139 -1.2141  0.5340  0.3350
  439TMC3    H1 6548   4.421   1.168  16.449  2.5513  2.3059 -2.7961
  439TMC3    H2 6549   4.476   0.804  16.248 -2.4123 -0.4200 -2.4124
  439TMC3    C7 6550   4.563   0.966  16.458  0.7389  0.7779 -0.4028
  439TMC3    C8 6551   4.302   0.827  16.082  0.0565  0.2961  0.5560
  439TMC3    O1 6552   4.553   0.855  16.512 -0.7918  0.6562 -0.0348
  439TMC3    O2 6553   4.404   0.778  16.030 -0.1629 -0.3211 -0.0218
  440MPD2     C 6554   3.178   1.786  14.453  0.0325 -0.3942 -0.1056
  440MPD2    C1 6555   3.136   1.854  14.564 -0.6896  0.2434 -0.7672
  440MPD2    C2 6556   3.221   1.864  14.676 -0.3078 -0.0201 -0.6926
  440MPD2    C3 6557   3.332   1.795  14.687  0.1667 -0.1868 -0.8534
  440MPD2    C4 6558   3.375   1.715  14.581 -0.5094 -0.2703  0.4701
  440MPD2    C5 6559   3.301   1.718  14.468 -0.8476  0.2224 -0.7053
  440MPD2     H 6560   3.194   1.927  14.759  0.7380  0.2116 -0.5192
  440MPD2    H1 6561   3.468   1.660  14.591 -0.5941 -1.0363 -2.7653
  440MPD2    H2 6562   3.130   1.802  14.357  1.1767 -0.9159 -0.7653
  440MPD2    H3 6563   3.318   1.655  14.382  1.5496  0.1050 -0.1272
  440MPD2     N 6564   3.411   1.792  14.804  0.4968  0.1235 -0.0823
  440MPD2    H5 6565   3.481   1.719  14.811  1.8054  1.2653 -1.3183
  440MPD2    N1 6566   3.020   1.935  14.562 -0.1048  0.1950  0.3602
  440MPD2    H7 6567   3.015   1.999  14.641  2.0331 -0.1926  0.8035
  441TMC3    C1 6568   3.456   1.821  15.029 -0.3584 -0.2019  0.1090
  441TMC3    C2 6569   3.518   1.913  15.106  0.0105  0.1777  0.2242
  441TMC3    C3 6570   3.562   1.870  15.226  0.2466  1.0805  0.4062
  441TMC3    C4 6571   3.425   1.696  15.066 -0.3174  0.3834 -0.2578
  441TMC3    C5 6572   3.452   1.662  15.196 -0.1568 -0.0532 -0.3983
  441TMC3    C6 6573   3.524   1.749  15.280  0.1535  0.2830  0.5211
  441TMC3     C 6574   3.395   1.875  14.910 -0.0234  0.3823  0.0534
  441TMC3     O 6575   3.352   1.988  14.910 -0.1993 -0.2616 -0.4996
  441TMC3     H 6576   3.522   2.013  15.063 -0.2667 -1.1154 -2.7796
  441TMC3    H1 6577   3.355   1.635  15.011 -2.3238  3.1450 -0.7160
  441TMC3    H2 6578   3.560   1.712  15.375 -0.2394 -0.5353  0.3531
  441TMC3    C7 6579   3.390   1.538  15.247  0.6022  0.0105 -0.3124
  441TMC3    C8 6580   3.549   1.982  15.313  0.3343 -0.4208  0.0503
  441TMC3    O1 6581   3.313   1.479  15.171  0.2979  0.3184  1.1586
  441TMC3    O2 6582   3.654   2.014  15.362  0.5189 -0.2684  0.3738
  442MPD2     C 6583   1.186   2.273  16.296 -0.3593 -0.6768  0.2574
  442MPD2    C1 6584   1.072   2.205  16.338 -0.0897  0.7049 -0.3866
  442MPD2    C2 6585   1.029   2.096  16.264  0.2361  0.3782  0.1119
  442MPD2    C3 6586   1.092   2.057  16.148  0.2784  0.4240 -0.3659
  442MPD2    C4 6587   1.213   2.118  16.111  0.1657 -0.6703 -0.9397
  442MPD2    C5 6588   1.250   2.230  16.178 -0.0622  0.3022  0.5352
  442MPD2     H 6589   0.937   2.048  16.297  0.9783 -1.1933 -0.1269
  442MPD2    H1 6590   1.262   2.094  16.018  2.6403  2.4231 -0.4261
  442MPD2    H2 6591   1.227   2.359  16.347 -0.2586 -0.3374 -0.3886
  442MPD2    H3 6592   1.326   2.289  16.128  0.5088 -0.3305  0.6432
  442MPD2     N 6593   1.050   1.954  16.059  0.2311 -0.4792 -0.1297
  442MPD2    H5 6594   1.113   1.939  15.981  0.6723  0.6418  0.0201
  442MPD2    N1 6595   0.995   2.244  16.448  0.4210  0.3347  0.1337
  442MPD2    H7 6596   0.910   2.188  16.458 -0.5424  1.8611  0.4671
  443TMC3    C1 6597   0.903   2.377  16.609  1.0592  0.0126 -0.9949
  443TMC3    C2 6598   0.828   2.475  16.561  0.2561 -0.0404  0.0302
  443TMC3    C3 6599   0.694   2.475  16.589  0.0144  0.9730 -0.2270
  443TMC3    C4 6600   0.854   2.278  16.692 -0.1938 -0.2164 -0.0052
  443TMC3    C5 6601   0.728   2.296  16.744 -1.1069 -0.4293  0.1317
  443TMC3    C6 6602   0.644   2.385  16.682  0.0061 -0.2252  0.2908
  443TMC3     C 6603   1.012   2.356  16.522 -0.4043  0.0282  0.8736
  443TMC3     O 6604   1.102   2.440  16.512 -0.2293  0.5737  0.1466
  443TMC3     H 6605   0.874   2.547  16.493  0.6730 -0.3555 -0.0187
  443TMC3    H1 6606   0.921   2.197  16.717  2.0878  1.4640 -0.5733
  443TMC3    H2 6607   0.538   2.383  16.705  0.5053 -0.7308  2.5590
  443TMC3    C7 6608   0.661   2.184  16.802 -0.3019 -0.5812  0.0906
  443TMC3    C8 6609   0.622   2.468  16.465 -0.3631 -0.6862 -0.3856
  443TMC3    O1 6610   0.716   2.080  16.776  0.4366 -0.2343 -0.3357
  443TMC3    O2 6611   0.560   2.365  16.447 -0.1909 -0.8011 -0.3540
  444MPD2     C 6612   0.969   1.647  16.693  0.5793 -0.6572  0.4250
  444MPD2    C1 6613   0.893   1.540  16.740  0.2268 -0.4657  0.0690
  444MPD2    C2 6614   0.905   1.413  16.671 -0.0628 -0.0644  0.3931
  444MPD2    C3 6615   1.004   1.400  16.570  0.1526 -0.0308 -0.3092
  444MPD2    C4 6616   1.069   1.508  16.518  0.2017 -0.0332 -0.0312
  444MPD2    C5 6617   1.050   1.633  16.584  0.2454  0.0238 -0.0395
  444MPD2     H 6618   0.852   1.326  16.708  1.8538 -1.5002 -0.2473
  444MPD2    H1 6619   1.150   1.502  16.446  1.3372 -2.7771  1.4667
  444MPD2    H2 6620   0.966   1.742  16.747 -1.4548 -1.6784  2.1240
  444MPD2    H3 6621   1.101   1.720  16.542  1.5206 -1.3386 -1.3232
  444MPD2     N 6622   1.020   1.265  16.519  0.3875 -0.3124 -0.4884
  444MPD2    H5 6623   0.961   1.190  16.554 -0.4023  0.1261 -0.8836
  444MPD2    N1 6624   0.803   1.547  16.854 -0.2124  0.4148 -0.0551
  444MPD2    H7 6625   0.758   1.457  16.861 -0.7988  0.8487  1.8092
  445TMC3    C1 6626   1.147   1.080  16.445  0.2063  0.1904  0.6459
  445TMC3    C2 6627   1.047   0.998  16.412  1.1631 -0.4647 -0.4708
  445TMC3    C3 6628   1.077   0.873  16.372 -0.2368 -0.2569  0.3347
  445TMC3    C4 6629   1.276   1.028  16.446 -0.4446 -0.4377  0.4758
  445TMC3    C5 6630   1.298   0.903  16.409  0.7438  0.9352  0.2729
  445TMC3    C6 6631   1.199   0.816  16.372  0.4040 -0.4717 -0.6063
  445TMC3     C 6632   1.128   1.224  16.445 -0.7970 -0.0634 -0.1002
  445TMC3     O 6633   1.226   1.291  16.422  0.3683 -0.1413 -0.0564
  445TMC3     H 6634   0.946   1.038  16.417  0.5757 -1.7721 -1.7587
  445TMC3    H1 6635   1.351   1.103  16.464 -0.7910 -0.4145  1.8506
  445TMC3    H2 6636   1.216   0.716  16.334  1.4694 -1.3959  2.3199
  445TMC3    C7 6637   1.435   0.863  16.396  0.9664  0.3583  0.5619
  445TMC3    C8 6638   0.970   0.778  16.367  0.0462 -0.7253 -0.2929
  445TMC3    O1 6639   1.456   0.803  16.290  0.3829  0.1710  0.3656
  445TMC3    O2 6640   0.982   0.675  16.427  0.0172 -0.8123 -0.3877
  446MPD2     C 6641   0.985   2.452  11.163 -0.0213  0.1328  0.2978
  446MPD2    C1 6642   0.980   2.498  11.034 -0.3921 -0.3020  0.2218
  446MPD2    C2 6643   1.079   2.584  10.984  0.1335  0.1933  0.1276
  446MPD2    C3 6644   1.178   2.632  11.061  0.6698  0.8458  0.1208
  446MPD2    C4 6645   1.170   2.609  11.199 -0.0783 -0.2856  0.6214
  446MPD2    C5 6646   1.084   2.515  11.242 -0.4732 -0.6298 -0.5109
  446MPD2     H 6647   1.072   2.606  10.878 -0.1581  1.0507  0.3303
  446MPD2    H1 6648   1.235   2.653  11.274 -1.0991  0.9325  0.7740
  446MPD2    H2 6649   0.910   2.384  11.203 -0.3563 -0.2065 -0.9076
  446MPD2    H3 6650   1.080   2.491  11.348 -0.7057 -1.8226 -0.7924
  446MPD2     N 6651   1.292   2.702  11.002  0.5241  0.0081 -0.3197
  446MPD2    H5 6652   1.277   2.729  10.905 -3.6305 -0.7832  0.0909
  446MPD2    N1 6653   0.886   2.458  10.942  0.1249 -0.2918  0.7593
  446MPD2    H7 6654   0.887   2.497  10.849  0.5480 -2.6197 -0.2162
  447TMC3    C1 6655   1.507   2.784  10.978 -0.2138 -0.1779  0.0839
  447TMC3    C2 6656   1.533   2.729  10.855 -0.2439 -0.2077 -0.2762
  447TMC3    C3 6657   1.633   2.780  10.777 -0.5598  0.0750  0.3564
  447TMC3    C4 6658   1.591   2.874  11.038 -0.3153 -0.5671 -0.0049
  447TMC3    C5 6659   1.695   2.920  10.962 -0.0825  0.2656 -0.1410
  447TMC3    C6 6660   1.724   2.870  10.829  0.1590 -0.4773  0.5712
  447TMC3     C 6661   1.414   2.725  11.066 -0.1271  0.6255  0.2320
  447TMC3     O 6662   1.443   2.707  11.183 -0.7239  0.0413  0.0974
  447TMC3     H 6663   1.467   2.651  10.818 -1.0028  0.2726  0.0438
  447TMC3    H1 6664   1.579   2.911  11.139 -0.5281 -0.6624  0.0054
  447TMC3    H2 6665   1.811   2.906  10.775 -0.3038 -0.4064 -0.1245
  447TMC3    C7 6666   1.794   3.004  11.024  0.2135  0.5203  0.2969
  447TMC3    C8 6667   1.610   2.791  10.638 -0.7966 -0.4974 -0.9444
  447TMC3    O1 6668   1.909   2.989  10.979  0.3714 -0.0032 -0.2156
  447TMC3    O2 6669   1.651   2.892  10.585 -0.3613 -0.3563  0.0820
  448TMC3    C1 6670   3.637   2.475  16.912  0.3027 -0.3325 -0.5875
  448TMC3    C2 6671   3.630   2.416  16.789  0.0205 -0.4295 -0.2591
  448TMC3    C3 6672   3.646   2.283  16.786 -0.0275 -0.3809 -0.4798
  448TMC3    C4 6673   3.638   2.397  17.024 -0.0260 -0.0159  0.3753
  448TMC3    C5 6674   3.630   2.264  17.014  0.2796  0.1566  0.2392
  448TMC3    C6 6675   3.640   2.200  16.897  0.3783 -0.2933  0.2467
  448TMC3     C 6676   3.606   2.622  16.925  0.5004 -0.2673  0.3763
  448TMC3     O 6677   3.545   2.665  16.832 -0.5032 -0.3165 -0.2725
  448TMC3     H 6678   3.623   2.480  16.702 -1.1508 -0.2552 -0.0381
  448TMC3    H1 6679   3.618   2.446  17.119  1.3804 -1.8059  1.6055
  448TMC3    H2 6680   3.653   2.092  16.891  1.3913 -0.0267 -1.9909
  448TMC3    C7 6681   3.631   2.180  17.134 -0.2740  0.4924 -0.3283
  448TMC3    C8 6682   3.703   2.224  16.659  0.0455  0.2298  0.2717
  448TMC3    O1 6683   3.620   2.060  17.117 -0.5148  0.2735 -0.1852
  448TMC3    O2 6684   3.782   2.128  16.680  0.3610 -0.1149 -0.0162
  449MPD2     C 6685   0.480   1.228  14.024  0.7355 -0.1993  0.0305
  449MPD2    C1 6686   0.440   1.237  13.896  0.4121 -0.1585 -0.0185
  449MPD2    C2 6687   0.335   1.159  13.844  0.1613  0.0203 -0.3461
  449MPD2    C3 6688   0.289   1.056  13.926 -0.5055 -0.4041 -0.0115
  449MPD2    C4 6689   0.338   1.042  14.058  0.2175 -0.3136 -1.1118
  449MPD2    C5 6690   0.421   1.140  14.112 -0.2050  0.0304 -0.3418
  449MPD2     H 6691   0.291   1.160  13.745 -0.1590 -0.6469 -0.2071
  449MPD2    H1 6692   0.302   0.966  14.127  1.3713 -0.3842 -0.5848
  449MPD2    H2 6693   0.574   1.268  14.061 -0.7448  1.4049  2.0388
  449MPD2    H3 6694   0.460   1.143  14.213 -0.5093  0.7701 -0.2459
  449MPD2     N 6695   0.193   0.965  13.868 -0.2574  0.0080  0.0261
  449MPD2    H5 6696   0.186   0.981  13.768  0.0485  3.3655  0.5688
  449MPD2    N1 6697   0.504   1.328  13.814 -0.9108 -0.0935 -0.2081
  449MPD2    H7 6698   0.455   1.365  13.734  2.3430  0.1052 -2.1043
  450TMC3    C1 6699   0.655   1.462  13.716  0.2801  0.3705  0.1538
  450TMC3    C2 6700   0.747   1.414  13.626 -0.2300 -0.3173 -0.3454
  450TMC3    C3 6701   0.720   1.429  13.493  0.1478 -0.0867  0.6566
  450TMC3    C4 6702   0.540   1.517  13.669  0.5091  0.0390 -0.6562
  450TMC3    C5 6703   0.512   1.518  13.534 -0.0708  0.1440 -0.1978
  450TMC3    C6 6704   0.606   1.474  13.442  0.0459 -0.0729 -0.3152
  450TMC3     C 6705   0.628   1.378  13.829  0.7748 -0.2595 -0.5745
  450TMC3     O 6706   0.725   1.332  13.886  0.0153 -0.3537  0.2623
  450TMC3     H 6707   0.841   1.372  13.658  1.1418  2.5301 -0.5816
  450TMC3    H1 6708   0.481   1.561  13.749 -3.7261 -1.4788 -2.9446
  450TMC3    H2 6709   0.587   1.484  13.336  1.2946 -1.9648 -0.7040
  450TMC3    C7 6710   0.378   1.462  13.521  0.0689  0.1996  0.5642
  450TMC3    C8 6711   0.832   1.392  13.405  0.2166 -0.0879 -0.0871
  450TMC3    O1 6712   0.333   1.402  13.619 -0.1575  0.3294 -0.1401
  450TMC3    O2 6713   0.908   1.307  13.445  0.0453  0.4377  0.2365
  451MPD2     C 6714   1.666   0.203   1.674 -0.5368 -0.6750 -0.3637
  451MPD2    C1 6715   1.532   0.193   1.701 -0.2477  0.0981 -0.3356
  451MPD2    C2 6716   1.479   0.060   1.708  0.3571 -0.0270  0.0269
  451MPD2    C3 6717   1.563   4.674   1.699  0.1969 -0.5017 -0.4663
  451MPD2    C4 6718   1.700   4.691   1.682  0.5898  0.2160 -0.4427
  451MPD2    C5 6719   1.747   0.093   1.667 -0.1088  0.0943  0.5374
  451MPD2     H 6720   1.374   0.046   1.728  0.0822  0.8821 -0.8337
  451MPD2    H1 6721   1.771   4.610   1.670 -0.1784 -0.4480 -0.5347
  451MPD2    H2 6722   1.701   0.304   1.657 -2.4982  0.6986  3.6512
  451MPD2    H3 6723   1.854   0.113   1.659 -0.1724  0.6332  0.9911
  451MPD2     N 6724   1.521   4.540   1.706  0.5099 -0.0518  0.7255
  451MPD2    H5 6725   1.586   4.464   1.724  2.2076  0.9247 -1.3251
  451MPD2    N1 6726   1.459   0.313   1.718 -0.3149  0.1462 -0.4128
  451MPD2    H7 6727   1.504   0.397   1.685 -0.4276 -0.0786 -1.1303
  452TMC3    C1 6728   1.379   4.352   1.715 -0.5689  0.3778  0.0752
  452TMC3    C2 6729   1.261   4.306   1.765 -0.0430  0.7278  0.1413
  452TMC3    C3 6730   1.205   4.204   1.698  0.6758 -0.3713 -0.2082
  452TMC3    C4 6731   1.439   4.295   1.605 -0.1821 -0.1150 -0.0949
  452TMC3    C5 6732   1.386   4.181   1.552  0.4191 -0.3766 -0.3518
  452TMC3    C6 6733   1.271   4.133   1.597  0.1350  0.3892  0.2576
  452TMC3     C 6734   1.383   4.500   1.715 -0.3116 -0.2757  0.0042
  452TMC3     O 6735   1.282   4.568   1.715 -0.0134 -0.4249 -0.3319
  452TMC3     H 6736   1.194   4.367   1.825 -2.5925 -1.3591 -0.5658
  452TMC3    H1 6737   1.518   4.348   1.554 -1.1335  0.8840 -0.5426
  452TMC3    H2 6738   1.228   4.048   1.546  1.5712 -1.1964  1.6687
  452TMC3    C7 6739   1.438   4.157   1.415  0.6090  0.6657  0.6205
  452TMC3    C8 6740   1.081   4.146   1.754 -0.0199 -0.3001 -0.6833
  452TMC3    O1 6741   1.526   4.223   1.374 -0.2828  0.2900  0.3831
  452TMC3    O2 6742   1.056   4.169   1.871  0.1168 -0.4726 -0.1505
  453TMC3    C1 6743   3.146   2.237  11.512 -0.6302  0.1377  0.1627
  453TMC3    C2 6744   3.090   2.110  11.519  0.0407 -0.0509 -0.1273
  453TMC3    C3 6745   2.983   2.089  11.435 -0.2489  0.0390 -0.2646
  453TMC3    C4 6746   3.104   2.327  11.415 -0.3886  0.2217  0.5461
  453TMC3    C5 6747   3.005   2.290  11.324 -0.2370  0.1692 -0.7418
  453TMC3    C6 6748   2.938   2.173  11.339 -0.4021  0.3873  0.4867
  453TMC3     C 6749   3.284   2.251  11.557  0.1317 -0.3045 -0.5871
  453TMC3     O 6750   3.340   2.354  11.522 -0.2914 -0.5642 -0.6682
  453TMC3     H 6751   3.114   2.046  11.603 -0.4940 -1.8487 -1.3310
  453TMC3    H1 6752   3.158   2.420  11.401 -0.6270  0.1364 -0.9462
  453TMC3    H2 6753   2.869   2.131  11.267 -0.8762 -0.6496  1.5254
  453TMC3    C7 6754   3.037   2.323  11.185 -0.4357 -0.3392  0.0699
  453TMC3    C8 6755   2.918   1.968  11.454 -0.2656 -0.2642 -0.0458
  453TMC3    O1 6756   3.045   2.239  11.099 -0.3651  0.9464  0.0750
  453TMC3    O2 6757   2.794   1.973  11.458  0.1579  0.3196  0.3124
  454MPD2     C 6758   1.737   1.073  16.157 -0.1183 -0.2925  0.3982
  454MPD2    C1 6759   1.802   1.119  16.045  1.0607 -0.0463  0.0153
  454MPD2    C2 6760   1.851   1.248  16.031  0.0340  0.1850 -0.3324
  454MPD2    C3 6761   1.834   1.333  16.140  0.2750  0.4078 -0.1227
  454MPD2    C4 6762   1.772   1.284  16.253  0.2216 -0.6023  0.1022
  454MPD2    C5 6763   1.720   1.158  16.265  0.9699  0.3381 -0.0079
  454MPD2     H 6764   1.911   1.274  15.945 -1.1849 -0.0961 -1.2611
  454MPD2    H1 6765   1.754   1.343  16.341  2.6413 -0.9944  0.8676
  454MPD2    H2 6766   1.705   0.970  16.159  0.3334 -0.4343  0.4738
  454MPD2    H3 6767   1.665   1.127  16.354 -1.4225 -0.5411 -1.7954
  454MPD2     N 6768   1.879   1.470  16.137 -0.0881  0.6081  0.5457
  454MPD2    H5 6769   1.946   1.493  16.064 -0.2165  1.2096  0.6112
  454MPD2    N1 6770   1.826   1.039  15.930 -0.0978 -0.1810  0.0795
  454MPD2    H7 6771   1.886   1.085  15.861  0.9527 -1.7447 -0.0359
  455TMC3    C1 6772   1.701   1.576  16.245 -0.1483 -0.0458 -0.2407
  455TMC3    C2 6773   1.661   1.636  16.361 -0.4672 -0.2470 -0.0155
  455TMC3    C3 6774   1.528   1.653  16.390  0.3721 -0.2938 -0.5213
  455TMC3    C4 6775   1.601   1.541  16.152  0.5026  0.1772 -0.1662
  455TMC3    C5 6776   1.470   1.558  16.184  0.3872 -0.3803  0.8973
  455TMC3    C6 6777   1.432   1.620  16.302  0.0309  0.4874  0.2325
  455TMC3     C 6778   1.836   1.584  16.200  0.2559  0.2715 -0.4010
  455TMC3     O 6779   1.889   1.694  16.195 -0.5749  0.0563  0.2753
  455TMC3     H 6780   1.734   1.660  16.437  0.4900 -0.1417 -0.9623
  455TMC3    H1 6781   1.627   1.512  16.051  4.8608  4.0190 -0.1712
  455TMC3    H2 6782   1.325   1.641  16.307 -0.3546 -0.5662 -3.0532
  455TMC3    C7 6783   1.381   1.459  16.123  0.1938  0.0335 -0.1107
  455TMC3    C8 6784   1.489   1.702  16.523  0.3056 -0.7553 -0.3926
  455TMC3    O1 6785   1.267   1.492  16.090  0.0606 -0.2557  0.7259
  455TMC3    O2 6786   1.562   1.664  16.612 -0.2021  0.0836 -0.1231
  456MPD2     C 6787   4.337   1.164  15.860  0.8714  0.0361  0.3564
  456MPD2    C1 6788   4.433   1.196  15.954 -0.2928 -0.6376  0.1898
  456MPD2    C2 6789   4.426   1.307  16.034 -0.1960 -0.4465  0.2085
  456MPD2    C3 6790   4.318   1.395  16.030 -0.1389 -1.3656 -0.0867
  456MPD2    C4 6791   4.220   1.371  15.933 -0.2621  0.1847 -0.2156
  456MPD2    C5 6792   4.226   1.258  15.856 -0.9103  0.2053 -0.1423
  456MPD2     H 6793   4.507   1.322  16.104 -1.6522 -0.7072  1.9839
  456MPD2    H1 6794   4.144   1.445  15.912  0.8669  1.0197 -1.3943
  456MPD2    H2 6795   4.342   1.075  15.798  1.8101  0.6752 -0.4840
  456MPD2    H3 6796   4.162   1.232  15.772 -2.2852  2.4722  0.2239
  456MPD2     N 6797   4.322   1.493  16.125  1.0041 -0.1112 -0.1363
  456MPD2    H5 6798   4.402   1.491  16.188  1.4386 -0.8432 -0.7030
  456MPD2    N1 6799   4.550   1.107  15.967 -0.2391  0.3302  0.5747
  456MPD2    H7 6800   4.556   1.032  15.899  1.1060  1.3119 -0.3867
  457TMC3    C1 6801   4.251   1.687  16.235  0.3156 -0.2640  0.8982
  457TMC3    C2 6802   4.154   1.780  16.240 -0.1400 -0.2544 -0.0769
  457TMC3    C3 6803   4.149   1.850  16.356 -0.1156 -0.1342  0.9090
  457TMC3    C4 6804   4.324   1.659  16.345  0.1739  0.2169 -0.4989
  457TMC3    C5 6805   4.332   1.736  16.452  0.0599  0.1525  0.2990
  457TMC3    C6 6806   4.249   1.846  16.455  0.0339 -0.0411  0.5449
  457TMC3     C 6807   4.224   1.591  16.129 -0.2381  0.3569  0.4332
  457TMC3     O 6808   4.129   1.620  16.057  0.3953  0.6017  0.5950
  457TMC3     H 6809   4.089   1.807  16.157 -2.0945 -2.5688  0.6919
  457TMC3    H1 6810   4.399   1.582  16.329  0.1211  0.0368  0.1250
  457TMC3    H2 6811   4.239   1.923  16.531  0.8215  2.1627 -1.5994
  457TMC3    C7 6812   4.418   1.700  16.558 -0.0129  0.0782 -0.0059
  457TMC3    C8 6813   4.034   1.930  16.380 -0.1454 -0.1830  0.2559
  457TMC3    O1 6814   4.455   1.583  16.547 -0.4359 -0.4713 -0.1983
  457TMC3    O2 6815   4.018   1.945  16.503  0.4126  0.1459  0.4688
  458MPD2     C 6816   1.995   0.862  11.989  0.2452  0.4621  0.1112
  458MPD2    C1 6817   2.039   0.862  12.120 -0.2028 -0.3695  0.1695
  458MPD2    C2 6818   1.943   0.873  12.218  0.2196 -0.7556  0.0689
  458MPD2    C3 6819   1.816   0.902  12.181  0.3653  0.4185 -0.3788
  458MPD2    C4 6820   1.777   0.896  12.048  0.1850  0.2687  0.6648
  458MPD2    C5 6821   1.867   0.871  11.952  0.2197  0.3537 -0.1522
  458MPD2     H 6822   1.971   0.870  12.322 -0.3884 -0.9335  0.2235
  458MPD2    H1 6823   1.675   0.912  12.014  0.6794  2.0374 -0.0108
  458MPD2    H2 6824   2.062   0.862  11.904 -1.9723 -0.1206 -1.6216
  458MPD2    H3 6825   1.841   0.859  11.847 -3.6758 -0.2867  0.8807
  458MPD2     N 6826   1.732   0.933  12.289  0.4312 -0.6426 -0.4478
  458MPD2    H5 6827   1.765   0.903  12.380  0.3079 -0.1686 -0.2473
  458MPD2    N1 6828   2.173   0.852  12.151  0.1267 -0.2491 -0.5025
  458MPD2    H7 6829   2.238   0.868  12.075 -0.4017 -2.9121 -1.5197
  459TMC3    C1 6830   2.361   0.800  12.274  0.3463 -0.6802 -0.2574
  459TMC3    C2 6831   2.426   0.916  12.237 -0.2101 -0.1385  0.3038
  459TMC3    C3 6832   2.513   0.976  12.324  0.8434 -0.5225 -0.0342
  459TMC3    C4 6833   2.398   0.748  12.398  0.4030  0.3776  0.6206
  459TMC3    C5 6834   2.494   0.810  12.480 -0.0446  0.4662 -0.1086
  459TMC3    C6 6835   2.551   0.928  12.445 -0.0396  0.0796 -0.0192
  459TMC3     C 6836   2.216   0.794  12.268  0.4806  0.5104 -0.4387
  459TMC3     O 6837   2.152   0.737  12.357 -0.0989 -0.5177  0.0077
  459TMC3     H 6838   2.424   0.945  12.133  0.4839 -2.4481 -0.3690
  459TMC3    H1 6839   2.371   0.652  12.440  1.7962  0.4212  1.6262
  459TMC3    H2 6840   2.622   0.974  12.513  0.6074 -1.8586  0.6113
  459TMC3    C7 6841   2.486   0.781  12.621 -0.2477 -0.4929 -0.2853
  459TMC3    C8 6842   2.596   1.084  12.273  0.3225  0.1668 -0.1488
  459TMC3    O1 6843   2.466   0.666  12.658 -0.0169 -0.5451  0.2681
  459TMC3    O2 6844   2.699   1.094  12.336  0.4737 -0.2094  0.5881
  460MPD2     C 6845   1.531   2.514  10.427  0.9147 -0.0805  0.0745
  460MPD2    C1 6846   1.526   2.641  10.465 -0.1804 -0.6599 -0.3561
  460MPD2    C2 6847   1.463   2.739  10.382 -0.1254 -0.5988  0.0782
  460MPD2    C3 6848   1.409   2.693  10.265  0.9181 -0.3880 -0.9007
  460MPD2    C4 6849   1.429   2.561  10.223 -0.1587  0.3748  0.1220
  460MPD2    C5 6850   1.484   2.472  10.310  0.2308 -0.9292  0.3380
  460MPD2     H 6851   1.452   2.842  10.414  0.6651 -0.6750  0.6005
  460MPD2    H1 6852   1.389   2.527  10.128  0.0426 -0.9440  0.5141
  460MPD2    H2 6853   1.573   2.444  10.498  1.3012  1.1103  1.0307
  460MPD2    H3 6854   1.504   2.367  10.294 -2.0785 -1.4624  0.9719
  460MPD2     N 6855   1.345   2.785  10.176 -0.4534  0.3414 -0.3289
  460MPD2    H5 6856   1.337   2.884  10.198  0.3720 -0.2066  2.4182
  460MPD2    N1 6857   1.575   2.668  10.594 -0.2858  0.1043  0.0989
  460MPD2    H7 6858   1.598   2.588  10.652 -1.2205 -0.1645  0.1103
  461TMC3    C1 6859   1.204   2.856  10.006 -0.7612  0.0436 -0.0414
  461TMC3    C2 6860   1.141   2.835   9.880  0.0677  0.0955  0.2794
  461TMC3    C3 6861   1.036   2.909   9.839  0.3660 -0.0641  0.2898
  461TMC3    C4 6862   1.163   2.959  10.082  0.8438  1.0173  0.2450
  461TMC3    C5 6863   1.072   3.039  10.025  0.0589  0.0683 -0.1947
  461TMC3    C6 6864   0.994   3.015   9.911  0.3902 -0.3807 -0.1213
  461TMC3     C 6865   1.280   2.751  10.055  0.4561 -0.8227 -0.6608
  461TMC3     O 6866   1.272   2.650   9.988  0.4284 -0.2928  0.7606
  461TMC3     H 6867   1.168   2.743   9.828 -0.9069 -0.8229  1.3868
  461TMC3    H1 6868   1.216   2.983  10.173 -0.3041  1.9148  0.6720
  461TMC3    H2 6869   0.920   3.083   9.870 -0.5356 -1.3055  0.0144
  461TMC3    C7 6870   1.090   3.181  10.055 -0.1816 -0.2323  0.6428
  461TMC3    C8 6871   0.991   2.914   9.702 -0.3810  0.0835  0.2584
  461TMC3    O1 6872   1.005   3.263  10.029 -0.0546  0.4749 -0.5728
  461TMC3    O2 6873   0.878   2.952   9.668 -0.7838  0.0545  0.0743
  462TMC3    C1 6874   0.819   3.190  17.102  0.5004 -0.3535  0.4852
  462TMC3    C2 6875   0.903   3.091  17.066 -0.8395 -0.2926 -0.3431
  462TMC3    C3 6876   1.033   3.120  17.019 -0.7839 -0.1259 -0.4542
  462TMC3    C4 6877   0.872   3.315  17.113 -0.6139 -0.2240  0.2627
  462TMC3    C5 6878   1.004   3.344  17.095 -0.2809  0.4218  0.1804
  462TMC3    C6 6879   1.081   3.244  17.031 -0.0906 -0.4796  0.6977
  462TMC3     C 6880   0.686   3.158  17.139  0.6677 -0.2469  0.1910
  462TMC3     O 6881   0.634   3.059  17.088  0.0365 -0.4391  0.2920
  462TMC3     H 6882   0.872   2.987  17.077  0.0405 -0.5387 -0.2040
  462TMC3    H1 6883   0.814   3.399  17.149 -0.2137 -0.9731  2.6673
  462TMC3    H2 6884   1.189   3.257  17.024  0.1242 -1.2575  2.5263
  462TMC3    C7 6885   1.065   3.449  17.172  1.2845  0.3456  0.7906
  462TMC3    C8 6886   1.123   3.004  17.009  0.6949 -0.0543 -0.4366
  462TMC3    O1 6887   0.989   3.519  17.239  0.0027  0.2823  0.3864
  462TMC3    O2 6888   1.090   2.903  17.065  0.1290  0.2337  0.4635
  463MPD2     C 6889   1.092   2.738   2.013  0.8221  0.5910  0.1974
  463MPD2    C1 6890   1.176   2.720   1.905  0.3480 -0.3924 -0.3568
  463MPD2    C2 6891   1.240   2.824   1.849  0.1539 -0.0065 -0.6394
  463MPD2    C3 6892   1.226   2.961   1.888  0.1425 -0.0220 -0.7467
  463MPD2    C4 6893   1.144   2.976   2.000  0.5115 -0.0144 -0.1959
  463MPD2    C5 6894   1.085   2.866   2.059 -0.0486 -0.7748 -0.3009
  463MPD2     H 6895   1.311   2.820   1.767 -0.9918 -5.7053 -1.3468
  463MPD2    H1 6896   1.123   3.070   2.051  1.0005 -0.7313  1.3198
  463MPD2    H2 6897   1.035   2.659   2.059  2.2197  0.2404  1.3257
  463MPD2    H3 6898   1.020   2.889   2.142  1.2788  0.8851  0.2996
  463MPD2     N 6899   1.301   3.079   1.843 -0.1282 -0.4377 -0.2201
  463MPD2    H5 6900   1.280   3.167   1.888 -2.2918  0.7336 -3.4885
  463MPD2    N1 6901   1.213   2.597   1.856 -0.0037  0.0205  0.0083
  463MPD2    H7 6902   1.282   2.598   1.781 -1.5301  0.2927 -1.3810
  464TMC3    C1 6903   1.207   2.353   1.830 -0.0238  0.2365  0.5943
  464TMC3    C2 6904   1.299   2.367   1.732 -0.3701  0.3578 -0.6400
  464TMC3    C3 6905   1.323   2.260   1.658  0.1624 -0.1634 -0.0159
  464TMC3    C4 6906   1.152   2.232   1.859  0.1150  0.4020  0.2379
  464TMC3    C5 6907   1.179   2.121   1.779 -0.6761 -0.2158  0.1823
  464TMC3    C6 6908   1.264   2.134   1.674 -0.5926  0.0850 -0.0775
  464TMC3     C 6909   1.163   2.468   1.902 -0.5553 -0.6108  0.5908
  464TMC3     O 6910   1.073   2.445   1.983  0.1361  0.1789  0.0982
  464TMC3     H 6911   1.353   2.458   1.706  1.6874 -0.2153  1.7440
  464TMC3    H1 6912   1.079   2.224   1.939  0.6340  2.4523  0.9337
  464TMC3    H2 6913   1.287   2.048   1.613 -1.3488 -0.6052  0.6176
  464TMC3    C7 6914   1.105   2.004   1.808 -0.2675 -0.2003  0.1626
  464TMC3    C8 6915   1.402   2.290   1.537  0.3041  0.1021 -0.2334
  464TMC3    O1 6916   1.035   1.998   1.906 -0.0445 -0.2207  0.2288
  464TMC3    O2 6917   1.404   2.405   1.499  0.5765  0.9497 -0.4918
  465MPD2     C 6918   3.602   1.356  16.587 -0.2918  0.4370  0.2528
  465MPD2    C1 6919   3.498   1.378  16.676  0.2780  1.2554  0.8426
  465MPD2    C2 6920   3.372   1.401  16.628 -0.3011 -0.3278 -0.2973
  465MPD2    C3 6921   3.350   1.417  16.491  0.2545 -0.2603 -0.1293
  465MPD2    C4 6922   3.450   1.396  16.400 -0.5178  0.4228  0.3292
  465MPD2    C5 6923   3.577   1.371  16.454  0.3907 -0.0264  0.0480
  465MPD2     H 6924   3.295   1.419  16.702  1.8542  2.8524  1.1511
  465MPD2    H1 6925   3.437   1.405  16.293 -0.8394 -3.9863  0.0162
  465MPD2    H2 6926   3.704   1.341  16.622 -0.4928  0.1868  0.7373
  465MPD2    H3 6927   3.662   1.371  16.387  0.8416 -1.9697  0.6104
  465MPD2     N 6928   3.218   1.455  16.449  0.0522  0.3375  0.3068
  465MPD2    H5 6929   3.149   1.442  16.522 -1.0006  2.1225 -0.3823
  465MPD2    N1 6930   3.519   1.394  16.815  0.0031  0.4491  0.4535
  465MPD2    H7 6931   3.439   1.403  16.877 -0.6045 -2.1512  0.0534
  466TMC3    C1 6932   2.824   1.528  16.371  0.1136  0.0850  0.4433
  466TMC3    C2 6933   2.817   1.661  16.352  0.0777 -0.3071  0.6568
  466TMC3    C3 6934   2.926   1.725  16.314 -0.7405 -0.0151 -0.7954
  466TMC3    C4 6935   2.940   1.460  16.360 -0.0327  0.0985  0.3602
  466TMC3    C5 6936   3.052   1.527  16.306 -0.2631  0.3737  0.3333
  466TMC3    C6 6937   3.039   1.660  16.277  0.0243 -0.0554  0.0949
  466TMC3     C 6938   2.692   1.468  16.341 -0.3138  0.2864 -0.4196
  466TMC3     O 6939   2.587   1.529  16.356  0.3708 -0.7272 -0.7010
  466TMC3     H 6940   2.728   1.723  16.355  1.3500  1.5782 -0.0437
  466TMC3    H1 6941   2.952   1.353  16.374 -1.8556  0.0750  1.6666
  466TMC3    H2 6942   3.120   1.722  16.239  0.0915 -0.7615 -0.9221
  466TMC3    C7 6943   3.187   1.492  16.322  0.0747  0.0234  0.0400
  466TMC3    C8 6944   2.961   1.846  16.395  0.9203 -0.5834 -0.2924
  466TMC3    O1 6945   3.258   1.528  16.231 -0.2442 -0.9805  0.1835
  466TMC3    O2 6946   3.083   1.865  16.395  0.7992 -0.2671 -0.0780
  467TMC3    C1 6947   4.081   0.358  13.732  0.1361  0.6870  0.7275
  467TMC3    C2 6948   4.012   0.393  13.620  0.0822  0.6311  0.0050
  467TMC3    C3 6949   3.894   0.328  13.589 -0.0453 -0.2543  0.5535
  467TMC3    C4 6950   4.046   0.263  13.823  0.2711 -0.2320  0.2861
  467TMC3    C5 6951   3.920   0.205  13.797 -0.1346 -0.2162 -0.1417
  467TMC3    C6 6952   3.846   0.242  13.685  0.6248  0.5354  0.3468
  467TMC3     C 6953   4.214   0.409  13.739 -0.3368  0.9750  0.9313
  467TMC3     O 6954   4.275   0.445  13.641 -0.1728  0.5146 -0.1615
  467TMC3     H 6955   4.051   0.450  13.536  1.4965  1.2710  1.0797
  467TMC3    H1 6956   4.099   0.229  13.911  0.9355 -0.8540 -0.3561
  467TMC3    H2 6957   3.747   0.200  13.671  0.8997 -0.2008  0.6341
  467TMC3    C7 6958   3.873   0.096  13.878  0.2266 -0.0745 -0.5714
  467TMC3    C8 6959   3.850   0.339  13.452  0.6893  0.7434 -0.2222
  467TMC3    O1 6960   3.956   0.011  13.905 -0.1139 -0.2419  0.1687
  467TMC3    O2 6961   3.862   0.452  13.403 -0.4095 -0.0709  0.5078
  468MPD2     C 6962   2.885   3.129  10.849 -0.1651  1.2524  0.0199
  468MPD2    C1 6963   3.009   3.089  10.902  0.1804  0.5630  0.2657
  468MPD2    C2 6964   3.039   2.956  10.887  0.9356 -0.1193  0.2411
  468MPD2    C3 6965   2.958   2.861  10.828 -0.3198  0.5111 -0.0893
  468MPD2    C4 6966   2.835   2.901  10.798  1.0356 -0.7287 -0.2251
  468MPD2    C5 6967   2.802   3.029  10.801  0.7057 -0.4947  0.0038
  468MPD2     H 6968   3.133   2.921  10.927  1.8573  0.1562 -1.7331
  468MPD2    H1 6969   2.764   2.831  10.756  0.3343 -0.9472  1.3158
  468MPD2    H2 6970   2.857   3.234  10.841  1.9409  1.8544  0.7374
  468MPD2    H3 6971   2.701   3.061  10.774  1.4262  1.3378 -0.5333
  468MPD2     N 6972   2.994   2.730  10.807 -0.1356  0.0665  0.1414
  468MPD2    H5 6973   2.913   2.677  10.777 -0.2378  2.1738 -3.3346
  468MPD2    N1 6974   3.100   3.177  10.969  0.3885  0.2340  0.4897
  468MPD2    H7 6975   3.185   3.134  11.005  0.0520 -0.9668 -0.1638
  469TMC3    C1 6976   3.183   3.368  11.074  0.4293 -0.6563 -0.0087
  469TMC3    C2 6977   3.312   3.324  11.056  0.3563  0.0482  0.1320
  469TMC3    C3 6978   3.407   3.373  11.145  0.0362  1.0030 -0.2099
  469TMC3    C4 6979   3.152   3.453  11.174 -0.5349 -0.0665  0.2094
  469TMC3    C5 6980   3.246   3.492  11.265 -0.1505 -0.7895 -0.0166
  469TMC3    C6 6981   3.378   3.460  11.245 -0.0668  0.1612 -0.4014
  469TMC3     C 6982   3.072   3.314  10.998  0.4205  0.3480 -0.4321
  469TMC3     O 6983   2.966   3.375  10.988  0.0245  0.2715 -0.0293
  469TMC3     H 6984   3.342   3.259  10.975 -1.6348  1.2881 -1.6149
  469TMC3    H1 6985   3.050   3.488  11.174 -0.3673  0.4219  0.4037
  469TMC3    H2 6986   3.463   3.500  11.298 -1.9397  0.2069  2.5777
  469TMC3    C7 6987   3.200   3.536  11.394 -0.1354 -0.3279  0.0011
  469TMC3    C8 6988   3.546   3.345  11.113  0.5294  0.2849 -0.5332
  469TMC3    O1 6989   3.078   3.525  11.407 -0.1190 -0.7007 -0.4821
  469TMC3    O2 6990   3.580   3.311  11.001  0.3015  0.1603 -0.3243
  470TMC3    C1 6991   0.601   4.577   0.770 -0.8318  0.2673 -0.6845
  470TMC3    C2 6992   0.561   4.703   0.801 -0.3538 -0.7731 -0.1134
  470TMC3    C3 6993   0.607   0.035   0.920  0.0803 -0.0329  0.0737
  470TMC3    C4 6994   0.695   4.507   0.842 -0.8194  0.2607  0.1798
  470TMC3    C5 6995   0.737   4.565   0.959  0.1595 -0.2541 -0.0924
  470TMC3    C6 6996   0.706   4.696   0.992  0.4298  0.0388  0.6666
  470TMC3     C 6997   0.549   4.528   0.646 -0.4168 -0.4510 -0.8369
  470TMC3     O 6998   0.520   4.611   0.561  0.6103 -0.2028  0.2906
  470TMC3     H 6999   0.474   0.021   0.752  1.2948  0.7865 -1.7544
  470TMC3    H1 7000   0.736   4.414   0.806  1.5837  1.1506  0.6270
  470TMC3    H2 7001   0.746   0.023   1.080  2.4681  0.7311 -0.6417
  470TMC3    C7 7002   0.853   4.504   1.009  0.3598  0.0612  0.4700
  470TMC3    C8 7003   0.558   0.165   0.962 -0.5087 -0.4821 -0.5544
  470TMC3    O1 7004   0.923   4.424   0.947 -0.2965 -0.5589 -0.8420
  470TMC3    O2 7005   0.568   0.191   1.079  0.0279  0.0038 -0.1496
  471MPD2     C 7006   0.941   0.176  16.668  0.8119 -0.5666 -0.5241
  471MPD2    C1 7007   0.925   0.046  16.719  0.4105  0.2102 -0.1436
  471MPD2    C2 7008   0.934   0.036  16.862 -0.3532  0.1552 -0.4566
  471MPD2    C3 7009   0.962   0.145  16.942  0.1578 -0.4307  0.5350
  471MPD2    C4 7010   0.976   0.271  16.887  0.4864  0.9995  0.3893
  471MPD2    C5 7011   0.963   0.283  16.751  0.4302  0.4914  0.8136
  471MPD2     H 7012   0.934   4.661  16.909 -1.3120  0.3832  0.0230
  471MPD2    H1 7013   0.994   0.357  16.951 -0.9838  1.4981  0.1357
  471MPD2    H2 7014   0.928   0.188  16.561  1.0234  0.4048 -0.4411
  471MPD2    H3 7015   0.964   0.383  16.707  0.6856  0.5960  1.0600
  471MPD2     N 7016   0.980   0.134  17.076  0.2934  0.1837  0.4639
  471MPD2    H5 7017   0.969   0.039  17.111 -1.0469  0.6614  1.3150
  471MPD2    N1 7018   0.899   4.654  16.642 -0.0695 -0.3638  0.1538
  471MPD2    H7 7019   0.886   4.567  16.694  3.4691 -0.5253  0.7925
  472TMC3    C1 7020   0.855   4.520  16.466  0.0422  0.2934 -0.5166
  472TMC3    C2 7021   0.781   4.512  16.357 -0.3745  0.1757 -0.1783
  472TMC3    C3 7022   0.678   4.422  16.347  0.2035  0.4511 -1.0014
  472TMC3    C4 7023   0.832   4.430  16.568 -0.3036 -0.0461  0.0581
  472TMC3    C5 7024   0.728   4.342  16.557 -0.3240 -0.8233  0.2189
  472TMC3    C6 7025   0.651   4.327  16.448  0.1735  0.2737  0.3061
  472TMC3     C 7026   0.890   4.654  16.508  1.5291 -0.2398  0.1887
  472TMC3     O 7027   0.914   0.016  16.423  0.1623 -0.6535  0.4692
  472TMC3     H 7028   0.789   4.590  16.283  1.4202  0.0271 -0.1339
  472TMC3    H1 7029   0.908   4.412  16.643 -1.2899 -1.1538  0.8018
  472TMC3    H2 7030   0.559   4.272  16.460 -0.4542  1.8166  2.5612
  472TMC3    C7 7031   0.694   4.266  16.680  0.6337  0.3712 -0.2988
  472TMC3    C8 7032   0.635   4.400  16.209 -0.3112 -0.4139  0.3836
  472TMC3    O1 7033   0.706   4.324  16.784 -0.5577 -0.1559  0.9645
  472TMC3    O2 7034   0.668   4.480  16.122 -0.3773  0.1293 -0.4057
  473MPD2     C 7035   1.409   2.710  13.987 -0.1325  0.4541 -0.5136
  473MPD2    C1 7036   1.330   2.815  14.033 -0.7550  0.2227 -0.3184
  473MPD2    C2 7037   1.366   2.905  14.133 -0.2870  0.2569  0.0210
  473MPD2    C3 7038   1.493   2.893  14.190 -0.4159  0.1710 -0.3478
  473MPD2    C4 7039   1.576   2.789  14.144  0.2301 -0.9946  0.5116
  473MPD2    C5 7040   1.533   2.702  14.051  0.1844  0.8628 -0.2045
  473MPD2     H 7041   1.308   2.993  14.158 -0.2581  0.0815  0.6947
  473MPD2    H1 7042   1.680   2.787  14.176  0.6630 -2.6263 -1.0344
  473MPD2    H2 7043   1.377   2.626  13.927 -0.7533 -0.6261  1.3360
  473MPD2    H3 7044   1.602   2.626  14.017  0.0085  1.0985 -1.0701
  473MPD2     N 7045   1.532   2.992  14.282 -0.0266  0.6037  0.7161
  473MPD2    H5 7046   1.476   3.077  14.277 -0.9626 -0.1797 -1.6909
  473MPD2    N1 7047   1.213   2.843  13.965 -0.0990  0.9129  0.4653
  473MPD2    H7 7048   1.144   2.901  14.012 -0.3402  1.4925 -0.5945
  474TMC3    C1 7049   1.685   3.156  14.323 -0.0529  0.0008  0.0924
  474TMC3    C2 7050   1.640   3.231  14.217  0.2068 -0.3589  0.5555
  474TMC3    C3 7051   1.678   3.361  14.210  0.8798 -0.3560  0.2587
  474TMC3    C4 7052   1.741   3.208  14.433 -0.6716 -0.1086  0.1524
  474TMC3    C5 7053   1.771   3.342  14.424  0.8229  0.2829 -0.8100
  474TMC3    C6 7054   1.750   3.415  14.311 -0.6592  0.0592 -0.0321
  474TMC3     C 7055   1.664   3.016  14.324 -0.6098  0.0071 -0.2466
  474TMC3     O 7056   1.760   2.940  14.340  0.4092  0.2920  0.0055
  474TMC3     H 7057   1.587   3.189  14.133 -0.6031  0.4436  0.6656
  474TMC3    H1 7058   1.782   3.147  14.513  1.7572 -1.9552 -2.5031
  474TMC3    H2 7059   1.783   3.519  14.315  0.3684 -0.2868  0.4877
  474TMC3    C7 7060   1.828   3.412  14.534 -0.6221 -0.5481 -0.1218
  474TMC3    C8 7061   1.645   3.424  14.086 -0.7755 -0.2409  0.0004
  474TMC3    O1 7062   1.894   3.512  14.507  0.1380  0.6823 -0.6143
  474TMC3    O2 7063   1.643   3.352  13.990 -0.3721 -0.7014  0.8270
  475MPD2     C 7064   4.650   0.206  10.219  0.0015 -0.4863 -0.9619
  475MPD2    C1 7065   4.665   0.319  10.130 -0.1550  0.4941  0.2029
  475MPD2    C2 7066   4.577   0.422  10.137 -0.3037  0.1122  0.7176
  475MPD2    C3 7067   4.468   0.418  10.228 -0.1743 -0.6381 -0.0621
  475MPD2    C4 7068   4.455   0.298  10.307 -0.0864  0.1956  0.4817
  475MPD2    C5 7069   4.544   0.197  10.301  0.1462 -0.1210 -0.0246
  475MPD2     H 7070   4.589   0.511  10.077  2.2439 -0.5616  0.2378
  475MPD2    H1 7071   4.380   0.290  10.385 -2.1340 -1.0728 -1.6582
  475MPD2    H2 7072   4.719   0.123  10.232 -0.3976 -0.5950  0.4729
  475MPD2    H3 7073   4.535   0.106  10.359  0.3508 -0.2450 -0.1884
  475MPD2     N 7074   4.399   0.542  10.246  0.6460  0.1104  0.3112
  475MPD2    H5 7075   4.434   0.618  10.189  0.0464  1.4566  1.7474
  475MPD2    N1 7076   0.059   0.316  10.053  0.4538 -0.0294  0.0191
  475MPD2    H7 7077   0.116   0.234  10.073 -0.0189 -0.6165 -1.0201
  476TMC3    C1 7078   0.229   0.386   9.898 -0.0912 -0.5541 -0.3995
  476TMC3    C2 7079   0.273   0.256   9.888  0.1033  0.3889  0.0859
  476TMC3    C3 7080   0.394   0.238   9.814  0.0824 -1.1097 -0.1194
  476TMC3    C4 7081   0.308   0.490   9.862  0.5929 -0.0069 -0.5916
  476TMC3    C5 7082   0.431   0.473   9.805  0.6402 -0.2098 -0.3034
  476TMC3    C6 7083   0.474   0.342   9.785 -0.1368 -0.4628 -0.3515
  476TMC3     C 7084   0.101   0.418   9.967 -0.8393 -0.3254  0.0574
  476TMC3     O 7085   0.067   0.537   9.968  0.2037 -0.1525 -0.3130
  476TMC3     H 7086   0.213   0.170   9.916  1.2917 -0.4124  0.1243
  476TMC3    H1 7087   0.280   0.592   9.887 -0.6740 -0.9584  1.8644
  476TMC3    H2 7088   0.575   0.323   9.749 -0.8818  1.1937 -3.2745
  476TMC3    C7 7089   0.530   0.579   9.806  0.9038 -0.3934 -0.3599
  476TMC3    C8 7090   0.451   0.103   9.804  0.0742  0.3884 -0.8413
  476TMC3    O1 7091   0.649   0.553   9.782  0.5250  0.1219  0.1377
  476TMC3    O2 7092   0.567   0.100   9.768  0.1159  0.8172 -0.0905
  477MPD2     C 7093   1.828   1.818  11.088  0.3476  0.7778  0.4512
  477MPD2    C1 7094   1.795   1.866  11.211 -1.3516 -1.1280 -0.6117
  477MPD2    C2 7095   1.831   1.791  11.322  0.5861  0.2802  0.0276
  477MPD2    C3 7096   1.907   1.676  11.311 -0.1800 -0.6395 -0.0400
  477MPD2    C4 7097   1.946   1.633  11.184  0.2646  0.2347 -0.5777
  477MPD2    C5 7098   1.900   1.701  11.077 -0.1769  0.5941  0.1862
  477MPD2     H 7099   1.801   1.821  11.421  1.9465  2.8096 -0.3275
  477MPD2    H1 7100   1.998   1.540  11.162 -0.5233 -0.5369  0.7706
  477MPD2    H2 7101   1.795   1.866  10.997 -1.3801 -1.5553 -0.1664
  477MPD2    H3 7102   1.922   1.654  10.982  0.4227  0.9616  0.1420
  477MPD2     N 7103   1.951   1.617  11.433  0.4542 -0.5293  0.2828
  477MPD2    H5 7104   1.923   1.672  11.514 -0.4777 -0.0250 -0.3858
  477MPD2    N1 7105   1.733   1.995  11.215 -0.6107  0.0244 -0.4378
  477MPD2    H7 7106   1.729   2.043  11.126  0.7856 -0.3679 -0.7084
  478TMC3    C1 7107   1.613   2.176  11.290  0.2316  0.3290  0.4494
  478TMC3    C2 7108   1.624   2.295  11.360 -0.0929 -0.4378  0.2150
  478TMC3    C3 7109   1.543   2.402  11.333 -0.2030  0.3376 -0.8052
  478TMC3    C4 7110   1.510   2.163  11.207  0.5307 -0.1205 -0.2023
  478TMC3    C5 7111   1.426   2.272  11.179  0.0399 -0.7501  0.2989
  478TMC3    C6 7112   1.441   2.389  11.246  0.1857  0.4247 -0.0684
  478TMC3     C 7113   1.701   2.068  11.323  0.0680 -0.7202  0.7267
  478TMC3     O 7114   1.706   2.040  11.440 -0.7960  0.2560 -0.6548
  478TMC3     H 7115   1.709   2.306  11.427 -1.1218  1.2240  1.2269
  478TMC3    H1 7116   1.496   2.064  11.166 -1.4610 -0.5961  1.6817
  478TMC3    H2 7117   1.360   2.458  11.224 -0.0973 -0.0874 -0.6691
  478TMC3    C7 7118   1.318   2.249  11.089 -0.1396 -0.9718 -0.2609
  478TMC3    C8 7119   1.504   2.463  11.450  0.1542 -0.3015 -0.4761
  478TMC3    O1 7120   1.238   2.156  11.110  0.0518 -0.5281  0.4025
  478TMC3    O2 7121   1.533   2.406  11.550  0.1386 -0.0142 -0.1579
  479MPD2     C 7122   0.697   4.472  14.880 -0.1161  0.4825 -0.0237
  479MPD2    C1 7123   0.643   4.388  14.979  0.6083 -1.0155  0.3348
  479MPD2    C2 7124   0.670   4.416  15.112  0.0726  0.6126  0.2961
  479MPD2    C3 7125   0.749   4.527  15.150  0.2080  1.0136 -0.8392
  479MPD2    C4 7126   0.811   4.592  15.047  0.5952 -0.4767 -0.2402
  479MPD2    C5 7127   0.787   4.567  14.916  0.0958  0.0948 -0.3000
  479MPD2     H 7128   0.633   4.349  15.189  0.4442 -0.3954 -0.4028
  479MPD2    H1 7129   0.875   4.675  15.074 -0.7994  0.2299  0.9647
  479MPD2    H2 7130   0.686   4.453  14.774  2.6879 -0.3217 -0.1633
  479MPD2    H3 7131   0.846   4.615  14.839 -0.8933 -0.4393 -1.3947
  479MPD2     N 7132   0.778   4.564  15.283  0.3896 -0.3461 -0.7378
  479MPD2    H5 7133   0.862   4.620  15.291  0.6298 -0.9142  0.7576
  479MPD2    N1 7134   0.556   4.283  14.938 -0.3264 -0.6911  0.7167
  479MPD2    H7 7135   0.532   4.267  14.841 -0.7646 -2.3539  1.1029
  480TMC3    C1 7136   0.436   4.297  15.439  0.0855  0.0953 -0.0709
  480TMC3    C2 7137   0.341   4.363  15.361 -0.2748 -0.0732  0.1556
  480TMC3    C3 7138   0.373   4.477  15.304  0.3375 -0.5800 -0.6075
  480TMC3    C4 7139   0.554   4.357  15.465  0.4093  0.6881 -0.3181
  480TMC3    C5 7140   0.587   4.465  15.394  0.5564 -0.1537  0.1405
  480TMC3    C6 7141   0.495   4.530  15.305  0.2033 -0.4587  0.1266
  480TMC3     C 7142   0.397   4.162  15.488  0.2293  0.8442 -0.0273
  480TMC3     O 7143   0.484   4.079  15.517  0.3828  0.0796  0.0278
  480TMC3     H 7144   0.251   4.309  15.333 -1.5604  2.3406 -0.3199
  480TMC3    H1 7145   0.635   4.314  15.522  0.8238  1.3227 -0.4343
  480TMC3    H2 7146   0.526   4.626  15.266  1.0329  0.7143  3.7204
  480TMC3    C7 7147   0.721   4.513  15.396 -0.4872  0.5067 -0.5950
  480TMC3    C8 7148   0.294   4.507  15.187  0.2737  0.4094  0.0895
  480TMC3    O1 7149   0.776   4.508  15.505 -1.0007  0.5878 -0.3430
  480TMC3    O2 7150   0.174   4.500  15.204 -0.3613  0.1592  0.2259
  481MPD2     C 7151   2.524   4.162  14.652  0.0155 -0.1370 -0.1042
  481MPD2    C1 7152   2.384   4.173  14.647  0.4587  0.1867  0.0575
  481MPD2    C2 7153   2.319   4.193  14.769  0.2256 -0.1138 -0.5611
  481MPD2    C3 7154   2.391   4.195  14.889  0.7631  0.1299 -0.7988
  481MPD2    C4 7155   2.523   4.165  14.898 -0.4176 -0.1264  0.0537
  481MPD2    C5 7156   2.584   4.147  14.780  0.6796 -0.1982  0.4408
  481MPD2     H 7157   2.211   4.202  14.773  0.5235  3.0369  0.0715
  481MPD2    H1 7158   2.574   4.160  14.993  0.0829  0.8198 -0.1645
  481MPD2    H2 7159   2.583   4.149  14.562 -0.3400  0.5872 -0.4409
  481MPD2    H3 7160   2.691   4.128  14.779  0.2206 -2.7634 -1.3654
  481MPD2     N 7161   2.329   4.214  15.013  0.3869  0.3210  0.1816
  481MPD2    H5 7162   2.380   4.176  15.093 -1.4222  0.9657  1.6512
  481MPD2    N1 7163   2.326   4.178  14.519  0.4484 -0.5425  0.5748
  481MPD2    H7 7164   2.394   4.175  14.444 -1.6509  0.5956 -1.3903
  482TMC3    C1 7165   2.166   4.197  14.353 -0.0936 -0.3732 -0.5594
  482TMC3    C2 7166   2.045   4.159  14.303 -0.4502  0.2130  0.1299
  482TMC3    C3 7167   2.023   4.168  14.168 -0.5241 -0.4322 -0.6679
  482TMC3    C4 7168   2.243   4.279  14.281  0.6340  0.3560  0.5011
  482TMC3    C5 7169   2.216   4.299  14.153 -0.1897  0.1433  0.2557
  482TMC3    C6 7170   2.108   4.238  14.089  0.1567 -0.7378 -0.0678
  482TMC3     C 7171   2.192   4.166  14.487  0.5498 -0.0692  0.3481
  482TMC3     O 7172   2.099   4.129  14.553  0.3652  0.3311  0.4300
  482TMC3     H 7173   1.985   4.088  14.360 -0.3696  0.5602  0.6449
  482TMC3    H1 7174   2.323   4.340  14.323 -0.6737  1.7401  0.9758
  482TMC3    H2 7175   2.097   4.243  13.981  2.7469 -2.0556 -0.3817
  482TMC3    C7 7176   2.325   4.353  14.073  0.5272 -0.2526  0.2312
  482TMC3    C8 7177   1.896   4.117  14.116 -0.0517  1.1882  0.3338
  482TMC3    O1 7178   2.436   4.353  14.126  0.1513  0.3717  0.2058
  482TMC3    O2 7179   1.852   4.020  14.182  0.8677 -0.1325  0.1094
  483TMC3    C1 7180   0.503   3.492   0.925  0.4907 -0.1424 -0.4737
  483TMC3    C2 7181   0.586   3.590   0.889 -0.3507 -0.6113  0.7598
  483TMC3    C3 7182   0.708   3.598   0.945  0.5192 -0.3578 -0.1086
  483TMC3    C4 7183   0.529   3.422   1.039  0.5720 -0.2593 -0.9497
  483TMC3    C5 7184   0.657   3.425   1.090  0.7333  0.4333  0.2140
  483TMC3    C6 7185   0.751   3.512   1.044  0.0480 -0.1601  0.7458
  483TMC3     C 7186   0.413   3.443   0.819  0.7121  0.0573  0.1589
  483TMC3     O 7187   0.362   3.539   0.763  0.2839 -0.2218 -0.4041
  483TMC3     H 7188   0.563   3.645   0.798  1.1478 -2.5763 -0.8146
  483TMC3    H1 7189   0.461   3.349   1.081 -0.2176  1.0405  0.0308
  483TMC3    H2 7190   0.853   3.526   1.078  0.0202  0.5573  0.5231
  483TMC3    C7 7191   0.708   3.297   1.121 -0.2814  0.5471 -0.1779
  483TMC3    C8 7192   0.803   3.629   0.844 -0.4128 -0.2501  0.5457
  483TMC3    O1 7193   0.629   3.212   1.157  0.2297  0.0563  0.2908
  483TMC3    O2 7194   0.776   3.589   0.733 -0.2978  0.1814 -0.5393
  484MPD2     C 7195   2.523   1.395  12.089 -0.4647  0.6456 -0.0922
  484MPD2    C1 7196   2.598   1.293  12.147 -0.2870  0.1016 -0.6648
  484MPD2    C2 7197   2.734   1.310  12.147 -0.5087  0.2964  0.3275
  484MPD2    C3 7198   2.800   1.409  12.072 -0.0010 -0.3355  0.1739
  484MPD2    C4 7199   2.719   1.505  12.024  0.0704 -0.0580 -0.5085
  484MPD2    C5 7200   2.584   1.501  12.025  0.3987 -0.4879  0.4804
  484MPD2     H 7201   2.796   1.248  12.211  4.7576  3.1800 -2.0171
  484MPD2    H1 7202   2.774   1.584  11.974 -0.4167  0.4099 -0.3107
  484MPD2    H2 7203   2.415   1.401  12.082 -0.2050  3.7314 -1.4036
  484MPD2    H3 7204   2.532   1.582  11.975 -1.2059 -2.1237 -0.4889
  484MPD2     N 7205   2.938   1.423  12.054 -0.1600 -0.4344 -0.3602
  484MPD2    H5 7206   2.964   1.484  11.978  1.7221 -0.4349  0.2893
  484MPD2    N1 7207   2.533   1.180  12.205 -0.2515  0.1286 -0.3018
  484MPD2    H7 7208   2.436   1.172  12.175 -0.3284 -0.7630  0.1867
  485TMC3    C1 7209   3.155   1.353  12.039  0.0676  0.4252  0.8827
  485TMC3    C2 7210   3.246   1.254  12.072 -0.2534 -0.4173 -0.4347
  485TMC3    C3 7211   3.380   1.287  12.076  0.3200  0.1168 -0.6277
  485TMC3    C4 7212   3.193   1.482  11.998  0.0164 -0.0268  0.4348
  485TMC3    C5 7213   3.331   1.506  12.000 -0.4038  0.0636 -0.6249
  485TMC3    C6 7214   3.421   1.413  12.049 -0.0984  0.3432 -0.1632
  485TMC3     C 7215   3.027   1.333  12.109 -0.4208  0.6912  0.1490
  485TMC3     O 7216   3.022   1.247  12.194  0.5817 -0.8818  0.2635
  485TMC3     H 7217   3.211   1.155  12.099  0.5721 -0.7595 -0.6102
  485TMC3    H1 7218   3.131   1.554  11.947  0.9338  0.4303 -0.0321
  485TMC3    H2 7219   3.526   1.441  12.059 -0.1152  1.3903 -3.0476
  485TMC3    C7 7220   3.383   1.563  11.879  0.1603 -0.9393  0.1538
  485TMC3    C8 7221   3.468   1.183  12.018 -0.4902  0.4080 -0.9889
  485TMC3    O1 7222   3.319   1.654  11.826  0.3455 -0.1089 -0.3152
  485TMC3    O2 7223   3.567   1.230  11.968  0.7810 -0.6046 -0.3431
  486MPD2     C 7224   4.561   0.206  13.136 -0.2029  0.6975 -0.0510
  486MPD2    C1 7225   4.532   0.146  13.013 -0.0860 -0.5061  0.1865
  486MPD2    C2 7226   4.538   0.221  12.893  1.5004  0.3412  0.4039
  486MPD2    C3 7227   4.577   0.354  12.906  0.3470 -0.1884 -0.6951
  486MPD2    C4 7228   4.620   0.407  13.029  0.0912  0.1942  0.5317
  486MPD2    C5 7229   4.618   0.327  13.142  0.2213  0.1341 -0.0136
  486MPD2     H 7230   4.497   0.183  12.800 -1.2081  1.9718  0.9107
  486MPD2    H1 7231   4.667   0.504  13.037  2.3878 -0.8331 -0.4913
  486MPD2    H2 7232   4.545   0.153  13.229  0.2178  1.2590  0.3443
  486MPD2    H3 7233   4.648   0.376  13.234 -0.3359 -0.0518  0.2681
  486MPD2     N 7234   4.570   0.433  12.785  0.0641 -0.1174  0.0858
  486MPD2    H5 7235   4.554   0.376  12.702  2.1236 -0.6874  0.0873
  486MPD2    N1 7236   4.487   0.011  13.018 -0.5624  0.3319 -0.3413
  486MPD2    H7 7237   4.476   4.691  13.110 -0.2624 -0.4175 -0.6576
  487TMC3    C1 7238   4.415   4.522  12.941 -0.0030 -0.0562  0.0836
  487TMC3    C2 7239   4.393   4.438  12.828  0.4698 -0.0855  0.4297
  487TMC3    C3 7240   4.363   4.309  12.849 -0.2016  0.7588 -0.2559
  487TMC3    C4 7241   4.440   4.474  13.065  0.2562  0.2823  1.0160
  487TMC3    C5 7242   4.428   4.338  13.077  0.2400  0.3952  0.1768
  487TMC3    C6 7243   4.403   4.256  12.966 -0.0655 -0.3723  0.0863
  487TMC3     C 7244   4.445   4.660  12.914  0.0188  0.2602  0.0762
  487TMC3     O 7245   4.453   4.689  12.795  0.1696 -0.2548 -0.1626
  487TMC3     H 7246   4.368   4.474  12.729  1.4154  0.8793  0.5498
  487TMC3    H1 7247   4.451   4.531  13.157 -0.2263  2.9516 -0.5634
  487TMC3    H2 7248   4.390   4.148  12.970  0.5288 -0.5198 -2.2198
  487TMC3    C7 7249   4.450   4.279  13.204  0.6701 -0.9776  0.1428
  487TMC3    C8 7250   4.341   4.223  12.735 -0.2325  0.0500  0.4757
  487TMC3    O1 7251   4.518   4.341  13.286  0.5713  0.3250  0.7420
  487TMC3    O2 7252   4.411   4.257  12.640  0.2391 -0.4895 -0.4114
  488MPD2     C 7253   0.248   1.544  16.002 -1.0589 -0.5965  0.4245
  488MPD2    C1 7254   0.347   1.602  16.074 -0.0575  0.2009  0.2129
  488MPD2    C2 7255   0.361   1.581  16.210 -0.3693 -1.1424  0.2587
  488MPD2    C3 7256   0.272   1.502  16.277  0.4895 -0.0995  0.9819
  488MPD2    C4 7257   0.173   1.441  16.197 -0.4533 -0.4765  0.1324
  488MPD2    C5 7258   0.159   1.454  16.060 -0.5646 -0.5788 -0.3358
  488MPD2     H 7259   0.443   1.626  16.264  0.4314 -1.2727 -0.8532
  488MPD2    H1 7260   0.099   1.373  16.237  0.7018 -1.5172  0.5065
  488MPD2    H2 7261   0.217   1.587  15.908 -0.7690  1.5402  1.2899
  488MPD2    H3 7262   0.070   1.422  16.007  0.0496 -3.7734  0.5613
  488MPD2     N 7263   0.277   1.498  16.418 -0.0740  0.3237 -0.0089
  488MPD2    H5 7264   0.372   1.516  16.449 -0.5040  1.7227  0.4545
  488MPD2    N1 7265   0.433   1.700  16.020 -0.1509  0.6848 -0.0447
  488MPD2    H7 7266   0.485   1.757  16.086 -0.9559  2.0441 -0.5647
  489TMC3    C1 7267   0.211   1.467  16.642 -0.0904  0.3146  0.2426
  489TMC3    C2 7268   0.288   1.577  16.670  0.5123 -0.6788  0.3640
  489TMC3    C3 7269   0.338   1.580  16.796 -0.4233  0.0839 -0.0017
  489TMC3    C4 7270   0.193   1.363  16.729  0.4094 -0.5614 -0.0958
  489TMC3    C5 7271   0.247   1.375  16.855 -0.0251 -0.3919  0.7134
  489TMC3    C6 7272   0.321   1.488  16.893 -0.1078  0.1037 -0.3047
  489TMC3     C 7273   0.176   1.444  16.500  0.3411  0.0263 -0.5633
  489TMC3     O 7274   0.060   1.406  16.467  0.1892 -0.7884  0.1876
  489TMC3     H 7275   0.301   1.662  16.603 -4.9101 -0.7430 -0.7340
  489TMC3    H1 7276   0.154   1.269  16.691  1.7574 -1.5406  0.8953
  489TMC3    H2 7277   0.369   1.503  16.989 -0.7204 -1.1863  0.2000
  489TMC3    C7 7278   0.255   1.263  16.945 -0.5205  0.2568 -0.3303
  489TMC3    C8 7279   0.404   1.707  16.832 -0.9133  0.0232 -0.0906
  489TMC3    O1 7280   0.351   1.269  17.017  0.0070 -0.0889 -0.3959
  489TMC3    O2 7281   0.465   1.760  16.744  0.6033  0.1105  0.2955
  490MPD2     C 7282   0.565   0.630  16.609  0.0277 -0.4641  0.3659
  490MPD2    C1 7283   0.625   0.594  16.731 -0.5711  0.3255  0.2717
  490MPD2    C2 7284   0.707   0.684  16.792 -0.4828 -0.2509  0.1134
  490MPD2    C3 7285   0.731   0.809  16.745 -0.6941 -0.1194  0.4986
  490MPD2    C4 7286   0.649   0.855  16.650  0.3088  0.2979 -0.2701
  490MPD2    C5 7287   0.574   0.762  16.579 -0.1266 -0.9309  0.2281
  490MPD2     H 7288   0.764   0.658  16.880  2.1150 -1.2385 -1.8673
  490MPD2    H1 7289   0.644   0.954  16.606 -2.4068  1.3894  2.4869
  490MPD2    H2 7290   0.515   0.561  16.542 -1.8507  2.7244 -1.4962
  490MPD2    H3 7291   0.510   0.800  16.500  1.9255  1.8040 -0.1033
  490MPD2     N 7292   0.819   0.898  16.809  0.7227 -0.3210  0.2305
  490MPD2    H5 7293   0.875   0.859  16.885 -2.0761 -0.1916  2.3424
  490MPD2    N1 7294   0.610   0.463  16.785  0.0860  0.1383 -0.0781
  490MPD2    H7 7295   0.663   0.449  16.870 -3.0522 -1.3135  1.6444
  491TMC3    C1 7296   0.543   0.245  16.817 -0.2481 -0.1119  0.8518
  491TMC3    C2 7297   0.600   0.251  16.939 -0.3798 -0.4160 -0.9810
  491TMC3    C3 7298   0.633   0.141  17.007 -0.4956  0.3135 -0.6881
  491TMC3    C4 7299   0.518   0.120  16.767  0.2624  0.5706  0.8103
  491TMC3    C5 7300   0.551   0.008  16.832 -0.3235 -0.1008  0.3022
  491TMC3    C6 7301   0.607   0.013  16.958  0.3563  0.3028 -0.1006
  491TMC3     C 7302   0.554   0.349  16.722  0.2522 -0.1954  0.6330
  491TMC3     O 7303   0.504   0.351  16.609  0.2689 -0.1575 -0.3775
  491TMC3     H 7304   0.608   0.346  16.990  3.2060 -2.1177  1.6448
  491TMC3    H1 7305   0.471   0.110  16.669  2.2592 -0.9552  0.0224
  491TMC3    H2 7306   0.653   4.641  16.986  1.2903  0.0948 -2.3418
  491TMC3    C7 7307   0.497   4.601  16.780  0.2786 -0.4290 -1.0007
  491TMC3    C8 7308   0.633   0.162  17.153 -0.5227 -0.1379 -0.5725
  491TMC3    O1 7309   0.487   4.590  16.661 -0.2249 -0.0549 -0.1445
  491TMC3    O2 7310   0.596   0.267  17.193 -0.2857 -0.4125 -0.3122
  492MPD2     C 7311   1.519   1.535  10.996 -0.0717  0.3324  0.4477
  492MPD2    C1 7312   1.434   1.434  10.955 -0.5662 -0.4528  0.1525
  492MPD2    C2 7313   1.373   1.347  11.044 -0.0395  0.0450  0.2040
  492MPD2    C3 7314   1.395   1.357  11.179 -0.2733  0.7645 -0.2126
  492MPD2    C4 7315   1.489   1.454  11.221  0.0975 -0.1887 -0.3492
  492MPD2    C5 7316   1.559   1.536  11.128  0.2953  0.0356  1.0881
  492MPD2     H 7317   1.306   1.273  11.002 -1.1854  0.3900  1.4303
  492MPD2    H1 7318   1.522   1.446  11.324  0.8550  0.9174 -0.5094
  492MPD2    H2 7319   1.557   1.610  10.928 -0.1219 -0.7142 -0.7498
  492MPD2    H3 7320   1.609   1.624  11.167 -0.4804  0.9344  0.0661
  492MPD2     N 7321   1.333   1.275  11.278 -0.2721 -0.1026  0.1936
  492MPD2    H5 7322   1.371   1.266  11.371 -2.7943 -0.1092  1.2289
  492MPD2    N1 7323   1.400   1.435  10.813 -0.6366  0.1821  0.0717
  492MPD2    H7 7324   1.441   1.515  10.766  0.0834  0.3511  0.9947
  493TMC3    C1 7325   1.333   1.357  10.602 -0.1980 -0.0493  0.3406
  493TMC3    C2 7326   1.460   1.368  10.549  0.0993  1.1134  0.0254
  493TMC3    C3 7327   1.494   1.297  10.432 -0.3262 -1.6025 -0.4287
  493TMC3    C4 7328   1.251   1.263  10.548 -0.1766  0.1980  0.2262
  493TMC3    C5 7329   1.287   1.182  10.443  0.9367 -0.0969  0.1761
  493TMC3    C6 7330   1.408   1.199  10.384 -0.5731  0.6062  0.4501
  493TMC3     C 7331   1.318   1.348  10.749  0.1407  0.5860 -0.7366
  493TMC3     O 7332   1.240   1.265  10.790  0.2221  0.2875 -0.0718
  493TMC3     H 7333   1.533   1.437  10.591 -0.4875  2.7732 -1.6672
  493TMC3    H1 7334   1.150   1.276  10.587  0.5058 -0.3558  2.1784
  493TMC3    H2 7335   1.438   1.134  10.302  1.2146  0.4690  1.2016
  493TMC3    C7 7336   1.224   1.045  10.432  0.4052 -0.4705 -0.2956
  493TMC3    C8 7337   1.612   1.348  10.359  0.7494 -0.1908  0.1921
  493TMC3    O1 7338   1.253   0.962  10.346  0.0369  0.1672  0.0364
  493TMC3    O2 7339   1.663   1.456  10.388 -0.4554  0.0376  0.0416
  494TMC3    C1 7340   1.631   2.696   0.041 -0.9723  0.8625 -0.2157
  494TMC3    C2 7341   1.685   2.569   0.029  0.5924  0.1092  0.0768
  494TMC3    C3 7342   1.664   2.502  17.605  0.2179 -0.2003 -0.3352
  494TMC3    C4 7343   1.551   2.737  17.634  0.6517 -0.0944 -0.3194
  494TMC3    C5 7344   1.527   2.668  17.519  0.0663 -0.8538  0.0410
  494TMC3    C6 7345   1.589   2.546  17.500  0.0920  0.0240 -0.1069
  494TMC3     C 7346   1.638   2.765   0.167  0.0594  0.2080  0.8800
  494TMC3     O 7347   1.722   2.722   0.246  0.3497  0.4947 -0.1430
  494TMC3     H 7348   1.730   2.515   0.111 -1.1125 -0.4696  0.6299
  494TMC3    H1 7349   1.507   2.835  17.646 -1.7795 -1.0614 -1.2346
  494TMC3    H2 7350   1.578   2.483  17.412  0.7183  0.8523 -0.7732
  494TMC3    C7 7351   1.535   2.751  17.397 -0.4881  0.2445 -0.0528
  494TMC3    C8 7352   1.723   2.371  17.596 -0.4340 -0.7290  0.1457
  494TMC3    O1 7353   1.629   2.723  17.323 -0.3253 -0.6002 -0.0512
  494TMC3    O2 7354   1.668   2.281  17.539 -0.4259 -0.1286  0.0275
  495TMC3    C1 7355   0.724   0.018  14.332  0.8902 -0.0541  0.5571
  495TMC3    C2 7356   0.634   0.048  14.233  0.5902 -0.1277 -0.2045
  495TMC3    C3 7357   0.520   0.114  14.276  0.5285  0.4590 -0.1779
  495TMC3    C4 7358   0.702   0.038  14.463  0.3474  0.4588 -0.2576
  495TMC3    C5 7359   0.581   0.085  14.505  0.0267  0.0817  0.0911
  495TMC3    C6 7360   0.490   0.124  14.407  0.2244  0.5150 -1.0649
  495TMC3     C 7361   0.809   4.631  14.300  1.3092 -0.6739 -0.2335
  495TMC3     O 7362   0.785   4.571  14.198 -0.5013 -0.1677 -0.1991
  495TMC3     H 7363   0.653   0.027  14.129  0.3961 -0.5439 -0.1530
  495TMC3    H1 7364   0.763   4.714  14.540  1.1417 -2.5348 -2.7051
  495TMC3    H2 7365   0.389   0.154  14.432 -0.7604 -2.9057 -0.9381
  495TMC3    C7 7366   0.536   0.057  14.636 -0.5388 -0.4908  0.8438
  495TMC3    C8 7367   0.403   0.131  14.186 -0.3844 -0.4304 -0.3817
  495TMC3    O1 7368   0.608   0.087  14.732  0.7078  0.5255  0.0689
  495TMC3    O2 7369   0.318   0.211  14.218 -0.6969  0.2077 -0.1351
  496MPD2     C 7370   2.027   4.667  15.169  0.0233 -0.1616  0.7138
  496MPD2    C1 7371   2.103   4.674  15.283  0.1453 -0.0024  0.2717
  496MPD2    C2 7372   2.046   0.007  15.393 -0.5743  0.1278 -0.0736
  496MPD2    C3 7373   1.912   0.044  15.404  0.8194 -0.1539 -0.0062
  496MPD2    C4 7374   1.841   0.022  15.298  0.7788  0.5887 -0.1047
  496MPD2    C5 7375   1.894   4.709  15.178  0.6474  0.2351 -0.0277
  496MPD2     H 7376   2.117   0.024  15.473  0.2403  0.8840 -0.9656
  496MPD2    H1 7377   1.735   0.039  15.314  0.5216 -0.7509 -0.4458
  496MPD2    H2 7378   2.068   4.631  15.075  1.3690  2.0437  0.4548
  496MPD2    H3 7379   1.823   4.712  15.097 -1.2890 -0.2943  1.6528
  496MPD2     N 7380   1.854   0.096  15.522 -0.1077 -0.0993  0.3702
  496MPD2    H5 7381   1.758   0.128  15.515 -0.4053 -0.5170  2.4531
  496MPD2    N1 7382   2.240   4.646  15.271 -0.1794  0.6164  0.5202
  496MPD2    H7 7383   2.283   4.631  15.181 -0.0802  1.3360  0.4443
  497TMC3    C1 7384   1.833   0.165  15.754  0.2374  0.1665  0.1466
  497TMC3    C2 7385   1.719   0.232  15.735 -0.1482 -0.2587 -0.0678
  497TMC3    C3 7386   1.655   0.278  15.846 -0.7965  0.9196  0.9606
  497TMC3    C4 7387   1.890   0.152  15.880 -0.4640  0.0940 -0.4365
  497TMC3    C5 7388   1.834   0.232  15.979  0.1348  0.2523 -0.0688
  497TMC3    C6 7389   1.713   0.293  15.966 -0.3414 -0.3363 -0.0654
  497TMC3     C 7390   1.911   0.097  15.647  0.2686  0.3284  0.1553
  497TMC3     O 7391   2.012   0.039  15.678  0.3727 -0.3003  0.3846
  497TMC3     H 7392   1.666   0.232  15.641  1.4103 -0.2973 -0.9422
  497TMC3    H1 7393   1.966   0.077  15.901 -0.7601 -0.2100 -0.4454
  497TMC3    H2 7394   1.666   0.342  16.051  0.9963  0.1020  0.4099
  497TMC3    C7 7395   1.843   0.169  16.111 -0.0077 -0.7552  0.3305
  497TMC3    C8 7396   1.521   0.231  15.853 -0.0648 -0.1226  0.5515
  497TMC3    O1 7397   1.732   0.136  16.158  0.3125  0.2932  0.2481
  497TMC3    O2 7398   1.449   0.234  15.750  0.1052  0.0557 -0.2881
  498MPD2     C 7399   0.205   4.321   9.512 -0.4236 -0.3256 -0.2058
  498MPD2    C1 7400   0.281   4.437   9.504  0.2033  0.2373  0.3097
  498MPD2    C2 7401   0.207   4.556   9.517 -0.1587  0.5691 -0.3527
  498MPD2    C3 7402   0.069   4.550   9.537  0.0578 -0.0688 -0.1140
  498MPD2    C4 7403   4.721   4.428   9.546 -0.0199  0.4555 -0.5713
  498MPD2    C5 7404   0.070   4.309   9.529 -0.1011 -0.4648 -0.2644
  498MPD2     H 7405   0.257   4.652   9.516  3.3702 -1.2537  1.3094
  498MPD2    H1 7406   4.616   4.412   9.569 -0.1819  0.6151 -1.1875
  498MPD2    H2 7407   0.260   4.228   9.517  0.2393 -0.0190 -1.8983
  498MPD2    H3 7408   0.034   4.207   9.538  0.6157 -0.7634 -0.7753
  498MPD2     N 7409   0.008   4.676   9.543  0.1155 -0.0354 -0.2039
  498MPD2    H5 7410   0.065   0.036   9.532  0.8932 -0.5162  0.1567
  498MPD2    N1 7411   0.421   4.440   9.490  0.6991  0.0965  0.1986
  498MPD2    H7 7412   0.467   4.530   9.496  1.6730 -0.4574  1.1332
  499TMC3    C1 7413   0.641   4.365   9.466  0.3301  0.5745  0.5002
  499TMC3    C2 7414   0.727   4.258   9.486  0.0450 -0.2589 -0.0099
  499TMC3    C3 7415   0.855   4.267   9.443  0.8776  0.0265 -0.1027
  499TMC3    C4 7416   0.678   4.485   9.407  0.0743 -0.6006  0.2422
  499TMC3    C5 7417   0.808   4.490   9.375 -0.2321  0.2583  0.3181
  499TMC3    C6 7418   0.896   4.380   9.383  0.0196 -0.1679 -0.0780
  499TMC3     C 7419   0.500   4.326   9.486 -0.1900 -0.0023 -0.3683
  499TMC3     O 7420   0.476   4.209   9.505  0.3320  0.2848  0.3470
  499TMC3     H 7421   0.688   4.163   9.521 -1.8035  0.8864  1.0226
  499TMC3    H1 7422   0.598   4.539   9.357 -0.1491  1.5201  2.8881
  499TMC3    H2 7423   1.001   4.391   9.360  0.0389  0.7095  0.4460
  499TMC3    C7 7424   0.847   4.617   9.309  0.4449  0.6054  0.1032
  499TMC3    C8 7425   0.921   4.145   9.402 -0.2457 -0.5819  0.0194
  499TMC3    O1 7426   0.789   4.716   9.346 -0.3244  0.0908  0.0611
  499TMC3    O2 7427   1.002   4.163   9.312 -0.2772 -0.6703 -0.3883
  500MPD2     C 7428   1.128   1.653   9.490 -0.1544 -0.2932  1.0412
  500MPD2    C1 7429   1.069   1.778   9.462 -1.1772  0.5753  0.8091
  500MPD2    C2 7430   0.952   1.781   9.389  0.3335  0.3779 -0.4905
  500MPD2    C3 7431   0.902   1.665   9.340 -0.2155  0.9852 -0.0325
  500MPD2    C4 7432   0.956   1.543   9.372  0.3130  0.5942  0.3076
  500MPD2    C5 7433   1.068   1.538   9.439 -0.3540 -0.4817  0.3256
  500MPD2     H 7434   0.921   1.880   9.358 -1.8668 -0.2644 -0.3001
  500MPD2    H1 7435   0.917   1.447   9.340 -1.8943  1.0290  1.6741
  500MPD2    H2 7436   1.214   1.639   9.555 -0.0072 -2.6860  0.3278
  500MPD2    H3 7437   1.110   1.439   9.456 -1.7151 -1.1935 -0.4223
  500MPD2     N 7438   0.787   1.664   9.262  0.0542 -0.0651 -0.3866
  500MPD2    H5 7439   0.752   1.570   9.241 -1.3822  0.7624 -1.7365
  500MPD2    N1 7440   1.111   1.896   9.525 -0.3321  1.1530  0.2744
  500MPD2    H7 7441   1.040   1.968   9.519  0.2360  1.6125 -1.0497
  501TMC3    C1 7442   1.243   2.054   9.655  0.2362 -0.0327 -0.0914
  501TMC3    C2 7443   1.129   2.139   9.653 -0.1382 -0.1145  0.7094
  501TMC3    C3 7444   1.136   2.264   9.716 -0.0039  0.6885 -0.2617
  501TMC3    C4 7445   1.347   2.077   9.745 -0.1353  0.4167  0.5610
  501TMC3    C5 7446   1.347   2.195   9.816  0.2362 -0.0314  0.5369
  501TMC3    C6 7447   1.252   2.291   9.793 -0.4516  0.5419  0.0511
  501TMC3     C 7448   1.233   1.923   9.587 -0.1476 -0.1176  0.2440
  501TMC3     O 7449   1.333   1.846   9.598  0.1134 -0.3935 -0.8097
  501TMC3     H 7450   1.043   2.135   9.586  0.9605 -1.4895 -0.6212
  501TMC3    H1 7451   1.416   1.994   9.759 -0.0986  0.7404  2.2507
  501TMC3    H2 7452   1.266   2.390   9.836  0.9811  0.5463 -0.4196
  501TMC3    C7 7453   1.421   2.219   9.932 -1.0900 -0.1126 -0.1338
  501TMC3    C8 7454   1.021   2.338   9.737  0.4370  0.5889 -0.1301
  501TMC3    O1 7455   1.379   2.293  10.019 -0.2660  0.3045 -0.2263
  501TMC3    O2 7456   0.924   2.330   9.663  0.0302 -1.1943 -0.0498
  502TMC3    C1 7457   0.126   0.764  14.948 -1.1104 -0.6135 -0.6513
  502TMC3    C2 7458   0.145   0.897  14.981 -0.3474  0.0687  0.0460
  502TMC3    C3 7459   0.037   0.981  14.981 -1.0548 -0.1784 -0.4018
  502TMC3    C4 7460   4.720   0.715  14.929 -0.2518 -0.4888  0.0054
  502TMC3    C5 7461   4.611   0.798  14.942  0.1067 -0.2166 -0.1282
  502TMC3    C6 7462   4.631   0.932  14.969  0.4577 -0.3034 -0.1770
  502TMC3     C 7463   0.207   0.682  15.030 -0.1276 -0.2414 -0.3283
  502TMC3     O 7464   0.324   0.713  15.054 -0.4113  0.2504 -0.6292
  502TMC3     H 7465   0.244   0.935  15.004 -0.0798 -0.5393 -0.1049
  502TMC3    H1 7466   4.701   0.610  14.912  1.5958 -0.8116 -0.0966
  502TMC3    H2 7467   4.545   0.996  14.982 -0.3967 -0.8235 -3.2872
  502TMC3    C7 7468   4.514   0.736  15.026 -0.2336  0.3211 -0.3625
  502TMC3    C8 7469   0.052   1.107  15.048  0.2088  0.1434 -0.3515
  502TMC3    O1 7470   4.537   0.628  15.078  0.4387  0.0160 -0.3297
  502TMC3    O2 7471   0.066   1.204  14.977 -0.0592 -0.1446 -0.1396
  503MPD2     C 7472   1.747   1.244  17.000  0.3335 -0.2269  0.3390
  503MPD2    C1 7473   1.848   1.316  17.047  0.0198  0.7738  0.4688
  503MPD2    C2 7474   1.970   1.255  17.086  0.2229  0.0960 -0.2860
  503MPD2    C3 7475   1.997   1.124  17.054 -0.4225  0.7127  0.1588
  503MPD2    C4 7476   1.885   1.050  17.008 -0.3465  0.3059  0.1555
  503MPD2    C5 7477   1.763   1.107  16.986 -0.2329 -0.9292 -0.2743
  503MPD2     H 7478   2.057   1.312  17.116 -0.8951  0.7105  1.7720
  503MPD2    H1 7479   1.900   0.944  16.990 -0.3644 -0.0563  2.2799
  503MPD2    H2 7480   1.649   1.284  16.978 -0.2529 -2.6784 -1.4588
  503MPD2    H3 7481   1.681   1.055  16.938 -1.0107 -0.3478  0.4351
  503MPD2     N 7482   2.121   1.072  17.086 -0.1668  0.3783  0.5914
  503MPD2    H5 7483   2.193   1.126  17.132  0.3180  0.9729 -0.8410
  503MPD2    N1 7484   1.849   1.462  17.050 -0.5411  0.0323  0.2965
  503MPD2    H7 7485   1.930   1.507  17.093 -1.0508 -1.2327  2.6067
  504TMC3    C1 7486   2.268   0.909  17.137 -0.0377  0.5461  0.3252
  504TMC3    C2 7487   2.267   0.795  17.214  0.1014 -0.3496 -0.0251
  504TMC3    C3 7488   2.387   0.747  17.259 -0.2858 -0.8319  0.2485
  504TMC3    C4 7489   2.378   0.971  17.097  0.1212  0.4391 -0.2039
  504TMC3    C5 7490   2.493   0.919  17.152  0.4968  0.5239  0.2983
  504TMC3    C6 7491   2.502   0.806  17.229  0.1401 -0.2094 -0.2752
  504TMC3     C 7492   2.153   0.941  17.063 -0.0882  0.4088  0.1136
  504TMC3     O 7493   2.092   0.846  17.021 -0.5147  0.4251 -0.1730
  504TMC3     H 7494   2.174   0.748  17.243 -0.4712  0.1792 -1.0092
  504TMC3    H1 7495   2.389   1.040  17.014  1.5090 -1.9924 -2.0564
  504TMC3    H2 7496   2.595   0.767  17.268 -0.8106 -0.9952  1.1654
  504TMC3    C7 7497   2.613   0.951  17.075 -0.2902  0.3840 -0.2526
  504TMC3    C8 7498   2.391   0.680  17.386 -0.1101 -0.5088 -0.3581
  504TMC3    O1 7499   2.602   0.993  16.966  0.0949  0.5862  0.2477
  504TMC3    O2 7500   2.472   0.726  17.465 -0.0938 -0.4270 -0.0293
  505MPD2     C 7501   0.351   0.448   8.888 -0.7625 -0.9595 -1.2308
  505MPD2    C1 7502   0.301   0.575   8.896  0.1141  0.8735  0.7235
  505MPD2    C2 7503   0.377   0.666   8.970 -0.6050 -0.2301  0.0450
  505MPD2    C3 7504   0.483   0.635   9.049 -0.0940  0.0863 -0.1327
  505MPD2    C4 7505   0.522   0.502   9.044 -1.4043  0.1271 -0.0446
  505MPD2    C5 7506   0.456   0.411   8.967  0.6011 -0.0819 -0.6243
  505MPD2     H 7507   0.357   0.772   8.971  2.7116  0.3961 -0.2092
  505MPD2    H1 7508   0.605   0.466   9.106  0.5360  1.2516 -2.0008
  505MPD2    H2 7509   0.308   0.372   8.824  0.1701 -2.6799  0.1726
  505MPD2    H3 7510   0.497   0.311   8.977 -0.5416 -0.8837 -4.1102
  505MPD2     N 7511   0.534   0.734   9.132  0.0262 -0.1574 -0.6706
  505MPD2    H5 7512   0.488   0.824   9.125 -0.0340  0.0149  1.8593
  505MPD2    N1 7513   0.206   0.615   8.801 -0.1713  0.0153 -0.4581
  505MPD2    H7 7514   0.166   0.538   8.749  0.6062 -1.0707  0.5594
  506TMC3    C1 7515   0.078   0.759   8.668 -0.9843  0.0881  0.0636
  506TMC3    C2 7516   4.684   0.705   8.710 -0.2737  0.6740  0.1592
  506TMC3    C3 7517   4.573   0.779   8.693 -0.4310 -1.0129  0.2474
  506TMC3    C4 7518   0.087   0.891   8.619  0.9588 -0.1523 -0.4890
  506TMC3    C5 7519   4.698   0.968   8.624 -0.0185  0.3547  0.4043
  506TMC3    C6 7520   4.577   0.911   8.662 -0.2587  0.0748  0.0036
  506TMC3     C 7521   0.178   0.739   8.769  0.1645 -0.2432  0.2241
  506TMC3     O 7522   0.216   0.845   8.818 -0.1189  0.7332  0.4374
  506TMC3     H 7523   4.680   0.598   8.732 -1.7453  0.5990 -0.5263
  506TMC3    H1 7524   0.185   0.930   8.591  0.9559  0.4665  0.3511
  506TMC3    H2 7525   4.487   0.971   8.651 -0.8640 -1.0253 -1.0540
  506TMC3    C7 7526   4.705   1.089   8.699  1.2600  0.1341  0.2538
  506TMC3    C8 7527   4.447   0.740   8.755 -0.3637  0.0831 -0.1853
  506TMC3    O1 7528   4.618   1.171   8.687 -0.7711 -0.1568 -0.2908
  506TMC3    O2 7529   4.343   0.790   8.712 -0.6210  0.2511 -0.4699
  507TMC3    C1 7530   3.928   1.965  14.806 -0.0542 -0.4316 -0.6714
  507TMC3    C2 7531   4.028   1.917  14.723  0.5243 -0.9837  0.3701
  507TMC3    C3 7532   4.037   1.965  14.593 -0.0935  0.4646 -0.6880
  507TMC3    C4 7533   3.836   2.055  14.758 -0.2802 -0.1842  0.2834
  507TMC3    C5 7534   3.840   2.093  14.627 -0.7046  0.6593  0.0893
  507TMC3    C6 7535   3.948   2.059  14.550 -0.4127  0.6132  0.3341
  507TMC3     C 7536   3.864   1.861  14.875  0.7627  0.0592  0.3814
  507TMC3     O 7537   3.786   1.897  14.965  0.6882 -0.1760  0.2453
  507TMC3     H 7538   4.099   1.840  14.750  1.1780 -0.4849  0.0798
  507TMC3    H1 7539   3.753   2.079  14.823 -0.2170  0.2133  0.2199
  507TMC3    H2 7540   3.947   2.089  14.446 -4.1800 -1.5405 -0.2609
  507TMC3    C7 7541   3.713   2.100  14.553 -0.8876 -0.9315 -0.2852
  507TMC3    C8 7542   4.035   1.851  14.501 -0.2472 -0.2210 -0.6206
  507TMC3    O1 7543   3.724   2.085  14.433  0.0064 -0.1159  0.4042
  507TMC3    O2 7544   4.103   1.756  14.540 -0.8284 -0.5281 -0.2988
  508MPD2     C 7545   3.775   3.615  16.415 -0.0735 -0.1317 -0.6696
  508MPD2    C1 7546   3.882   3.613  16.328  0.4859 -0.0019  0.5036
  508MPD2    C2 7547   3.861   3.633  16.191  0.1043 -0.1670 -0.2427
  508MPD2    C3 7548   3.738   3.646  16.141  0.7477 -0.3703  0.2008
  508MPD2    C4 7549   3.636   3.640  16.230 -0.4615  0.6028 -0.0711
  508MPD2    C5 7550   3.652   3.626  16.362 -0.1240  0.1311  1.2694
  508MPD2     H 7551   3.944   3.639  16.121  0.9215 -1.6782  0.6014
  508MPD2    H1 7552   3.541   3.660  16.181 -1.0436 -1.9048 -0.0036
  508MPD2    H2 7553   3.776   3.607  16.523  1.2185 -1.5801 -0.7979
  508MPD2    H3 7554   3.574   3.628  16.437 -0.3518  0.7413  1.0190
  508MPD2     N 7555   3.723   3.664  16.003 -0.5001 -1.1295 -0.5876
  508MPD2    H5 7556   3.811   3.656  15.954  1.3843  1.4939  2.3653
  508MPD2    N1 7557   4.012   3.611  16.383  0.1555 -0.0716 -0.0234
  508MPD2    H7 7558   4.020   3.623  16.483 -0.5452  2.6810 -0.2740
  509TMC3    C1 7559   3.606   3.819  15.592  0.0883 -0.3683 -0.1273
  509TMC3    C2 7560   3.736   3.784  15.544 -0.7202 -0.3247  0.2263
  509TMC3    C3 7561   3.801   3.692  15.622  0.4332  0.5639 -0.1010
  509TMC3    C4 7562   3.562   3.763  15.713  0.0260  0.4908 -0.5575
  509TMC3    C5 7563   3.644   3.684  15.789 -0.1851 -0.4500 -0.8001
  509TMC3    C6 7564   3.764   3.643  15.744 -0.4351  0.1827  0.2546
  509TMC3     C 7565   3.578   3.962  15.592  0.7348  0.2589  0.4190
  509TMC3     O 7566   3.496   3.999  15.673  0.6338  0.3084  0.0786
  509TMC3     H 7567   3.790   3.832  15.464  2.2413 -1.7897  1.3317
  509TMC3    H1 7568   3.467   3.800  15.751  0.2372  1.4013 -0.9334
  509TMC3    H2 7569   3.821   3.570  15.799  1.1749  1.3619  0.1653
  509TMC3    C7 7570   3.611   3.698  15.932 -0.1024 -0.5723 -0.1356
  509TMC3    C8 7571   3.943   3.696  15.609  0.5610  0.3734 -0.0728
  509TMC3    O1 7572   3.495   3.731  15.964  0.0727  0.5696 -0.0806
  509TMC3    O2 7573   4.008   3.599  15.567  0.1356  0.7505 -0.7549
  510MPD2     C 7574   1.819   0.758  14.287 -0.4818  0.4673  0.6922
  510MPD2    C1 7575   1.883   0.696  14.392 -0.4136 -0.1508 -0.1551
  510MPD2    C2 7576   2.019   0.682  14.389 -0.1998 -0.5711  0.0738
  510MPD2    C3 7577   2.086   0.738  14.284 -1.5534 -0.6843 -0.1051
  510MPD2    C4 7578   2.025   0.803  14.180  0.6429  0.1626 -0.2809
  510MPD2    C5 7579   1.888   0.811  14.180  0.5140  0.2838 -0.0760
  510MPD2     H 7580   2.066   0.624  14.467  2.1214 -0.0762 -0.9734
  510MPD2    H1 7581   2.070   0.860  14.100 -1.6175  2.9588  0.4594
  510MPD2    H2 7582   1.713   0.778  14.298 -1.2469 -3.2265 -0.2867
  510MPD2    H3 7583   1.840   0.865  14.099  0.3347 -0.3344 -0.3791
  510MPD2     N 7584   2.221   0.697  14.275 -0.2643 -0.1862  0.0426
  510MPD2    H5 7585   2.253   0.621  14.333  0.7279 -0.3763 -0.7531
  510MPD2    N1 7586   1.825   0.656  14.510  1.0138 -0.6009  0.3617
  510MPD2    H7 7587   1.888   0.624  14.583  3.8597  1.9322 -0.9853
  511TMC3    C1 7588   1.634   0.576  14.643  0.4791 -0.2094 -0.0859
  511TMC3    C2 7589   1.529   0.611  14.718 -0.4618  0.3436 -0.5291
  511TMC3    C3 7590   1.477   0.523  14.812 -0.1683  0.8224 -0.1752
  511TMC3    C4 7591   1.698   0.460  14.659 -0.1666 -0.4179  0.1866
  511TMC3    C5 7592   1.646   0.365  14.755  0.6995 -0.7648  0.1832
  511TMC3    C6 7593   1.537   0.399  14.832 -0.1845 -0.5947 -0.2610
  511TMC3     C 7594   1.687   0.671  14.540  0.0007  0.0183  0.0808
  511TMC3     O 7595   1.606   0.745  14.484  0.8862 -0.0585 -0.2686
  511TMC3     H 7596   1.467   0.696  14.692 -0.6709  1.0955  2.4448
  511TMC3    H1 7597   1.778   0.439  14.589 -0.3432 -0.6664  0.0539
  511TMC3    H2 7598   1.504   0.332  14.910 -3.7659 -0.3551 -1.5536
  511TMC3    C7 7599   1.718   0.236  14.755 -0.2759 -0.2089 -0.0810
  511TMC3    C8 7600   1.385   0.570  14.909 -0.3922 -0.4934  0.3833
  511TMC3    O1 7601   1.797   0.213  14.665  0.3995  0.0011 -0.6727
  511TMC3    O2 7602   1.377   0.691  14.924 -0.1203  0.4479  0.5488
  512TMC3    C1 7603   0.713   4.465  13.084 -0.1098  0.5377  0.6056
  512TMC3    C2 7604   0.829   4.455  13.151  0.7688 -0.3337  0.0884
  512TMC3    C3 7605   0.888   4.332  13.170 -0.1319 -0.2696 -0.1308
  512TMC3    C4 7606   0.656   4.358  13.027  0.1889  0.2692  0.1938
  512TMC3    C5 7607   0.714   4.232  13.057  0.1322 -1.0693  0.7644
  512TMC3    C6 7608   0.827   4.218  13.125 -0.0181  0.3665 -0.3688
  512TMC3     C 7609   0.664   4.595  13.060  0.7015  0.4564  0.1721
  512TMC3     O 7610   0.741   4.690  13.076 -0.0731 -0.1682 -0.0660
  512TMC3     H 7611   0.873   4.550  13.180  0.0534 -0.1840  0.6725
  512TMC3    H1 7612   0.569   4.356  12.963  0.5186 -0.8921 -0.2128
  512TMC3    H2 7613   0.864   4.120  13.152 -1.5956 -0.0846  0.1845
  512TMC3    C7 7614   0.660   4.119  12.988  0.5187 -0.2752  0.0691
  512TMC3    C8 7615   1.011   4.315  13.240 -0.3123  0.3973 -0.2855
  512TMC3    O1 7616   0.578   4.135  12.898  0.2215 -0.5568 -0.4554
  512TMC3    O2 7617   1.058   4.201  13.249 -0.0408  0.2783 -0.3699
  513MPD2     C 7618   2.545   0.004  12.796 -0.0741 -0.7073  0.4405
  513MPD2    C1 7619   2.681   0.018  12.761  1.4046  0.1644 -0.3612
  513MPD2    C2 7620   2.769   0.065  12.857 -0.7598  0.2076 -0.4091
  513MPD2    C3 7621   2.722   0.099  12.985 -0.3034  0.5652 -0.3522
  513MPD2    C4 7622   2.590   0.089  13.014  0.7979 -0.2527 -0.0933
  513MPD2    C5 7623   2.498   0.044  12.918 -0.5630  0.4297 -0.8098
  513MPD2     H 7624   2.876   0.062  12.839 -0.9692  0.2935 -1.6832
  513MPD2    H1 7625   2.546   0.107  13.112  1.6255 -0.2051  0.2684
  513MPD2    H2 7626   2.471   4.693  12.724  0.3827  0.9310 -0.7996
  513MPD2    H3 7627   2.392   0.050  12.936 -0.3901  0.0798  0.3140
  513MPD2     N 7628   2.816   0.139  13.074  0.4404 -0.0402 -0.9841
  513MPD2    H5 7629   2.905   0.161  13.032  1.1112 -2.5507 -0.8725
  513MPD2    N1 7630   2.726   4.717  12.628 -0.0082  0.2463 -0.6861
  513MPD2    H7 7631   2.649   4.706  12.563  0.1426  1.0956 -0.9970
  514TMC3    C1 7632   2.878   4.705  12.444 -0.0262 -0.1173  0.5090
  514TMC3    C2 7633   2.847   0.085  12.369 -0.6703  0.2878  0.1255
  514TMC3    C3 7634   2.938   0.128  12.273 -0.3966  0.0773 -0.3315
  514TMC3    C4 7635   3.006   4.658  12.431 -0.3724 -0.4658  0.2623
  514TMC3    C5 7636   3.105   4.710  12.348 -0.1920  0.7763 -0.0694
  514TMC3    C6 7637   3.068   0.087  12.260  0.0564  0.4872 -0.5399
  514TMC3     C 7638   2.855   0.004  12.588  0.2407 -0.1546  0.0990
  514TMC3     O 7639   2.964   0.019  12.643  0.3210  0.0462 -0.0676
  514TMC3     H 7640   2.746   0.121  12.352 -0.9757 -1.3859 -1.5677
  514TMC3    H1 7641   3.033   4.569  12.487  1.9514  1.0729  1.6189
  514TMC3    H2 7642   3.139   0.140  12.197  0.0371 -0.4342 -1.3485
  514TMC3    C7 7643   3.233   0.008  12.426  0.6068 -0.3800  0.3026
  514TMC3    C8 7644   2.883   0.201  12.164  0.0007 -0.0007  0.4367
  514TMC3    O1 7645   3.337   0.036  12.368 -0.2323  0.2592  0.1755
  514TMC3    O2 7646   2.789   0.272  12.190 -0.0757 -1.0875  0.8801
  515MPD2     C 7647   0.844   1.472  15.053  0.0026  0.1847 -0.3391
  515MPD2    C1 7648   0.841   1.510  14.921 -0.3993  0.7267  0.6679
  515MPD2    C2 7649   0.918   1.610  14.878  0.3550  0.0322  0.2463
  515MPD2    C3 7650   1.021   1.659  14.957  0.4405 -0.2963  0.5868
  515MPD2    C4 7651   1.028   1.616  15.086  0.3631  0.2328  0.0941
  515MPD2    C5 7652   0.934   1.529  15.139  0.1072  0.1833  0.4302
  515MPD2     H 7653   0.904   1.628  14.772  0.1793  0.1565  0.2912
  515MPD2    H1 7654   1.104   1.650  15.155  2.0182 -0.6119 -1.3252
  515MPD2    H2 7655   0.772   1.399  15.090 -2.2134  3.4557  1.8121
  515MPD2    H3 7656   0.943   1.496  15.241 -0.2916  1.6542  0.9359
  515MPD2     N 7657   1.123   1.748  14.912 -0.2787  0.0401 -0.4062
  515MPD2    H5 7658   1.201   1.770  14.972  1.9053 -0.7000 -2.9537
  515MPD2    N1 7659   0.767   1.447  14.816  0.4359  0.8827 -0.4469
  515MPD2    H7 7660   0.777   1.477  14.720 -2.2854 -1.3091 -1.4068
  516TMC3    C1 7661   0.624   1.264  14.731 -0.0940 -0.0485  0.3830
  516TMC3    C2 7662   0.582   1.336  14.619 -0.5880  0.2296 -0.4923
  516TMC3    C3 7663   0.499   1.268  14.534 -0.5705 -0.0750 -0.9314
  516TMC3    C4 7664   0.602   1.129  14.748 -0.0225 -0.4619  0.3457
  516TMC3    C5 7665   0.531   1.068  14.648  0.4224 -0.0333 -0.6422
  516TMC3    C6 7666   0.474   1.135  14.544  0.1773 -0.2900 -0.5964
  516TMC3     C 7667   0.689   1.331  14.843  0.1157 -0.6787 -0.2297
  516TMC3     O 7668   0.683   1.265  14.946 -0.3086 -0.3909 -0.0614
  516TMC3     H 7669   0.587   1.444  14.627 -2.4493  0.1727  1.4835
  516TMC3    H1 7670   0.620   1.070  14.837 -0.2649 -1.1906 -0.0881
  516TMC3    H2 7671   0.408   1.095  14.467 -1.1847  1.4560 -0.3205
  516TMC3    C7 7672   0.464   0.942  14.677 -0.3137  0.5410  0.5142
  516TMC3    C8 7673   0.438   1.334  14.424  0.6396  0.0320 -0.2579
  516TMC3    O1 7674   0.536   0.868  14.748 -0.0915  0.1584  0.3524
  516TMC3    O2 7675   0.338   1.279  14.383 -0.1477  0.7537 -0.2846
  517MPD2     C 7676   0.698   3.046   0.350 -0.2416 -0.3397 -0.2061
  517MPD2    C1 7677   0.806   3.022   0.259  0.3783 -0.6612  0.0754
  517MPD2    C2 7678   0.919   3.100   0.268 -0.8197 -0.0653 -0.0347
  517MPD2    C3 7679   0.917   3.217   0.341 -0.2844  0.4873  0.7907
  517MPD2    C4 7680   0.806   3.243   0.415 -0.0036 -0.2190 -0.7335
  517MPD2    C5 7681   0.701   3.158   0.428 -0.3087 -0.0408  0.0995
  517MPD2     H 7682   1.013   3.087   0.215 -0.2868 -0.9682  1.1189
  517MPD2    H1 7683   0.804   3.338   0.467  1.7671  0.3022 -1.5793
  517MPD2    H2 7684   0.612   2.982   0.364 -0.9097  0.2820 -1.5359
  517MPD2    H3 7685   0.614   3.178   0.489  0.9653  0.7683  1.6530
  517MPD2     N 7686   1.016   3.310   0.320  0.2377 -0.2773  0.2099
  517MPD2    H5 7687   1.019   3.394   0.377  1.5512  0.5359 -1.0536
  517MPD2    N1 7688   0.824   2.908   0.176 -1.0114  0.3512 -0.6728
  517MPD2    H7 7689   0.905   2.900   0.116  0.4692 -0.4075  1.4035
  518TMC3    C1 7690   0.770   2.695   0.074 -0.9281 -0.2286  0.1903
  518TMC3    C2 7691   0.700   2.574   0.079  0.3629  0.1221  0.3577
  518TMC3    C3 7692   0.717   2.483  17.669 -0.5509  0.4177  0.8995
  518TMC3    C4 7693   0.853   2.722  17.663 -0.2818  0.2823 -0.1906
  518TMC3    C5 7694   0.869   2.631  17.565 -0.2129  0.7086  0.6510
  518TMC3    C6 7695   0.803   2.510  17.568  0.0694 -0.5254 -0.2170
  518TMC3     C 7696   0.733   2.800   0.170 -0.5759 -0.2411  0.7775
  518TMC3     O 7697   0.632   2.787   0.236  0.0722 -0.2651 -0.6985
  518TMC3     H 7698   0.625   2.556   0.155  0.1897 -0.2154  0.1068
  518TMC3    H1 7699   0.894   2.821  17.647  0.3816 -0.0179 -0.3603
  518TMC3    H2 7700   0.814   2.432  17.493 -0.5225 -0.9995  0.1775
  518TMC3    C7 7701   0.994   2.649  17.485 -0.4873 -0.2959 -0.0083
  518TMC3    C8 7702   0.604   2.403  17.638 -0.0796  0.0989  0.6095
  518TMC3    O1 7703   1.040   2.757  17.476  0.4599  0.2218 -0.7508
  518TMC3    O2 7704   0.492   2.439  17.680 -0.7049 -0.0989  0.4281
  519MPD2     C 7705   2.074   1.741  14.228  0.2333 -0.2101  0.4238
  519MPD2    C1 7706   2.086   1.743  14.092  0.1792  0.0139  0.2365
  519MPD2    C2 7707   2.144   1.640  14.027 -0.0596 -0.3741  0.0524
  519MPD2    C3 7708   2.194   1.526  14.086  0.7374 -0.5170  0.1391
  519MPD2    C4 7709   2.181   1.523  14.220 -0.4613  0.0617 -0.0992
  519MPD2    C5 7710   2.117   1.626  14.291 -0.6143 -0.5330  0.6624
  519MPD2     H 7711   2.151   1.653  13.920 -0.6386 -0.5550 -0.0094
  519MPD2    H1 7712   2.200   1.435  14.281 -1.7811  0.0396  0.2821
  519MPD2    H2 7713   2.036   1.828  14.280  1.8966  0.4791  0.5160
  519MPD2    H3 7714   2.101   1.623  14.398 -0.0694 -0.3201  0.7495
  519MPD2     N 7715   2.278   1.440  14.010 -0.3254  0.0092  0.2164
  519MPD2    H5 7716   2.290   1.457  13.911 -0.0754 -4.3827 -0.5163
  519MPD2    N1 7717   2.042   1.862  14.028 -0.0998  0.2246  0.7919
  519MPD2    H7 7718   1.993   1.930  14.084  0.4644  0.1941  1.3250
  520TMC3    C1 7719   2.437   1.280  13.975 -0.6225  0.3096  0.8344
  520TMC3    C2 7720   2.388   1.262  13.848 -0.5578 -0.0327 -0.0666
  520TMC3    C3 7721   2.475   1.198  13.757  0.2087 -0.6065  0.3702
  520TMC3    C4 7722   2.565   1.255  14.015  0.3897 -0.4041  0.3745
  520TMC3    C5 7723   2.644   1.196  13.917 -0.5012  0.1409  0.4721
  520TMC3    C6 7724   2.607   1.178  13.789  0.0848 -0.6549  0.2292
  520TMC3     C 7725   2.361   1.354  14.071  0.7565 -0.2102 -0.1064
  520TMC3     O 7726   2.382   1.330  14.193 -0.1710 -0.3258  0.0117
  520TMC3     H 7727   2.286   1.291  13.822  0.7802  1.5885 -3.4716
  520TMC3    H1 7728   2.592   1.271  14.119 -2.3439  1.1024  0.8549
  520TMC3    H2 7729   2.678   1.136  13.719  0.9120 -1.8061  1.7479
  520TMC3    C7 7730   2.768   1.136  13.977 -0.2566  0.5707  0.1153
  520TMC3    C8 7731   2.416   1.153  13.631 -0.2877 -0.5604  0.8062
  520TMC3    O1 7732   2.774   1.138  14.097  0.6747 -0.6401 -0.2406
  520TMC3    O2 7733   2.499   1.106  13.555  0.5694  0.4655  0.0162
  521MPD2     C 7734   3.191   3.884   0.095 -0.2395  0.3497 -0.2777
  521MPD2    C1 7735   3.158   3.851  17.656  0.7449 -0.0897  0.1628
  521MPD2    C2 7736   3.254   3.854  17.556 -0.0757  0.1718  0.3148
  521MPD2    C3 7737   3.388   3.871  17.584 -0.1684 -0.0134  0.9904
  521MPD2    C4 7738   3.412   3.898   0.020  0.3948  0.2041  0.1025
  521MPD2    C5 7739   3.321   3.912   0.118  0.0252  0.7295 -0.1069
  521MPD2     H 7740   3.220   3.844  17.454  0.3210  0.4447  0.1565
  521MPD2    H1 7741   3.513   3.922   0.051  0.0011 -0.4465  1.9085
  521MPD2    H2 7742   3.119   3.897   0.175  0.2291  0.2824  0.1528
  521MPD2    H3 7743   3.346   3.931   0.222  0.8385 -2.2665  0.2486
  521MPD2     N 7744   3.483   3.872  17.483 -0.8485 -0.1470 -0.4465
  521MPD2    H5 7745   3.454   3.842  17.391 -0.5269  1.2553 -1.0004
  521MPD2    N1 7746   3.018   3.829  17.633 -0.6381 -0.8045 -0.4460
  521MPD2    H7 7747   2.961   3.859   0.018  0.1855 -0.3211 -0.0330
  522TMC3    C1 7748   3.696   3.904  17.393  0.2331 -0.5698 -0.2872
  522TMC3    C2 7749   3.822   3.854  17.393 -0.9071 -0.3667 -0.1916
  522TMC3    C3 7750   3.879   3.820  17.278  0.3012 -0.2852  0.2571
  522TMC3    C4 7751   3.624   3.928  17.277  0.0336  0.2214  0.5690
  522TMC3    C5 7752   3.683   3.898  17.162  0.9419  0.4933 -0.8997
  522TMC3    C6 7753   3.806   3.844  17.160  0.0461 -0.1896  0.2512
  522TMC3     C 7754   3.616   3.885  17.512  0.0525  0.2799  0.0169
  522TMC3     O 7755   3.683   3.876  17.615  0.2230  0.3173 -0.4259
  522TMC3     H 7756   3.868   3.831  17.489  2.5564 -1.4275 -2.0956
  522TMC3    H1 7757   3.541   3.997  17.278 -0.7667 -0.7352  0.9729
  522TMC3    H2 7758   3.850   3.822  17.064 -2.1160 -1.0105 -0.5665
  522TMC3    C7 7759   3.627   3.926  17.034 -0.0897  0.3424 -0.2347
  522TMC3    C8 7760   4.006   3.753  17.284 -0.0265 -0.9876 -0.9474
  522TMC3    O1 7761   3.694   3.933  16.935  0.0792 -0.3847  0.6544
  522TMC3    O2 7762   4.035   3.694  17.386  0.1085 -0.2304 -0.2073
  523MPD2     C 7763   1.370   3.361  10.186 -0.0930 -0.5420 -1.4548
  523MPD2    C1 7764   1.266   3.337  10.096  0.0140  0.1669 -0.3129
  523MPD2    C2 7765   1.218   3.449  10.022  0.0021  0.8159 -0.6387
  523MPD2    C3 7766   1.300   3.567  10.023 -0.5775  0.5079  0.3918
  523MPD2    C4 7767   1.405   3.575  10.114  0.1019  0.2468 -0.0486
  523MPD2    C5 7768   1.447   3.474  10.190 -0.1482  0.1886  0.3996
  523MPD2     H 7769   1.133   3.429   9.957 -1.0700 -1.9832  1.6208
  523MPD2    H1 7770   1.470   3.662  10.110  0.9320 -0.3028  1.3040
  523MPD2    H2 7771   1.400   3.283  10.255 -0.0086  0.0725 -0.7981
  523MPD2    H3 7772   1.522   3.479  10.268 -1.1777  1.9102  1.2736
  523MPD2     N 7773   1.264   3.683   9.953  0.0508  0.5674 -0.8617
  523MPD2    H5 7774   1.327   3.762   9.962  1.1392 -0.3300 -0.5081
  523MPD2    N1 7775   1.212   3.209  10.106 -0.3553  0.2414 -0.3214
  523MPD2    H7 7776   1.272   3.138  10.146 -1.6854  0.9443  2.9335
  524TMC3    C1 7777   1.138   3.817   9.818 -0.5719 -0.3002 -0.2491
  524TMC3    C2 7778   1.237   3.806   9.726  1.0315  0.9666 -0.0696
  524TMC3    C3 7779   1.235   3.896   9.627 -0.1570 -0.5035  0.6374
  524TMC3    C4 7780   1.077   3.937   9.845 -0.6350  0.1225 -0.8335
  524TMC3    C5 7781   1.115   4.037   9.757 -0.1621  0.1457  0.4345
  524TMC3    C6 7782   1.179   4.013   9.641  0.0259 -0.7801  0.3479
  524TMC3     C 7783   1.141   3.703   9.902  0.2419  0.8553  0.3293
  524TMC3     O 7784   1.034   3.658   9.941 -0.0219 -0.1516 -0.0666
  524TMC3     H 7785   1.284   3.710   9.706  0.9312  1.1822 -1.3736
  524TMC3    H1 7786   1.028   3.951   9.941 -1.5320 -0.6760 -1.1737
  524TMC3    H2 7787   1.167   4.077   9.555  2.1985 -1.1175 -0.2010
  524TMC3    C7 7788   1.052   4.168   9.782 -0.2902 -0.1589 -0.3186
  524TMC3    C8 7789   1.292   3.862   9.496 -0.5744 -0.5482 -0.5007
  524TMC3    O1 7790   1.025   4.191   9.902 -0.0617 -0.2683  0.0141
  524TMC3    O2 7791   1.330   3.960   9.434  0.2032  0.0993  0.2306
  525MPD2     C 7792   3.831   1.016  14.403  0.4841  0.5250  0.4084
  525MPD2    C1 7793   3.929   0.975  14.497  0.3190 -0.1119  0.3495
  525MPD2    C2 7794   4.053   1.034  14.481  0.9620 -0.0582  0.1224
  525MPD2    C3 7795   4.076   1.130  14.385 -0.0833 -0.5287  0.5331
  525MPD2    C4 7796   3.987   1.165  14.293 -0.3614  0.1146  0.0724
  525MPD2    C5 7797   3.867   1.102  14.304 -0.4824  1.2766  0.1072
  525MPD2     H 7798   4.132   1.019  14.553 -0.1255 -1.0411  1.1042
  525MPD2    H1 7799   4.004   1.227  14.206  1.7900 -0.5930  0.0079
  525MPD2    H2 7800   3.729   0.979  14.411  0.5541 -0.0129 -1.1529
  525MPD2    H3 7801   3.793   1.128  14.228  0.2367  0.7308 -0.7779
  525MPD2     N 7802   4.199   1.209  14.392  0.2982 -0.1114 -0.4856
  525MPD2    H5 7803   4.188   1.298  14.344 -0.3606 -0.0424 -0.2075
  525MPD2    N1 7804   3.908   0.888  14.607 -0.2578  0.8037 -0.0538
  525MPD2    H7 7805   3.984   0.857  14.667 -1.6424 -1.8697  0.2964
  526TMC3    C1 7806   3.778   0.751  14.762 -0.2125  0.1198  0.5060
  526TMC3    C2 7807   3.668   0.740  14.844 -0.5177  0.1671  0.1374
  526TMC3    C3 7808   3.676   0.657  14.952 -0.2738  0.0885  0.5686
  526TMC3    C4 7809   3.887   0.679  14.791  0.3858 -0.1474  0.5421
  526TMC3    C5 7810   3.895   0.593  14.906  0.6260 -0.0790 -1.1631
  526TMC3    C6 7811   3.789   0.573  14.982  0.4889 -0.4351 -0.1487
  526TMC3     C 7812   3.786   0.827  14.638  0.4678 -0.4161  0.3407
  526TMC3     O 7813   3.674   0.838  14.583  0.4986  0.0779  0.5234
  526TMC3     H 7814   3.593   0.817  14.829 -2.9284 -2.7825 -2.8605
  526TMC3    H1 7815   3.984   0.695  14.745  0.2719  0.6459  0.5794
  526TMC3    H2 7816   3.802   0.502  15.063  2.4891  0.9009  0.7072
  526TMC3    C7 7817   3.983   0.475  14.900 -0.5921 -0.2466 -0.4185
  526TMC3    C8 7818   3.584   0.665  15.067 -0.6452  0.3632  0.1156
  526TMC3    O1 7819   3.980   0.408  14.999 -0.0792 -0.3679 -0.9422
  526TMC3    O2 7820   3.608   0.585  15.150  0.4744  0.1953 -0.3059
  527MPD2     C 7821   1.149   3.468   1.133 -0.4423 -0.3693 -0.5935
  527MPD2    C1 7822   1.201   3.345   1.146 -0.2004  0.5702 -0.3633
  527MPD2    C2 7823   1.279   3.286   1.048 -0.1398 -0.2121 -0.4077
  527MPD2    C3 7824   1.309   3.358   0.930 -0.2923  0.0477  0.7089
  527MPD2    C4 7825   1.256   3.489   0.913  0.8539  0.5618 -0.0892
  527MPD2    C5 7826   1.186   3.544   1.023  0.0576 -0.3699  0.6428
  527MPD2     H 7827   1.310   3.183   1.057 -1.1478 -0.3567  1.4717
  527MPD2    H1 7828   1.272   3.556   0.830 -0.0595  1.9262  0.8390
  527MPD2    H2 7829   1.080   3.508   1.206  0.4646  1.9452 -1.0069
  527MPD2    H3 7830   1.151   3.647   1.029 -0.0977 -0.3958  0.1746
  527MPD2     N 7831   1.397   3.304   0.833  0.1120  0.1023  0.3270
  527MPD2    H5 7832   1.458   3.231   0.868 -0.9731  0.2119  2.4843
  527MPD2    N1 7833   1.186   3.260   1.260  0.8560  0.8530 -0.4086
  527MPD2    H7 7834   1.235   3.172   1.249 -0.4205  0.1307 -0.3827
  528TMC3    C1 7835   1.107   3.181   1.476  0.7341 -0.1227 -0.8059
  528TMC3    C2 7836   1.077   3.210   1.607  0.6907  0.5295  0.1808
  528TMC3    C3 7837   1.006   3.123   1.683  0.1234 -0.0327  0.5743
  528TMC3    C4 7838   1.082   3.058   1.424  0.2430 -0.9054  0.6755
  528TMC3    C5 7839   1.035   2.967   1.512 -0.8889  0.0882 -0.4659
  528TMC3    C6 7840   0.993   2.992   1.643 -0.5836 -0.5907  0.4078
  528TMC3     C 7841   1.125   3.290   1.379  0.3719 -0.1032 -0.0526
  528TMC3     O 7842   1.094   3.399   1.420 -0.0516 -0.4822  0.0122
  528TMC3     H 7843   1.080   3.312   1.645 -1.3763  0.6077  0.1338
  528TMC3    H1 7844   1.096   3.031   1.320  0.3390  0.3975  0.3419
  528TMC3    H2 7845   0.969   2.911   1.711 -1.1180  1.2207  2.3504
  528TMC3    C7 7846   1.073   2.830   1.470  0.6934 -0.0426  0.1914
  528TMC3    C8 7847   0.924   3.185   1.790 -0.1849 -0.3949  0.2129
  528TMC3    O1 7848   1.139   2.819   1.370 -0.1028  0.1672 -0.4180
  528TMC3    O2 7849   0.956   3.300   1.823  0.1398 -0.3581  0.0535
  529MPD2     C 7850   3.093   1.298   0.645  0.7699  0.2429  0.8489
  529MPD2    C1 7851   3.227   1.338   0.652  0.3900  0.3612  0.0689
  529MPD2    C2 7852   3.281   1.407   0.542  0.1110 -0.0435 -0.6670
  529MPD2    C3 7853   3.211   1.419   0.422  0.5512 -0.2750  0.2741
  529MPD2    C4 7854   3.085   1.362   0.416 -0.5594 -0.0338  0.0604
  529MPD2    C5 7855   3.029   1.303   0.527 -0.3928  0.1546 -0.0935
  529MPD2     H 7856   3.377   1.457   0.552  1.4711 -3.0917  1.8511
  529MPD2    H1 7857   3.026   1.372   0.326  1.1873 -2.0100 -1.3217
  529MPD2    H2 7858   3.047   1.241   0.724 -1.1123 -0.0487 -0.4705
  529MPD2    H3 7859   2.927   1.267   0.518 -0.8072  1.5859 -1.1655
  529MPD2     N 7860   3.265   1.474   0.297  0.5100  0.4155  0.3193
  529MPD2    H5 7861   3.204   1.463   0.216  1.1476  1.1315 -0.2544
  529MPD2    N1 7862   3.306   1.320   0.768 -0.2344 -0.0363 -0.3593
  529MPD2    H7 7863   3.402   1.354   0.762 -0.6538  1.6695  2.8609
  530TMC3    C1 7864   3.373   1.230   0.977  0.3701 -0.6533 -0.2540
  530TMC3    C2 7865   3.503   1.230   0.931 -0.0397  0.7612 -0.3559
  530TMC3    C3 7866   3.602   1.226   1.021  0.7319 -0.2058  0.1567
  530TMC3    C4 7867   3.347   1.231   1.110  0.5657  0.1075  0.1557
  530TMC3    C5 7868   3.454   1.211   1.197 -0.0194  0.4330 -0.4983
  530TMC3    C6 7869   3.585   1.216   1.154 -0.2249 -0.0574 -1.0381
  530TMC3     C 7870   3.265   1.260   0.884 -0.1082 -0.1053 -0.5730
  530TMC3     O 7871   3.152   1.234   0.921 -0.2156 -0.2916  0.8806
  530TMC3     H 7872   3.528   1.248   0.827  0.7934  1.4392 -0.0342
  530TMC3    H1 7873   3.245   1.240   1.148  0.3547  0.2087 -0.4291
  530TMC3    H2 7874   3.663   1.183   1.222 -1.9127 -0.1205  0.8840
  530TMC3    C7 7875   3.442   1.172   1.338 -0.1078  0.0284  0.4157
  530TMC3    C8 7876   3.732   1.226   0.966  0.6900  1.0834  0.3804
  530TMC3    O1 7877   3.540   1.174   1.411  0.2165  0.0460  0.4131
  530TMC3    O2 7878   3.740   1.260   0.847  0.0969 -0.4797 -0.1889
  531MPD2     C 7879   3.484   0.142  12.853 -0.3274  0.1912  1.0172
  531MPD2    C1 7880   3.351   0.150  12.877  0.0464  0.0742  0.1720
  531MPD2    C2 7881   3.271   0.099  12.779  0.0861  0.4023  0.6045
  531MPD2    C3 7882   3.314   0.044  12.656 -0.0081  0.0728  0.2568
  531MPD2    C4 7883   3.451   0.044  12.635  0.7442 -0.5190 -0.5961
  531MPD2    C5 7884   3.532   0.091  12.733 -0.7919  0.2700 -0.6234
  531MPD2     H 7885   3.164   0.086  12.789 -0.1287  0.3226 -1.8185
  531MPD2    H1 7886   3.496   4.719  12.549  2.2143  1.5294 -0.9747
  531MPD2    H2 7887   3.555   0.177  12.927  0.7425 -1.0225  0.5848
  531MPD2    H3 7888   3.640   0.100  12.723 -0.6261 -2.4705 -1.1215
  531MPD2     N 7889   3.214   0.001  12.563  0.5665  0.5652 -0.0443
  531MPD2    H5 7890   3.117   4.722  12.593  0.7925 -2.2636  0.4633
  531MPD2    N1 7891   3.300   0.212  12.994  0.4336 -0.5412  0.4796
  531MPD2    H7 7892   3.363   0.222  13.073 -0.0789 -0.6811  0.9072
  532TMC3    C1 7893   3.126   0.294  13.138 -0.7128 -0.4589 -0.2933
  532TMC3    C2 7894   2.989   0.300  13.144 -0.1265 -0.1967 -0.7221
  532TMC3    C3 7895   2.924   0.246  13.251  0.4209  0.2613 -0.3422
  532TMC3    C4 7896   3.202   0.241  13.242 -0.1340  0.1662  0.4144
  532TMC3    C5 7897   3.131   0.208  13.355 -1.0816  0.0295 -0.6973
  532TMC3    C6 7898   2.992   0.198  13.356  0.3673  0.1530  0.0267
  532TMC3     C 7899   3.169   0.239  13.015 -0.0264 -0.1486 -0.1742
  532TMC3     O 7900   3.067   0.203  12.956 -0.0702  0.1487  0.0452
  532TMC3     H 7901   2.929   0.368  13.085 -0.0672  0.6479  0.2127
  532TMC3    H1 7902   3.310   0.240  13.253  0.2858 -0.8705 -3.7317
  532TMC3    H2 7903   2.937   0.141  13.430  0.4446 -1.3845 -1.0842
  532TMC3    C7 7904   3.188   0.190  13.489 -0.2636 -0.1688 -0.0072
  532TMC3    C8 7905   2.803   0.173  13.209  0.6595 -0.3295  0.2329
  532TMC3    O1 7906   3.113   0.191  13.585  0.0458  0.2722 -0.3022
  532TMC3    O2 7907   2.715   0.145  13.288  0.1167 -0.4009  0.4800
  533TMC3    C1 7908   4.366   1.339  14.496 -0.3302 -0.0054 -0.4419
  533TMC3    C2 7909   4.490   1.320  14.555 -0.5505 -0.2844 -0.0271
  533TMC3    C3 7910   4.521   1.399  14.664  0.4836  0.5157  0.6072
  533TMC3    C4 7911   4.276   1.427  14.548  0.5361  0.5191  0.3952
  533TMC3    C5 7912   4.311   1.508  14.652 -0.0422 -0.5169  0.0254
  533TMC3    C6 7913   4.435   1.499  14.701  0.6082 -0.2872  0.3828
  533TMC3     C 7914   4.308   1.207  14.473  0.7165  0.4888 -0.3174
  533TMC3     O 7915   4.330   1.119  14.555 -0.2806  0.5901 -0.0028
  533TMC3     H 7916   4.560   1.244  14.523  1.0672  1.7763 -1.4046
  533TMC3    H1 7917   4.172   1.428  14.517  0.4196  3.0671  0.8970
  533TMC3    H2 7918   4.470   1.563  14.782  2.8800 -0.4955 -0.4175
  533TMC3    C7 7919   4.212   1.496  14.755  0.1905  0.0828  0.1531
  533TMC3    C8 7920   4.658   1.420  14.694 -0.1008 -0.2078 -0.3519
  533TMC3    O1 7921   4.140   1.398  14.760 -0.2632 -0.4847  0.2019
  533TMC3    O2 7922   4.682   1.430  14.815  0.1258  0.0397  0.4608
  534MPD2     C 7923   0.984   1.736   1.813  0.5586  0.4537  0.2586
  534MPD2    C1 7924   1.055   1.781   1.707 -0.5381  0.2089  0.3927
  534MPD2    C2 7925   1.065   1.703   1.593 -0.3411 -0.6722  0.3431
  534MPD2    C3 7926   1.013   1.570   1.590 -0.1464 -0.7455  0.4271
  534MPD2    C4 7927   0.940   1.526   1.701  0.1564 -0.1902 -0.5952
  534MPD2    C5 7928   0.924   1.611   1.808 -0.1183  0.3946 -0.5900
  534MPD2     H 7929   1.119   1.751   1.511 -2.8777  0.0940 -0.8674
  534MPD2    H1 7930   0.884   1.433   1.698 -1.9514  1.0413  1.0062
  534MPD2    H2 7931   0.971   1.787   1.908 -1.7604  1.9054 -0.8281
  534MPD2    H3 7932   0.860   1.577   1.889 -0.7334 -0.1416 -1.3031
  534MPD2     N 7933   1.016   1.490   1.477 -0.0329  0.1634 -0.1704
  534MPD2    H5 7934   0.973   1.400   1.495  0.4678 -0.3083 -1.3904
  534MPD2    N1 7935   1.104   1.911   1.703 -0.6846  0.1791 -0.8066
  534MPD2    H7 7936   1.164   1.934   1.624  0.1661  3.4199  0.7920
  535TMC3    C1 7937   1.039   1.433   1.241 -0.1133 -0.6700  0.0867
  535TMC3    C2 7938   0.914   1.381   1.243  0.8452 -0.2013 -0.0319
  535TMC3    C3 7939   0.849   1.364   1.127  0.1413  0.3869  0.8159
  535TMC3    C4 7940   1.109   1.464   1.122 -0.0288  0.5173 -0.6318
  535TMC3    C5 7941   1.041   1.432   1.005  0.3366  0.2926 -0.2173
  535TMC3    C6 7942   0.906   1.382   1.001  0.1948 -1.0191  0.6443
  535TMC3     C 7943   1.082   1.517   1.355  0.8644  0.6630 -0.2662
  535TMC3     O 7944   1.159   1.611   1.330 -0.3182  0.2270  0.8260
  535TMC3     H 7945   0.880   1.359   1.344 -0.7894  3.2385  0.1445
  535TMC3    H1 7946   1.208   1.508   1.131  0.3274 -0.3767 -0.1646
  535TMC3    H2 7947   0.848   1.367   0.911 -0.3487  0.7119  0.7197
  535TMC3    C7 7948   1.092   1.469   0.877  0.1185 -0.0591  0.4190
  535TMC3    C8 7949   0.707   1.397   1.121 -0.7141 -0.1986 -0.4617
  535TMC3    O1 7950   1.072   1.394   0.778  0.5481  0.3477  0.3557
  535TMC3    O2 7951   0.649   1.424   1.016  0.6917  0.7254 -0.0675
  536MPD2     C 7952   0.291   4.470  15.828 -0.6004 -0.4737 -0.0626
  536MPD2    C1 7953   0.163   4.443  15.869  0.9316  0.4786 -0.8516
  536MPD2    C2 7954   0.055   4.520  15.825 -0.2210  0.1149  0.1897
  536MPD2    C3 7955   0.073   4.611  15.726  0.1385 -0.6316 -1.0490
  536MPD2    C4 7956   0.200   4.624  15.669 -0.1988 -0.1701  0.0472
  536MPD2    C5 7957   0.308   4.555  15.719  0.0823  1.0696 -0.6097
  536MPD2     H 7958   4.678   4.501  15.864  0.3408  0.0977  1.5911
  536MPD2    H1 7959   0.222   4.690  15.586  0.0431 -1.2625 -0.7694
  536MPD2    H2 7960   0.372   4.405  15.858  0.5566  1.4957  1.1465
  536MPD2    H3 7961   0.406   4.556  15.673 -0.2372 -0.1853 -1.3239
  536MPD2     N 7962   4.687   4.681  15.670 -0.2655 -0.0150  0.1631
  536MPD2    H5 7963   4.713   0.018  15.592 -0.8832  0.1430  0.0786
  536MPD2    N1 7964   0.147   4.336  15.965  0.3542  0.6407 -0.0693
  536MPD2    H7 7965   0.231   4.309  16.015 -0.1183  0.1371  0.4619
  537TMC3    C1 7966   0.050   4.202  16.149  0.0198 -0.2579  0.6161
  537TMC3    C2 7967   0.151   4.232  16.241 -0.9040 -0.3989 -0.3313
  537TMC3    C3 7968   0.129   4.179  16.364  0.5911  0.0800 -0.5576
  537TMC3    C4 7969   4.659   4.126  16.174  0.2248  0.4743 -0.5256
  537TMC3    C5 7970   4.647   4.069  16.300 -0.3143 -1.0673 -0.0032
  537TMC3    C6 7971   0.019   4.096  16.392 -1.2073 -0.3374  0.6259
  537TMC3     C 7972   0.032   4.303  16.036  0.2543 -0.4534  0.7519
  537TMC3     O 7973   4.637   4.331  16.010 -0.2773 -0.6803  0.2546
  537TMC3     H 7974   0.226   4.308  16.220 -0.9868 -0.2428 -0.0636
  537TMC3    H1 7975   4.587   4.108  16.095 -0.0961  0.9401 -0.3350
  537TMC3    H2 7976   4.721   4.082  16.497  0.2639 -0.7115  0.8601
  537TMC3    C7 7977   4.517   4.049  16.355 -0.4712  0.4356  0.1248
  537TMC3    C8 7978   0.229   4.216  16.465 -0.2621 -0.0983  0.0620
  537TMC3    O1 7979   4.415   4.097  16.299 -0.3679  0.0554  0.1284
  537TMC3    O2 7980   0.318   4.293  16.438  0.1540  0.7707 -0.6419
  538TMC3    C1 7981   1.345   3.527  11.071 -0.3432  0.0875  0.5988
  538TMC3    C2 7982   1.434   3.432  11.024  0.4273 -0.0734 -0.1485
  538TMC3    C3 7983   1.440   3.400  10.892  0.0492  0.1024  0.0878
  538TMC3    C4 7984   1.266   3.594  10.989 -0.2959  0.0053 -0.2598
  538TMC3    C5 7985   1.280   3.560  10.851 -0.3401 -0.2424  0.3674
  538TMC3    C6 7986   1.358   3.461  10.804 -0.1831 -0.0720 -0.1752
  538TMC3     C 7987   1.345   3.539  11.219  0.3489 -0.2570 -0.5394
  538TMC3     O 7988   1.428   3.481  11.288 -0.6287 -0.0940  0.5492
  538TMC3     H 7989   1.502   3.393  11.099  1.0652 -1.9836 -1.7221
  538TMC3    H1 7990   1.186   3.658  11.026 -0.6390 -0.8565  0.4861
  538TMC3    H2 7991   1.364   3.430  10.700 -1.6997 -2.8473  0.5548
  538TMC3    C7 7992   1.189   3.633  10.758 -0.3156  0.7412 -0.2866
  538TMC3    C8 7993   1.550   3.313  10.848  0.6775  0.7209  0.3187
  538TMC3    O1 7994   1.103   3.708  10.809  0.4866  0.0060 -0.7700
  538TMC3    O2 7995   1.536   3.196  10.865 -0.1516 -0.3448  0.3386
  539MPD2     C 7996   1.396   2.644  11.660  0.1607  0.0528 -0.2787
  539MPD2    C1 7997   1.399   2.677  11.529  0.4483 -0.2962 -0.2772
  539MPD2    C2 7998   1.363   2.809  11.495  0.0071  0.2145  0.4203
  539MPD2    C3 7999   1.304   2.897  11.584  0.2486 -0.1313  0.4320
  539MPD2    C4 8000   1.294   2.851  11.710 -0.7603 -0.8137 -0.1153
  539MPD2    C5 8001   1.343   2.731  11.750  0.3180  0.1475  0.1030
  539MPD2     H 8002   1.377   2.846  11.394 -1.1372  0.2263  0.2627
  539MPD2    H1 8003   1.258   2.923  11.783 -0.4082  2.6519 -3.3878
  539MPD2    H2 8004   1.438   2.553  11.702  0.9752  0.2348 -0.6945
  539MPD2    H3 8005   1.356   2.720  11.857 -1.0594  1.2447  0.3795
  539MPD2     N 8006   1.238   3.019  11.559  0.3418 -0.6809  0.1453
  539MPD2    H5 8007   1.181   3.063  11.630 -0.9996  3.8486 -3.7218
  539MPD2    N1 8008   1.447   2.585  11.429  0.9590  0.0687 -0.1963
  539MPD2    H7 8009   1.439   2.620  11.334 -1.8071  0.8406  0.3171
  540TMC3    C1 8010   1.162   3.200  11.433 -0.1449  0.4997 -0.0645
  540TMC3    C2 8011   1.118   3.241  11.307 -0.4737  0.5706 -0.2211
  540TMC3    C3 8012   1.024   3.339  11.301  0.2261 -0.3894 -1.2815
  540TMC3    C4 8013   1.113   3.256  11.548  0.6888 -0.3739  0.1037
  540TMC3    C5 8014   1.026   3.362  11.533  0.0664  0.0201 -0.2462
  540TMC3    C6 8015   0.977   3.399  11.414  0.1913  0.4111 -0.5557
  540TMC3     C 8016   1.252   3.089  11.440  0.1849  0.0563  0.9918
  540TMC3     O 8017   1.307   3.056  11.339  0.2528 -0.2693  0.3824
  540TMC3     H 8018   1.149   3.182  11.222  0.7368 -0.7132  1.1021
  540TMC3    H1 8019   1.120   3.213  11.647  1.5225 -0.9343 -0.2009
  540TMC3    H2 8020   0.925   3.493  11.402 -2.7529 -1.1841 -0.3343
  540TMC3    C7 8021   0.947   3.411  11.646 -0.0347 -0.7027  0.6386
  540TMC3    C8 8022   0.990   3.404  11.176 -0.0078  0.5023 -0.1869
  540TMC3    O1 8023   0.850   3.486  11.630  0.6939  0.1462  0.0138
  540TMC3    O2 8024   0.967   3.520  11.179 -0.5259 -0.2580  0.0088
  541MPD2     C 8025   4.237   0.168  13.396  0.0285 -0.3984  0.7617
  541MPD2    C1 8026   4.207   0.056  13.313  0.6717 -0.3526 -0.0788
  541MPD2    C2 8027   4.194   0.076  13.174  0.4444 -0.2868 -0.1322
  541MPD2    C3 8028   4.218   0.201  13.117  0.7935 -1.0273 -0.2099
  541MPD2    C4 8029   4.254   0.303  13.206 -1.1349  0.2643 -0.4736
  541MPD2    C5 8030   4.261   0.287  13.340  0.4001  0.3892  0.5478
  541MPD2     H 8031   4.168   4.719  13.106 -0.7684 -0.3878  0.4420
  541MPD2    H1 8032   4.263   0.405  13.170  2.2260  0.8423  2.0796
  541MPD2    H2 8033   4.237   0.160  13.504  1.1696 -2.7802  0.5944
  541MPD2    H3 8034   4.287   0.361  13.414  0.0947 -1.5364  2.5674
  541MPD2     N 8035   4.192   0.241  12.982 -0.0209 -0.6393 -0.3215
  541MPD2    H5 8036   4.222   0.331  12.946 -0.5112 -0.4440 -0.2343
  541MPD2    N1 8037   4.184   4.656  13.380  0.2145  0.4022  0.3603
  541MPD2    H7 8038   4.177   4.664  13.481 -1.1132 -0.2236  0.3086
  542TMC3    C1 8039   4.192   0.209  12.747  0.4794 -0.4030 -0.4134
  542TMC3    C2 8040   4.240   0.126  12.652  0.4577  0.0800  0.1332
  542TMC3    C3 8041   4.254   0.176  12.527 -0.0775 -0.8025  0.8760
  542TMC3    C4 8042   4.161   0.341  12.722  0.1091 -0.4700  0.1729
  542TMC3    C5 8043   4.179   0.382  12.596 -0.4277 -0.3412  0.2679
  542TMC3    C6 8044   4.237   0.306  12.497 -0.5107 -0.0219  0.1562
  542TMC3     C 8045   4.170   0.155  12.878 -0.4458  0.0491 -0.1167
  542TMC3     O 8046   4.142   0.038  12.880  0.0883  0.9298  0.4902
  542TMC3     H 8047   4.251   0.019  12.669 -0.1860  0.0101  0.0858
  542TMC3    H1 8048   4.108   0.400  12.796 -1.7754 -0.6076 -1.0829
  542TMC3    H2 8049   4.244   0.334  12.392 -0.1312 -1.2760 -0.1579
  542TMC3    C7 8050   4.187   0.521  12.581 -0.5573  0.5071  0.5040
  542TMC3    C8 8051   4.322   0.094  12.428 -0.5702  0.3145  0.6494
  542TMC3    O1 8052   4.193   0.593  12.681  0.3538  0.0411 -0.2418
  542TMC3    O2 8053   4.380   0.156  12.342  0.4691  0.2964 -0.3656
  543TMC3    C1 8054   4.176   1.595  17.017  0.3653  0.0256  0.9059
  543TMC3    C2 8055   4.072   1.505  17.049  0.1780  0.5906 -1.0522
  543TMC3    C3 8056   4.081   1.431  17.161 -0.1864 -0.0298 -0.3386
  543TMC3    C4 8057   4.277   1.621  17.103 -0.1017  0.1609  0.0265
  543TMC3    C5 8058   4.274   1.554  17.225 -0.2226  0.4072 -0.2493
  543TMC3    C6 8059   4.176   1.456  17.258 -0.1754  0.3504  0.5049
  543TMC3     C 8060   4.219   1.566  16.882  0.2095  0.2674  0.0583
  543TMC3     O 8061   4.313   1.488  16.877 -0.1709  0.1118 -0.4662
  543TMC3     H 8062   4.001   1.478  16.972 -0.3879 -0.4406 -0.1767
  543TMC3    H1 8063   4.361   1.676  17.063 -0.6836  0.8843 -0.2099
  543TMC3    H2 8064   4.199   1.384  17.336 -1.5664 -2.5783 -1.8221
  543TMC3    C7 8065   4.390   1.583  17.314 -0.2575  0.0383 -0.2557
  543TMC3    C8 8066   4.002   1.304  17.174  0.2022  0.5383 -1.4119
  543TMC3    O1 8067   4.490   1.635  17.262  0.3929 -0.5528  0.0764
  543TMC3    O2 8068   3.957   1.256  17.072 -0.1360  0.2473  0.4313
  544MPD2     C 8069   3.676   1.035  17.463  0.2066 -0.8424  0.4773
  544MPD2    C1 8070   3.677   1.041  17.326 -0.2147 -0.3494 -0.2142
  544MPD2    C2 8071   3.763   1.136  17.263  0.6940  0.2266  0.4575
  544MPD2    C3 8072   3.846   1.212  17.347 -0.0339 -0.4658  0.4602
  544MPD2    C4 8073   3.850   1.195  17.483  0.2212 -0.0185 -0.9531
  544MPD2    C5 8074   3.772   1.104  17.548  0.3530  0.2503  0.0629
  544MPD2     H 8075   3.765   1.148  17.155  0.9795 -2.6015  0.1457
  544MPD2    H1 8076   3.940   1.227  17.534  0.2719 -2.0733  0.2582
  544MPD2    H2 8077   3.614   0.961  17.513 -3.7042  1.6163 -0.7074
  544MPD2    H3 8078   3.794   1.079  17.651  0.3201 -0.7003 -0.1599
  544MPD2     N 8079   3.956   1.289  17.302  0.0394 -0.6113  0.1571
  544MPD2    H5 8080   3.998   1.344  17.376  0.1926 -0.3452 -0.1261
  544MPD2    N1 8081   3.585   0.964  17.249 -0.2076  0.3328  0.4318
  544MPD2    H7 8082   3.516   0.914  17.304 -0.7868  0.5882 -0.0614
  545TMC3    C1 8083   3.505   0.839  17.059 -0.7126  0.1218 -0.0115
  545TMC3    C2 8084   3.554   0.771  16.949 -0.0323  0.3793 -0.3434
  545TMC3    C3 8085   3.494   0.652  16.924 -0.3621 -0.3810  0.0806
  545TMC3    C4 8086   3.401   0.800  17.135 -0.3191  0.2350  0.3153
  545TMC3    C5 8087   3.340   0.685  17.103 -0.0391 -0.5432 -0.3156
  545TMC3    C6 8088   3.391   0.607  17.000  0.5483  0.2216 -0.1026
  545TMC3     C 8089   3.593   0.945  17.109 -0.1627  0.2725 -0.4171
  545TMC3     O 8090   3.674   0.983  17.022  0.2306 -0.1064 -0.3425
  545TMC3     H 8091   3.635   0.810  16.889 -0.0836 -0.6245 -1.0718
  545TMC3    H1 8092   3.356   0.855  17.216 -2.4371 -0.3414 -0.4807
  545TMC3    H2 8093   3.336   0.517  16.978  0.7809  0.3852 -1.3321
  545TMC3    C7 8094   3.282   0.625  17.219 -0.6462  0.3388 -1.6473
  545TMC3    C8 8095   3.571   0.569  16.827 -0.8732 -0.1739 -0.6927
  545TMC3    O1 8096   3.180   0.680  17.256 -0.1790  0.0726  0.2206
  545TMC3    O2 8097   3.669   0.617  16.769  0.5197 -0.0752  0.1081
  546MPD2     C 8098   0.516   0.870  17.483  0.1315 -0.1303 -0.1989
  546MPD2    C1 8099   0.539   0.883  17.352 -0.6276 -0.0812 -0.2958
  546MPD2    C2 8100   0.564   1.008  17.294 -0.6492 -0.2035  0.5385
  546MPD2    C3 8101   0.584   1.116  17.379 -0.3697 -0.5259 -0.4466
  546MPD2    C4 8102   0.577   1.092  17.516  0.1392 -0.1813 -0.1899
  546MPD2    C5 8103   0.540   0.970  17.568 -0.6060  0.1841  0.1565
  546MPD2     H 8104   0.572   1.034  17.189  3.6272 -1.2318  0.5823
  546MPD2    H1 8105   0.595   1.168  17.591  0.2108 -0.3422 -0.0415
  546MPD2    H2 8106   0.486   0.779  17.532 -0.0909  0.0389 -0.0193
  546MPD2    H3 8107   0.536   0.955  17.675 -0.1794 -0.9212  0.0273
  546MPD2     N 8108   0.628   1.245  17.339 -0.0170 -0.4296  0.5207
  546MPD2    H5 8109   0.627   1.316  17.412 -1.1033  1.0969 -0.9719
  546MPD2    N1 8110   0.515   0.768  17.269  0.6947  0.1449  0.2655
  546MPD2    H7 8111   0.472   0.687  17.312  0.5357 -0.7001 -1.4631
  547TMC3    C1 8112   0.471   0.668  17.059 -0.1023 -0.0021  0.4900
  547TMC3    C2 8113   0.421   0.726  16.947  0.5485  0.2936 -0.7385
  547TMC3    C3 8114   0.301   0.676  16.903  1.0362 -0.1540  0.3663
  547TMC3    C4 8115   0.415   0.559  17.130  0.0673  0.3893 -0.6637
  547TMC3    C5 8116   0.299   0.514  17.077  0.3787  0.1891 -0.8626
  547TMC3    C6 8117   0.246   0.568  16.962 -0.0655 -0.2502  0.0447
  547TMC3     C 8118   0.547   0.760  17.136  0.4205  0.5448  0.6592
  547TMC3     O 8119   0.624   0.836  17.075 -0.3922 -0.3416 -0.2787
  547TMC3     H 8120   0.477   0.812  16.911 -0.1829  1.0998  0.0598
  547TMC3    H1 8121   0.461   0.509  17.215 -1.2448  0.1326 -0.1096
  547TMC3    H2 8122   0.145   0.548  16.929  0.1972  0.8758 -1.4594
  547TMC3    C7 8123   0.210   0.461  17.182 -0.3560  1.0307 -0.0252
  547TMC3    C8 8124   0.230   0.748  16.794 -0.2107  0.4885 -0.4245
  547TMC3    O1 8125   0.100   0.509  17.193 -0.0353 -0.0513 -0.4274
  547TMC3    O2 8126   0.128   0.700  16.756  0.4905 -0.3258  0.7051
  548MPD2     C 8127   0.315   1.869  12.079 -0.3685  0.2735  0.0921
  548MPD2    C1 8128   0.291   1.794  12.191  0.2553 -0.2323 -0.5110
  548MPD2    C2 8129   0.379   1.693  12.230 -0.8384  0.2371  0.3081
  548MPD2    C3 8130   0.494   1.671  12.158 -1.3612  0.5597  0.6998
  548MPD2    C4 8131   0.520   1.741  12.042 -0.0381  0.1148  0.2841
  548MPD2    C5 8132   0.427   1.842  12.007  0.2385  0.5907 -0.2316
  548MPD2     H 8133   0.362   1.640  12.323 -1.2477 -2.1690 -1.1353
  548MPD2    H1 8134   0.615   1.730  11.990 -0.6120 -0.4309 -0.6467
  548MPD2    H2 8135   0.245   1.943  12.041  0.5916  0.4748 -1.2695
  548MPD2    H3 8136   0.444   1.913  11.928 -2.3564  1.7232  0.2562
  548MPD2     N 8137   0.581   1.565  12.209  0.4194  0.4960 -0.7823
  548MPD2    H5 8138   0.555   1.526  12.299 -1.3542  0.3786 -1.3486
  548MPD2    N1 8139   0.173   1.825  12.262  0.0130  0.3795 -0.3753
  548MPD2    H7 8140   0.113   1.890  12.213  0.1845  1.0478  0.2815
  549TMC3    C1 8141   4.718   1.819  12.408  0.0992  0.8465  0.2771
  549TMC3    C2 8142   4.667   1.925  12.343 -0.1531 -0.5241 -0.6629
  549TMC3    C3 8143   4.530   1.923  12.318  0.1660 -0.0927 -0.7650
  549TMC3    C4 8144   4.651   1.709  12.452 -0.2879  0.5637 -0.4075
  549TMC3    C5 8145   4.517   1.702  12.414 -0.4642 -0.3572 -0.0866
  549TMC3    C6 8146   4.459   1.813  12.360  0.7171 -0.1333  0.8330
  549TMC3     C 8147   0.129   1.776  12.382  0.2351  0.4657  0.4954
  549TMC3     O 8148   0.183   1.701  12.464  0.1577  0.0623 -0.1883
  549TMC3     H 8149   0.013   1.997  12.302 -1.6729  0.7650 -0.9564
  549TMC3    H1 8150   4.694   1.638  12.521 -0.4615  0.3731 -0.4957
  549TMC3    H2 8151   4.351   1.810  12.353  0.6835  0.4453  1.1050
  549TMC3    C7 8152   4.422   1.617  12.479 -0.1737  0.2711 -0.0130
  549TMC3    C8 8153   4.467   2.041  12.277 -0.9197  0.1795 -0.0197
  549TMC3    O1 8154   4.318   1.655  12.519 -0.4412 -0.0921 -0.8886
  549TMC3    O2 8155   4.364   2.019  12.213  0.0571  1.2053 -0.0522
  550TMC3    C1 8156   4.156   4.633  11.666 -0.0284  0.2581 -0.6696
  550TMC3    C2 8157   4.158   4.643  11.808  0.1918 -0.3364  0.4737
  550TMC3    C3 8158   4.038   4.655  11.867 -0.4822 -0.1146 -0.4283
  550TMC3    C4 8159   4.036   4.607  11.597  0.2124  0.3915  0.1331
  550TMC3    C5 8160   3.923   4.599  11.669 -0.2407 -0.3337 -0.1004
  550TMC3    C6 8161   3.920   4.640  11.798  0.1767 -0.1777  0.9529
  550TMC3     C 8162   4.277   4.592  11.607  0.6374 -0.8924 -0.6126
  550TMC3     O 8163   4.359   4.543  11.680  0.5624  0.5201 -0.4266
  550TMC3     H 8164   4.252   4.638  11.862 -1.5699 -2.3209  3.3849
  550TMC3    H1 8165   4.024   4.605  11.489 -0.6481  0.5350  0.2293
  550TMC3    H2 8166   3.824   4.642  11.848 -0.3196 -0.7008  0.0191
  550TMC3    C7 8167   3.802   4.559  11.604  0.3230 -0.3698 -0.1583
  550TMC3    C8 8168   4.040   4.696  12.007  0.1727  0.3915  0.5603
  550TMC3    O1 8169   3.702   4.605  11.658  0.0776 -0.3410 -0.5854
  550TMC3    O2 8170   4.148   4.694  12.064 -0.2099 -0.0479 -0.5350
  551TMC3    C1 8171   1.067   2.218  13.334 -0.2610  0.2543  0.1045
  551TMC3    C2 8172   1.140   2.285  13.237 -0.1080  0.0212 -0.9933
  551TMC3    C3 8173   1.245   2.360  13.288 -0.0424  0.2871  0.1444
  551TMC3    C4 8174   1.092   2.231  13.474  0.2745 -0.7591 -0.2842
  551TMC3    C5 8175   1.202   2.310  13.510 -0.0052 -0.0315  0.0487
  551TMC3    C6 8176   1.282   2.372  13.421 -0.0343 -0.0596 -0.2227
  551TMC3     C 8177   0.977   2.124  13.276  0.5717 -0.6299 -0.6100
  551TMC3     O 8178   0.971   2.096  13.152  0.5539 -0.7300 -0.4200
  551TMC3     H 8179   1.114   2.263  13.134 -1.1757 -0.6264 -0.5830
  551TMC3    H1 8180   1.046   2.171  13.551  2.2200 -1.2007  0.5262
  551TMC3    H2 8181   1.357   2.441  13.459 -0.0038  1.1971 -2.5489
  551TMC3    C7 8182   1.201   2.357  13.647 -1.0905  0.4718 -0.6434
  551TMC3    C8 8183   1.332   2.423  13.191  0.2564 -0.4142  0.0680
  551TMC3    O1 8184   1.309   2.402  13.687 -0.5129 -0.0632  0.2423
  551TMC3    O2 8185   1.332   2.381  13.076  0.2079 -0.1232 -0.1453
  552MPD2     C 8186   2.949   4.319  14.692 -0.0516 -0.1267  0.2710
  552MPD2    C1 8187   3.045   4.289  14.605 -0.6753  0.2840 -0.2890
  552MPD2    C2 8188   3.174   4.319  14.636  0.3682  0.4188 -0.2101
  552MPD2    C3 8189   3.204   4.368  14.763  0.0739 -0.6260 -0.7130
  552MPD2    C4 8190   3.107   4.395  14.851 -1.2386  0.4580  0.5594
  552MPD2    C5 8191   2.977   4.381  14.811  0.0512 -0.0186 -0.6475
  552MPD2     H 8192   3.249   4.279  14.568  1.1895 -1.0645  1.5585
  552MPD2    H1 8193   3.122   4.447  14.945  0.5349  1.0862 -0.0892
  552MPD2    H2 8194   2.845   4.290  14.681 -0.1658  0.7794 -1.0773
  552MPD2    H3 8195   2.888   4.400  14.870 -0.2089 -2.3326 -0.3061
  552MPD2     N 8196   3.332   4.399  14.805  0.5497  0.5011  0.2555
  552MPD2    H5 8197   3.345   4.425  14.903  0.2682 -0.0298  0.4330
  552MPD2    N1 8198   3.023   4.200  14.498 -0.1632  0.1800  0.6545
  552MPD2    H7 8199   3.103   4.179  14.439 -1.4558 -0.6579 -0.8076
  553TMC3    C1 8200   2.928   4.061  14.346 -0.1865 -0.5599  0.2431
  553TMC3    C2 8201   2.876   4.085  14.223  0.2371 -0.1404 -0.3162
  553TMC3    C3 8202   2.914   4.007  14.119 -0.3681 -0.0622  0.1323
  553TMC3    C4 8203   3.037   3.980  14.366  0.3297 -0.0300 -0.2676
  553TMC3    C5 8204   3.065   3.901  14.268 -0.0111  0.3158 -0.4427
  553TMC3    C6 8205   3.010   3.913  14.145 -0.4750 -0.4488  0.4437
  553TMC3     C 8206   2.901   4.154  14.456  0.7012  0.7134 -0.5385
  553TMC3     O 8207   2.783   4.181  14.473  0.2497 -0.4006 -0.6111
  553TMC3     H 8208   2.790   4.150  14.213 -1.2436 -1.9374  0.4944
  553TMC3    H1 8209   3.085   3.974  14.462 -1.3833 -1.8362  0.4903
  553TMC3    H2 8210   3.062   3.868  14.061 -0.9721  0.9709 -0.6245
  553TMC3    C7 8211   3.180   3.811  14.274 -0.2974 -0.6664 -0.1403
  553TMC3    C8 8212   2.929   4.065  13.988  0.1748 -0.1480  0.5605
  553TMC3    O1 8213   3.159   3.698  14.234  0.1906 -0.7723  0.1560
  553TMC3    O2 8214   2.971   3.996  13.895 -0.0771 -0.0097  0.2434
  554TMC3    C1 8215   0.580   3.135  11.593  0.0826  0.0970  0.6602
  554TMC3    C2 8216   0.570   3.022  11.525 -0.4159 -0.4499  0.4331
  554TMC3    C3 8217   0.611   3.020  11.390  0.0920 -0.1408  0.2768
  554TMC3    C4 8218   0.615   3.249  11.539  0.1942 -0.3541  0.0690
  554TMC3    C5 8219   0.650   3.252  11.405 -0.1131  0.8222  0.0617
  554TMC3    C6 8220   0.657   3.131  11.333 -0.1057  0.2081  0.4462
  554TMC3     C 8221   0.548   3.134  11.734  0.5058  0.1652  0.2119
  554TMC3     O 8222   0.529   3.244  11.790  1.0632  0.6006 -0.1486
  554TMC3     H 8223   0.519   2.938  11.570  2.3996 -1.3450  1.9490
  554TMC3    H1 8224   0.615   3.337  11.603 -0.4248  0.1085 -0.5637
  554TMC3    H2 8225   0.692   3.146  11.232 -0.5868 -0.7386  0.1380
  554TMC3    C7 8226   0.612   3.372  11.330  0.3089 -0.2582  0.4457
  554TMC3    C8 8227   0.517   2.953  11.300  0.1055 -0.0743 -0.3749
  554TMC3    O1 8228   0.563   3.343  11.220 -0.2666  0.2322  0.1496
  554TMC3    O2 8229   0.523   2.985  11.184  0.3282 -0.0470  0.2686
  555TMC3    C1 8230   4.175   2.772  15.268  0.1378  0.2666  0.3930
  555TMC3    C2 8231   4.235   2.876  15.330 -0.0570  0.2475 -0.5130
  555TMC3    C3 8232   4.287   2.860  15.456 -0.4087 -0.1952 -0.3977
  555TMC3    C4 8233   4.151   2.655  15.332  0.2587  0.8702 -0.9133
  555TMC3    C5 8234   4.209   2.634  15.454 -0.2595  0.0114  0.3380
  555TMC3    C6 8235   4.265   2.736  15.522  0.2590  0.1564 -0.0398
  555TMC3     C 8236   4.168   2.758  15.126  0.3124  0.2643 -0.2125
  555TMC3     O 8237   4.096   2.666  15.090 -0.3435  0.3408 -0.2969
  555TMC3     H 8238   4.242   2.967  15.272  1.2346  0.0537 -0.6669
  555TMC3    H1 8239   4.105   2.576  15.273 -1.2428  1.0150  0.0653
  555TMC3    H2 8240   4.302   2.725  15.623  0.0968 -0.9396 -0.0964
  555TMC3    C7 8241   4.200   2.503  15.506 -0.0723 -0.2670 -0.0133
  555TMC3    C8 8242   4.319   2.981  15.519  0.8506  0.3114  0.1466
  555TMC3    O1 8243   4.132   2.431  15.429  0.0174 -0.3686 -0.6120
  555TMC3    O2 8244   4.298   3.089  15.463  0.5555  0.2061 -0.2541
  556MPD2     C 8245   2.442   4.449  10.625  0.7988  0.3445  0.6027
  556MPD2    C1 8246   2.417   4.365  10.733  0.5720 -0.1029 -0.0178
  556MPD2    C2 8247   2.392   4.228  10.713 -0.4639 -0.1147 -0.1032
  556MPD2    C3 8248   2.388   4.172  10.588 -0.5139 -0.2808  0.1091
  556MPD2    C4 8249   2.380   4.268  10.483 -0.0060  0.0234 -0.5088
  556MPD2    C5 8250   2.425   4.398  10.499  0.0589  0.2078 -0.1910
  556MPD2     H 8251   2.379   4.157  10.794  0.4856 -0.0852  0.0758
  556MPD2    H1 8252   2.355   4.241  10.381 -1.2164  0.9453 -0.4478
  556MPD2    H2 8253   2.449   4.557  10.632  0.3949  0.5296 -1.9273
  556MPD2    H3 8254   2.421   4.464  10.413 -1.8819 -1.2587 -1.2148
  556MPD2     N 8255   2.348   4.046  10.571  1.2287 -0.0032 -0.3456
  556MPD2    H5 8256   2.314   4.001  10.655 -0.1942  0.0442 -0.8801
  556MPD2    N1 8257   2.428   4.421  10.866 -0.7763 -0.1682  0.5094
  556MPD2    H7 8258   2.409   4.354  10.940  0.4177  1.9196  2.7146
  557TMC3    C1 8259   2.326   3.843  10.449 -0.5007  0.3790  0.2122
  557TMC3    C2 8260   2.371   3.779  10.341  0.0496 -0.6682  0.0116
  557TMC3    C3 8261   2.313   3.664  10.309  0.5871  0.4754 -0.4828
  557TMC3    C4 8262   2.241   3.786  10.544 -0.3282 -0.7773 -0.0186
  557TMC3    C5 8263   2.193   3.663  10.513  0.6213 -0.2995  0.2582
  557TMC3    C6 8264   2.224   3.606  10.393 -0.0032  0.1065  0.4019
  557TMC3     C 8265   2.353   3.988  10.447 -0.3932  0.0752  0.5981
  557TMC3     O 8266   2.415   4.030  10.348 -0.1319 -0.3544 -0.5390
  557TMC3     H 8267   2.448   3.819  10.276 -1.4000  0.3664 -1.0678
  557TMC3    H1 8268   2.196   3.835  10.630  1.3399 -0.2419  0.5449
  557TMC3    H2 8269   2.165   3.525  10.351  0.6286 -0.3366  0.3578
  557TMC3    C7 8270   2.084   3.613  10.595 -0.1622 -0.4537  0.2085
  557TMC3    C8 8271   2.327   3.619  10.171  0.2005  0.9175  0.2420
  557TMC3    O1 8272   2.022   3.694  10.666  0.6430  0.4143 -0.3636
  557TMC3    O2 8273   2.366   3.708  10.097  0.2024 -0.3156 -0.3118
  558TMC3    C1 8274   0.587   1.719   9.154 -0.1280 -0.3963  0.0806
  558TMC3    C2 8275   0.470   1.762   9.203  0.0733  0.6380 -0.3616
  558TMC3    C3 8276   0.358   1.724   9.145 -0.6524  0.2445 -0.6702
  558TMC3    C4 8277   0.585   1.621   9.058 -1.0643  0.8291 -0.5247
  558TMC3    C5 8278   0.470   1.574   8.999 -0.1368  0.0485  0.0058
  558TMC3    C6 8279   0.350   1.639   9.038 -0.0108 -0.0499 -0.2639
  558TMC3     C 8280   0.703   1.763   9.226 -0.0426 -0.0233 -0.3236
  558TMC3     O 8281   0.703   1.879   9.262  0.3727  0.0216 -0.1913
  558TMC3     H 8282   0.472   1.824   9.292 -2.9527  2.2083 -1.3882
  558TMC3    H1 8283   0.680   1.585   9.021 -0.7432  2.5235 -1.3508
  558TMC3    H2 8284   0.254   1.617   8.992  0.5928  0.0641 -1.5559
  558TMC3    C7 8285   0.470   1.468   8.901 -0.7871 -0.4094 -0.2625
  558TMC3    C8 8286   0.235   1.723   9.225  0.1660 -0.5486 -0.1518
  558TMC3    O1 8287   0.377   1.474   8.822  0.0476  0.4132  0.0439
  558TMC3    O2 8288   0.128   1.738   9.166 -0.3549 -0.0949 -0.3565
  559MPD2     C 8289   0.025   2.562  10.398 -0.1487  0.0515 -0.2761
  559MPD2    C1 8290   4.719   2.490  10.511  0.3124 -0.2883 -0.5020
  559MPD2    C2 8291   0.103   2.438  10.586 -0.0827 -0.2876  0.2451
  559MPD2    C3 8292   0.232   2.473  10.557  0.5776 -0.1991 -0.0087
  559MPD2    C4 8293   0.267   2.546  10.442 -0.0302 -0.1934 -0.8800
  559MPD2    C5 8294   0.159   2.588  10.363  0.4718  0.1974 -0.0662
  559MPD2     H 8295   0.084   2.370  10.669 -0.9784  0.5738  0.7444
  559MPD2    H1 8296   0.368   2.567  10.410  0.5522  1.9421  2.4232
  559MPD2    H2 8297   4.663   2.593  10.338 -1.0574 -1.6987  0.1341
  559MPD2    H3 8298   0.172   2.654  10.278 -1.7214 -1.0847 -1.3851
  559MPD2     N 8299   0.340   2.414  10.625  0.0375  0.0681 -0.7702
  559MPD2    H5 8300   0.318   2.328  10.675 -3.1156  0.3982 -1.6053
  559MPD2    N1 8301   4.585   2.482  10.547  0.2801 -0.7208  0.4172
  559MPD2    H7 8302   4.516   2.522  10.484 -0.9644 -1.8477  1.0592
  560TMC3    C1 8303   0.537   2.371  10.724  0.1678 -0.7007 -0.1946
  560TMC3    C2 8304   0.512   2.238  10.698 -0.0065 -0.9294  0.0995
  560TMC3    C3 8305   0.586   2.144  10.760 -0.0917 -0.0169  0.0658
  560TMC3    C4 8306   0.641   2.410  10.798  0.2023  0.5026  0.0975
  560TMC3    C5 8307   0.716   2.311  10.853 -0.0598  0.1271 -0.9641
  560TMC3    C6 8308   0.691   2.179  10.836 -0.2994  0.8406 -0.3057
  560TMC3     C 8309   0.466   2.467  10.644 -0.6084 -0.6090 -0.0418
  560TMC3     O 8310   0.521   2.570  10.620  0.2856  0.2339  0.1070
  560TMC3     H 8311   0.460   2.203  10.609  0.3452  1.5495 -1.0629
  560TMC3    H1 8312   0.653   2.514  10.828 -0.9006  1.4369 -2.6324
  560TMC3    H2 8313   0.748   2.106  10.892  0.1017  0.3893 -1.2885
  560TMC3    C7 8314   0.811   2.345  10.960 -0.1984 -0.7099  0.1621
  560TMC3    C8 8315   0.592   2.018  10.685 -0.1689 -0.3009  0.1700
  560TMC3    O1 8316   0.811   2.267  11.047 -1.1505  0.6839 -0.1448
  560TMC3    O2 8317   0.484   1.982  10.635 -0.5112  0.0562  0.1064
  561TMC3    C1 8318   3.099   1.288  11.049 -0.2267 -0.4744 -0.7090
  561TMC3    C2 8319   3.074   1.219  11.160 -0.1289 -0.1737 -0.9332
  561TMC3    C3 8320   3.044   1.292  11.267  0.5398  0.2561  0.1207
  561TMC3    C4 8321   3.096   1.427  11.040  0.8463  0.5793  0.1360
  561TMC3    C5 8322   3.057   1.488  11.156  0.3444 -0.8695  0.1663
  561TMC3    C6 8323   3.044   1.419  11.271  0.5912  0.4615 -0.4083
  561TMC3     C 8324   3.116   1.212  10.933  0.6276  0.8914 -0.4606
  561TMC3     O 8325   3.089   1.091  10.939 -0.0397 -0.3618 -0.4514
  561TMC3     H 8326   3.072   1.111  11.168  0.9024 -0.0489  1.0345
  561TMC3    H1 8327   3.115   1.478  10.946 -0.1722  1.1420  0.2211
  561TMC3    H2 8328   3.031   1.471  11.365  1.3785  1.7523 -1.0204
  561TMC3    C7 8329   2.972   1.604  11.157 -0.4411 -0.6888  0.2750
  561TMC3    C8 8330   2.981   1.222  11.380 -0.3596 -0.3046 -0.0788
  561TMC3    O1 8331   2.872   1.603  11.233  0.0654 -0.4463 -0.2256
  561TMC3    O2 8332   3.008   1.109  11.409 -0.1077 -0.1816 -0.3624
  562TMC3    C1 8333   4.159   3.135  16.229  0.5483  0.2918  0.1587
  562TMC3    C2 8334   4.059   3.229  16.200 -0.0608 -0.3848 -0.5904
  562TMC3    C3 8335   4.001   3.223  16.080  0.4608  0.9627 -0.0802
  562TMC3    C4 8336   4.194   3.032  16.148 -0.3368 -0.1901  0.5449
  562TMC3    C5 8337   4.125   3.018  16.034 -0.3393 -0.3196 -0.0715
  562TMC3    C6 8338   4.033   3.117  15.999  1.5430  0.0022 -0.2878
  562TMC3     C 8339   4.223   3.134  16.363 -0.2062 -0.4012  0.5653
  562TMC3     O 8340   4.323   3.065  16.380  0.3366 -0.1018  0.2067
  562TMC3     H 8341   4.037   3.313  16.265  0.7228 -0.5100 -0.1542
  562TMC3    H1 8342   4.258   2.956  16.191  1.0480  1.2435  1.0346
  562TMC3    H2 8343   3.988   3.115  15.901 -1.5858 -0.9164  1.1654
  562TMC3    C7 8344   4.117   2.888  15.968 -0.5456  0.2996  0.6450
  562TMC3    C8 8345   3.862   3.262  16.081  0.4955  0.8241  0.0732
  562TMC3    O1 8346   4.063   2.892  15.858 -0.3412 -0.2970 -0.0522
  562TMC3    O2 8347   3.815   3.284  16.194 -0.2538  0.4507 -0.2617
  563MPD2     C 8348   1.451   4.541  15.831 -0.7244  0.3994 -0.4632
  563MPD2    C1 8349   1.444   4.537  15.967  0.5732 -0.2933 -0.3910
  563MPD2    C2 8350   1.553   4.546  16.045  0.3121 -0.6051  0.0273
  563MPD2    C3 8351   1.675   4.558  15.994  0.1887  0.1331 -0.3764
  563MPD2    C4 8352   1.683   4.541  15.859 -0.2190 -0.0077 -0.4802
  563MPD2    C5 8353   1.575   4.546  15.775 -0.4677  0.5252 -0.2020
  563MPD2     H 8354   1.527   4.564  16.149 -1.0909  1.5923 -0.6953
  563MPD2    H1 8355   1.777   4.555  15.808  0.4480 -0.6567  0.5662
  563MPD2    H2 8356   1.362   4.522  15.772  0.6439 -0.6220 -2.1807
  563MPD2    H3 8357   1.584   4.543  15.667  0.6149  1.1708 -0.1427
  563MPD2     N 8358   1.781   4.544  16.083 -0.2483 -0.5594 -0.2674
  563MPD2    H5 8359   1.769   4.574  16.179  1.2543  0.3247 -0.3520
  563MPD2    N1 8360   1.328   4.523  16.050  0.3649  0.9385  0.2382
  563MPD2    H7 8361   1.347   4.504  16.147  0.9092 -1.3525 -0.3090
  564TMC3    C1 8362   1.114   4.452  16.106  0.1189 -0.3082  0.5604
  564TMC3    C2 8363   1.017   4.359  16.069  0.2877  0.1238 -0.0076
  564TMC3    C3 8364   0.984   4.262  16.167 -0.3366 -0.9406 -0.2632
  564TMC3    C4 8365   1.159   4.459  16.238  0.2793  0.4339 -0.4517
  564TMC3    C5 8366   1.105   4.372  16.334  0.7879 -0.2278  0.1851
  564TMC3    C6 8367   1.019   4.267  16.298  0.1914 -0.5170 -0.2537
  564TMC3     C 8368   1.202   4.502  16.006  0.3223 -0.3617  0.0768
  564TMC3     O 8369   1.163   4.497  15.890  0.0682 -0.0096 -0.0527
  564TMC3     H 8370   0.985   4.361  15.965 -1.0703 -0.3565  0.4059
  564TMC3    H1 8371   1.235   4.528  16.273  0.6770 -1.2884  2.0045
  564TMC3    H2 8372   1.002   4.187  16.369 -2.9847 -0.6649 -1.2002
  564TMC3    C7 8373   1.168   4.352  16.470 -0.6030  0.1789  0.0941
  564TMC3    C8 8374   0.910   4.139  16.130  0.0862 -0.4394  0.4493
  564TMC3    O1 8375   1.148   4.250  16.534  0.0186  0.1849 -0.0680
  564TMC3    O2 8376   0.922   4.053  16.217  0.4296 -0.3833 -0.1705
  565TMC3    C1 8377   2.875   1.783  10.018  0.1881  0.2195  0.3809
  565TMC3    C2 8378   2.810   1.702  10.109 -0.8244 -0.5429  1.0234
  565TMC3    C3 8379   2.771   1.754  10.231 -0.3526  0.3393  0.4761
  565TMC3    C4 8380   2.875   1.920  10.044 -0.5162 -0.2205 -0.3028
  565TMC3    C5 8381   2.826   1.962  10.166  0.6650  0.1070 -1.2027
  565TMC3    C6 8382   2.779   1.886  10.264 -0.5022 -0.4026  0.8376
  565TMC3     C 8383   2.910   1.743   9.884 -0.0158  0.7225 -0.2219
  565TMC3     O 8384   2.983   1.824   9.821 -0.3621  0.2195  0.0456
  565TMC3     H 8385   2.782   1.600  10.082  2.2702 -0.6728 -1.6994
  565TMC3    H1 8386   2.936   1.980   9.978 -0.4281 -1.4995 -1.3909
  565TMC3    H2 8387   2.722   1.927  10.348 -3.2207 -0.3777 -1.0091
  565TMC3    C7 8388   2.849   2.104  10.190 -0.8675  0.9285  0.4686
  565TMC3    C8 8389   2.702   1.654  10.323 -0.0088 -0.0777  0.3296
  565TMC3    O1 8390   2.900   2.166  10.094  0.2042 -0.4451 -0.1946
  565TMC3    O2 8391   2.690   1.541  10.280  0.3660  0.1314  0.0863
  566MPD2     C 8392   3.211   2.481  14.203  0.5666  0.2856 -0.0155
  566MPD2    C1 8393   3.299   2.388  14.160  0.1739 -0.0699  0.1661
  566MPD2    C2 8394   3.263   2.311  14.051  0.5551  0.0349 -0.5885
  566MPD2    C3 8395   3.142   2.324  13.985 -0.0498 -0.5434  0.0514
  566MPD2    C4 8396   3.051   2.416  14.039  0.2276 -0.4215 -0.4050
  566MPD2    C5 8397   3.087   2.490  14.151 -0.3453  0.0087 -0.6221
  566MPD2     H 8398   3.340   2.246  14.008 -1.3736 -3.0409  0.5980
  566MPD2    H1 8399   2.948   2.430  14.009 -0.3894 -0.2978  1.7506
  566MPD2    H2 8400   3.240   2.559  14.273  0.7006  0.5002 -0.3101
  566MPD2    H3 8401   3.009   2.553  14.191 -0.6882 -0.8098 -0.0056
  566MPD2     N 8402   3.116   2.255  13.862 -0.1149 -0.5012  0.1785
  566MPD2    H5 8403   3.031   2.284  13.815  0.4786  0.4067 -0.3173
  566MPD2    N1 8404   3.427   2.387  14.227  0.3114 -0.1674  0.2697
  566MPD2    H7 8405   3.431   2.449  14.307  0.5501  0.3725 -0.1627
  567TMC3    C1 8406   3.657   2.449  14.201 -0.3718  0.2421 -0.7166
  567TMC3    C2 8407   3.710   2.510  14.091  0.4082 -0.1064 -0.2089
  567TMC3    C3 8408   3.833   2.578  14.099 -0.6215 -0.2000 -0.2823
  567TMC3    C4 8409   3.733   2.430  14.306 -0.0841  0.0495 -0.2235
  567TMC3    C5 8410   3.857   2.490  14.312 -0.3558  0.3540 -0.2826
  567TMC3    C6 8411   3.908   2.563  14.213  0.1683  0.2638  0.2321
  567TMC3     C 8412   3.546   2.363  14.161 -0.4575  0.1791 -0.1091
  567TMC3     O 8413   3.564   2.297  14.059 -0.7633  0.2213 -0.2492
  567TMC3     H 8414   3.651   2.518  14.001 -0.2151  0.3081  0.2339
  567TMC3    H1 8415   3.698   2.349  14.368  0.1852 -0.4669 -0.7454
  567TMC3    H2 8416   4.005   2.612  14.220 -0.0372  0.7066 -0.0426
  567TMC3    C7 8417   3.934   2.487  14.433 -0.2807 -0.5616  0.2644
  567TMC3    C8 8418   3.890   2.640  13.978  0.0547 -0.4126 -0.2573
  567TMC3    O1 8419   4.047   2.536  14.433 -0.5382  0.4085  0.3685
  567TMC3    O2 8420   3.842   2.604  13.874  0.0954  0.0098  0.7914
  568MPD2     C 8421   1.103   2.734  16.326 -0.2195 -0.4590 -0.0942
  568MPD2    C1 8422   1.059   2.786  16.441 -0.4108 -0.2069  0.2373
  568MPD2    C2 8423   0.979   2.902  16.431  0.2882 -0.4439  0.2882
  568MPD2    C3 8424   0.937   2.951  16.309  0.3707  0.1108  0.2346
  568MPD2    C4 8425   0.972   2.892  16.193  0.0290  0.7248  0.3768
  568MPD2    C5 8426   1.054   2.782  16.198 -0.1588 -0.2589 -0.0261
  568MPD2     H 8427   0.948   2.953  16.522  0.1449 -0.1903  0.0994
  568MPD2    H1 8428   0.945   2.928  16.094 -0.3108 -1.0547 -0.1743
  568MPD2    H2 8429   1.171   2.650  16.325 -0.6452 -0.8017 -0.5896
  568MPD2    H3 8430   1.094   2.730  16.112 -0.8856 -1.8604  0.5877
  568MPD2     N 8431   0.869   3.077  16.305 -0.3582  0.1891  0.3306
  568MPD2    H5 8432   0.835   3.120  16.391 -0.0489  2.9904 -0.9660
  568MPD2    N1 8433   1.088   2.725  16.562  0.1556 -0.5540  0.0573
  568MPD2    H7 8434   1.156   2.649  16.558  0.0471 -0.7788  2.0204
  569TMC3    C1 8435   0.761   3.270  16.227 -0.2147 -0.4542  0.2765
  569TMC3    C2 8436   0.756   3.322  16.348 -0.1705  0.2034 -0.1027
  569TMC3    C3 8437   0.692   3.438  16.357 -0.8261 -0.9283 -0.2555
  569TMC3    C4 8438   0.727   3.346  16.119 -0.4631  0.1810 -0.3199
  569TMC3    C5 8439   0.661   3.466  16.132 -0.5780 -1.1588  0.0510
  569TMC3    C6 8440   0.639   3.519  16.258  0.1644 -0.0523  0.0797
  569TMC3     C 8441   0.831   3.147  16.192  0.3319 -0.3215 -0.3852
  569TMC3     O 8442   0.854   3.130  16.072 -0.2301  0.2530  0.2307
  569TMC3     H 8443   0.768   3.264  16.438  1.8999  0.3830 -0.2690
  569TMC3    H1 8444   0.744   3.309  16.018  2.8319  1.1058 -0.1205
  569TMC3    H2 8445   0.592   3.605  16.305 -0.8414 -0.7822  0.4126
  569TMC3    C7 8446   0.666   3.546  16.013  0.0487 -0.1477 -0.1128
  569TMC3    C8 8447   0.665   3.494  16.487 -0.1441  0.6650  0.1004
  569TMC3    O1 8448   0.635   3.496  15.902  0.6371  0.5397 -0.1328
  569TMC3    O2 8449   0.551   3.491  16.531 -1.1013  0.0476  0.4335
  570TMC3    C1 8450   0.531   1.837  15.860 -0.2541 -0.5789 -0.3431
  570TMC3    C2 8451   0.624   1.830  15.761  0.0034 -0.1656 -0.1790
  570TMC3    C3 8452   0.716   1.926  15.750 -0.3509  0.0376 -0.0563
  570TMC3    C4 8453   0.538   1.934  15.959 -0.0442 -0.2025 -0.0832
  570TMC3    C5 8454   0.637   2.033  15.945  0.4149 -0.0353 -0.5705
  570TMC3    C6 8455   0.720   2.037  15.836 -0.0856  0.3904 -0.0097
  570TMC3     C 8456   0.455   1.720  15.886  0.2253 -0.0061  0.6043
  570TMC3     O 8457   0.411   1.661  15.790 -0.1985  0.0089  0.0866
  570TMC3     H 8458   0.615   1.743  15.697  0.1721 -1.2173  1.2313
  570TMC3    H1 8459   0.463   1.939  16.038  1.1919 -2.1654  1.2190
  570TMC3    H2 8460   0.801   2.109  15.832 -1.0499  1.5369  1.3513
  570TMC3    C7 8461   0.625   2.148  16.038 -0.2215  0.9577 -0.1165
  570TMC3    C8 8462   0.821   1.926  15.654 -0.3455  0.5644 -0.1741
  570TMC3    O1 8463   0.563   2.122  16.140  0.3869 -0.3721  0.4392
  570TMC3    O2 8464   0.896   2.014  15.669  0.0034  0.1207  0.3261
  571MPD2     C 8465   2.397   3.675   0.111  0.1624  0.4803 -0.3589
  571MPD2    C1 8466   2.530   3.657   0.096  0.1930  0.5338 -0.5206
  571MPD2    C2 8467   2.621   3.735   0.168 -0.6913  0.4488 -0.1636
  571MPD2    C3 8468   2.576   3.840   0.247 -0.6323  0.4081 -0.0080
  571MPD2    C4 8469   2.436   3.844   0.266 -0.3891 -0.2498  0.4431
  571MPD2    C5 8470   2.345   3.766   0.200  0.0874  0.5154 -0.0625
  571MPD2     H 8471   2.727   3.715   0.156 -1.1827 -1.1039 -1.8401
  571MPD2    H1 8472   2.396   3.915   0.337  0.6165  1.5307 -0.7658
  571MPD2    H2 8473   2.331   3.610   0.055 -1.9214  1.9034  0.4419
  571MPD2    H3 8474   2.243   3.768   0.236  1.0166  2.4807  2.4653
  571MPD2     N 8475   2.666   3.936   0.306  0.0141  0.3540 -0.3085
  571MPD2    H5 8476   2.623   4.002   0.369  0.1887 -0.1885  0.3747
  571MPD2    N1 8477   2.563   3.558  17.691 -0.4517  1.0240 -0.3377
  571MPD2    H7 8478   2.488   3.510  17.644  0.0628 -3.2426  3.1433
  572TMC3    C1 8479   2.845   4.086   0.310  0.0424  0.4404  1.1027
  572TMC3    C2 8480   2.776   4.140   0.413 -0.2498 -0.0922 -0.1482
  572TMC3    C3 8481   2.816   4.267   0.454  0.9760 -0.3814  0.2615
  572TMC3    C4 8482   2.929   4.155   0.229 -0.6526  0.1942  0.0540
  572TMC3    C5 8483   2.954   4.288   0.264 -0.4069  0.8218 -0.6637
  572TMC3    C6 8484   2.910   4.339   0.383 -0.6837  0.7126 -0.1235
  572TMC3     C 8485   2.798   3.958   0.269  0.0784 -0.4916 -0.5414
  572TMC3     O 8486   2.864   3.909   0.183  0.1983 -0.2911 -0.2130
  572TMC3     H 8487   2.724   4.078   0.485 -0.4424  0.5760  0.2924
  572TMC3    H1 8488   2.947   4.119   0.128  1.5690  1.3739  0.0302
  572TMC3    H2 8489   2.943   4.439   0.409  0.3711  0.4420 -0.4002
  572TMC3    C7 8490   3.016   4.373   0.173 -0.5534  0.1378 -0.1752
  572TMC3    C8 8491   2.793   4.310   0.590 -0.1166  0.3801  0.3571
  572TMC3    O1 8492   2.994   4.494   0.186  0.0845  0.2384 -0.7539
  572TMC3    O2 8493   2.878   4.388   0.623  0.4266  0.5260 -0.1407
  573MPD2     C 8494   4.256   4.220   0.339  0.3472  1.6540  0.9980
  573MPD2    C1 8495   4.233   4.356   0.369  0.1683  0.0719  0.1873
  573MPD2    C2 8496   4.135   4.421   0.291 -0.5590 -0.2454 -0.1089
  573MPD2    C3 8497   4.066   4.360   0.190 -0.2993 -0.5728  0.2974
  573MPD2    C4 8498   4.104   4.230   0.161 -0.4925 -0.0051  0.2625
  573MPD2    C5 8499   4.201   4.166   0.229  1.0445  0.8605 -0.6594
  573MPD2     H 8500   4.117   4.522   0.326 -3.0348 -0.6542 -0.2050
  573MPD2    H1 8501   4.052   4.180   0.080 -1.3069 -0.6110  1.1468
  573MPD2    H2 8502   4.321   4.154   0.396 -1.2571  0.6442  1.6584
  573MPD2    H3 8503   4.218   4.060   0.214 -1.5332  0.2272  0.7802
  573MPD2     N 8504   3.988   4.427   0.092 -1.0910  0.1845  0.2651
  573MPD2    H5 8505   3.955   4.368   0.017 -1.8680  1.0003 -0.0340
  573MPD2    N1 8506   4.298   4.430   0.468 -0.1909 -0.2378  0.1362
  573MPD2    H7 8507   4.250   4.520   0.470 -1.2044 -0.7880  0.4780
  574TMC3    C1 8508   3.826   4.580   0.008  0.8462  0.3146 -0.8959
  574TMC3    C2 8509   3.717   4.665   0.030 -0.6608  0.6493  0.4830
  574TMC3    C3 8510   3.637   4.698  17.616 -0.7125  1.1350  0.4506
  574TMC3    C4 8511   3.853   4.539  17.574  0.8302 -0.8063  0.0682
  574TMC3    C5 8512   3.768   4.569  17.472  0.1322  0.3750  0.0216
  574TMC3    C6 8513   3.662   4.646  17.494 -1.0377  0.4574 -0.6636
  574TMC3     C 8514   3.923   4.550   0.111  0.4804  0.2021 -0.4737
  574TMC3     O 8515   3.920   4.617   0.213 -0.1748  0.4233 -0.8212
  574TMC3     H 8516   3.713   4.703   0.131  0.9621  3.5256 -0.5373
  574TMC3    H1 8517   3.946   4.490  17.546 -0.5119 -2.9488 -0.6753
  574TMC3    H2 8518   3.591   4.660  17.414 -1.6984  1.6876  0.1498
  574TMC3    C7 8519   3.764   4.494  17.345  0.0819  0.1359  0.3572
  574TMC3    C8 8520   3.545   0.080  17.633  0.3231 -0.4510  0.2543
  574TMC3    O1 8521   3.654   4.476  17.296 -0.2248  0.0793  0.4490
  574TMC3    O2 8522   3.496   0.080   0.054 -0.6542  0.2425  0.3145
  575TMC3    C1 8523   2.369   0.860  10.577  0.2531  0.4485 -0.3778
  575TMC3    C2 8524   2.335   0.842  10.713  0.1021 -0.5307  1.1704
  575TMC3    C3 8525   2.359   0.951  10.802  0.0083 -0.3272 -0.7603
  575TMC3    C4 8526   2.435   0.976  10.536 -0.5086  0.0076  0.1973
  575TMC3    C5 8527   2.449   1.075  10.624 -1.5547 -0.1603 -0.2646
  575TMC3    C6 8528   2.425   1.057  10.766 -0.3359  0.6833 -0.4114
  575TMC3     C 8529   2.369   0.749  10.482 -1.1380 -0.3793  0.4442
  575TMC3     O 8530   2.414   0.765  10.371 -0.2307 -0.2666 -0.3096
  575TMC3     H 8531   2.276   0.756  10.743 -0.4095 -1.0574 -1.4126
  575TMC3    H1 8532   2.465   0.997  10.434 -0.7131 -1.9750 -0.2779
  575TMC3    H2 8533   2.433   1.135  10.842 -1.0438 -1.1665  1.5470
  575TMC3    C7 8534   2.493   1.205  10.566 -0.9458 -0.2509 -0.3395
  575TMC3    C8 8535   2.331   0.941  10.943 -0.2397 -0.0813 -0.1077
  575TMC3    O1 8536   2.560   1.201  10.460 -0.1334  0.8077  0.0954
  575TMC3    O2 8537   2.305   1.041  11.008  0.7824 -0.6492  0.0805
  576MPD2     C 8538   1.827   1.679  12.164 -0.3291 -0.4018  0.0198
  576MPD2    C1 8539   1.963   1.700  12.128 -0.0564 -0.5250 -0.7079
  576MPD2    C2 8540   2.039   1.782  12.205 -0.2700  0.1581 -0.2282
  576MPD2    C3 8541   1.987   1.863  12.300 -0.6900 -1.0854 -0.9584
  576MPD2    C4 8542   1.854   1.855  12.337 -0.3278 -0.0828  0.5241
  576MPD2    C5 8543   1.777   1.759  12.268 -0.0888 -0.6116  0.2168
  576MPD2     H 8544   2.146   1.785  12.183 -0.0353 -0.0494  0.8666
  576MPD2    H1 8545   1.804   1.912  12.416  1.1344 -0.0331  1.4139
  576MPD2    H2 8546   1.756   1.614  12.115 -0.3481 -0.7030  0.4421
  576MPD2    H3 8547   1.673   1.746  12.294 -0.1887  0.3986  0.3100
  576MPD2     N 8548   2.078   1.945  12.373  0.0227  0.2447 -0.2698
  576MPD2    H5 8549   2.178   1.940  12.357 -0.0491 -0.6029 -0.4602
  576MPD2    N1 8550   2.027   1.636  12.015 -0.3317 -0.1039  0.0078
  576MPD2    H7 8551   2.125   1.661  12.004 -0.9602  1.4024 -2.1323
  577TMC3    C1 8552   2.052   1.523  11.812  0.0039 -0.0615  0.4756
  577TMC3    C2 8553   2.182   1.487  11.845 -0.0733  0.6539  0.0509
  577TMC3    C3 8554   2.266   1.474  11.740 -0.1835 -0.6768 -0.8721
  577TMC3    C4 8555   2.002   1.527  11.689 -0.2655 -0.3031 -0.2210
  577TMC3    C5 8556   2.084   1.498  11.587 -0.2641 -0.3157 -0.1002
  577TMC3    C6 8557   2.218   1.464  11.611 -0.0721 -0.4183 -0.0995
  577TMC3     C 8558   1.967   1.547  11.929 -0.8252 -1.0040 -0.0464
  577TMC3     O 8559   1.851   1.523  11.913 -0.8063  0.8149 -0.5332
  577TMC3     H 8560   2.229   1.502  11.942 -1.6681  0.8520  0.7941
  577TMC3    H1 8561   1.897   1.553  11.683 -0.3212 -0.6956 -0.9293
  577TMC3    H2 8562   2.280   1.433  11.528  2.2107  1.2185  1.0061
  577TMC3    C7 8563   2.050   1.526  11.447  0.7636  0.1810  0.1687
  577TMC3    C8 8564   2.372   1.379  11.762  0.2400 -0.0598  0.4888
  577TMC3    O1 8565   2.126   1.487  11.361 -0.4932  0.1724  0.3384
  577TMC3    O2 8566   2.363   1.325  11.873  0.0236  0.0188  0.7176
  578MPD2     C 8567   0.039   2.503   0.920 -0.6934  0.7341  0.5120
  578MPD2    C1 8568   0.127   2.435   0.840 -0.2360  0.1430 -0.4008
  578MPD2    C2 8569   0.112   2.298   0.834  0.8942  0.0186 -0.7673
  578MPD2    C3 8570   0.007   2.235   0.901 -0.7839  0.8400 -0.2971
  578MPD2    C4 8571   4.642   2.307   0.987 -0.3305 -0.4477 -0.1543
  578MPD2    C5 8572   4.664   2.447   1.002  0.2315  0.6072  0.3963
  578MPD2     H 8573   0.182   2.231   0.785  0.9742 -0.2596 -0.2700
  578MPD2    H1 8574   4.570   2.261   1.054 -0.9930 -0.5223 -0.9346
  578MPD2    H2 8575   0.054   2.609   0.939 -2.5301  1.0311  0.3218
  578MPD2    H3 8576   4.608   2.509   1.070  1.5126  2.1995 -0.0128
  578MPD2     N 8577   0.001   2.096   0.884 -0.1782  0.1424  0.3352
  578MPD2    H5 8578   0.070   2.059   0.820 -0.8395  1.1950 -0.9865
  578MPD2    N1 8579   0.233   2.504   0.771 -0.1736 -0.1306  1.0370
  578MPD2    H7 8580   0.232   2.604   0.757 -0.1759  0.0140  2.0988
  579TMC3    C1 8581   4.684   1.870   0.939  0.2814 -0.0352  0.2606
  579TMC3    C2 8582   4.691   1.789   1.048  0.0140 -0.0141  0.7516
  579TMC3    C3 8583   0.019   1.666   1.027 -0.3399 -0.7380  0.2694
  579TMC3    C4 8584   0.004   1.837   0.816 -0.3929  0.0904 -0.0372
  579TMC3    C5 8585   0.071   1.715   0.801  0.7198 -0.0533 -0.3294
  579TMC3    C6 8586   0.083   1.630   0.908 -0.2903 -0.7253  0.0741
  579TMC3     C 8587   4.662   2.009   0.969 -0.1775  0.4018  0.0121
  579TMC3     O 8588   4.601   2.035   1.075 -0.3929 -0.6110  0.2125
  579TMC3     H 8589   4.675   1.821   1.150  0.1335  1.9881  0.1489
  579TMC3    H1 8590   4.721   1.903   0.730  0.8452  1.9935  1.3500
  579TMC3    H2 8591   0.105   1.526   0.884  0.9867 -0.2267 -0.8748
  579TMC3    C7 8592   0.114   1.678   0.668  0.1831  0.0340 -0.4433
  579TMC3    C8 8593   0.072   1.618   1.146 -0.5294  0.5430  1.0366
  579TMC3    O1 8594   0.138   1.767   0.591  0.0351 -0.2706 -0.1446
  579TMC3    O2 8595   0.013   1.629   1.252 -0.1356 -0.2210 -0.1006
  580TMC3    C1 8596   4.565   1.216  11.530  0.5593 -1.0404 -0.7257
  580TMC3    C2 8597   4.542   1.161  11.409 -0.0447 -0.3228  0.0034
  580TMC3    C3 8598   4.487   1.043  11.398  0.0469 -0.4557 -0.5622
  580TMC3    C4 8599   4.547   1.128  11.635 -0.0938 -0.7345  0.6410
  580TMC3    C5 8600   4.501   1.001  11.622 -0.3296 -0.7791 -0.3765
  580TMC3    C6 8601   4.457   0.955  11.499 -0.0882  0.7940 -0.0731
  580TMC3     C 8602   4.671   1.316  11.529  0.2855  0.5726  0.0514
  580TMC3     O 8603   4.715   1.345  11.420  0.0186 -0.1549 -0.4618
  580TMC3     H 8604   4.527   1.226  11.323  0.6243  2.1467  1.7481
  580TMC3    H1 8605   4.578   1.162  11.733  2.5852 -0.5479 -0.2455
  580TMC3    H2 8606   4.432   0.851  11.484 -0.5657  0.6802  1.4621
  580TMC3    C7 8607   4.498   0.917  11.740 -0.3028 -0.1855  0.7848
  580TMC3    C8 8608   4.488   0.978  11.270  0.2457  0.0327 -0.1907
  580TMC3    O1 8609   4.583   0.952  11.820  0.0393 -0.2620 -0.1525
  580TMC3    O2 8610   4.430   0.871  11.260 -0.1325 -0.4525  0.2936
  581MPD2     C 8611   2.386   0.753  14.684  0.7338  0.9788  0.8424
  581MPD2    C1 8612   2.248   0.719  14.709 -0.0179  0.1037  0.1789
  581MPD2    C2 8613   2.153   0.812  14.672 -0.1279  0.3593 -0.5101
  581MPD2    C3 8614   2.193   0.922  14.601  0.7615  0.4728  0.1697
  581MPD2    C4 8615   2.323   0.949  14.571 -0.5555  0.1215  0.1346
  581MPD2    C5 8616   2.423   0.867  14.615 -0.0316  0.0369  0.6809
  581MPD2     H 8617   2.048   0.785  14.672 -0.0930  0.2318 -2.6229
  581MPD2    H1 8618   2.349   1.025  14.499  2.0632  0.5282  1.5338
  581MPD2    H2 8619   2.473   0.693  14.709 -0.1936 -1.2319 -1.2905
  581MPD2    H3 8620   2.524   0.892  14.585  0.8687 -2.3121  1.7851
  581MPD2     N 8621   2.101   1.020  14.548 -0.8438  0.2424  0.8341
  581MPD2    H5 8622   2.145   1.098  14.500 -1.4629  1.3694  2.1020
  581MPD2    N1 8623   2.210   0.597  14.773 -1.1989 -0.6211  0.9068
  581MPD2    H7 8624   2.280   0.538  14.816  1.0514  0.9719 -0.5171
  582TMC3    C1 8625   2.067   0.449  14.897 -0.4340  0.4666 -0.7005
  582TMC3    C2 8626   2.176   0.397  14.970  0.2049  0.1511  0.2925
  582TMC3    C3 8627   2.147   0.308  15.075  0.1630 -0.6112  0.0055
  582TMC3    C4 8628   1.935   0.425  14.932  0.3786  0.0106  0.2428
  582TMC3    C5 8629   1.909   0.335  15.032 -0.3862  0.1389  0.0638
  582TMC3    C6 8630   2.019   0.286  15.107 -0.2109  0.9323 -0.2730
  582TMC3     C 8631   2.080   0.549  14.790 -0.2726  0.3525  0.2978
  582TMC3     O 8632   1.975   0.578  14.730 -0.1117  0.1729  0.0018
  582TMC3     H 8633   2.280   0.425  14.970  0.0780  0.6002 -0.3403
  582TMC3    H1 8634   1.852   0.452  14.867 -0.2071 -0.5313  0.7648
  582TMC3    H2 8635   1.997   0.218  15.188 -0.0230  0.1361 -0.8822
  582TMC3    C7 8636   1.792   0.377  15.107 -0.6748  0.3965 -0.6516
  582TMC3    C8 8637   2.233   0.311  15.193 -0.1292  0.9029 -0.4470
  582TMC3    O1 8638   1.720   0.299  15.165  0.2765 -0.9328 -0.1626
  582TMC3    O2 8639   2.342   0.257  15.182  0.3439  0.2119 -0.5654
  583MPD2     C 8640   2.165   2.489  16.615  0.6637  0.2361  0.4549
  583MPD2    C1 8641   2.264   2.581  16.625 -0.0785 -0.3017  0.0116
  583MPD2    C2 8642   2.228   2.713  16.642  0.1052  0.8066  0.8263
  583MPD2    C3 8643   2.097   2.746  16.657  0.3508  0.3061 -0.1911
  583MPD2    C4 8644   2.004   2.646  16.655 -0.1334  0.1023 -0.7769
  583MPD2    C5 8645   2.036   2.518  16.630 -0.9197 -0.1660  0.0841
  583MPD2     H 8646   2.306   2.787  16.655  1.0128  0.0961 -0.5368
  583MPD2    H1 8647   1.897   2.658  16.655 -0.3005 -1.2738 -1.7432
  583MPD2    H2 8648   2.183   2.386  16.588  3.0567  0.4300  1.2385
  583MPD2    H3 8649   1.956   2.446  16.631  0.8435 -2.1642 -0.7831
  583MPD2     N 8650   2.072   2.887  16.686 -0.3966 -0.1642  0.3085
  583MPD2    H5 8651   2.152   2.948  16.672  1.3756 -3.0872 -2.4274
  583MPD2    N1 8652   2.394   2.546  16.600 -0.0185 -0.1191  0.1161
  583MPD2    H7 8653   2.464   2.618  16.584  1.3701 -1.1362  1.5540
  584TMC3    C1 8654   1.935   3.064  16.768  0.3084 -0.4380  0.1904
  584TMC3    C2 8655   2.039   3.148  16.755 -0.5699 -0.4085 -0.0156
  584TMC3    C3 8656   2.034   3.270  16.825 -0.2302  0.3671 -0.5327
  584TMC3    C4 8657   1.820   3.096  16.828 -0.0140  0.4356 -0.1122
  584TMC3    C5 8658   1.823   3.213  16.900  0.2041  0.0604 -0.3815
  584TMC3    C6 8659   1.928   3.306  16.903 -0.0126 -0.5127 -0.6815
  584TMC3     C 8660   1.952   2.926  16.730 -0.5225 -0.1402 -0.4309
  584TMC3     O 8661   1.855   2.858  16.752 -0.5722  0.0699  0.1362
  584TMC3     H 8662   2.127   3.125  16.696  0.4152 -2.1435  2.1199
  584TMC3    H1 8663   1.723   3.049  16.837  0.6718 -1.1377 -1.0496
  584TMC3    H2 8664   1.913   3.402  16.950 -1.3118 -1.4422  0.7887
  584TMC3    C7 8665   1.718   3.236  16.987 -0.1009  0.4309 -0.1431
  584TMC3    C8 8666   2.159   3.346  16.827 -0.4408 -0.1866 -0.5223
  584TMC3    O1 8667   1.693   3.352  16.999  0.1732  0.4801  0.3407
  584TMC3    O2 8668   2.232   3.310  16.729  0.2805 -0.0183  0.4534
  585MPD2     C 8669   1.039   1.097  17.632  0.3164  0.0917 -0.2894
  585MPD2    C1 8670   1.134   1.163  17.563  0.3271 -0.0563  0.6005
  585MPD2    C2 8671   1.113   1.201  17.430 -0.5241 -0.3469 -0.1433
  585MPD2    C3 8672   1.005   1.155  17.360  0.4521 -0.0209 -0.1634
  585MPD2    C4 8673   0.930   1.065  17.424  0.1729  0.1985  0.2480
  585MPD2    C5 8674   0.943   1.036  17.558  0.0527  0.3608  1.0752
  585MPD2     H 8675   1.180   1.272  17.382 -0.2490  0.1597  0.9858
  585MPD2    H1 8676   0.855   1.016  17.362  2.3974 -0.4530 -1.9348
  585MPD2    H2 8677   1.042   1.064   0.042 -2.3724 -0.7906 -0.4782
  585MPD2    H3 8678   0.887   0.959  17.609 -1.3878  1.7731  1.6032
  585MPD2     N 8679   1.002   1.164  17.221  0.1655 -0.3593  0.0834
  585MPD2    H5 8680   0.932   1.101  17.182  2.3403 -2.0622 -1.0769
  585MPD2    N1 8681   1.241   1.230  17.626  0.0826 -0.2414  0.0454
  585MPD2    H7 8682   1.301   1.288  17.568 -1.4374  1.3562  0.0783
  586TMC3    C1 8683   1.064   1.207  16.999  0.6500 -0.0369  0.3120
  586TMC3    C2 8684   1.189   1.188  16.946  0.4579 -0.0668  0.6994
  586TMC3    C3 8685   1.209   1.115  16.833  0.0965 -0.0814  0.1511
  586TMC3    C4 8686   0.955   1.140  16.949 -0.1901 -0.3778 -0.1686
  586TMC3    C5 8687   0.981   1.055  16.842  0.2315 -0.0124 -0.5484
  586TMC3    C6 8688   1.099   1.057  16.775 -0.1746  1.0815  0.0149
  586TMC3     C 8689   1.069   1.252  17.136 -0.6645  0.3911  0.5605
  586TMC3     O 8690   1.124   1.360  17.156  0.3166  0.0503 -0.4367
  586TMC3     H 8691   1.276   1.239  16.985  2.1084 -0.4768 -2.4431
  586TMC3    H1 8692   0.862   1.130  17.004  0.1588 -1.3362  0.2598
  586TMC3    H2 8693   1.113   0.983  16.696  0.2090 -2.9103  3.8188
  586TMC3    C7 8694   0.869   1.011  16.753 -0.4055  0.3470 -0.0586
  586TMC3    C8 8695   1.311   1.015  16.837  0.6725 -0.7652 -0.2552
  586TMC3    O1 8696   0.867   1.053  16.634 -0.0480  0.2391  0.3851
  586TMC3    O2 8697   1.340   0.956  16.735 -0.3516  0.1408 -0.1440
  587TMC3    C1 8698   3.683   4.606  16.343  0.1837 -0.6703 -0.2609
  587TMC3    C2 8699   3.674   0.017  16.311  0.4767 -0.0473 -0.3321
  587TMC3    C3 8700   3.754   0.054  16.207  0.0783  0.7007  0.2218
  587TMC3    C4 8701   3.748   4.514  16.270 -0.3750  0.3636 -0.1108
  587TMC3    C5 8702   3.823   4.552  16.167  0.4521  0.4585 -0.2577
  587TMC3    C6 8703   3.831   4.686  16.139 -0.0449 -0.5032  0.6515
  587TMC3     C 8704   3.596   4.554  16.441 -0.3650  0.1440 -0.0181
  587TMC3     O 8705   3.628   4.457  16.510 -0.1800  0.2276 -0.0589
  587TMC3     H 8706   3.609   0.085  16.366  0.0208 -2.7638  2.5187
  587TMC3    H1 8707   3.754   4.413  16.310  0.5589  0.2519 -0.5453
  587TMC3    H2 8708   3.894   0.005  16.061 -0.4665  0.6167  0.9189
  587TMC3    C7 8709   3.885   4.447  16.096  0.5816  0.2217 -0.2347
  587TMC3    C8 8710   3.813   0.187  16.223 -0.4950 -0.3789 -0.4682
  587TMC3    O1 8711   3.826   4.340  16.102 -0.6675 -0.0318  0.1396
  587TMC3    O2 8712   3.934   0.202  16.210 -0.5506 -0.0734 -0.5442
  588TMC3    C1 8713   1.717   2.888   9.567 -0.4558 -0.9860  0.3135
  588TMC3    C2 8714   1.710   2.763   9.522 -0.0184  0.4803  0.1125
  588TMC3    C3 8715   1.798   2.668   9.583 -0.1413  0.0805 -1.4390
  588TMC3    C4 8716   1.807   2.930   9.657 -0.3520  0.8860  0.3795
  588TMC3    C5 8717   1.887   2.836   9.717 -0.5386  0.4009  0.1968
  588TMC3    C6 8718   1.882   2.700   9.685  0.0972 -0.8587 -0.5900
  588TMC3     C 8719   1.632   2.986   9.496  0.7006  0.1529 -0.1304
  588TMC3     O 8720   1.593   2.973   9.381 -0.4564 -0.4782  0.3230
  588TMC3     H 8721   1.645   2.733   9.441 -0.8505 -1.0825  1.3618
  588TMC3    H1 8722   1.808   3.032   9.694  2.4055  0.1074  2.4787
  588TMC3    H2 8723   1.949   2.630   9.734 -0.1249  0.7057  1.9248
  588TMC3    C7 8724   1.963   2.877   9.835 -0.3789  0.3635  0.2885
  588TMC3    C8 8725   1.774   2.533   9.540  0.0991  0.6413  0.6877
  588TMC3    O1 8726   1.986   2.781   9.912  0.0718  0.4832 -0.4822
  588TMC3    O2 8727   1.719   2.527   9.432 -0.0103 -0.2783  0.5583
  589TMC3    C1 8728   4.674   0.630   1.457 -0.7076 -0.4404 -0.2685
  589TMC3    C2 8729   0.015   0.625   1.581  0.2680  0.4583  0.5186
  589TMC3    C3 8730   0.130   0.545   1.592  0.0284  0.1915  0.8480
  589TMC3    C4 8731   0.012   0.573   1.341  0.2867 -0.0935 -0.6944
  589TMC3    C5 8732   0.131   0.512   1.361  0.6197  0.8207 -0.2162
  589TMC3    C6 8733   0.189   0.486   1.482  0.5410  0.1066  0.0916
  589TMC3     C 8734   4.541   0.687   1.443 -0.4997 -0.0715  0.8760
  589TMC3     O 8735   4.513   0.737   1.335  0.1226  0.2415 -0.4065
  589TMC3     H 8736   4.703   0.670   1.673  3.6630  0.7449  1.6953
  589TMC3    H1 8737   4.697   0.597   1.242  1.2330  0.3530 -0.9431
  589TMC3    H2 8738   0.278   0.425   1.493  0.9570  0.4579 -1.3388
  589TMC3    C7 8739   0.205   0.459   1.252 -0.2684 -0.3343 -0.5251
  589TMC3    C8 8740   0.216   0.569   1.710  0.5234  0.3084  0.5677
  589TMC3    O1 8741   0.320   0.418   1.283 -0.5758  0.3477  0.0625
  589TMC3    O2 8742   0.160   0.621   1.805 -0.1766  0.4424 -0.1785
  590MPD2     C 8743   0.129   3.236  16.533  0.5377 -0.0874 -0.6186
  590MPD2    C1 8744   0.035   3.278  16.439 -0.8417  0.4444 -0.0084
  590MPD2    C2 8745   0.078   3.275  16.306 -0.1371 -0.8774  0.0771
  590MPD2    C3 8746   0.205   3.250  16.270 -0.4758 -0.5094 -0.1767
  590MPD2    C4 8747   0.294   3.220  16.367 -0.1611  0.3101 -0.1354
  590MPD2    C5 8748   0.252   3.203  16.493 -0.4674 -0.0804  0.3288
  590MPD2     H 8749   0.017   3.324  16.232 -0.1938 -0.3223  0.4840
  590MPD2    H1 8750   0.399   3.212  16.343  0.3948  2.0595  1.6773
  590MPD2    H2 8751   0.119   3.232  16.641 -1.7707 -0.9684 -0.8543
  590MPD2    H3 8752   0.322   3.176  16.571  0.4913  0.3254 -0.3970
  590MPD2     N 8753   0.235   3.268  16.136  0.3587  0.0964 -0.6674
  590MPD2    H5 8754   0.159   3.298  16.077  1.3627  1.1549 -1.4154
  590MPD2    N1 8755   4.630   3.323  16.486 -0.2655  0.1496  0.2371
  590MPD2    H7 8756   4.620   3.342  16.585 -1.2329  1.6154 -0.1487
  591TMC3    C1 8757   0.370   3.300  15.952  0.3436 -0.6453 -0.3975
  591TMC3    C2 8758   0.407   3.228  15.843 -0.3474 -0.1600  0.2197
  591TMC3    C3 8759   0.401   3.291  15.724 -0.4120  0.0581  0.7867
  591TMC3    C4 8760   0.341   3.434  15.949 -0.0790  0.4720 -0.5889
  591TMC3    C5 8761   0.350   3.499  15.826 -0.3365 -0.5771 -0.3110
  591TMC3    C6 8762   0.385   3.428  15.714  0.5707  0.0079  0.4907
  591TMC3     C 8763   0.350   3.227  16.073 -0.0440  0.6951 -1.2903
  591TMC3     O 8764   0.427   3.139  16.117  0.2551 -0.1726  0.0884
  591TMC3     H 8765   0.423   3.121  15.847  1.8319  0.0873 -1.7788
  591TMC3    H1 8766   0.315   3.497  16.033 -1.7393  1.1331 -1.5904
  591TMC3    H2 8767   0.383   3.474  15.615  2.6394  1.9131  1.3387
  591TMC3    C7 8768   0.260   3.612  15.811 -1.0820 -0.2167  0.3760
  591TMC3    C8 8769   0.455   3.231  15.599 -0.5279 -0.0908  0.3706
  591TMC3    O1 8770   0.157   3.601  15.883  0.1489 -0.7284  0.0222
  591TMC3    O2 8771   0.461   3.307  15.501  0.0089 -0.9462 -0.8617
  592MPD2     C 8772   0.815   1.006  11.145  0.9104  0.3620  0.4445
  592MPD2    C1 8773   0.794   1.048  11.272  0.7780  1.2101  0.4400
  592MPD2    C2 8774   0.720   0.963  11.352 -0.2995  0.0111 -0.2894
  592MPD2    C3 8775   0.670   0.841  11.310  0.0568  0.2282  0.9230
  592MPD2    C4 8776   0.692   0.800  11.181 -0.5949 -0.5510 -0.3324
  592MPD2    C5 8777   0.768   0.881  11.103  0.1504  0.2909 -0.2488
  592MPD2     H 8778   0.690   1.001  11.449 -0.4085  0.3390 -0.4514
  592MPD2    H1 8779   0.659   0.704  11.143 -1.8766 -0.6166  0.9469
  592MPD2    H2 8780   0.867   1.074  11.079  1.0381 -0.7368 -0.5949
  592MPD2    H3 8781   0.788   0.850  11.001  1.1460 -0.5931  0.2258
  592MPD2     N 8782   0.594   0.766  11.404  0.0089 -0.3882 -0.4065
  592MPD2    H5 8783   0.589   0.814  11.494 -1.9664 -1.0361 -0.1780
  592MPD2    N1 8784   0.848   1.168  11.306  0.0975  0.6974  0.6874
  592MPD2    H7 8785   0.884   1.215  11.222  2.2673 -2.4705 -0.1549
  593TMC3    C1 8786   0.926   1.343  11.443  0.3934 -0.2130  0.1054
  593TMC3    C2 8787   0.984   1.365  11.571  0.7646  0.0250 -0.3354
  593TMC3    C3 8788   1.084   1.460  11.574  0.6922 -0.6226  0.4364
  593TMC3    C4 8789   0.969   1.403  11.329 -0.0894  0.6382 -0.2372
  593TMC3    C5 8790   1.062   1.498  11.337 -0.0806  0.3791 -0.3615
  593TMC3    C6 8791   1.125   1.527  11.453 -0.1411 -0.3368  0.4936
  593TMC3     C 8792   0.850   1.221  11.428  0.4064  0.2935  0.7283
  593TMC3     O 8793   0.819   1.162  11.532  0.3093 -0.6132  0.2611
  593TMC3     H 8794   0.956   1.314  11.663  0.6447  0.4650 -0.1283
  593TMC3    H1 8795   0.910   1.386  11.239  0.5122 -1.8037 -0.1710
  593TMC3    H2 8796   1.202   1.603  11.462 -0.4906  0.3304 -2.2084
  593TMC3    C7 8797   1.109   1.576  11.225 -0.6589 -0.2061  0.3304
  593TMC3    C8 8798   1.167   1.482  11.685  0.1622 -0.3879  0.9135
  593TMC3    O1 8799   1.180   1.672  11.253  0.0576 -0.7765 -0.4284
  593TMC3    O2 8800   1.280   1.520  11.660  0.1604  0.1230  0.2717
  594MPD2     C 8801   3.888   4.271  14.311  0.1397  0.2799 -0.2281
  594MPD2    C1 8802   3.946   4.350  14.407  0.1338  0.1776  0.8860
  594MPD2    C2 8803   4.047   4.433  14.372  0.2239  0.1810  0.8282
  594MPD2    C3 8804   4.092   4.445  14.242  0.3222  0.2201 -0.4768
  594MPD2    C4 8805   4.026   4.365  14.146 -0.2254 -0.1940 -0.3206
  594MPD2    C5 8806   3.929   4.278  14.180 -0.6449 -0.6973  0.0560
  594MPD2     H 8807   4.097   4.490  14.449  1.2359  0.3964  0.0214
  594MPD2    H1 8808   4.050   4.378  14.041 -0.6196  0.6656 -0.2953
  594MPD2    H2 8809   3.803   4.206  14.326  1.0062  0.1527  4.0332
  594MPD2    H3 8810   3.883   4.217  14.103 -0.4013 -2.2718  1.1638
  594MPD2     N 8811   4.171   4.551  14.203  0.1949 -0.0716  0.4197
  594MPD2    H5 8812   4.193   4.618  14.277  0.0105  0.9621 -0.4590
  594MPD2    N1 8813   3.884   4.347  14.533  0.8555  0.3590 -0.5918
  594MPD2    H7 8814   3.796   4.296  14.529  1.4181 -0.5136 -2.1364
  595TMC3    C1 8815   4.439   0.142  14.045  0.1353 -0.1969  0.7408
  595TMC3    C2 8816   4.369   0.030  14.015 -0.1479  0.7806 -0.0232
  595TMC3    C3 8817   4.257   0.005  14.087  0.2528 -0.7639  0.0173
  595TMC3    C4 8818   4.388   0.231  14.132  0.3918  0.5509  0.2772
  595TMC3    C5 8819   4.272   0.208  14.190 -0.6502 -0.1826  0.2128
  595TMC3    C6 8820   4.202   0.097  14.167  0.1411 -0.0862 -0.3461
  595TMC3     C 8821   4.583   0.126  14.051 -0.3912 -0.9167 -0.6737
  595TMC3     O 8822   4.643   0.174  14.147 -0.1943  0.4449 -0.2919
  595TMC3     H 8823   4.413   4.674  13.955 -0.6673 -2.2976  3.5831
  595TMC3    H1 8824   4.437   0.326  14.151 -1.1129  1.4976 -0.6206
  595TMC3    H2 8825   4.103   0.071  14.204  0.7248 -0.4483  0.9692
  595TMC3    C7 8826   4.261   0.280  14.318 -0.6020  0.1141  0.4301
  595TMC3    C8 8827   4.202   4.592  14.075  0.8235  0.0207 -0.5151
  595TMC3    O1 8828   4.283   0.399  14.317 -0.4428  0.7696 -0.1287
  595TMC3    O2 8829   4.208   4.532  13.967  0.5138  0.4448  0.4658
  596MPD2     C 8830   3.304   2.327  16.789 -0.1824  0.0856  0.4631
  596MPD2    C1 8831   3.296   2.444  16.711  0.0827  0.4346 -0.0189
  596MPD2    C2 8832   3.328   2.438  16.578  0.3908  0.2253 -0.3028
  596MPD2    C3 8833   3.347   2.320  16.514 -0.1306 -0.0364 -0.0544
  596MPD2    C4 8834   3.343   2.201  16.588  0.3308 -0.2251  0.2160
  596MPD2    C5 8835   3.324   2.212  16.726 -0.0008 -0.6873  0.0145
  596MPD2     H 8836   3.318   2.534  16.530 -1.3833  0.0792 -0.2177
  596MPD2    H1 8837   3.350   2.108  16.533  1.4215 -1.0620  1.7584
  596MPD2    H2 8838   3.278   2.327  16.895 -1.3731 -0.3444  0.1667
  596MPD2    H3 8839   3.321   2.115  16.773 -0.6849 -0.8488 -0.3710
  596MPD2     N 8840   3.347   2.318  16.374 -0.3842  0.8211 -0.1830
  596MPD2    H5 8841   3.330   2.230  16.326 -1.1666  0.3398  0.9889
  596MPD2    N1 8842   3.269   2.574  16.763 -0.0449 -0.3785 -0.5322
  596MPD2    H7 8843   3.269   2.647  16.692 -0.4349  1.1946  1.0651
  597TMC3    C1 8844   3.174   2.743  16.893 -0.3516  0.0107  0.3102
  597TMC3    C2 8845   3.245   2.834  16.813  0.0846  0.1290 -0.0722
  597TMC3    C3 8846   3.188   2.964  16.804  0.2236  0.1666 -0.2303
  597TMC3    C4 8847   3.054   2.777  16.956  0.1344  0.0095 -0.5085
  597TMC3    C5 8848   3.011   2.907  16.952 -0.1295  0.4100 -0.8395
  597TMC3    C6 8849   3.074   2.998  16.873  0.1608  0.2318  0.1379
  597TMC3     C 8850   3.225   2.604  16.889  0.1944  0.1391  0.4791
  597TMC3     O 8851   3.198   2.534  16.986 -0.2154 -0.4818 -0.4981
  597TMC3     H 8852   3.347   2.818  16.779 -0.8570 -0.9839 -2.3550
  597TMC3    H1 8853   2.994   2.702  17.006 -0.8536  0.2809 -1.2883
  597TMC3    H2 8854   3.038   3.100  16.870  0.9805  0.5566  1.2787
  597TMC3    C7 8855   2.882   2.940  17.013  0.3766 -0.0320  0.3732
  597TMC3    C8 8856   3.252   3.052  16.703  0.4809  0.0750 -0.6674
  597TMC3    O1 8857   2.818   2.847  17.057 -0.2509 -0.1009  0.2739
  597TMC3    O2 8858   3.342   2.997  16.642  0.4384 -0.1319 -0.2743
  598TMC3    C1 8859   1.383   4.179  15.318 -0.2465 -0.0815 -0.8511
  598TMC3    C2 8860   1.345   4.052  15.280  0.0904 -0.0537  0.5809
  598TMC3    C3 8861   1.406   4.006  15.167  1.0352  0.2042  0.5524
  598TMC3    C4 8862   1.466   4.260  15.245 -0.0504  0.2719 -0.4246
  598TMC3    C5 8863   1.518   4.206  15.129 -0.0343 -0.1380 -0.2424
  598TMC3    C6 8864   1.491   4.079  15.088 -0.5752  0.1620  0.2670
  598TMC3     C 8865   1.348   4.217  15.450  0.0027  0.0922  0.4412
  598TMC3     O 8866   1.370   4.331  15.487 -0.3849 -0.1639 -0.5007
  598TMC3     H 8867   1.268   3.994  15.329 -1.4611  0.9675 -0.6375
  598TMC3    H1 8868   1.499   4.358  15.278 -2.3358  0.3002  1.8323
  598TMC3    H2 8869   1.530   4.039  14.995  3.3051  0.4650  1.7665
  598TMC3    C7 8870   1.607   4.283  15.040 -0.2328  0.8277  1.2559
  598TMC3    C8 8871   1.360   3.879  15.104 -0.6286  0.6868  0.0051
  598TMC3    O1 8872   1.683   4.224  14.964  0.5829 -0.1995  0.1646
  598TMC3    O2 8873   1.443   3.816  15.038  0.1058  0.0911  0.1883
  599MPD2     C 8874   1.655   1.511  15.717  0.8050 -0.6057  0.0500
  599MPD2    C1 8875   1.559   1.408  15.707  0.6868  0.2156 -0.3291
  599MPD2    C2 8876   1.422   1.443  15.708  0.1754 -0.8584 -0.1385
  599MPD2    C3 8877   1.384   1.576  15.738 -0.4705 -0.2489  0.1640
  599MPD2    C4 8878   1.483   1.672  15.743 -0.5062  0.0121 -0.0927
  599MPD2    C5 8879   1.615   1.639  15.729  0.3514  0.2785 -0.1076
  599MPD2     H 8880   1.343   1.370  15.698 -0.1066 -0.4280 -1.0477
  599MPD2    H1 8881   1.460   1.776  15.765  1.5726  0.6674 -0.9873
  599MPD2    H2 8882   1.762   1.497  15.719  1.2337  2.1571 -4.6905
  599MPD2    H3 8883   1.696   1.707  15.751  1.8336 -1.4043 -0.3346
  599MPD2     N 8884   1.252   1.621  15.759  0.4483 -0.0420  0.4679
  599MPD2    H5 8885   1.232   1.717  15.782 -0.2512 -0.3467  1.1377
  599MPD2    N1 8886   1.605   1.273  15.674  0.7608  0.2630  0.0908
  599MPD2    H7 8887   1.705   1.258  15.687  0.6217  0.2335  1.0725
  600TMC3    C1 8888   1.026   1.614  15.817  0.6233  0.2818  0.0628
  600TMC3    C2 8889   0.908   1.543  15.820  0.4422  0.3784 -0.8814
  600TMC3    C3 8890   0.815   1.569  15.923 -0.3299  0.5397 -0.6760
  600TMC3    C4 8891   1.048   1.716  15.910  0.2002 -0.4452  0.1483
  600TMC3    C5 8892   0.944   1.745  15.996  0.0323  0.3593 -0.1692
  600TMC3    C6 8893   0.829   1.670  16.009 -0.1587 -0.3864 -0.1031
  600TMC3     C 8894   1.138   1.542  15.763  0.5212 -0.1042 -0.1340
  600TMC3     O 8895   1.117   1.433  15.720 -0.0491  0.7410 -0.2342
  600TMC3     H 8896   0.892   1.453  15.763 -2.6914  1.5574 -1.8892
  600TMC3    H1 8897   1.142   1.759  15.943 -0.0572  0.3716 -0.1635
  600TMC3    H2 8898   0.756   1.698  16.084 -0.5531 -0.7789 -0.3407
  600TMC3    C7 8899   0.950   1.864  16.078 -0.0292  0.6863 -0.3210
  600TMC3    C8 8900   0.735   1.456  15.963 -0.4081 -0.7488 -0.9833
  600TMC3    O1 8901   0.869   1.868  16.173 -0.1469  0.1446 -0.0299
  600TMC3    O2 8902   0.667   1.405  15.874  0.0229 -0.3341 -0.5089
  601MPD2     C 8903   3.350   4.478  17.507  0.4171  0.2842  0.3112
  601MPD2    C1 8904   3.214   4.515  17.520 -0.2345  0.0983  0.4087
  601MPD2    C2 8905   3.142   4.464  17.625  0.1477  0.2242  0.6314
  601MPD2    C3 8906   3.193   4.356   0.004  0.1676  0.3120 -0.0567
  601MPD2    C4 8907   3.317   4.290  17.664  0.1155  0.3224 -0.1655
  601MPD2    C5 8908   3.397   4.369  17.572 -0.7075  0.2547 -0.4258
  601MPD2     H 8909   3.041   4.496  17.649  0.9885  1.0233  3.0275
  601MPD2    H1 8910   3.372   4.212   0.022 -1.4900  1.7227  3.6617
  601MPD2    H2 8911   3.410   4.538  17.440 -1.1957 -0.3348 -1.6800
  601MPD2    H3 8912   3.498   4.339  17.548 -0.7432  1.2998 -1.8566
  601MPD2     N 8913   3.112   4.304   0.107 -0.4645  0.3088  0.4884
  601MPD2    H5 8914   3.135   4.214   0.147 -1.0991 -0.1504 -0.1749
  601MPD2    N1 8915   3.156   4.625  17.456  0.4007 -0.1813 -0.1669
  601MPD2    H7 8916   3.066   4.660  17.486  0.6142  1.3889 -1.3192
  602TMC3    C1 8917   3.135   0.084  17.309  0.2112 -0.5327 -0.3955
  602TMC3    C2 8918   3.187   0.150  17.195  0.2838  0.0040 -0.9268
  602TMC3    C3 8919   3.122   0.263  17.151  0.1258 -0.5708 -0.1942
  602TMC3    C4 8920   3.023   0.130  17.375 -0.6174  0.0235 -0.3883
  602TMC3    C5 8921   2.969   0.248  17.329 -0.3232  0.5251  0.2793
  602TMC3    C6 8922   3.016   0.314  17.223  0.1384 -0.0605  0.7148
  602TMC3     C 8923   3.211   4.689  17.343  0.1799 -0.1896  0.0530
  602TMC3     O 8924   3.313   4.666  17.281  0.4646  0.1673 -0.0392
  602TMC3     H 8925   3.264   0.108  17.132  1.2095 -0.5171  0.5532
  602TMC3    H1 8926   2.979   0.074  17.457  1.3887  0.7877  1.1858
  602TMC3    H2 8927   2.988   0.416  17.200 -1.9929 -0.7859  0.0354
  602TMC3    C7 8928   2.824   0.252  17.351 -0.0758  0.4389  0.4580
  602TMC3    C8 8929   3.158   0.321  17.021 -0.0760  0.1933 -0.2086
  602TMC3    O1 8930   2.768   0.178  17.426 -0.2535 -0.1000 -0.5105
  602TMC3    O2 8931   3.244   0.266  16.959 -0.2790  0.1256 -0.3954
  603TMC3    C1 8932   1.251   0.818  11.068 -0.2909  0.7897  0.1242
  603TMC3    C2 8933   1.318   0.760  11.169  0.2196 -0.9202 -0.4734
  603TMC3    C3 8934   1.446   0.809  11.203 -0.3109 -0.5959  1.0592
  603TMC3    C4 8935   1.310   0.914  10.992 -0.4371  0.2886  0.1169
  603TMC3    C5 8936   1.430   0.956  11.026  1.3255 -0.0136  0.3270
  603TMC3    C6 8937   1.503   0.906  11.134 -0.4885  0.0091  0.4966
  603TMC3     C 8938   1.170   0.729  10.989 -0.6144 -0.6321 -0.3811
  603TMC3     O 8939   1.218   0.709  10.877 -0.0967 -0.2724 -0.7402
  603TMC3     H 8940   1.272   0.695  11.242 -0.4975 -0.1240 -0.2266
  603TMC3    H1 8941   1.246   0.953  10.914 -0.4584  1.8255  0.8950
  603TMC3    H2 8942   1.610   0.921  11.148  0.0836 -3.4390 -0.3019
  603TMC3    C7 8943   1.510   1.022  10.934 -0.2237 -0.6336  0.4426
  603TMC3    C8 8944   1.514   0.748  11.312  1.1595 -0.3157 -0.5169
  603TMC3    O1 8945   1.590   1.099  10.983  0.1680  0.3091 -0.1667
  603TMC3    O2 8946   1.459   0.647  11.349 -0.1002 -0.3107  0.0238
  604MPD2     C 8947   2.379   3.991  16.726  0.4002  0.0333 -0.2172
  604MPD2    C1 8948   2.253   3.969  16.676  0.4767 -0.0985 -0.6374
  604MPD2    C2 8949   2.245   3.898  16.558  0.9046 -0.1049  0.1097
  604MPD2    C3 8950   2.354   3.826  16.511  0.2309  0.5588 -0.2259
  604MPD2    C4 8951   2.477   3.840  16.578 -0.0776  0.7679 -0.1020
  604MPD2    C5 8952   2.490   3.926  16.684  0.7085 -0.2129  0.7303
  604MPD2     H 8953   2.151   3.883  16.506  1.0783 -2.2748  0.4133
  604MPD2    H1 8954   2.567   3.788  16.546 -1.2297 -0.5535 -1.2285
  604MPD2    H2 8955   2.402   4.058  16.807 -2.8448  1.3202 -0.3848
  604MPD2    H3 8956   2.587   3.959  16.719  1.1171  0.3415 -0.9028
  604MPD2     N 8957   2.338   3.745  16.400  0.1201  0.0197 -0.3725
  604MPD2    H5 8958   2.243   3.736  16.365  0.5602  1.6637 -1.9737
  604MPD2    N1 8959   2.143   4.026  16.745  0.2198  0.4438  0.1364
  604MPD2    H7 8960   2.175   4.093  16.815  1.9475 -1.1084  0.8621
  605TMC3    C1 8961   1.923   4.077  16.810 -0.0182  0.7945  0.5161
  605TMC3    C2 8962   1.972   4.123  16.930 -0.0275 -0.0364  0.2173
  605TMC3    C3 8963   1.885   4.186  17.018 -0.3286  0.0643  0.1020
  605TMC3    C4 8964   1.797   4.114  16.771  1.0963  0.0222 -0.0091
  605TMC3    C5 8965   1.718   4.180  16.860  0.0611 -0.0930  0.1172
  605TMC3    C6 8966   1.764   4.222  16.977 -0.2430  0.3070 -0.5682
  605TMC3     C 8967   2.012   4.008  16.710 -0.1360  0.0953 -0.2477
  605TMC3     O 8968   1.967   3.951  16.613 -0.0154 -0.3168 -0.0292
  605TMC3     H 8969   2.070   4.092  16.964  0.3341  2.5422  1.5898
  605TMC3    H1 8970   1.768   4.089  16.670  1.5002  2.3639 -0.7034
  605TMC3    H2 8971   1.698   4.271  17.047 -0.7568 -0.9213 -0.2017
  605TMC3    C7 8972   1.599   4.231  16.806 -0.0191 -0.4634 -0.1497
  605TMC3    C8 8973   1.936   4.259  17.132 -0.1813 -0.2107  0.5657
  605TMC3    O1 8974   1.561   4.164  16.712  0.5408 -0.3301  0.0508
  605TMC3    O2 8975   1.855   4.331  17.186  0.1646  0.1779 -0.2031
  606TMC3    C1 8976   3.137   1.791  16.752  0.2867 -0.2618 -0.3090
  606TMC3    C2 8977   3.114   1.833  16.876 -0.0970 -0.2573  0.2008
  606TMC3    C3 8978   3.002   1.789  16.939  0.9271  0.9329 -0.3087
  606TMC3    C4 8979   3.076   1.685  16.701  0.5485  0.4524  0.0956
  606TMC3    C5 8980   2.963   1.638  16.759  0.2774  0.2124  0.2659
  606TMC3    C6 8981   2.931   1.692  16.885 -0.3329 -0.9484  0.7020
  606TMC3     C 8982   3.273   1.811  16.716 -0.0706  0.6457 -0.6564
  606TMC3     O 8983   3.355   1.813  16.808 -0.2746  0.2816 -0.3855
  606TMC3     H 8984   3.183   1.904  16.921 -0.3231  0.3306 -0.3799
  606TMC3    H1 8985   3.100   1.644  16.604  2.5844 -0.5232  1.0237
  606TMC3    H2 8986   2.856   1.636  16.940 -1.8006  1.0885  0.7672
  606TMC3    C7 8987   2.918   1.502  16.721  0.5199  0.8628  0.5254
  606TMC3    C8 8988   3.013   1.790  17.084 -0.0425 -0.6183  0.1541
  606TMC3    O1 8989   3.008   1.436  16.671 -0.3569  0.2132  0.9503
  606TMC3    O2 8990   3.116   1.829  17.133  0.2178  0.4763  0.6415
  607MPD2     C 8991   0.875   0.534  11.503 -0.6252 -0.3342  0.6873
  607MPD2    C1 8992   0.886   0.641  11.588  0.1641 -0.1373 -0.2272
  607MPD2    C2 8993   0.848   0.625  11.718 -0.7298  0.2956 -0.4929
  607MPD2    C3 8994   0.805   0.502  11.773 -0.3562  0.3145 -0.1310
  607MPD2    C4 8995   0.802   0.396  11.688  0.3974  0.4958 -0.4591
  607MPD2    C5 8996   0.840   0.412  11.555  0.2120  0.4959  0.3662
  607MPD2     H 8997   0.867   0.704  11.790  0.8825 -0.7490  0.2477
  607MPD2    H1 8998   0.753   0.302  11.712 -0.4459  1.2330  0.6850
  607MPD2    H2 8999   0.896   0.548  11.397 -0.2700  0.1546  0.8222
  607MPD2    H3 9000   0.840   0.329  11.485  3.6850  0.8885 -0.0609
  607MPD2     N 9001   0.782   0.491  11.911  0.4940  0.1752  0.5768
  607MPD2    H5 9002   0.779   0.580  11.959 -1.0368  0.2059  0.4499
  607MPD2    N1 9003   0.941   0.769  11.547  0.1399 -0.1263  0.5927
  607MPD2    H7 9004   0.928   0.840  11.618  1.8032  0.9043 -0.1291
  608TMC3    C1 9005   1.093   0.914  11.454  0.1527 -0.3043 -0.4121
  608TMC3    C2 9006   1.121   0.952  11.581 -0.4640 -0.4466  0.6345
  608TMC3    C3 9007   1.186   1.067  11.603 -0.0337  0.2456  0.3657
  608TMC3    C4 9008   1.135   0.988  11.343 -0.3177 -0.1687 -0.1587
  608TMC3    C5 9009   1.204   1.102  11.369 -0.2641 -0.3494  0.0671
  608TMC3    C6 9010   1.223   1.143  11.494 -0.2141  0.2501  1.1672
  608TMC3     C 9011   1.008   0.803  11.430  0.0594  0.8138  0.5441
  608TMC3     O 9012   1.034   0.739  11.326  0.4940 -0.5214 -0.2018
  608TMC3     H 9013   1.101   0.888  11.666 -2.3475 -0.7434 -0.0331
  608TMC3    H1 9014   1.112   0.948  11.245 -1.3308 -0.7353  0.3049
  608TMC3    H2 9015   1.273   1.238  11.513 -1.1672  1.5653 -2.8549
  608TMC3    C7 9016   1.243   1.178  11.253 -0.2988  0.2601 -0.2910
  608TMC3    C8 9017   1.208   1.118  11.739 -1.0448 -0.3240  0.6718
  608TMC3    O1 9018   1.192   1.134  11.150 -0.3124  0.3590 -0.1543
  608TMC3    O2 9019   1.290   1.213  11.755  0.1670 -0.5203  0.3729
  609TMC3    C1 9020   4.619   2.610   9.306 -0.1574  0.8135 -0.0636
  609TMC3    C2 9021   4.598   2.563   9.182 -0.4287 -0.2787 -0.8355
  609TMC3    C3 9022   4.697   2.500   9.121 -0.1720 -0.0142 -0.4000
  609TMC3    C4 9023   0.019   2.593   9.372  0.3805 -0.2169 -0.0373
  609TMC3    C5 9024   0.112   2.515   9.305 -1.0286 -0.8459 -0.1293
  609TMC3    C6 9025   0.088   2.457   9.185  0.0787  0.4088  0.3878
  609TMC3     C 9026   4.523   2.694   9.375 -0.2762 -0.3687 -0.0766
  609TMC3     O 9027   4.422   2.717   9.312  0.3997  0.3942 -0.0900
  609TMC3     H 9028   4.502   2.566   9.131 -1.9715 -2.7587  1.9276
  609TMC3    H1 9029   0.042   2.641   9.466 -0.6612  1.5313 -0.6674
  609TMC3    H2 9030   0.159   2.384   9.148 -1.9105 -1.5385  0.4369
  609TMC3    C7 9031   0.221   2.475   9.390  0.5434  0.4216 -0.2564
  609TMC3    C8 9032   4.696   2.471   8.976  0.0053  0.0272  0.4447
  609TMC3    O1 9033   0.192   2.466   9.509  0.0245  0.0592 -0.3196
  609TMC3    O2 9034   0.067   2.410   8.921  0.1628  0.0203 -0.6056
  610TMC3    C1 9035   1.348   0.346  12.675  0.3279 -0.0258  0.2912
  610TMC3    C2 9036   1.433   0.415  12.590  0.2518  0.3367 -0.3586
  610TMC3    C3 9037   1.567   0.382  12.584  0.1162  0.3059 -0.1398
  610TMC3    C4 9038   1.391   0.243  12.753  0.4745 -0.2746 -0.2775
  610TMC3    C5 9039   1.527   0.208  12.746  0.1741  0.0710  0.1537
  610TMC3    C6 9040   1.616   0.266  12.657  0.2443 -1.0181 -0.2408
  610TMC3     C 9041   1.207   0.372  12.678  0.7688  0.1648 -0.1497
  610TMC3     O 9042   1.132   0.310  12.753  0.1282  0.3417 -0.1570
  610TMC3     H 9043   1.393   0.480  12.513  0.9575 -0.0578 -1.0698
  610TMC3    H1 9044   1.319   0.184  12.808 -2.1344  2.3378 -0.9328
  610TMC3    H2 9045   1.724   0.266  12.665  0.1510 -0.3600  0.9552
  610TMC3    C7 9046   1.597   0.125  12.857  0.0750  0.3698  0.2117
  610TMC3    C8 9047   1.637   0.422  12.462 -0.9928 -0.3999  0.1158
  610TMC3    O1 9048   1.702   0.071  12.828 -0.2102 -0.1942  0.2918
  610TMC3    O2 9049   1.582   0.502  12.388 -0.1195  0.3366 -0.4073
  611MPD2     C 9050   1.156   4.718  10.164 -0.0817 -0.3366 -0.3020
  611MPD2    C1 9051   1.138   0.107  10.246 -0.5096  0.1877  1.3063
  611MPD2    C2 9052   1.232   0.209  10.258  0.4569 -0.4493  0.3137
  611MPD2    C3 9053   1.350   0.195  10.182 -0.2877  0.2307  0.1403
  611MPD2    C4 9054   1.372   0.082  10.105  0.3446  0.7854 -0.1572
  611MPD2    C5 9055   1.282   4.697  10.110 -0.2149 -0.3747  0.4159
  611MPD2     H 9056   1.217   0.296  10.321  0.0321  0.0708 -0.5022
  611MPD2    H1 9057   1.471   0.058  10.067 -0.4093 -0.0921 -1.5332
  611MPD2    H2 9058   1.080   4.642  10.156 -1.3710  0.8832  0.3198
  611MPD2    H3 9059   1.302   4.600  10.067  0.3178  0.1298 -0.4927
  611MPD2     N 9060   1.451   0.288  10.167 -0.2847 -0.0938 -0.5108
  611MPD2    H5 9061   1.521   0.268  10.096  1.7193  1.9939  0.8840
  611MPD2    N1 9062   1.017   0.105  10.318 -0.1150  0.4567  0.1583
  611MPD2    H7 9063   0.944   0.040  10.289 -0.1598 -0.0580  1.4228
  612TMC3    C1 9064   1.563   0.492  10.170  0.1587 -1.0870 -0.1282
  612TMC3    C2 9065   1.602   0.599  10.243 -0.7029  0.3864  0.1248
  612TMC3    C3 9066   1.664   0.703  10.183  0.3219 -0.2778 -0.2582
  612TMC3    C4 9067   1.578   0.490  10.033  0.3359  0.0544  0.1206
  612TMC3    C5 9068   1.637   0.601   9.972 -0.0411  0.5544 -0.4350
  612TMC3    C6 9069   1.696   0.699  10.048 -0.7056 -0.2910  0.1809
  612TMC3     C 9070   1.461   0.410  10.235 -0.2570  0.2156 -0.2171
  612TMC3     O 9071   1.391   0.446  10.330 -0.2488  0.1398  0.4941
  612TMC3     H 9072   1.595   0.587  10.351  3.3218  0.9016  0.4377
  612TMC3    H1 9073   1.546   0.403   9.977  2.2021  0.1201 -1.0672
  612TMC3    H2 9074   1.730   0.794  10.007 -0.3790  0.2061  1.6077
  612TMC3    C7 9075   1.669   0.613   9.830  0.6212  0.9433  0.2690
  612TMC3    C8 9076   1.682   0.832  10.253  0.6621  0.2177 -0.2748
  612TMC3    O1 9077   1.717   0.716   9.785 -0.1300 -0.5753  0.1094
  612TMC3    O2 9078   1.720   0.931  10.196 -0.2708 -0.0193  0.6919
  613MPD2     C 9079   4.213   2.785  16.515 -0.1186 -0.7973 -0.7206
  613MPD2    C1 9080   4.344   2.742  16.507 -0.2311  0.2898  0.3349
  613MPD2    C2 9081   4.368   2.604  16.526  0.9860  0.4891 -0.5344
  613MPD2    C3 9082   4.269   2.512  16.555  0.1154 -0.6071  0.2855
  613MPD2    C4 9083   4.146   2.565  16.570 -0.0262 -0.1052  0.7929
  613MPD2    C5 9084   4.123   2.695  16.551  0.7659  0.0684  0.0391
  613MPD2     H 9085   4.472   2.574  16.521  0.8229 -0.0129 -0.8672
  613MPD2    H1 9086   4.051   2.513  16.567  1.2985 -2.5147  0.3539
  613MPD2    H2 9087   4.182   2.889  16.504 -2.9373 -1.5667 -0.1349
  613MPD2    H3 9088   4.022   2.731  16.570  0.2093  0.3440 -3.3911
  613MPD2     N 9089   4.280   2.375  16.555  0.4821 -0.8529 -0.1487
  613MPD2    H5 9090   4.199   2.316  16.569 -0.3240 -0.2145 -2.0765
  613MPD2    N1 9091   4.448   2.837  16.479  0.2426  0.3009 -0.0022
  613MPD2    H7 9092   4.429   2.929  16.440 -0.8217 -0.1980 -0.6311
  614TMC3    C1 9093   4.677   2.902  16.433  0.2339  1.2482  0.2259
  614TMC3    C2 9094   0.083   2.864  16.447 -0.2276 -0.0568 -0.8545
  614TMC3    C3 9095   0.165   2.863  16.337  0.1216 -0.4327  0.0208
  614TMC3    C4 9096   4.631   2.962  16.318  0.3948  0.2982 -0.7810
  614TMC3    C5 9097   4.720   2.964  16.219  0.2124 -0.0206 -0.6350
  614TMC3    C6 9098   0.122   2.917  16.216 -0.0537 -0.9118 -0.4407
  614TMC3     C 9099   4.586   2.809  16.496  0.3925 -0.1645  0.8589
  614TMC3     O 9100   4.649   2.721  16.555  0.2052  0.2223 -0.0418
  614TMC3     H 9101   0.120   2.840  16.546 -2.3582 -2.5566 -0.6857
  614TMC3    H1 9102   4.530   2.997  16.302  0.3476  0.6654  0.2820
  614TMC3    H2 9103   0.183   2.949  16.132  2.3311 -3.3826  0.3472
  614TMC3    C7 9104   4.660   2.996  16.081 -0.5061 -0.2650  0.2898
  614TMC3    C8 9105   0.231   2.729  16.306 -0.1504 -0.2037  0.2809
  614TMC3    O1 9106   4.699   2.924  15.989  0.0672  0.0028  0.1374
  614TMC3    O2 9107   0.302   2.721  16.207 -0.3266  0.0398 -0.2962
  615MPD2     C 9108   3.432   3.938  16.470  0.0700 -0.0250  0.2701
  615MPD2    C1 9109   3.493   3.960  16.347 -0.1479 -0.1134 -0.8856
  615MPD2    C2 9110   3.427   3.908  16.232  0.2248  0.6684  0.1663
  615MPD2    C3 9111   3.306   3.834  16.241  0.4714 -0.4493 -0.1331
  615MPD2    C4 9112   3.245   3.826  16.363 -0.4481  0.1984  0.3241
  615MPD2    C5 9113   3.306   3.883  16.478 -0.1048 -0.4581  0.0207
  615MPD2     H 9114   3.479   3.926  16.139 -0.0479  1.3259  0.1437
  615MPD2    H1 9115   3.146   3.787  16.381 -0.8726  1.4103  0.6054
  615MPD2    H2 9116   3.475   3.960  16.567  1.0640 -1.1151  0.0822
  615MPD2    H3 9117   3.260   3.874  16.576  1.2341 -0.1571  0.6743
  615MPD2     N 9118   3.246   3.775  16.130  0.1104  0.5571  0.4307
  615MPD2    H5 9119   3.285   3.801  16.040 -1.3972  2.5326  0.3449
  615MPD2    N1 9120   3.626   4.004  16.324 -0.0748 -0.3311 -0.1152
  615MPD2    H7 9121   3.672   4.001  16.234 -1.1108 -0.7258 -0.6224
  616TMC3    C1 9122   3.833   4.085  16.364 -0.2109 -0.3861  0.1475
  616TMC3    C2 9123   3.880   3.998  16.257  0.2597 -0.0356 -0.5904
  616TMC3    C3 9124   4.012   4.010  16.220  0.1802 -0.5835 -0.2711
  616TMC3    C4 9125   3.918   4.177  16.416 -0.3768  0.1095  0.0690
  616TMC3    C5 9126   4.044   4.196  16.364 -0.4556 -0.4660 -0.3584
  616TMC3    C6 9127   4.093   4.116  16.260  0.4434 -0.3844  0.0859
  616TMC3     C 9128   3.692   4.071  16.420  0.6720  0.0603  0.4727
  616TMC3     O 9129   3.658   4.096  16.540 -0.6902 -0.0912 -1.1448
  616TMC3     H 9130   3.826   3.918  16.207 -0.6805 -1.2607  2.3854
  616TMC3    H1 9131   3.872   4.250  16.482  0.8101  1.1187 -0.2064
  616TMC3    H2 9132   4.182   4.136  16.202  0.8193  4.7281  2.3478
  616TMC3    C7 9133   4.102   4.329  16.380 -0.3054 -0.1393  0.5391
  616TMC3    C8 9134   4.060   3.920  16.115 -0.3577  0.1301  0.3966
  616TMC3    O1 9135   4.031   4.415  16.439 -0.2494  0.2238 -0.1972
  616TMC3    O2 9136   3.985   3.872  16.034 -0.2609  0.2199  0.1662
  617MPD2     C 9137   1.778   2.682  13.595  0.3418 -0.1001 -0.2041
  617MPD2    C1 9138   1.851   2.599  13.679 -0.6183  0.1952  0.8229
  617MPD2    C2 9139   1.784   2.494  13.746 -0.3899 -0.0504  0.1993
  617MPD2    C3 9140   1.650   2.491  13.742  0.0125 -0.6536 -0.4489
  617MPD2    C4 9141   1.585   2.574  13.653 -0.4609 -0.5126  0.2143
  617MPD2    C5 9142   1.648   2.666  13.583  0.2487 -0.0904  0.2304
  617MPD2     H 9143   1.844   2.435  13.814  0.2944  0.3160 -0.0928
  617MPD2    H1 9144   1.478   2.584  13.644 -0.4123 -0.1160  0.0997
  617MPD2    H2 9145   1.819   2.760  13.532  0.2634  0.0445 -0.0767
  617MPD2    H3 9146   1.588   2.742  13.533 -1.3917 -1.4255  0.1856
  617MPD2     N 9147   1.570   2.396  13.815 -0.2872  0.5639  0.2642
  617MPD2    H5 9148   1.473   2.398  13.784 -0.1814  0.8940 -0.0516
  617MPD2    N1 9149   1.992   2.618  13.688 -0.4965 -0.4844  0.3815
  617MPD2    H7 9150   2.018   2.705  13.640  2.7841 -0.2724  2.5711
  618TMC3    C1 9151   2.223   2.588  13.758  0.5059  0.6946 -0.8519
  618TMC3    C2 9152   2.317   2.510  13.826  0.0664  0.2841  0.5275
  618TMC3    C3 9153   2.448   2.510  13.783 -0.8265  0.2851  0.1808
  618TMC3    C4 9154   2.266   2.666  13.651  0.8279  0.9534 -0.2893
  618TMC3    C5 9155   2.395   2.660  13.613  0.1226 -0.4258 -0.1781
  618TMC3    C6 9156   2.488   2.577  13.672 -0.5355 -0.0555 -0.3342
  618TMC3     C 9157   2.089   2.537  13.755 -0.2337  0.0938 -0.3258
  618TMC3     O 9158   2.067   2.418  13.782  1.0157  0.2263  0.3333
  618TMC3     H 9159   2.271   2.448  13.902 -0.5073 -0.3182 -0.3117
  618TMC3    H1 9160   2.196   2.729  13.598 -0.2787  1.3960  1.7062
  618TMC3    H2 9161   2.590   2.565  13.638  0.0084 -0.2668  1.3545
  618TMC3    C7 9162   2.427   2.694  13.481  0.7461 -0.4192  0.9178
  618TMC3    C8 9163   2.538   2.418  13.850  0.2797 -0.5220 -0.5150
  618TMC3    O1 9164   2.326   2.691  13.407 -0.2609  0.3593 -0.5277
  618TMC3    O2 9165   2.535   2.406  13.969  0.5508 -0.1553 -0.1702
  619MPD2     C 9166   3.516   3.753  13.705  0.0404  0.4575 -0.2224
  619MPD2    C1 9167   3.449   3.793  13.593 -0.0938  0.6138  0.1979
  619MPD2    C2 9168   3.346   3.713  13.537  0.2610  0.4336  0.5142
  619MPD2    C3 9169   3.287   3.609  13.607 -0.6643  0.0941 -0.7000
  619MPD2    C4 9170   3.348   3.576  13.725 -0.4834 -0.2853 -0.6110
  619MPD2    C5 9171   3.462   3.644  13.770  0.4523 -0.4981 -0.4663
  619MPD2     H 9172   3.304   3.739  13.441 -1.7025 -0.6613  1.0908
  619MPD2    H1 9173   3.319   3.486  13.779 -1.4397  0.1586 -0.3718
  619MPD2    H2 9174   3.591   3.806  13.762  1.4403 -1.2342 -0.4971
  619MPD2    H3 9175   3.500   3.621  13.868  2.4548  2.2192 -0.5945
  619MPD2     N 9176   3.174   3.542  13.557  0.2527  0.2733 -0.5787
  619MPD2    H5 9177   3.132   3.475  13.621 -2.4311  0.8667 -1.7285
  619MPD2    N1 9178   3.482   3.913  13.532 -0.4157 -0.5420 -0.0166
  619MPD2    H7 9179   3.435   3.945  13.448  0.3749  0.8410  0.0571
  620TMC3    C1 9180   3.542   4.143  13.543  0.5882 -0.4455 -0.4462
  620TMC3    C2 9181   3.411   4.167  13.516  0.1729 -0.1871 -0.0808
  620TMC3    C3 9182   3.374   4.280  13.460 -0.2241  0.2212  0.0864
  620TMC3    C4 9183   3.647   4.222  13.528 -0.4102 -0.6147 -0.3988
  620TMC3    C5 9184   3.601   4.346  13.479  0.3411  1.0325  0.7512
  620TMC3    C6 9185   3.472   4.370  13.428  0.5658 -0.1808  0.5476
  620TMC3     C 9186   3.576   4.005  13.572  0.1762  0.4306  0.8961
  620TMC3     O 9187   3.678   3.978  13.635  0.8766  0.6342  0.2310
  620TMC3     H 9188   3.341   4.091  13.548  1.3481 -0.4459  1.8994
  620TMC3    H1 9189   3.749   4.207  13.561 -0.3502  0.3691 -0.1201
  620TMC3    H2 9190   3.450   4.472  13.398  2.3932 -0.1707 -0.7524
  620TMC3    C7 9191   3.675   4.471  13.514  0.3245  0.7725  0.5980
  620TMC3    C8 9192   3.245   4.335  13.490 -0.2461 -0.0956  0.1480
  620TMC3    O1 9193   3.698   4.541  13.417  0.4406 -0.3861 -0.7326
  620TMC3    O2 9194   3.238   4.450  13.455  0.0612  0.0054  0.4205
  621MPD2     C 9195   4.404   3.261  10.041  0.5756 -0.2985 -0.8205
  621MPD2    C1 9196   4.429   3.249  10.175 -0.1526 -0.2075  0.4261
  621MPD2    C2 9197   4.506   3.350  10.231  0.1938  0.6446 -0.6607
  621MPD2    C3 9198   4.560   3.454  10.158  0.7896  0.0416  0.1581
  621MPD2    C4 9199   4.531   3.467  10.021  0.6277 -0.0160  0.3485
  621MPD2    C5 9200   4.446   3.371   9.970 -0.0714  0.1468  0.1869
  621MPD2     H 9201   4.534   3.351  10.336  0.5715  0.1817 -0.7548
  621MPD2    H1 9202   4.571   3.547   9.960 -0.4317 -0.1339 -0.5011
  621MPD2    H2 9203   4.344   3.196   9.977 -0.1074 -0.7610  0.2923
  621MPD2    H3 9204   4.418   3.378   9.865  0.7079  0.3702 -0.0083
  621MPD2     N 9205   4.644   3.542  10.232  0.3059  0.5498  0.0945
  621MPD2    H5 9206   4.670   3.510  10.325 -2.4737  1.2236  1.1053
  621MPD2    N1 9207   4.360   3.154  10.248  0.3252  0.0499 -0.4961
  621MPD2    H7 9208   4.278   3.114  10.203  1.2853 -1.2718 -1.0870
  622TMC3    C1 9209   4.267   3.099  10.461  0.2257  0.4562  0.8560
  622TMC3    C2 9210   4.249   3.183  10.568  0.0396 -0.0032  0.3701
  622TMC3    C3 9211   4.121   3.184  10.622 -0.6270 -0.8460  0.8839
  622TMC3    C4 9212   4.157   3.059  10.394  0.5080  0.3992  0.3777
  622TMC3    C5 9213   4.029   3.086  10.432  0.4633  0.2729 -0.5763
  622TMC3    C6 9214   4.011   3.149  10.552  0.9178  0.1344  0.1922
  622TMC3     C 9215   4.381   3.138  10.384  0.4369 -0.4572 -0.9423
  622TMC3     O 9216   4.478   3.160  10.456 -0.9469  0.8302  0.8411
  622TMC3     H 9217   4.334   3.233  10.614 -0.3496  0.6031  0.4262
  622TMC3    H1 9218   4.179   2.996  10.309 -0.0504  0.6750  0.0308
  622TMC3    H2 9219   3.916   3.158  10.605  0.7694 -0.8775  0.1019
  622TMC3    C7 9220   3.919   3.041  10.349 -0.6263  0.0726  0.4300
  622TMC3    C8 9221   4.088   3.308  10.699 -0.0621  0.3629 -0.0556
  622TMC3    O1 9222   3.948   2.985  10.241  0.6209 -0.0867  1.0084
  622TMC3    O2 9223   4.124   3.328  10.814  0.5673  0.2369  0.1104
  623MPD2     C 9224   2.584   4.332  16.309  0.0142 -0.9328 -0.6739
  623MPD2    C1 9225   2.480   4.321  16.401 -0.0080 -0.8381 -0.0847
  623MPD2    C2 9226   2.518   4.308  16.527 -0.0143  0.0974  0.4194
  623MPD2    C3 9227   2.649   4.322  16.572  0.0490 -0.0549 -0.0955
  623MPD2    C4 9228   2.747   4.331  16.482  0.2704 -0.7806  0.8461
  623MPD2    C5 9229   2.716   4.327  16.347 -0.2023  0.7464  0.1990
  623MPD2     H 9230   2.453   4.280  16.609 -0.4277  0.4654  0.2102
  623MPD2    H1 9231   2.849   4.337  16.520  0.0513 -2.9724  1.7961
  623MPD2    H2 9232   2.568   4.341  16.202 -2.0617 -1.6990 -0.4293
  623MPD2    H3 9233   2.783   4.326  16.262  0.8986 -0.1583  1.0580
  623MPD2     N 9234   2.700   4.309  16.702 -0.1309  0.2466  0.2057
  623MPD2    H5 9235   2.801   4.302  16.708  0.0749  1.5627 -1.8867
  623MPD2    N1 9236   2.346   4.309  16.370 -0.0928  0.7619  0.1701
  623MPD2    H7 9237   2.288   4.293  16.452 -0.1137 -2.0942 -0.3951
  624TMC3    C1 9238   2.837   4.101  17.026 -0.5374  0.2320  1.1982
  624TMC3    C2 9239   2.793   4.129  17.148  0.6283  0.0010  0.0201
  624TMC3    C3 9240   2.704   4.230  17.173 -0.0483 -0.7878 -0.2778
  624TMC3    C4 9241   2.804   4.176  16.921  0.0495  0.0017 -0.3094
  624TMC3    C5 9242   2.721   4.277  16.941  0.5449 -0.1436 -0.1761
  624TMC3    C6 9243   2.668   4.309  17.069  0.6310  0.4347 -0.9268
  624TMC3     C 9244   2.974   4.052  17.024 -0.3792 -0.2175  0.1922
  624TMC3     O 9245   3.007   3.995  17.126 -0.1708 -0.1505  0.3685
  624TMC3     H 9246   2.828   4.063  17.226  0.8772 -0.6630 -0.6482
  624TMC3    H1 9247   2.832   4.142  16.821  0.8532 -1.4399  0.4125
  624TMC3    H2 9248   2.603   4.395  17.075  0.0153 -0.0830 -0.0484
  624TMC3    C7 9249   2.636   4.306  16.825 -0.5621  0.1340  0.3012
  624TMC3    C8 9250   2.576   4.193  17.236 -0.5937  0.6627  0.9161
  624TMC3    O1 9251   2.517   4.323  16.845 -0.2585  0.3800 -0.5412
  624TMC3    O2 9252   2.524   4.092  17.201 -0.5010 -0.5712  0.5340
  625MPD2     C 9253   2.694   0.155   0.826  0.5372 -0.4032 -0.1004
  625MPD2    C1 9254   2.761   0.250   0.743  0.0590  0.4751  0.1674
  625MPD2    C2 9255   2.901   0.259   0.755 -0.2142  0.8125 -0.1598
  625MPD2    C3 9256   2.962   0.190   0.858  0.8787  0.2941  0.1425
  625MPD2    C4 9257   2.895   0.093   0.928 -0.4280  0.4554 -0.2008
  625MPD2    C5 9258   2.759   0.079   0.913 -0.1508 -0.1253 -0.2026
  625MPD2     H 9259   2.965   0.329   0.703 -1.6051  1.9655 -0.3238
  625MPD2    H1 9260   2.957   0.036   0.995 -0.0237  0.3376 -0.6716
  625MPD2    H2 9261   2.586   0.157   0.826  0.5435 -0.2681 -1.0493
  625MPD2    H3 9262   2.705   0.016   0.983 -1.0254 -1.5379 -2.1473
  625MPD2     N 9263   3.105   0.220   0.877 -0.0137  0.1852  0.2143
  625MPD2    H5 9264   3.151   0.292   0.822  0.8708 -0.7975 -0.3300
  625MPD2    N1 9265   2.703   0.341   0.653  0.0263  0.3513 -0.2038
  625MPD2    H7 9266   2.765   0.412   0.615  1.0816 -0.8402 -0.7125
  626TMC3    C1 9267   2.543   0.460   0.537 -0.3411 -0.5973 -0.3216
  626TMC3    C2 9268   2.464   0.463   0.423  0.3930 -0.5095 -0.2993
  626TMC3    C3 9269   2.437   0.584   0.369 -0.5045 -0.9544  0.0549
  626TMC3    C4 9270   2.592   0.572   0.602  0.9384  0.2933 -0.3511
  626TMC3    C5 9271   2.571   0.689   0.536  0.7136 -0.5274 -0.4965
  626TMC3    C6 9272   2.496   0.701   0.426  0.3336 -0.2804  0.0615
  626TMC3     C 9273   2.578   0.332   0.597 -0.1502  0.0784  0.2751
  626TMC3     O 9274   2.497   0.240   0.596  0.3966  0.1501  0.2309
  626TMC3     H 9275   2.432   0.369   0.381 -1.0941 -0.3803  0.5287
  626TMC3    H1 9276   2.646   0.573   0.696  0.7044  1.7226 -0.2289
  626TMC3    H2 9277   2.471   0.797   0.383 -1.8620 -0.1660  1.5952
  626TMC3    C7 9278   2.590   0.808   0.616 -0.1201  0.7162 -0.5137
  626TMC3    C8 9279   2.396   0.591   0.230 -0.1388  0.0734 -0.8175
  626TMC3    O1 9280   2.683   0.801   0.697 -0.5762 -0.0233  0.1139
  626TMC3    O2 9281   2.420   0.692   0.170 -0.3996 -0.0045 -0.1233
  627MPD2     C 9282   1.397   1.025  14.139  0.2730 -0.9796 -0.1248
  627MPD2    C1 9283   1.425   0.965  14.260 -0.2166  0.4728  0.6156
  627MPD2    C2 9284   1.361   0.851  14.290 -0.4925 -1.1668 -0.0039
  627MPD2    C3 9285   1.255   0.805  14.216  0.4799  0.2554 -0.5776
  627MPD2    C4 9286   1.219   0.870  14.096 -0.2130 -0.0486  0.1805
  627MPD2    C5 9287   1.296   0.979  14.059  0.1565  0.1276 -0.2393
  627MPD2     H 9288   1.382   0.797  14.382  2.1723 -0.3832 -0.1387
  627MPD2    H1 9289   1.136   0.843  14.032  1.4027 -1.1771 -1.4329
  627MPD2    H2 9290   1.453   1.109  14.097  1.3870 -1.4435  0.4230
  627MPD2    H3 9291   1.274   1.032  13.967  1.6517  0.4701 -0.4025
  627MPD2     N 9292   1.166   0.699  14.245 -0.2501 -0.3552  0.1706
  627MPD2    H5 9293   1.104   0.668  14.170 -0.5680  2.0706 -0.5599
  627MPD2    N1 9294   1.525   1.015  14.347 -0.5387  0.7510 -0.1653
  627MPD2    H7 9295   1.572   0.955  14.414 -1.4482 -1.3107 -1.3750
  628TMC3    C1 9296   1.682   1.171  14.430  0.7015 -0.4648  0.0516
  628TMC3    C2 9297   1.780   1.074  14.441 -0.2630  0.5897 -0.4042
  628TMC3    C3 9298   1.904   1.115  14.473 -0.0235 -0.1523 -0.2142
  628TMC3    C4 9299   1.711   1.302  14.454 -0.3840  0.8438 -0.0299
  628TMC3    C5 9300   1.841   1.341  14.483 -0.1666 -0.3373  0.7521
  628TMC3    C6 9301   1.941   1.245  14.490  0.5634  0.3878  0.0849
  628TMC3     C 9302   1.573   1.145  14.340 -0.3015  0.1766  0.1799
  628TMC3     O 9303   1.529   1.238  14.275  0.7094 -0.5381 -0.7201
  628TMC3     H 9304   1.764   0.968  14.425  0.2155  0.6635 -1.3687
  628TMC3    H1 9305   1.623   1.365  14.447 -1.1969 -0.1451  1.3200
  628TMC3    H2 9306   2.022   1.271  14.557 -0.1087  1.0083  0.6500
  628TMC3    C7 9307   1.875   1.477  14.501 -0.4085  0.5360 -0.2975
  628TMC3    C8 9308   1.964   1.014  14.554  0.6392  0.5903  0.3209
  628TMC3    O1 9309   1.970   1.504  14.571 -0.5259  0.0961 -0.4263
  628TMC3    O2 9310   1.890   0.935  14.609 -0.0342  0.4393 -0.0320
  629MPD2     C 9311   4.463   3.697  15.871 -0.0206 -0.1584  0.5705
  629MPD2    C1 9312   4.497   3.739  15.998  0.0695  0.1197 -0.3390
  629MPD2    C2 9313   4.408   3.815  16.072 -0.2525  0.0080  0.5431
  629MPD2    C3 9314   4.282   3.837  16.034 -0.5045  0.0025 -0.5484
  629MPD2    C4 9315   4.240   3.793  15.911  0.4758 -0.1902 -0.3594
  629MPD2    C5 9316   4.338   3.734  15.829  0.3670 -0.2807  0.4988
  629MPD2     H 9317   4.443   3.853  16.168 -1.0615  1.5849  0.2096
  629MPD2    H1 9318   4.144   3.819  15.868 -0.4704 -0.8911  1.3550
  629MPD2    H2 9319   4.521   3.626  15.813 -2.0202 -0.7589 -0.7148
  629MPD2    H3 9320   4.312   3.704  15.728  1.9314  0.5528 -0.1565
  629MPD2     N 9321   4.199   3.909  16.125 -0.3167  1.0468  0.4816
  629MPD2    H5 9322   4.240   3.930  16.215  0.0350  0.3365  0.4850
  629MPD2    N1 9323   4.625   3.697  16.048 -0.0722  0.0017  0.0073
  629MPD2    H7 9324   4.682   3.644  15.983  0.3672 -1.1537  1.3409
  630TMC3    C1 9325   0.061   3.638  16.214 -0.1885  0.0368  0.1976
  630TMC3    C2 9326   0.164   3.697  16.160  0.0367  0.1377 -1.0130
  630TMC3    C3 9327   0.279   3.709  16.230  0.3693  0.2237  0.3768
  630TMC3    C4 9328   0.063   3.589  16.339  0.8124 -0.1108 -0.0722
  630TMC3    C5 9329   0.181   3.604  16.414 -0.2263 -0.0292 -0.5110
  630TMC3    C6 9330   0.296   3.644  16.352  0.0327 -0.7791 -0.0916
  630TMC3     C 9331   4.659   3.702  16.180  0.7429 -0.7670 -0.3308
  630TMC3     O 9332   4.606   3.757  16.273  0.1187 -0.2007  0.8781
  630TMC3     H 9333   0.158   3.743  16.062 -1.7457  1.2956 -0.3479
  630TMC3    H1 9334   4.691   3.582  16.391  0.1891 -1.2935 -1.3672
  630TMC3    H2 9335   0.385   3.659  16.413  0.4671 -0.8513 -0.7104
  630TMC3    C7 9336   0.161   3.604  16.562 -0.0576  0.3090 -0.3396
  630TMC3    C8 9337   0.386   3.798  16.194 -0.2314 -0.4032  0.8768
  630TMC3    O1 9338   0.057   3.651  16.595  0.0878  0.8163 -0.4431
  630TMC3    O2 9339   0.462   3.836  16.284  0.2764  0.2187  0.5277
  631MPD2     C 9340   2.572   4.287  15.830  0.1551 -0.3018  0.7027
  631MPD2    C1 9341   2.645   4.261  15.717  0.6260 -0.0065  0.4119
  631MPD2    C2 9342   2.729   4.148  15.715 -0.6691  0.0936  0.5406
  631MPD2    C3 9343   2.717   4.063  15.821  0.0725 -0.5037 -0.4015
  631MPD2    C4 9344   2.634   4.087  15.932  0.0055 -1.1212 -0.6344
  631MPD2    C5 9345   2.567   4.201  15.937  0.2176 -0.1502 -0.3471
  631MPD2     H 9346   2.791   4.123  15.630  0.4642  0.2152  1.3362
  631MPD2    H1 9347   2.632   4.030  16.024  2.0643  0.1077  0.1777
  631MPD2    H2 9348   2.508   4.373  15.831  1.2898  0.5430  0.5877
  631MPD2    H3 9349   2.495   4.218  16.016 -0.4994  0.1184 -1.0498
  631MPD2     N 9350   2.796   3.947  15.816 -0.0284  0.7240 -0.5426
  631MPD2    H5 9351   2.876   3.939  15.755  0.3349 -1.1194  0.1814
  631MPD2    N1 9352   2.634   4.354  15.608  0.0988 -0.2383 -0.0763
  631MPD2    H7 9353   2.551   4.410  15.623  1.8651  1.7611  2.2060
  632TMC3    C1 9354   2.621   4.427  15.382  0.1913  0.5534  0.5383
  632TMC3    C2 9355   2.504   4.481  15.423 -0.3764  0.1676 -0.0921
  632TMC3    C3 9356   2.452   4.572  15.336  0.0213 -0.5106 -0.6055
  632TMC3    C4 9357   2.693   4.458  15.272  0.9428  0.3735  1.3670
  632TMC3    C5 9358   2.628   4.544  15.183 -0.2366 -0.0283  0.0783
  632TMC3    C6 9359   2.516   4.603  15.214 -0.0333 -0.5790 -0.6681
  632TMC3     C 9360   2.685   4.337  15.481  0.6680 -0.5986  0.0945
  632TMC3     O 9361   2.775   4.268  15.440  0.0880 -0.0768 -0.2538
  632TMC3     H 9362   2.442   4.452  15.507 -0.5194 -5.3091 -2.1156
  632TMC3    H1 9363   2.796   4.426  15.262  0.6202  0.1375 -1.4199
  632TMC3    H2 9364   2.477   4.678  15.146  2.4903  1.8147  0.5253
  632TMC3    C7 9365   2.714   4.604  15.084  0.4613 -0.1296 -0.4665
  632TMC3    C8 9366   2.328   4.631  15.377 -0.0189  0.1486  0.1937
  632TMC3    O1 9367   2.674   4.646  14.979 -0.2922  0.2875 -0.3668
  632TMC3    O2 9368   2.320   4.664  15.497 -0.1430 -0.1704  0.0826
  633MPD2     C 9369   1.973   2.069  16.726  0.2863  0.3228  0.9013
  633MPD2    C1 9370   2.039   1.994  16.818  0.2428 -0.1685 -0.0253
  633MPD2    C2 9371   2.052   1.855  16.808 -0.5983 -0.9308 -0.4849
  633MPD2    C3 9372   1.980   1.781  16.705 -0.6159 -0.0000 -0.4567
  633MPD2    C4 9373   1.901   1.860  16.623 -0.2030 -0.8672 -0.6717
  633MPD2    C5 9374   1.906   2.000  16.627  0.5708 -0.7465  0.2198
  633MPD2     H 9375   2.110   1.794  16.876 -0.1768  2.5148  2.2416
  633MPD2    H1 9376   1.863   1.821  16.529  0.3407  2.2518 -2.1780
  633MPD2    H2 9377   1.964   2.177  16.726  0.3363  0.3292 -0.1140
  633MPD2    H3 9378   1.850   2.058  16.555 -1.2639 -0.4253  1.9192
  633MPD2     N 9379   1.975   1.632  16.685 -0.9943 -0.1150  0.2033
  633MPD2    H5 9380   1.906   1.591  16.623 -0.4604 -0.1845 -0.3408
  633MPD2    N1 9381   2.108   2.058  16.919  0.0878 -0.4769  0.0792
  633MPD2    H7 9382   2.181   2.004  16.963 -0.9062 -2.3980 -0.6645
  634TMC3    C1 9383   2.256   2.245  16.984 -0.6682 -0.9408 -0.2676
  634TMC3    C2 9384   2.354   2.168  16.929 -0.3609  0.7884 -0.3020
  634TMC3    C3 9385   2.481   2.224  16.926  0.3521  0.1777  0.4241
  634TMC3    C4 9386   2.277   2.377  17.018 -0.6350 -0.1985  0.0132
  634TMC3    C5 9387   2.402   2.425  17.000  0.2340  0.0405  0.3671
  634TMC3    C6 9388   2.503   2.356  16.950 -0.3626 -0.1394 -0.2698
  634TMC3     C 9389   2.119   2.197  16.954 -0.2008 -0.0309 -0.7453
  634TMC3     O 9390   2.037   2.283  16.924 -0.3804  0.1154  0.1665
  634TMC3     H 9391   2.342   2.067  16.891  2.9535  0.7763 -1.3588
  634TMC3    H1 9392   2.187   2.433  17.040 -1.0829 -0.6199 -0.7317
  634TMC3    H2 9393   2.593   2.410  16.923 -0.6209  0.7248  0.6207
  634TMC3    C7 9394   2.411   2.563  16.953 -0.3802  0.1442 -0.2282
  634TMC3    C8 9395   2.577   2.155  16.841 -0.0097  0.2494 -0.6337
  634TMC3    O1 9396   2.507   2.594  16.887  0.0509 -0.1724 -0.9637
  634TMC3    O2 9397   2.550   2.042  16.807  0.0741  0.6079  0.5040
  635TMC3    C1 9398   2.693   3.401  17.571  0.5859 -0.3733 -0.0910
  635TMC3    C2 9399   2.798   3.388  17.485  0.0831  0.4232 -0.0159
  635TMC3    C3 9400   2.825   3.269  17.431  0.7428 -0.0418  0.1684
  635TMC3    C4 9401   2.616   3.299  17.603  0.0345 -0.4774  0.6616
  635TMC3    C5 9402   2.632   3.183  17.538 -0.2024  0.6844 -0.3530
  635TMC3    C6 9403   2.739   3.162  17.449 -0.1400  0.0278 -0.4692
  635TMC3     C 9404   2.688   3.531  17.644  0.3827 -0.6407 -0.0101
  635TMC3     O 9405   2.795   3.571  17.684 -0.2260 -0.3636 -0.3457
  635TMC3     H 9406   2.851   3.478  17.455 -2.4902  2.2212  0.8556
  635TMC3    H1 9407   2.541   3.315  17.680 -0.1514 -0.6306  0.5128
  635TMC3    H2 9408   2.743   3.079  17.380  0.7267 -1.4722  1.3729
  635TMC3    C7 9409   2.573   3.057  17.573 -0.7617  0.4502  0.0270
  635TMC3    C8 9410   2.928   3.250  17.331 -0.0267 -0.2684 -0.5193
  635TMC3    O1 9411   2.599   2.957  17.515  0.7560  0.2464 -0.3610
  635TMC3    O2 9412   2.976   3.355  17.289  0.2710  0.2986 -0.2473
  636MPD2     C 9413   4.090   2.598  15.895 -0.4361 -0.2697 -0.6256
  636MPD2    C1 9414   4.152   2.638  16.007 -0.1203 -0.8481 -0.2514
  636MPD2    C2 9415   4.207   2.544  16.091  0.1180  0.0054 -0.1929
  636MPD2    C3 9416   4.203   2.405  16.060  0.2806 -0.5634  0.7336
  636MPD2    C4 9417   4.144   2.366  15.938  0.3060 -0.3025 -0.0329
  636MPD2    C5 9418   4.086   2.469  15.859 -0.0844 -0.1649 -0.7013
  636MPD2     H 9419   4.240   2.576  16.189 -2.2534  1.7036  0.0585
  636MPD2    H1 9420   4.119   2.263  15.917  1.9812 -0.9049  0.9248
  636MPD2    H2 9421   4.029   2.665  15.835  1.1304  2.0588  0.3507
  636MPD2    H3 9422   4.025   2.426  15.780 -0.2158 -1.6155  0.1793
  636MPD2     N 9423   4.260   2.312  16.152  0.1299  0.1562  0.7910
  636MPD2    H5 9424   4.312   2.350  16.231  2.7316 -1.2728 -0.2521
  636MPD2    N1 9425   4.158   2.776  16.048  0.2367 -0.0317  0.1809
  636MPD2    H7 9426   4.203   2.797  16.137  2.3018  2.0460 -1.3675
  637TMC3    C1 9427   4.318   2.118  16.256 -0.5371 -0.4879  0.3668
  637TMC3    C2 9428   4.272   2.168  16.373  0.6017 -0.1904  0.0679
  637TMC3    C3 9429   4.371   2.174  16.471 -0.1457  0.9999  0.0037
  637TMC3    C4 9430   4.436   2.060  16.235  0.4252  0.4496 -0.6232
  637TMC3    C5 9431   4.522   2.051  16.336  0.4186  0.1231  0.2876
  637TMC3    C6 9432   4.486   2.101  16.461 -0.2709 -0.2439 -0.2414
  637TMC3     C 9433   4.255   2.179  16.141  0.1825  1.0669  0.5948
  637TMC3     O 9434   4.184   2.110  16.071 -0.5381 -0.0716 -0.1624
  637TMC3     H 9435   4.185   2.232  16.376  1.0954  0.6042 -2.0632
  637TMC3    H1 9436   4.449   2.025  16.133 -3.4406  0.6849 -1.2313
  637TMC3    H2 9437   4.555   2.099  16.545 -0.9310  0.3801  0.3211
  637TMC3    C7 9438   4.659   2.082  16.310  0.1935 -0.3473 -0.4549
  637TMC3    C8 9439   4.395   2.303  16.530  0.5158  0.2259  0.3346
  637TMC3    O1 9440   4.713   2.024  16.216  0.3504 -0.2872 -0.0415
  637TMC3    O2 9441   4.509   2.336  16.530  0.7896 -0.4385 -0.7252
  638MPD2     C 9442   4.116   1.735  15.031 -0.5290  0.1959  0.5122
  638MPD2    C1 9443   4.122   1.620  14.957  0.5177 -0.8253  0.2752
  638MPD2    C2 9444   4.036   1.513  15.002  0.0947 -0.3443  0.3472
  638MPD2    C3 9445   3.964   1.524  15.121  0.5733 -0.0680 -0.6716
  638MPD2    C4 9446   3.964   1.635  15.192  0.1097 -0.8851  0.3584
  638MPD2    C5 9447   4.040   1.742  15.147 -0.7413 -0.2185 -0.4819
  638MPD2     H 9448   4.022   1.417  14.954 -0.3996 -0.4018  0.6046
  638MPD2    H1 9449   3.905   1.646  15.282  0.4424 -1.0009  0.5921
  638MPD2    H2 9450   4.173   1.821  14.997 -1.0476 -0.2805 -1.5883
  638MPD2    H3 9451   4.049   1.841  15.191 -0.7225  0.3849 -1.8530
  638MPD2     N 9452   3.891   1.413  15.167  1.1231  0.4389 -0.5142
  638MPD2    H5 9453   3.918   1.323  15.129  1.8467  1.1218 -1.6375
  638MPD2    N1 9454   4.216   1.602  14.850  0.0401 -0.1642 -0.5531
  638MPD2    H7 9455   4.273   1.683  14.829 -0.9287  0.7864  0.5144
  639TMC3    C1 9456   3.736   1.282  15.254  0.3957  0.3763  0.5262
  639TMC3    C2 9457   3.602   1.268  15.222  0.0492 -0.8009  0.5079
  639TMC3    C3 9458   3.549   1.141  15.213 -0.7165  0.2835  0.1579
  639TMC3    C4 9459   3.826   1.177  15.263  0.1326  0.2421  0.0201
  639TMC3    C5 9460   3.766   1.058  15.248  0.6901  0.9868  0.0526
  639TMC3    C6 9461   3.636   1.038  15.232  0.1353  0.0618 -0.1379
  639TMC3     C 9462   3.785   1.413  15.250  1.1874 -0.3909  0.8423
  639TMC3     O 9463   3.713   1.504  15.293 -0.8414 -0.2765  0.1267
  639TMC3     H 9464   3.546   1.353  15.186 -0.2944 -0.2241  2.4173
  639TMC3    H1 9465   3.928   1.195  15.294 -0.7895  3.7386  1.0122
  639TMC3    H2 9466   3.604   0.936  15.244  1.8143 -0.5041 -0.4134
  639TMC3    C7 9467   3.851   0.950  15.255 -0.5452  0.4527 -0.5166
  639TMC3    C8 9468   3.489   1.107  15.083 -0.5955 -0.1115  1.1921
  639TMC3    O1 9469   3.801   0.864  15.328 -0.0539  0.4940 -0.5923
  639TMC3    O2 9470   3.538   1.019  15.017  0.1756 -0.0358 -0.0476
  640MPD2     C 9471   4.452   3.414   9.454  0.1292 -0.0090  0.9729
  640MPD2    C1 9472   4.547   3.409   9.555  1.1685  0.2844  0.6168
  640MPD2    C2 9473   4.575   3.523   9.633  0.1414 -0.2351  0.7876
  640MPD2    C3 9474   4.500   3.638   9.624  0.6645 -1.2897 -0.9779
  640MPD2    C4 9475   4.387   3.631   9.532 -0.1355  0.5809 -0.9385
  640MPD2    C5 9476   4.370   3.520   9.454  0.3432 -0.0814  0.0738
  640MPD2     H 9477   4.672   3.524   9.682  0.4038 -3.4773  0.3034
  640MPD2    H1 9478   4.309   3.706   9.519 -0.0421  1.4543  3.5399
  640MPD2    H2 9479   4.432   3.324   9.397 -2.3677  0.4579  1.1177
  640MPD2    H3 9480   4.288   3.515   9.382 -0.7697 -0.3841  1.3542
  640MPD2     N 9481   4.506   3.746   9.713 -0.2098  0.6496  0.0090
  640MPD2    H5 9482   4.442   3.824   9.698 -0.5286  0.5322  0.7527
  640MPD2    N1 9483   4.620   3.289   9.567 -0.2489  0.0255  0.2649
  640MPD2    H7 9484   4.592   3.214   9.505  0.7102 -0.1339  0.0268
  641TMC3    C1 9485   0.071   3.150   9.618  0.0041 -0.2724 -0.4023
  641TMC3    C2 9486   0.145   3.096   9.722 -0.0687 -0.7107 -0.4459
  641TMC3    C3 9487   0.215   2.980   9.692  0.4775 -0.1716  0.3503
  641TMC3    C4 9488   0.077   3.104   9.486 -0.3182  0.3676 -0.6168
  641TMC3    C5 9489   0.160   2.998   9.459 -0.0167 -0.3489 -0.4559
  641TMC3    C6 9490   0.231   2.938   9.564  0.0890 -0.2902  0.2741
  641TMC3     C 9491   4.721   3.263   9.659  0.0705 -0.2200  0.3719
  641TMC3     O 9492   0.012   3.316   9.768  0.6316 -0.4277 -0.0413
  641TMC3     H 9493   0.123   3.131   9.823 -0.9389 -0.2789 -0.7908
  641TMC3    H1 9494   0.046   3.165   9.402 -1.3014  1.4263  0.5125
  641TMC3    H2 9495   0.297   2.853   9.552  0.2948  0.2844 -2.7462
  641TMC3    C7 9496   0.178   2.944   9.329  0.2192  0.6347  0.0108
  641TMC3    C8 9497   0.264   2.901   9.797 -0.1699 -0.7279  0.0098
  641TMC3    O1 9498   0.273   2.865   9.321  0.4408 -0.5434 -0.0260
  641TMC3    O2 9499   0.259   2.779   9.779 -0.6359 -0.5509  0.9208
  642TMC3    C1 9500   0.755   1.401  12.198 -0.0198  0.4076  0.5662
  642TMC3    C2 9501   0.732   1.376  12.330 -0.0264 -1.1660 -1.1136
  642TMC3    C3 9502   0.778   1.256  12.382  0.7303  0.3712 -0.4902
  642TMC3    C4 9503   0.799   1.309  12.113  0.3682  0.6543 -0.1149
  642TMC3    C5 9504   0.837   1.192  12.163 -0.3459 -0.0881  0.4371
  642TMC3    C6 9505   0.836   1.167  12.295  0.1778 -0.0302 -0.3910
  642TMC3     C 9506   0.683   1.510  12.136  0.1978  0.2117  0.2560
  642TMC3     O 9507   0.698   1.523  12.015  0.0966  0.3603 -0.2406
  642TMC3     H 9508   0.672   1.441  12.393  1.8851 -0.7685  0.3083
  642TMC3    H1 9509   0.802   1.327  12.006  2.0950 -0.7124 -0.3086
  642TMC3    H2 9510   0.880   1.077  12.337  1.7255  0.5341 -0.8045
  642TMC3    C7 9511   0.773   1.087  12.087 -0.5560  0.0199  0.5197
  642TMC3    C8 9512   0.720   1.196  12.501  0.5167 -0.6628  0.5148
  642TMC3    O1 9513   0.772   1.083  11.963  0.3959 -0.1684 -0.1224
  642TMC3    O2 9514   0.714   1.076  12.501 -0.4962 -0.2026  0.0329
  643TMC3    C1 9515   4.363   0.404   0.153 -0.8619 -0.0462 -0.3362
  643TMC3    C2 9516   4.255   0.485   0.106  0.0852 -0.8365  0.3041
  643TMC3    C3 9517   4.249   0.502  17.667 -1.1134  0.4904  0.7378
  643TMC3    C4 9518   4.460   0.359   0.068 -0.2394 -0.1575 -0.3012
  643TMC3    C5 9519   4.445   0.374  17.629  0.5068  0.0720  0.1148
  643TMC3    C6 9520   4.333   0.444  17.583 -0.5166  0.5116  0.1068
  643TMC3     C 9521   4.372   0.425   0.290 -0.6875  0.0002 -0.5507
  643TMC3     O 9522   4.273   0.402   0.357  0.2396  0.4526 -0.3741
  643TMC3     H 9523   4.179   0.517   0.175 -1.0300  2.1889 -2.2999
  643TMC3    H1 9524   4.543   0.303   0.111  0.1279  0.9475  0.4369
  643TMC3    H2 9525   4.324   0.462  17.476  1.8407 -1.4758 -0.4216
  643TMC3    C7 9526   4.562   0.361  17.543 -0.5097 -0.6900 -0.6707
  643TMC3    C8 9527   4.184   0.624  17.624 -0.0239 -0.1417 -0.1372
  643TMC3    O1 9528   4.562   0.416  17.436  0.1567 -0.4306 -0.3453
  643TMC3    O2 9529   4.073   0.651  17.659  0.4311  0.8370 -0.7036
  644MPD2     C 9530   0.992   0.805   9.458 -0.2397  0.3942  0.1236
  644MPD2    C1 9531   1.111   0.759   9.413  0.3466 -0.4049  0.1345
  644MPD2    C2 9532   1.206   0.843   9.364  0.5006  0.1289 -0.1293
  644MPD2    C3 9533   1.181   0.980   9.360 -0.1864  0.2687  0.3989
  644MPD2    C4 9534   1.058   1.029   9.409 -0.8041 -1.0439  0.7262
  644MPD2    C5 9535   0.963   0.944   9.453 -0.5615 -0.8544 -0.2635
  644MPD2     H 9536   1.300   0.812   9.318  0.2295 -1.9255  0.7048
  644MPD2    H1 9537   1.026   1.132   9.400 -0.2707 -0.9176  0.2960
  644MPD2    H2 9538   0.920   0.736   9.500 -0.3915  0.8059  0.5465
  644MPD2    H3 9539   0.862   0.974   9.476 -1.0738 -1.2992 -1.9109
  644MPD2     N 9540   1.293   1.065   9.311  0.3380  0.3123 -0.2014
  644MPD2    H5 9541   1.377   1.017   9.283  0.6967  0.6180  0.3539
  644MPD2    N1 9542   1.129   0.620   9.409 -0.1262  0.2779  0.2570
  644MPD2    H7 9543   1.058   0.560   9.451 -0.7320 -0.0316 -1.2183
  645TMC3    C1 9544   1.430   1.243   9.254 -0.0107  0.1337  0.8010
  645TMC3    C2 9545   1.423   1.338   9.152 -0.5448  0.0902 -0.4452
  645TMC3    C3 9546   1.542   1.381   9.096 -0.1641  0.4600  0.4427
  645TMC3    C4 9547   1.548   1.195   9.297 -0.3538  0.0445 -0.0761
  645TMC3    C5 9548   1.665   1.234   9.231  0.4419 -0.0304  0.3780
  645TMC3    C6 9549   1.663   1.335   9.136  0.5287 -0.4540 -0.2933
  645TMC3     C 9550   1.298   1.198   9.285 -0.0366 -0.3402  0.6174
  645TMC3     O 9551   1.206   1.274   9.310 -0.3784 -0.3479 -0.3880
  645TMC3     H 9552   1.328   1.374   9.116 -1.5092  1.1311  3.1528
  645TMC3    H1 9553   1.542   1.118   9.373 -2.7125  0.7123  0.4144
  645TMC3    H2 9554   1.756   1.372   9.094  0.1335  1.9738  0.9589
  645TMC3    C7 9555   1.792   1.216   9.302  0.1158 -0.5076  0.0101
  645TMC3    C8 9556   1.531   1.502   9.023  0.0909  1.1275 -0.2813
  645TMC3    O1 9557   1.887   1.289   9.273  0.2632  0.0959  0.3140
  645TMC3    O2 9558   1.419   1.537   8.977  0.2504 -0.1563  0.2673
  646MPD2     C 9559   3.909   0.124  14.496 -0.3451 -0.3276  0.1903
  646MPD2    C1 9560   3.833   0.140  14.613  0.1790  0.1411 -0.3332
  646MPD2    C2 9561   3.733   0.236  14.614 -0.1065  0.2091 -0.3061
  646MPD2    C3 9562   3.706   0.322  14.508 -1.0554  0.5749  1.1765
  646MPD2    C4 9563   3.781   0.302  14.396 -0.0695 -0.8036  0.0497
  646MPD2    C5 9564   3.881   0.210  14.390  0.1058 -0.2709 -0.4655
  646MPD2     H 9565   3.671   0.239  14.703 -0.6398 -2.4155 -0.6053
  646MPD2    H1 9566   3.768   0.363  14.307 -1.4462 -1.7426 -0.3900
  646MPD2    H2 9567   3.987   0.049  14.493 -1.6753 -1.7221  0.3475
  646MPD2    H3 9568   3.929   0.203  14.293 -1.3559 -0.5017 -1.1697
  646MPD2     N 9569   3.599   0.419  14.516 -0.5279 -0.2573 -0.5890
  646MPD2    H5 9570   3.539   0.412  14.598  2.2034 -1.9786  1.2723
  646MPD2    N1 9571   3.871   0.055  14.719 -0.1322  0.5322 -0.3469
  646MPD2    H7 9572   3.942   4.708  14.700  1.1729  1.9272 -0.6323
  647TMC3    C1 9573   3.925   4.700  14.934 -1.0276  0.1979 -0.0648
  647TMC3    C2 9574   3.857   4.669  15.049  0.2755  0.1494 -0.7016
  647TMC3    C3 9575   3.920   4.585  15.140  0.4987  0.4310  0.2367
  647TMC3    C4 9576   4.047   4.644  14.906 -0.2677  0.4208  0.1711
  647TMC3    C5 9577   4.102   4.569  15.000 -0.1362 -0.4260  0.1513
  647TMC3    C6 9578   4.039   4.537  15.116  0.7442  0.4772 -0.2747
  647TMC3     C 9579   3.865   0.090  14.852 -0.6200  0.5331  0.0281
  647TMC3     O 9580   3.797   0.177  14.909 -0.2450  0.2014 -0.4036
  647TMC3     H 9581   3.758   4.714  15.059  0.0535 -0.8623  1.7300
  647TMC3    H1 9582   4.100   4.664  14.814 -1.2679  1.1623 -0.2542
  647TMC3    H2 9583   4.100   4.489  15.191  0.8773 -0.3243 -0.8984
  647TMC3    C7 9584   4.209   4.482  14.968  0.6394  0.2063 -0.3256
  647TMC3    C8 9585   3.846   4.556  15.260 -0.0621  0.5333  0.3422
  647TMC3    O1 9586   4.277   4.446  15.063 -0.1883 -0.2680  0.3502
  647TMC3    O2 9587   3.767   4.646  15.297  0.3689  0.5893  0.4243
  648TMC3    C1 9588   3.265   2.414  16.172  0.1530  0.3057 -0.0471
  648TMC3    C2 9589   3.264   2.306  16.089  0.2199 -0.2368 -0.3257
  648TMC3    C3 9590   3.190   2.314  15.977 -0.7140 -0.2127 -0.2325
  648TMC3    C4 9591   3.177   2.519  16.147  0.2950  0.3034 -0.0365
  648TMC3    C5 9592   3.102   2.517  16.038  0.4520  0.1463  0.2393
  648TMC3    C6 9593   3.103   2.413  15.950  0.2035  0.8155 -0.5690
  648TMC3     C 9594   3.351   2.428  16.290  0.0339 -0.6168  0.3190
  648TMC3     O 9595   3.397   2.536  16.315  0.3803  0.3523 -0.2559
  648TMC3     H 9596   3.335   2.226  16.107 -0.1970 -0.7043 -0.7484
  648TMC3    H1 9597   3.175   2.603  16.215 -3.7684  0.4964 -0.3966
  648TMC3    H2 9598   3.046   2.415  15.858 -0.2852 -2.5068 -0.3292
  648TMC3    C7 9599   3.022   2.628  15.989 -0.4176  0.4897  0.4423
  648TMC3    C8 9600   3.188   2.210  15.874  0.2592 -0.1217 -0.2301
  648TMC3    O1 9601   3.052   2.657  15.872 -0.5026  0.4220  0.3886
  648TMC3    O2 9602   3.079   2.186  15.821  0.3346 -0.0574  0.4816
  649TMC3    C1 9603   1.990   3.723  12.627 -0.6607 -0.0202  0.0281
  649TMC3    C2 9604   2.120   3.728  12.582  0.3927  0.0908  0.3779
  649TMC3    C3 9605   2.208   3.632  12.627 -0.3317 -0.4638  0.0090
  649TMC3    C4 9606   1.970   3.650  12.743 -0.0993 -0.4720 -0.5623
  649TMC3    C5 9607   2.061   3.555  12.790  0.3638  0.5312 -0.3546
  649TMC3    C6 9608   2.185   3.553  12.739  0.6583 -0.1170 -0.2254
  649TMC3     C 9609   1.885   3.778  12.544 -0.3158  0.0645  0.3846
  649TMC3     O 9610   1.782   3.802  12.607  0.1197 -0.0890 -0.0462
  649TMC3     H 9611   2.157   3.809  12.520 -0.3879 -1.5354 -2.2369
  649TMC3    H1 9612   1.866   3.642  12.771 -0.0777 -1.0691 -0.6604
  649TMC3    H2 9613   2.255   3.477  12.773  0.0097 -0.9514 -0.7525
  649TMC3    C7 9614   2.046   3.511  12.930 -0.0401  0.0776  0.0944
  649TMC3    C8 9615   2.333   3.611  12.562 -0.4553  0.2812  0.0142
  649TMC3    O1 9616   1.946   3.556  12.989  0.0489 -0.7130 -0.4612
  649TMC3    O2 9617   2.425   3.563  12.630 -0.8114 -0.3005  0.4801
  650TMC3    C1 9618   4.587   0.635  12.649  0.4764 -0.2135  0.6584
  650TMC3    C2 9619   4.600   0.772  12.655 -0.4375 -0.2881  0.0777
  650TMC3    C3 9620   4.588   0.844  12.532 -0.0357  0.4707 -0.5523
  650TMC3    C4 9621   4.579   0.563  12.533  0.2543 -0.2009 -0.1210
  650TMC3    C5 9622   4.577   0.639  12.418 -0.3265  0.5057 -0.4180
  650TMC3    C6 9623   4.580   0.776  12.417  0.0081 -0.0915 -0.5048
  650TMC3     C 9624   4.584   0.573  12.781 -0.3481 -0.0351 -0.1271
  650TMC3     O 9625   4.588   0.649  12.872 -0.9681  0.3115  0.1811
  650TMC3     H 9626   4.625   0.817  12.750  0.2601 -1.7377  0.5793
  650TMC3    H1 9627   4.579   0.456  12.516 -1.1297 -0.1978 -0.0683
  650TMC3    H2 9628   4.587   0.831  12.323  2.5410  0.0899 -0.2023
  650TMC3    C7 9629   4.500   0.572  12.308  0.1253  0.1502 -0.7844
  650TMC3    C8 9630   4.568   0.985  12.533 -0.6911  0.3997  0.4680
  650TMC3    O1 9631   4.442   0.466  12.327  0.1467 -0.1687  0.0726
  650TMC3    O2 9632   4.593   1.037  12.426  0.4338  0.0520 -0.6124
  651MPD2     C 9633   3.588   2.244  10.430  0.1482  0.3364 -0.5897
  651MPD2    C1 9634   3.593   2.331  10.539 -0.2773  0.6350 -0.5296
  651MPD2    C2 9635   3.713   2.371  10.591  0.1602 -0.2594 -0.0417
  651MPD2    C3 9636   3.832   2.341  10.525  1.0225 -0.1133 -0.5298
  651MPD2    C4 9637   3.828   2.271  10.407  0.1827 -0.4691  0.8138
  651MPD2    C5 9638   3.704   2.221  10.367 -0.9116  0.5336  0.0315
  651MPD2     H 9639   3.723   2.433  10.679 -1.4204  0.1091 -0.1245
  651MPD2    H1 9640   3.919   2.230  10.365 -0.5528 -0.6442 -0.6187
  651MPD2    H2 9641   3.501   2.218  10.370  0.8602  0.1783 -1.5499
  651MPD2    H3 9642   3.699   2.160  10.278  2.6731  2.3801 -1.4316
  651MPD2     N 9643   3.956   2.390  10.582  1.2289 -0.0284 -0.2031
  651MPD2    H5 9644   3.943   2.450  10.663 -0.7577 -0.2147 -0.3995
  651MPD2    N1 9645   3.474   2.373  10.605 -0.6871 -0.5182 -0.1550
  651MPD2    H7 9646   3.481   2.447  10.674 -0.4023  0.8991 -1.7331
  652TMC3    C1 9647   4.396   2.449  10.690 -0.2641  0.0892 -0.3300
  652TMC3    C2 9648   4.308   2.414  10.593 -0.0284  0.6396  0.2766
  652TMC3    C3 9649   4.182   2.406  10.633 -0.2173 -0.0318  0.5895
  652TMC3    C4 9650   4.369   2.481  10.819 -0.1323 -0.4030 -0.1194
  652TMC3    C5 9651   4.240   2.468  10.856 -0.5536  0.9322  0.5549
  652TMC3    C6 9652   4.148   2.421  10.767 -0.1438  0.0394  1.0137
  652TMC3     C 9653   4.541   2.432  10.671  0.7213 -0.5531 -0.2412
  652TMC3     O 9654   4.600   2.367  10.755  0.1366  0.0442  0.4957
  652TMC3     H 9655   4.344   2.402  10.491 -0.0331 -0.7896  0.4553
  652TMC3    H1 9656   4.452   2.501  10.886 -0.5397 -1.9590  0.8539
  652TMC3    H2 9657   4.045   2.416  10.799 -0.6845 -2.0101 -1.0646
  652TMC3    C7 9658   4.189   2.571  10.951 -0.6026 -0.7832 -0.6177
  652TMC3    C8 9659   4.080   2.360  10.538  0.1889 -0.4787  0.8557
  652TMC3    O1 9660   4.069   2.577  10.983  0.4938  0.4139 -0.2125
  652TMC3    O2 9661   4.114   2.326  10.424  0.2374  0.1304 -0.4943
  653MPD2     C 9662   2.307   2.283  17.363  0.1589  0.4242 -0.9586
  653MPD2    C1 9663   2.185   2.340  17.337  0.4979  0.4360  0.3672
  653MPD2    C2 9664   2.081   2.258  17.303  0.3874  0.2147  0.0777
  653MPD2    C3 9665   2.097   2.123  17.289  0.3628  0.7366  0.2717
  653MPD2    C4 9666   2.220   2.067  17.314 -0.0717  0.3242  0.6706
  653MPD2    C5 9667   2.322   2.148  17.351  0.3292  0.2476  0.2243
  653MPD2     H 9668   1.984   2.298  17.275  0.1354  1.8612  3.3192
  653MPD2    H1 9669   2.240   1.961  17.301  1.6548  0.9035 -1.4592
  653MPD2    H2 9670   2.389   2.339  17.406 -1.0180  1.1846  0.2966
  653MPD2    H3 9671   2.422   2.111  17.370  0.0692 -1.2430 -1.3346
  653MPD2     N 9672   1.992   2.042  17.243  0.3365 -0.3286 -0.3220
  653MPD2    H5 9673   1.899   2.081  17.234  0.8237  0.5723 -1.3789
  653MPD2    N1 9674   2.155   2.478  17.358  0.4997 -0.1796 -0.9351
  653MPD2    H7 9675   2.061   2.513  17.342 -0.0471 -0.7225  1.2105
  654TMC3    C1 9676   1.894   1.855  17.137 -0.0826 -0.0376  0.4586
  654TMC3    C2 9677   1.807   1.942  17.077 -0.0902  0.3354 -0.5498
  654TMC3    C3 9678   1.707   1.895  17.004  0.5286  0.1695  0.2982
  654TMC3    C4 9679   1.887   1.720  17.109 -0.1104 -0.1249  0.5443
  654TMC3    C5 9680   1.783   1.679  17.029 -0.2521  0.3162 -0.0482
  654TMC3    C6 9681   1.687   1.764  16.975  0.0021  0.4172  0.8362
  654TMC3     C 9682   1.995   1.905  17.226 -0.1448 -0.1903  0.5301
  654TMC3     O 9683   2.084   1.825  17.255  0.3972  0.2255 -0.5755
  654TMC3     H 9684   1.824   2.049  17.076 -3.2025  0.8217  0.1275
  654TMC3    H1 9685   1.952   1.643  17.149  0.1622  0.0474  0.4314
  654TMC3    H2 9686   1.609   1.729  16.909  0.7367  0.2061  0.0918
  654TMC3    C7 9687   1.743   1.543  17.019  0.8040 -0.3328  0.3324
  654TMC3    C8 9688   1.617   1.991  16.940  0.8998 -0.1954  0.1544
  654TMC3    O1 9689   1.626   1.511  16.999  0.2009  0.3557  0.1485
  654TMC3    O2 9690   1.563   2.076  17.012 -0.1603 -0.1908  0.2386
  655MPD2     C 9691   3.749   2.792  15.706  0.5430 -0.3658  0.0523
  655MPD2    C1 9692   3.616   2.782  15.700 -0.0902  0.1575 -0.5417
  655MPD2    C2 9693   3.553   2.710  15.600 -0.3979  0.3876 -0.1322
  655MPD2    C3 9694   3.635   2.655  15.506 -0.0543 -0.0676  0.1547
  655MPD2    C4 9695   3.772   2.668  15.513 -0.3202  0.0011 -0.6326
  655MPD2    C5 9696   3.833   2.735  15.614 -0.7041 -0.2777 -0.9552
  655MPD2     H 9697   3.447   2.716  15.580 -0.6432  1.4172  1.5149
  655MPD2    H1 9698   3.837   2.624  15.439 -0.8273 -2.4440  0.3557
  655MPD2    H2 9699   3.794   2.856  15.781 -1.4495  0.5510  0.4726
  655MPD2    H3 9700   3.940   2.750  15.606 -0.5108 -1.1852 -0.0375
  655MPD2     N 9701   3.585   2.592  15.390  0.9212 -0.0930  0.4115
  655MPD2    H5 9702   3.650   2.553  15.323 -0.4042  0.3647 -1.1269
  655MPD2    N1 9703   3.534   2.851  15.797 -0.1795 -0.8598 -0.5321
  655MPD2    H7 9704   3.435   2.836  15.778 -0.1291 -0.7645 -0.8743
  656TMC3    C1 9705   3.436   2.972  15.979 -0.3907 -0.2158 -0.5626
  656TMC3    C2 9706   3.386   2.936  16.103 -0.1169  0.4662 -0.7569
  656TMC3    C3 9707   3.264   2.975  16.140  0.0685  0.5596  0.1349
  656TMC3    C4 9708   3.356   3.050  15.900 -0.7176 -0.9088  0.4943
  656TMC3    C5 9709   3.238   3.099  15.947  0.0856  0.8775 -0.0544
  656TMC3    C6 9710   3.187   3.058  16.064 -0.0543  0.0087 -0.5728
  656TMC3     C 9711   3.559   2.902  15.925 -0.0590 -0.6437  1.6438
  656TMC3     O 9712   3.649   2.872  16.004 -0.2393 -0.0278 -0.0852
  656TMC3     H 9713   3.451   2.877  16.167 -0.2280 -0.9474 -1.9621
  656TMC3    H1 9714   3.389   3.077  15.800 -2.3141 -0.3359  0.1216
  656TMC3    H2 9715   3.089   3.088  16.101  0.0970  2.0322 -1.8600
  656TMC3    C7 9716   3.167   3.193  15.855 -0.0642  0.4427  0.1492
  656TMC3    C8 9717   3.217   2.929  16.265 -0.1481  0.0649 -0.0439
  656TMC3    O1 9718   3.195   3.196  15.736 -0.1082 -0.1945  0.2910
  656TMC3    O2 9719   3.278   2.828  16.304  0.1019  0.2729 -0.2661
  657TMC3    C1 9720   2.815   2.020  14.493  0.3736  0.3413  0.0796
  657TMC3    C2 9721   2.822   2.103  14.599  0.3624  0.1272 -0.2904
  657TMC3    C3 9722   2.735   2.215  14.606  0.3344  0.1673  0.0064
  657TMC3    C4 9723   2.712   2.026  14.406  0.1103 -1.5166 -0.0592
  657TMC3    C5 9724   2.626   2.129  14.415 -0.1026  0.4103  0.0460
  657TMC3    C6 9725   2.634   2.225  14.516 -0.9360 -0.2778 -0.7728
  657TMC3     C 9726   2.917   1.921  14.466 -0.9282  0.9659  0.0912
  657TMC3     O 9727   2.899   1.835  14.377  0.0735 -0.2051  0.2041
  657TMC3     H 9728   2.903   2.108  14.671  1.2436 -1.0786 -1.2135
  657TMC3    H1 9729   2.684   1.941  14.344 -0.9645 -0.2080 -1.3855
  657TMC3    H2 9730   2.576   2.316  14.516  1.1527  1.0473  0.4184
  657TMC3    C7 9731   2.519   2.154  14.320  0.0541  0.2661  0.6203
  657TMC3    C8 9732   2.772   2.323  14.696  0.2844 -0.0157 -0.0886
  657TMC3    O1 9733   2.426   2.222  14.365  0.5629 -0.5089  0.8704
  657TMC3    O2 9734   2.890   2.347  14.707  0.1905 -0.9306 -0.7029
  658MPD2     C 9735   3.977   2.385  14.935  0.3747  0.6396 -0.3246
  658MPD2    C1 9736   3.844   2.381  14.899  0.9330 -0.4724 -0.3944
  658MPD2    C2 9737   3.812   2.411  14.767  0.5540  0.6124 -0.0488
  658MPD2    C3 9738   3.903   2.432  14.670 -0.3527  0.3111  0.3020
  658MPD2    C4 9739   4.036   2.423  14.706 -0.2735  0.4561 -0.3964
  658MPD2    C5 9740   4.070   2.406  14.836 -0.5984  0.1332  0.6295
  658MPD2     H 9741   3.706   2.415  14.743  0.9195  1.5109 -1.4578
  658MPD2    H1 9742   4.108   2.427  14.626  0.3195 -0.7084  0.0670
  658MPD2    H2 9743   4.010   2.350  15.032 -2.6728 -3.3411 -0.7281
  658MPD2    H3 9744   4.177   2.406  14.855 -0.9513 -0.6165  2.5777
  658MPD2     N 9745   3.855   2.455  14.538 -0.8334  0.0863  0.3793
  658MPD2    H5 9746   3.756   2.438  14.524 -0.9567  1.1221  0.0036
  658MPD2    N1 9747   3.748   2.361  15.002  0.5666  0.3112 -0.0529
  658MPD2    H7 9748   3.778   2.372  15.098 -2.1379  0.7587  0.7398
  659TMC3    C1 9749   3.519   2.332  15.086  0.3055  0.4376 -0.0511
  659TMC3    C2 9750   3.544   2.428  15.181 -0.1549  0.4646 -0.1898
  659TMC3    C3 9751   3.433   2.491  15.237 -0.3991 -0.0989  0.4427
  659TMC3    C4 9752   3.389   2.288  15.054  0.2857 -0.1263 -1.0284
  659TMC3    C5 9753   3.285   2.342  15.132  0.6342 -0.4255  0.5811
  659TMC3    C6 9754   3.306   2.444  15.220  0.2906  0.6210 -0.1588
  659TMC3     C 9755   3.623   2.314  14.979 -0.2533  1.1167 -0.6804
  659TMC3     O 9756   3.577   2.272  14.872  0.3195 -0.1145  0.2347
  659TMC3     H 9757   3.642   2.468  15.202 -0.2112  2.1042 -3.0346
  659TMC3    H1 9758   3.380   2.223  14.968  0.1144  0.2096 -1.2621
  659TMC3    H2 9759   3.231   2.488  15.284 -0.5910  0.2330 -0.9248
  659TMC3    C7 9760   3.151   2.313  15.078 -0.3828 -0.3255 -0.2489
  659TMC3    C8 9761   3.455   2.559  15.368  0.4809  0.2897 -0.3468
  659TMC3    O1 9762   3.076   2.407  15.088 -0.3189  0.3959 -0.3658
  659TMC3    O2 9763   3.354   2.598  15.431  0.3837  0.3650  0.3534
  660MPD2     C 9764   2.062   0.990  12.638 -0.2055 -0.1094  0.5313
  660MPD2    C1 9765   1.941   1.052  12.602  0.7203 -0.9548  0.1676
  660MPD2    C2 9766   1.830   1.025  12.684 -0.5317 -0.3066 -0.4893
  660MPD2    C3 9767   1.841   0.951  12.805  0.4200 -0.0126  0.1052
  660MPD2    C4 9768   1.962   0.897  12.835 -0.7280  0.0960  0.1796
  660MPD2    C5 9769   2.067   0.902  12.745  0.1058  0.4452 -0.1993
  660MPD2     H 9770   1.739   1.082  12.672  0.1755  1.0126  0.4571
  660MPD2    H1 9771   1.973   0.835  12.924 -0.1074  0.4156  0.3272
  660MPD2    H2 9772   2.152   1.013  12.581  1.1850 -4.2592  1.0549
  660MPD2    H3 9773   2.160   0.853  12.769  0.3698  1.3609  0.6554
  660MPD2     N 9774   1.731   0.936  12.893 -0.0711 -0.4248 -0.2422
  660MPD2    H5 9775   1.761   0.878  12.970  0.4738  0.3574  0.1425
  660MPD2    N1 9776   1.933   1.140  12.490 -0.6188  0.1509 -0.4753
  660MPD2    H7 9777   2.017   1.126  12.435 -0.2522  0.4663  0.0005
  661TMC3    C1 9778   1.835   1.300  12.338 -0.2705 -0.7417  0.2895
  661TMC3    C2 9779   1.890   1.236  12.228  0.1205 -0.0706 -0.0741
  661TMC3    C3 9780   1.830   1.261  12.111  0.0940 -0.0817  0.1115
  661TMC3    C4 9781   1.729   1.383  12.327 -0.5638 -0.2194 -0.2760
  661TMC3    C5 9782   1.660   1.392  12.209 -0.0539 -0.4125  0.1572
  661TMC3    C6 9783   1.706   1.327  12.099  0.2753  0.3193 -0.0832
  661TMC3     C 9784   1.826   1.224  12.463  0.5988  0.1773 -0.8356
  661TMC3     O 9785   1.725   1.246  12.528 -0.8050 -0.1816 -0.5672
  661TMC3     H 9786   1.965   1.158  12.230  0.8889  0.6532 -0.7074
  661TMC3    H1 9787   1.687   1.440  12.408  0.6723 -1.7719  1.4650
  661TMC3    H2 9788   1.657   1.338  12.003 -0.8338  0.1967  0.4600
  661TMC3    C7 9789   1.529   1.459  12.224 -0.2145  0.5565 -0.0581
  661TMC3    C8 9790   1.902   1.217  11.997 -0.0004 -0.4927  0.7586
  661TMC3    O1 9791   1.481   1.481  12.334  0.2648 -0.7077  0.3593
  661TMC3    O2 9792   2.023   1.210  12.011 -0.1022 -0.5819 -0.3574
  662MPD2     C 9793   1.649   0.750  17.116  0.6385 -0.4692  1.0324
  662MPD2    C1 9794   1.578   0.834  17.205 -0.2322  0.6278 -0.6626
  662MPD2    C2 9795   1.477   0.927  17.156 -0.8089 -0.0784 -0.3906
  662MPD2    C3 9796   1.447   0.916  17.017 -0.0126  0.1761  0.1971
  662MPD2    C4 9797   1.505   0.824  16.935  0.5250 -0.2126 -0.0991
  662MPD2    C5 9798   1.613   0.749  16.981  0.2444 -0.9479  0.3705
  662MPD2     H 9799   1.419   0.994  17.218  0.5361  1.2861 -0.6086
  662MPD2    H1 9800   1.481   0.817  16.830  1.6104 -0.4065 -0.3289
  662MPD2    H2 9801   1.727   0.685  17.154  1.2275 -0.2589  0.1874
  662MPD2    H3 9802   1.666   0.690  16.908  0.6479 -0.5170  0.3166
  662MPD2     N 9803   1.358   1.004  16.967  0.0574  0.0367  0.0444
  662MPD2    H5 9804   1.307   1.057  17.036  1.9089  0.0574  1.3842
  662MPD2    N1 9805   1.616   0.840  17.341  0.2096  0.2601  0.2262
  662MPD2    H7 9806   1.589   0.921  17.396  1.1935  0.6615  0.1144
  663TMC3    C1 9807   1.698   0.760  17.547 -0.3967  0.3505  0.1381
  663TMC3    C2 9808   1.689   0.889  17.603  0.0154  0.0553  0.0313
  663TMC3    C3 9809   1.680   0.899   0.044 -0.3951 -0.2571  0.2421
  663TMC3    C4 9810   1.644   0.653  17.613  0.2743  0.6579  0.7942
  663TMC3    C5 9811   1.601   0.677   0.048  0.2060 -0.3421  0.4156
  663TMC3    C6 9812   1.622   0.796   0.115  0.3370 -0.8452 -0.9918
  663TMC3     C 9813   1.690   0.740  17.404  0.5633 -0.0500 -0.1157
  663TMC3     O 9814   1.726   0.631  17.368 -0.5788 -0.9195 -0.0542
  663TMC3     H 9815   1.748   0.966  17.555  0.2645 -1.0797 -1.4860
  663TMC3    H1 9816   1.602   0.569  17.560 -0.2884 -0.1612  2.5437
  663TMC3    H2 9817   1.614   0.796   0.223  3.1749 -0.9968 -0.7831
  663TMC3    C7 9818   1.499   0.587   0.110  0.5935 -0.1130 -0.1795
  663TMC3    C8 9819   1.642   1.035   0.091  0.0691 -0.0246  0.0723
  663TMC3    O1 9820   1.432   0.648   0.194 -0.4181 -0.1010  0.0836
  663TMC3    O2 9821   1.665   1.136   0.026 -0.5751 -0.3081  0.3138
  664MPD2     C 9822   4.332   3.815   0.031  0.5602 -0.0242  0.2942
  664MPD2    C1 9823   4.455   3.876   0.002 -0.7353 -0.0930  0.1113
  664MPD2    C2 9824   4.541   3.913   0.105  0.1740 -0.2340 -0.0355
  664MPD2    C3 9825   4.490   3.923   0.234 -0.0724 -0.2443 -1.1160
  664MPD2    C4 9826   4.367   3.864   0.256 -0.3662 -0.1458 -0.3981
  664MPD2    C5 9827   4.290   3.801   0.159 -0.0303 -0.4253  0.2917
  664MPD2     H 9828   4.636   3.956   0.078 -1.1893  1.5708 -1.9794
  664MPD2    H1 9829   4.324   3.862   0.356  2.2635 -5.4511  0.5911
  664MPD2    H2 9830   4.271   3.772  17.647  1.2342 -1.2657  0.4562
  664MPD2    H3 9831   4.190   3.765   0.182 -0.9305  0.5400 -2.1541
  664MPD2     N 9832   4.575   3.985   0.337  0.0216 -0.3605  0.6306
  664MPD2    H5 9833   4.665   4.017   0.303 -0.3432 -0.9766 -0.9027
  664MPD2    N1 9834   4.513   3.877  17.567  0.7200 -0.7911  0.0626
  664MPD2    H7 9835   4.611   3.903  17.557  0.7534 -0.2722  1.7469
  665TMC3    C1 9836   4.665   4.038   0.553  0.0972  0.2794  0.4239
  665TMC3    C2 9837   4.687   3.978   0.675 -0.4644 -0.3128  0.9638
  665TMC3    C3 9838   0.070   4.015   0.743 -0.4000 -0.2174 -0.2712
  665TMC3    C4 9839   0.037   4.119   0.499  0.8145  0.1918  0.2656
  665TMC3    C5 9840   0.135   4.160   0.581 -0.4642  0.0768  0.3644
  665TMC3    C6 9841   0.154   4.118   0.705 -0.2127 -0.0306 -0.1938
  665TMC3     C 9842   4.554   3.979   0.471 -0.4446 -0.4884  0.9024
  665TMC3     O 9843   4.460   3.923   0.529 -0.0608 -0.1311 -0.7823
  665TMC3     H 9844   4.612   3.915   0.722 -2.1345  0.1504 -1.0695
  665TMC3    H1 9845   0.028   4.161   0.400  0.0420  0.1985  0.3370
  665TMC3    H2 9846   0.241   4.153   0.758 -0.4660 -0.5884  0.6047
  665TMC3    C7 9847   0.169   4.296   0.551  0.6994  0.9228  0.2603
  665TMC3    C8 9848   0.065   3.986   0.885 -0.5773  0.4106 -0.1084
  665TMC3    O1 9849   0.180   4.338   0.434 -0.4884  0.2208  0.0154
  665TMC3    O2 9850   4.685   3.993   0.948 -0.0467  0.4586 -0.1630
  666TMC3    C1 9851   0.037   3.735  10.294 -0.1989  0.2622 -0.5815
  666TMC3    C2 9852   0.033   3.680  10.419 -0.1472 -0.0241 -0.2707
  666TMC3    C3 9853   0.066   3.770  10.522  0.1268 -1.0879 -0.7065
  666TMC3    C4 9854   0.055   3.868  10.262 -0.1653 -0.6083 -0.2252
  666TMC3    C5 9855   0.076   3.950  10.366 -0.7590  0.3556 -0.3534
  666TMC3    C6 9856   0.072   3.903  10.494 -0.4209 -0.1204  0.1031
  666TMC3     C 9857   4.692   3.666  10.190 -0.6277  0.0699 -0.5898
  666TMC3     O 9858   4.668   3.721  10.084 -0.6354  0.2816  0.0940
  666TMC3     H 9859   0.025   3.574  10.442 -1.3179  0.2886  0.8027
  666TMC3    H1 9860   0.071   3.893  10.157  0.1422 -1.4026 -0.3684
  666TMC3    H2 9861   0.054   3.974  10.573 -1.3742  1.7995 -1.8236
  666TMC3    C7 9862   0.046   4.093  10.347 -0.3332 -0.1224  0.4086
  666TMC3    C8 9863   0.109   3.720  10.654 -0.5074  0.3799 -0.6856
  666TMC3    O1 9864   4.672   4.138  10.407 -0.5239  0.0816 -0.1095
  666TMC3    O2 9865   0.108   3.600  10.662  0.3753  0.4028 -0.5229
  667MPD2     C 9866   1.260   3.920  14.532 -0.3844 -0.0963 -0.0208
  667MPD2    C1 9867   1.157   3.973  14.611  0.1396  1.3112 -0.5103
  667MPD2    C2 9868   1.038   3.902  14.621 -0.0295  0.2244  0.2385
  667MPD2    C3 9869   1.015   3.786  14.547  0.0017 -0.0023  0.9265
  667MPD2    C4 9870   1.114   3.734  14.464  0.0955  0.2139  0.0885
  667MPD2    C5 9871   1.227   3.807  14.454 -0.4559 -0.4563 -0.2233
  667MPD2     H 9872   0.960   3.941  14.685 -0.2574 -1.0538  0.7343
  667MPD2    H1 9873   1.105   3.643  14.407  1.9803  0.2028 -0.1859
  667MPD2    H2 9874   1.358   3.966  14.529 -0.0429 -0.8705 -0.8649
  667MPD2    H3 9875   1.292   3.778  14.372 -1.7438 -1.3737 -0.9167
  667MPD2     N 9876   0.903   3.709  14.551 -0.3598 -0.2223 -0.5024
  667MPD2    H5 9877   0.913   3.630  14.489 -0.0251  1.7720 -3.0087
  667MPD2    N1 9878   1.169   4.092  14.687 -0.1516 -0.1622  0.0763
  667MPD2    H7 9879   1.093   4.110  14.752 -0.1320 -0.5761  0.2167
  668TMC3    C1 9880   1.240   4.309  14.762 -0.1917  0.1715 -0.2244
  668TMC3    C2 9881   1.279   4.438  14.717  0.0934  0.7780 -0.0343
  668TMC3    C3 9882   1.255   4.545  14.801 -0.4419  0.3024  0.2811
  668TMC3    C4 9883   1.190   4.284  14.882  0.4222 -0.1580 -0.4089
  668TMC3    C5 9884   1.149   4.394  14.951 -0.3842  0.6379  0.0428
  668TMC3    C6 9885   1.179   4.523  14.912  0.2862  0.3865 -0.0762
  668TMC3     C 9886   1.262   4.193  14.670  0.0095  0.6503 -0.2366
  668TMC3     O 9887   1.356   4.199  14.590 -0.4823 -0.6666 -0.1194
  668TMC3     H 9888   1.322   4.439  14.617 -1.6372  0.8140 -0.7854
  668TMC3    H1 9889   1.178   4.182  14.918 -1.4843  0.3395  0.3694
  668TMC3    H2 9890   1.154   4.603  14.981 -1.7635 -1.3277  1.1524
  668TMC3    C7 9891   1.094   4.371  15.081 -0.3550  0.3833 -0.3983
  668TMC3    C8 9892   1.243   4.677  14.749 -0.1082 -0.4457 -0.7406
  668TMC3    O1 9893   1.148   4.446  15.161  0.0218  0.5885  0.2250
  668TMC3    O2 9894   1.156   0.026  14.799 -0.1533  0.4656 -0.0605
  669TMC3    C1 9895   3.723   4.331  14.956  0.1614  0.1553 -0.5235
  669TMC3    C2 9896   3.592   4.356  14.909  0.4165 -0.6747  0.0190
  669TMC3    C3 9897   3.575   4.406  14.779 -0.8201 -0.4369  0.0009
  669TMC3    C4 9898   3.827   4.350  14.870  0.1615  0.5180 -0.1988
  669TMC3    C5 9899   3.812   4.408  14.747 -0.2162  0.1370  1.1612
  669TMC3    C6 9900   3.682   4.427  14.697 -0.2146  0.7486  0.5745
  669TMC3     C 9901   3.732   4.229  15.055  0.3522  0.2516  0.0842
  669TMC3     O 9902   3.639   4.214  15.134  0.1232 -0.1115 -0.0354
  669TMC3     H 9903   3.511   4.343  14.981 -0.6675  1.2450 -0.8537
  669TMC3    H1 9904   3.929   4.341  14.908  0.9322  4.4329 -1.3115
  669TMC3    H2 9905   3.664   4.481  14.604 -1.2852  1.7312  1.3631
  669TMC3    C7 9906   3.917   4.414  14.646 -0.0460 -0.0562 -0.3087
  669TMC3    C8 9907   3.444   4.388  14.715  0.1042  0.4198 -0.6063
  669TMC3    O1 9908   4.001   4.502  14.661 -0.3500  0.0499  0.1129
  669TMC3    O2 9909   3.444   4.371  14.596  0.2149  0.2444  0.1856
  670MPD2     C 9910   1.760   2.240  13.115 -0.5882  1.1121  0.4161
  670MPD2    C1 9911   1.885   2.183  13.157 -0.3497 -0.0149  0.4484
  670MPD2    C2 9912   1.895   2.115  13.280  0.2789 -0.6290 -0.1861
  670MPD2    C3 9913   1.788   2.110  13.365  0.0371 -0.1358  0.1508
  670MPD2    C4 9914   1.669   2.178  13.332 -0.0796  0.5511  0.9387
  670MPD2    C5 9915   1.663   2.228  13.208 -0.1139 -0.1023 -0.4615
  670MPD2     H 9916   1.990   2.067  13.301 -0.3323 -2.1370 -0.8991
  670MPD2    H1 9917   1.585   2.179  13.400 -0.5939 -1.5366  0.3546
  670MPD2    H2 9918   1.741   2.298  13.025  2.0820  3.3486  1.3288
  670MPD2    H3 9919   1.568   2.276  13.188  0.5949 -0.5776 -4.8007
  670MPD2     N 9920   1.802   2.040  13.490 -0.1740  0.0525 -0.4392
  670MPD2    H5 9921   1.894   2.016  13.524 -1.4008 -1.7959  1.6015
  670MPD2    N1 9922   2.002   2.190  13.083  0.2620 -0.2695  0.5211
  670MPD2    H7 9923   2.086   2.141  13.113  2.0610  2.4410 -0.1414
  671TMC3    C1 9924   1.758   1.950  13.692  0.3528 -0.2298 -0.4883
  671TMC3    C2 9925   1.870   2.008  13.754  0.4435 -0.3721  0.2909
  671TMC3    C3 9926   1.892   1.962  13.883  0.2196  0.0286  0.6382
  671TMC3    C4 9927   1.661   1.880  13.755 -0.4832  0.0789  0.2489
  671TMC3    C5 9928   1.682   1.840  13.882  0.1950 -0.5231  0.6237
  671TMC3    C6 9929   1.795   1.886  13.940 -0.3783  0.0074 -0.2649
  671TMC3     C 9930   1.702   2.024  13.581 -0.2110  0.4612  0.1559
  671TMC3     O 9931   1.584   2.052  13.575 -0.0007  0.2685  0.2645
  671TMC3     H 9932   1.959   2.049  13.709  0.6968  0.9188  1.9837
  671TMC3    H1 9933   1.574   1.850  13.697  0.2726 -0.4461 -0.6022
  671TMC3    H2 9934   1.816   1.860  14.043 -1.0749  0.3106 -0.0440
  671TMC3    C7 9935   1.655   1.707  13.897 -0.8738 -0.2990  0.9780
  671TMC3    C8 9936   2.019   1.884  13.892  0.0623 -0.3691  0.1908
  671TMC3    O1 9937   1.585   1.658  13.810  0.3441 -0.8780  0.1539
  671TMC3    O2 9938   2.047   1.805  13.804 -0.4195 -0.9239 -0.1181
  672MPD2     C 9939   1.714   1.882   0.619  0.5358  0.1349  0.0842
  672MPD2    C1 9940   1.819   1.916   0.538  0.4728  0.2766 -0.1149
  672MPD2    C2 9941   1.890   2.027   0.576  0.7932 -0.2159 -0.3981
  672MPD2    C3 9942   1.865   2.096   0.690 -0.6158 -0.2294  0.9556
  672MPD2    C4 9943   1.753   2.066   0.759 -0.3540  0.0501 -0.4397
  672MPD2    C5 9944   1.677   1.960   0.726 -0.4726 -0.3001 -0.1185
  672MPD2     H 9945   1.972   2.080   0.529 -0.4597  0.5707 -1.6846
  672MPD2    H1 9946   1.725   2.121   0.848  2.3805 -0.0802  0.4898
  672MPD2    H2 9947   1.655   1.792   0.603  0.4416  0.2995 -0.4964
  672MPD2    H3 9948   1.593   1.930   0.787  0.0687  0.5436  1.0271
  672MPD2     N 9949   1.947   2.192   0.744  0.0384 -0.3903 -0.7541
  672MPD2    H5 9950   1.909   2.244   0.822 -0.4790 -0.1001 -1.2001
  672MPD2    N1 9951   1.856   1.842   0.424 -0.2630  0.3263  0.0664
  672MPD2    H7 9952   1.925   1.883   0.362 -0.2066  2.2061  1.3471
  673TMC3    C1 9953   1.896   1.648   0.297  0.8312  0.8846 -0.8649
  673TMC3    C2 9954   1.969   1.535   0.309  0.0638 -0.0816 -0.2723
  673TMC3    C3 9955   2.047   1.500   0.203 -0.2959 -0.4137 -0.0326
  673TMC3    C4 9956   1.884   1.723   0.184  0.4257  0.2612  0.0814
  673TMC3    C5 9957   1.970   1.688   0.086 -0.1703 -0.0788 -0.5183
  673TMC3    C6 9958   2.048   1.577   0.093 -0.0709  0.0371 -0.4077
  673TMC3     C 9959   1.828   1.705   0.410  0.6143  0.5026 -0.3346
  673TMC3     O 9960   1.771   1.627   0.485  0.3250  0.0278 -0.2304
  673TMC3     H 9961   1.947   1.463   0.387 -0.6740 -0.5338 -0.9001
  673TMC3    H1 9962   1.815   1.806   0.178 -1.5390 -1.3443  0.2565
  673TMC3    H2 9963   2.132   1.550   0.029 -0.2570  2.7873 -1.7774
  673TMC3    C7 9964   2.045   1.795   0.029  0.3167  0.3258  0.0053
  673TMC3    C8 9965   2.150   1.401   0.223  0.3448  0.3679  0.0427
  673TMC3    O1 9966   2.156   1.775  17.683 -0.0896  0.0226  0.1248
  673TMC3    O2 9967   2.186   1.347   0.121  0.6324 -0.9744 -0.5037
  674MPD2     C 9968   2.079   1.429  17.401 -0.2975  0.6734  0.1419
  674MPD2    C1 9969   2.030   1.305  17.442  0.0005 -0.0271  0.1408
  674MPD2    C2 9970   1.910   1.296  17.520 -0.0332 -0.5640 -0.2242
  674MPD2    C3 9971   1.839   1.414  17.546  0.0179 -0.1855  0.6661
  674MPD2    C4 9972   1.889   1.529  17.496 -0.1771  0.6454 -0.3342
  674MPD2    C5 9973   2.015   1.541  17.431  0.2370 -0.1671  0.1343
  674MPD2     H 9974   1.862   1.204  17.552 -2.1068  0.5856 -0.0140
  674MPD2    H1 9975   1.836   1.623  17.510 -1.2297 -0.1664  1.0144
  674MPD2    H2 9976   2.173   1.432  17.347 -1.1110  1.2795 -1.2192
  674MPD2    H3 9977   2.038   1.640  17.392  0.6109 -0.1357  0.4370
  674MPD2     N 9978   1.719   1.408  17.615 -0.4678  0.6057 -0.2800
  674MPD2    H5 9979   1.688   1.317  17.648 -0.6022  0.0945 -1.8040
  674MPD2    N1 9980   2.119   1.199  17.425 -0.0581 -0.1888  0.0555
  674MPD2    H7 9981   2.215   1.215  17.395  0.0829  0.9578  1.1117
  675TMC3    C1 9982   2.183   0.967  17.472  0.6252 -0.2966 -0.1219
  675TMC3    C2 9983   2.122   0.858  17.526  0.0712 -0.4581 -0.1171
  675TMC3    C3 9984   2.167   0.829  17.654  0.1835  0.2677  0.0461
  675TMC3    C4 9985   2.294   1.022  17.518 -0.3799 -0.1313  0.2023
  675TMC3    C5 9986   2.338   0.986  17.644  0.6711  0.6382 -0.0097
  675TMC3    C6 9987   2.264   0.900   0.021 -0.6497  0.1790 -0.4309
  675TMC3     C 9988   2.074   1.067  17.439  0.1222 -0.3092 -0.1639
  675TMC3     O 9989   1.959   1.019  17.434  0.0222 -0.1653  0.1440
  675TMC3     H 9990   2.033   0.808  17.491 -1.4403  0.8860  1.8602
  675TMC3    H1 9991   2.354   1.090  17.458 -2.2428  1.9854  0.7444
  675TMC3    H2 9992   2.284   0.872   0.124  1.6793  0.1548 -0.8967
  675TMC3    C7 9993   2.468   1.036  17.678  0.7343 -1.0801 -0.3811
  675TMC3    C8 9994   2.061   0.768   0.048  0.4610 -0.1913  0.1644
  675TMC3    O1 9995   2.498   1.143  17.629 -0.2676 -0.0915  0.4591
  675TMC3    O2 9996   2.000   0.670   0.006  0.2810 -0.0850  0.7271
  676MPD2     C 9997   0.421   0.284  10.854  0.5949  0.2936  0.0169
  676MPD2    C1 9998   0.307   0.275  10.925  0.8212 -0.0693  0.2688
  676MPD2    C2 9999   0.229   0.158  10.932 -0.2390 -0.3729  0.2943
  676MPD2    C310000   0.275   0.046  10.870  0.4968 -0.0182  0.6989
  676MPD2    C410001   0.399   0.056  10.805  0.6537  0.1696 -0.0773
  676MPD2    C510002   0.465   0.172  10.802  0.2608  0.3829 -0.4716
  676MPD2     H10003   0.138   0.160  10.990 -0.2709  1.9994  0.1788
  676MPD2    H110004   0.448   4.694  10.759 -2.3045 -1.6251  0.1093
  676MPD2    H210005   0.483   0.372  10.867 -2.9100  2.7654 -0.2056
  676MPD2    H310006   0.565   0.177  10.761  0.9593  0.3722  1.2122
  676MPD2     N10007   0.207   4.644  10.865 -0.1960  0.0275  0.1416
  676MPD2    H510008   0.250   4.568  10.813  0.6149  0.0036  0.8431
  676MPD2    N110009   0.264   0.387  10.996 -0.6930  0.4747 -0.0370
  676MPD2    H710010   0.179   0.378  11.051 -1.2602  0.3609 -0.9339
  677TMC3    C110011   0.217   0.590  11.081  0.1013 -0.1211 -0.3226
  677TMC3    C210012   0.084   0.550  11.081 -0.3028  0.0398  0.3546
  677TMC3    C310013   4.721   0.631  11.142  0.6356  0.5017 -0.4258
  677TMC3    C410014   0.263   0.684  11.161  0.5718  0.1506  0.3643
  677TMC3    C510015   0.175   0.752  11.240 -0.0712  0.6093 -0.1359
  677TMC3    C610016   0.039   0.733  11.221  0.1613 -0.0406  0.0354
  677TMC3     C10017   0.314   0.510  11.010 -0.0309  0.1862 -0.3626
  677TMC3     O10018   0.432   0.543  10.998 -0.2959  0.3818  0.2643
  677TMC3     H10019   0.048   0.469  11.018  0.8725 -0.6079  0.4998
  677TMC3    H110020   0.371   0.689  11.167  0.6829 -1.0528 -0.4342
  677TMC3    H210021   4.697   0.798  11.278 -0.7504 -1.1319  0.2495
  677TMC3    C710022   0.208   0.877  11.292 -0.0429  0.1329 -0.9018
  677TMC3    C810023   4.583   0.609  11.128 -0.5489 -0.3692  0.2765
  677TMC3    O110024   0.136   0.926  11.376  0.5250  0.1549  0.1199
  677TMC3    O210025   4.550   0.620  11.011  0.1936 -0.1011 -0.4932
  678MPD2     C10026   0.659   0.604   1.947  0.2637  0.0694 -0.8040
  678MPD2    C110027   0.690   0.593   1.814 -0.3678 -0.0405  0.4690
  678MPD2    C210028   0.580   0.577   1.732 -0.4981  0.3810 -0.3231
  678MPD2    C310029   0.455   0.562   1.771 -0.3984  0.0447  0.2821
  678MPD2    C410030   0.430   0.580   1.901  0.2631 -0.3039  0.0335
  678MPD2    C510031   0.526   0.606   1.992  0.0884 -0.7141  0.5520
  678MPD2     H10032   0.607   0.560   1.628 -1.6263 -0.7396 -0.4429
  678MPD2    H110033   0.337   0.572   1.956  1.1833 -0.6953  1.5293
  678MPD2    H210034   0.737   0.619   2.022  0.9361 -1.7201 -1.1402
  678MPD2    H310035   0.513   0.622   2.099  1.6249  1.0267  0.4801
  678MPD2     N10036   0.349   0.543   1.685  0.2458 -0.6731 -0.6677
  678MPD2    H510037   0.371   0.532   1.586  0.6984 -0.2030 -0.6185
  678MPD2    N110038   0.824   0.580   1.760 -0.2895 -0.4014 -0.0198
  678MPD2    H710039   0.831   0.575   1.659 -0.5662  0.5424 -0.0905
  679TMC3    C110040   1.263   0.447   1.757 -0.0285 -0.0735  1.1596
  679TMC3    C210041   1.142   0.448   1.816 -0.3400  0.0811  0.4107
  679TMC3    C310042   1.047   0.525   1.757 -0.3132 -0.4728  0.1799
  679TMC3    C410043   1.292   0.514   1.641  0.3921 -0.4721  0.7594
  679TMC3    C510044   1.196   0.593   1.588  0.7405 -0.0165 -0.2799
  679TMC3    C610045   1.076   0.595   1.640 -0.3404 -1.0172  0.4954
  679TMC3     C10046   1.330   0.316   1.766  0.7473 -0.2603  0.3505
  679TMC3     O10047   1.263   0.224   1.809 -0.2350  0.2868  0.4635
  679TMC3     H10048   1.137   0.408   1.917  1.0001  0.5458  0.6675
  679TMC3    H110049   1.376   0.481   1.581  0.6626  0.4998  0.6160
  679TMC3    H210050   1.011   0.678   1.617 -1.3054 -1.9233 -0.0115
  679TMC3    C710051   1.229   0.673   1.475 -0.2473 -0.5134 -0.4443
  679TMC3    C810052   0.938   0.566   1.839 -0.7299 -0.3654  0.3414
  679TMC3    O110053   1.133   0.737   1.429  0.3606 -0.1137  0.4913
  679TMC3    O210054   0.954   0.552   1.960 -0.6142  0.5249  0.3116
  680MPD2     C10055   1.875   3.946  13.652  1.0820 -0.5625  0.3552
  680MPD2    C110056   1.882   3.879  13.765  0.0721  0.0502 -0.5478
  680MPD2    C210057   1.870   3.949  13.885  0.8931  0.4487 -0.0314
  680MPD2    C310058   1.846   4.084  13.877 -0.3200  0.3062  1.1954
  680MPD2    C410059   1.835   4.146  13.757 -0.2299  0.4409  0.6787
  680MPD2    C510060   1.851   4.079  13.650  0.1498 -0.6205 -0.2495
  680MPD2     H10061   1.872   3.908  13.986  1.0539  0.3377 -0.0786
  680MPD2    H110062   1.819   4.253  13.758 -1.1338  0.3107 -0.6434
  680MPD2    H210063   1.889   3.902  13.554  0.5901  1.0196 -0.4478
  680MPD2    H310064   1.855   4.123  13.551 -1.2889  3.0630  1.3696
  680MPD2     N10065   1.861   4.165  13.990  0.1650  0.2361 -0.4479
  680MPD2    H510066   1.898   4.258  13.974 -0.5770  0.5755 -0.1642
  680MPD2    N110067   1.907   3.746  13.752  0.1381 -0.5125 -0.1864
  680MPD2    H710068   1.906   3.700  13.662 -1.0135  1.1065 -0.9860
  681TMC3    C110069   1.963   3.527  13.823 -0.1670 -0.2413 -0.0880
  681TMC3    C210070   1.981   3.447  13.933 -0.0614 -0.1270  0.0150
  681TMC3    C310071   1.996   3.313  13.909  0.1048  0.2812 -0.4024
  681TMC3    C410072   1.979   3.478  13.696  0.1827  0.4926 -0.0479
  681TMC3    C510073   1.989   3.347  13.685  0.1241  0.0861 -0.1731
  681TMC3    C610074   1.992   3.262  13.789  0.8110 -0.3794  0.1283
  681TMC3     C10075   1.920   3.660  13.855 -0.4720 -0.9638  0.2597
  681TMC3     O10076   1.927   3.696  13.970 -0.4705 -0.1063 -0.1103
  681TMC3     H10077   2.010   3.485  14.030 -1.3475 -0.3911  0.5020
  681TMC3    H110078   2.002   3.550  13.618 -0.1125  1.5751  0.8634
  681TMC3    H210079   2.003   3.156  13.769 -0.1801 -0.6174  0.8379
  681TMC3    C710080   2.024   3.288  13.559 -0.1997 -0.5259 -0.2341
  681TMC3    C810081   2.042   3.232  14.019  0.8465 -0.2174  0.2805
  681TMC3    O110082   2.071   3.172  13.546  0.1152  0.0722 -0.9884
  681TMC3    O210083   2.000   3.119  14.012  0.2479  0.1145 -0.7808
  682MPD2     C10084   4.216   0.543   9.950 -0.3932 -0.5445  0.4245
  682MPD2    C110085   4.178   0.418   9.999 -0.2866 -0.1724 -0.5387
  682MPD2    C210086   4.062   0.412  10.071  0.0621  0.3852 -0.1222
  682MPD2    C310087   3.980   0.521  10.103  0.3601 -0.1534  0.4654
  682MPD2    C410088   4.017   0.639  10.052  0.0469  0.3303  0.8893
  682MPD2    C510089   4.130   0.649   9.986  0.0741 -0.0385  0.4812
  682MPD2     H10090   4.034   0.317  10.115  3.1379 -0.3320  0.2972
  682MPD2    H110091   3.957   0.726  10.077 -0.9581  0.8803 -3.3262
  682MPD2    H210092   4.310   0.561   9.901 -0.8650 -2.3636 -1.1209
  682MPD2    H310093   4.155   0.750   9.953 -1.9639  0.9182  1.8544
  682MPD2     N10094   3.864   0.511  10.184  0.6826 -0.1164 -0.1912
  682MPD2    H510095   3.833   0.594  10.233 -0.7859 -0.6021 -0.2921
  682MPD2    N110096   4.244   0.296   9.970  0.2301  0.5969  0.6954
  682MPD2    H710097   4.208   0.215  10.018 -0.3976  1.7693  2.1994
  683TMC3    C110098   3.633   0.450  10.527 -0.0491 -0.1175 -0.0567
  683TMC3    C210099   3.572   0.324  10.531 -0.6049  0.2104 -0.1161
  683TMC3    C310100   3.568   0.250  10.415 -0.0137 -0.3915  1.0311
  683TMC3    C410101   3.701   0.484  10.411  0.6098 -0.1851  0.5421
  683TMC3    C510102   3.691   0.408  10.299 -0.0659 -0.1130 -0.6925
  683TMC3    C610103   3.613   0.294  10.295  0.3460 -0.2176  0.1545
  683TMC3     C10104   3.633   0.530  10.646  0.3738  0.4659 -0.3025
  683TMC3     O10105   3.733   0.596  10.663 -0.0933  0.4917 -0.7076
  683TMC3     H10106   3.519   0.292  10.620 -0.9035 -0.7340 -0.6346
  683TMC3    H110107   3.749   0.581  10.403  0.2230 -0.0612 -0.2569
  683TMC3    H210108   3.607   0.234  10.205 -0.4575 -1.7325  1.2242
  683TMC3    C710109   3.805   0.391  10.211 -0.9701 -0.1986  0.4802
  683TMC3    C810110   3.508   0.123  10.420 -0.1885  0.5150 -0.3156
  683TMC3    O110111   3.806   0.291  10.145 -0.1780 -0.2301 -0.3097
  683TMC3    O210112   3.455   0.086  10.319  0.3380 -0.4680 -0.0240
  684MPD2     C10113   1.860   4.509  16.786  0.0529  0.1536 -0.4105
  684MPD2    C110114   1.800   4.531  16.664 -0.3429  0.1762  0.3189
  684MPD2    C210115   1.704   4.625  16.657  0.6342 -0.2726 -0.4634
  684MPD2    C310116   1.676   4.714  16.763  0.1687  0.3851  0.2326
  684MPD2    C410117   1.752   4.705  16.873 -0.5635  0.1762 -0.2777
  684MPD2    C510118   1.840   4.603  16.891 -0.6547  0.5712 -0.0333
  684MPD2     H10119   1.643   4.625  16.568  1.2516  0.7060 -0.8900
  684MPD2    H110120   1.745   0.050  16.957 -1.0232 -2.3674  1.7393
  684MPD2    H210121   1.931   4.428  16.797  1.1056  1.1022 -0.2294
  684MPD2    H310122   1.886   4.596  16.988 -2.9471  0.7740  1.0854
  684MPD2     N10123   1.584   0.100  16.752 -0.2333 -0.2173 -0.2961
  684MPD2    H510124   1.568   0.161  16.831 -0.8939  0.6809 -1.1315
  684MPD2    N110125   1.827   4.467  16.543  0.7736  0.0454  0.0200
  684MPD2    H710126   1.783   4.506  16.460  0.3173 -3.6583 -1.4855
  685TMC3    C110127   1.950   4.339  16.378 -0.1590  0.3625  0.4370
  685TMC3    C210128   1.894   4.417  16.281  0.6712 -0.5674  0.7777
  685TMC3    C310129   1.972   4.445  16.167 -0.1744 -0.0244 -0.1894
  685TMC3    C410130   2.079   4.285  16.361 -0.9134 -0.0978  0.2531
  685TMC3    C510131   2.149   4.318  16.247 -0.4127 -0.8916 -0.4466
  685TMC3    C610132   2.093   4.388  16.148  0.2200  0.5617 -0.8610
  685TMC3     C10133   1.917   4.365  16.522  0.6519  0.1767  0.1802
  685TMC3     O10134   1.980   4.305  16.610 -0.2417  0.2317  0.0549
  685TMC3     H10135   1.789   4.441  16.296  0.8210  0.8350 -0.4396
  685TMC3    H110136   2.111   4.230  16.449  0.3434  1.0021  0.4774
  685TMC3    H210137   2.150   4.399  16.057 -1.3157 -0.3878 -1.9290
  685TMC3    C710138   2.293   4.304  16.244  0.3390  0.5638 -0.4581
  685TMC3    C810139   1.906   4.495  16.046 -0.3767 -0.7128 -0.3152
  685TMC3    O110140   2.360   4.346  16.150  0.3062 -0.1788  0.2815
  685TMC3    O210141   1.928   4.424  15.948  0.4594 -0.3992 -0.0278
  686MPD2     C10142   3.077   4.191  15.574  0.0813  0.1203  0.3080
  686MPD2    C110143   3.120   4.124  15.684  0.1312 -0.5285 -0.7551
  686MPD2    C210144   3.167   3.996  15.670  0.1006  0.1349  0.3811
  686MPD2    C310145   3.141   3.929  15.552 -0.5063  0.4536  1.0005
  686MPD2    C410146   3.099   3.999  15.440  0.2863 -0.2961  0.1463
  686MPD2    C510147   3.058   4.128  15.454  0.9494 -0.4407 -0.4562
  686MPD2     H10148   3.226   3.943  15.744 -1.7485  0.9023  2.3774
  686MPD2    H110149   3.099   3.964  15.338  0.9341 -0.6369  0.2647
  686MPD2    H210150   3.026   4.286  15.576 -0.9528 -0.4013 -2.2031
  686MPD2    H310151   3.024   4.185  15.368  1.4894  1.4019  0.5544
  686MPD2     N10152   3.182   3.790  15.543 -0.6024 -0.5443  0.0076
  686MPD2    H510153   3.190   3.754  15.449 -1.4059  1.1192 -0.7107
  686MPD2    N110154   3.096   4.174  15.817 -0.0274 -0.0413 -0.1893
  686MPD2    H710155   3.034   4.254  15.831  0.8776  1.0949 -2.6515
  687TMC3    C110156   3.109   3.723  15.763 -0.2424  0.8121 -0.6475
  687TMC3    C210157   2.974   3.754  15.752  0.0781  0.1415 -0.0629
  687TMC3    C310158   2.895   3.747  15.865 -0.1243  0.1478  0.4976
  687TMC3    C410159   3.165   3.696  15.886 -0.6136  0.2209 -0.6556
  687TMC3    C510160   3.082   3.691  15.997 -0.4737 -1.0077 -0.1521
  687TMC3    C610161   2.950   3.723  15.988 -0.6462  0.3535  0.4526
  687TMC3     C10162   3.192   3.703  15.649  0.1455  0.2216 -0.3934
  687TMC3     O10163   3.249   3.594  15.655  0.1612  0.1735 -0.3593
  687TMC3     H10164   2.927   3.775  15.657  0.3442 -0.3710 -0.3040
  687TMC3    H110165   3.268   3.663  15.895 -0.3693  1.5219  1.3059
  687TMC3    H210166   2.878   3.711  16.069 -1.4943  1.0352 -0.1920
  687TMC3    C710167   3.128   3.710  16.131 -0.4446  0.0199  0.5969
  687TMC3    C810168   2.783   3.837  15.892  0.3536  0.8152  0.3994
  687TMC3    O110169   3.058   3.670  16.225 -0.1747  0.1235  0.0242
  687TMC3    O210170   2.695   3.797  15.964 -0.4053  0.2726 -0.1383
  688MPD2     C10171   2.508   3.251  17.195 -0.0324 -0.6767 -0.7150
  688MPD2    C110172   2.516   3.117  17.182 -0.1510 -0.6693 -0.5249
  688MPD2    C210173   2.620   3.067  17.112  0.2721 -0.4498 -0.9815
  688MPD2    C310174   2.723   3.139  17.063  0.0270 -0.1399  0.3125
  688MPD2    C410175   2.714   3.273  17.068  0.6221  0.0903 -0.3208
  688MPD2    C510176   2.605   3.321  17.142 -0.0307 -0.3280 -0.4310
  688MPD2     H10177   2.622   2.959  17.101  2.2772 -0.5447  0.2243
  688MPD2    H110178   2.787   3.340  17.025  1.4484 -1.2079 -0.9674
  688MPD2    H210179   2.427   3.303  17.246  0.5849 -0.4364  0.0121
  688MPD2    H310180   2.596   3.429  17.145  0.4569 -0.3153  0.3645
  688MPD2     N10181   2.847   3.078  17.009 -0.2300  0.0520  1.1865
  688MPD2    H510182   2.921   3.137  16.974 -0.5409 -0.4112 -0.2473
  688MPD2    N110183   2.431   3.026  17.256 -0.2376  0.1014 -0.0108
  688MPD2    H710184   2.466   2.931  17.252  1.5608  0.7096  1.3052
  689TMC3    C110185   2.232   2.942  17.359 -0.0448 -0.0676  0.2549
  689TMC3    C210186   2.127   2.967  17.441 -0.0021  0.1056 -0.0206
  689TMC3    C310187   2.067   2.861  17.498  0.2941 -0.0669 -0.9990
  689TMC3    C410188   2.271   2.815  17.329 -0.5962 -0.6904 -0.0101
  689TMC3    C510189   2.199   2.710  17.373  0.5823  0.6266  0.0126
  689TMC3    C610190   2.094   2.732  17.463 -0.1797 -0.0315  0.1083
  689TMC3     C10191   2.309   3.057  17.321  1.0492  0.9294  0.2912
  689TMC3     O10192   2.262   3.170  17.332 -0.6608  0.2525 -0.4411
  689TMC3     H10193   2.112   3.067  17.478  1.0238  0.7892 -1.4832
  689TMC3    H110194   2.361   2.798  17.271 -0.7086 -1.7883  0.1322
  689TMC3    H210195   2.064   2.654  17.532  0.6111  0.1754  0.6874
  689TMC3    C710196   2.254   2.573  17.372  0.0097 -0.6840  0.3754
  689TMC3    C810197   1.943   2.890  17.582 -0.0812 -0.2926  0.4140
  689TMC3    O110198   2.376   2.560  17.368  0.1557 -0.1316 -0.6784
  689TMC3    O210199   1.921   2.831  17.686  0.2168  0.1998  0.0170
  690MPD2     C10200   4.263   0.265  15.161 -0.5711 -0.2329 -0.2683
  690MPD2    C110201   4.328   0.154  15.201 -0.6559  0.0793 -0.2753
  690MPD2    C210202   4.457   0.125  15.158  0.3639  0.3854  0.4791
  690MPD2    C310203   4.510   0.196  15.053  0.3639 -0.3654  0.5186
  690MPD2    C410204   4.455   0.318  15.018  0.1164 -0.4910 -0.5753
  690MPD2    C510205   4.334   0.341  15.072 -0.8288 -0.4350 -0.2513
  690MPD2     H10206   4.498   0.030  15.190  0.2891  0.8924  2.1073
  690MPD2    H110207   4.501   0.391  14.952  0.8023 -2.1693 -1.9407
  690MPD2    H210208   4.168   0.297  15.204  0.4739  1.5343  0.7158
  690MPD2    H310209   4.283   0.433  15.046 -0.2413 -0.5675 -1.8577
  690MPD2     N10210   4.633   0.153  15.012 -0.0052  0.1754 -0.5406
  690MPD2    H510211   4.674   0.068  15.049  1.7980  0.3685 -2.1056
  690MPD2    N110212   4.286   0.074  15.301 -0.0619  0.1838 -0.3440
  690MPD2    H710213   4.346   4.722  15.335 -0.8284 -0.4780 -0.4445
  691TMC3    C110214   4.129   4.690  15.453  0.0722  0.5677 -0.1008
  691TMC3    C210215   4.022   4.706  15.537 -0.6214  0.4173  0.9282
  691TMC3    C310216   3.994   4.599  15.611 -0.2288 -0.5369  0.1300
  691TMC3    C410217   4.189   4.573  15.437 -0.2634 -0.2780 -0.2820
  691TMC3    C510218   4.158   4.464  15.510 -0.2014 -0.2656  0.0687
  691TMC3    C610219   4.056   4.477  15.603 -0.0873 -0.0700 -0.1629
  691TMC3     C10220   4.159   0.074  15.355  0.1641  0.3442  0.1583
  691TMC3     O10221   4.061   0.144  15.333  0.4556 -0.2878 -0.2999
  691TMC3     H10222   3.970   0.078  15.531 -1.2322  0.1487  1.9964
  691TMC3    H110223   4.267   4.563  15.362 -1.1869 -2.8563 -0.9006
  691TMC3    H210224   4.022   4.410  15.680  0.7630 -0.2290  0.0682
  691TMC3    C710225   4.237   4.348  15.492 -0.1548  0.4400 -0.1962
  691TMC3    C810226   3.894   4.615  15.713 -0.3789  0.3429 -0.3113
  691TMC3    O110227   4.338   4.342  15.420 -0.0849  0.6052 -0.0655
  691TMC3    O210228   3.849   4.515  15.769 -0.1440 -0.0443  0.5557
  692TMC3    C110229   1.565   1.039  15.665 -0.0026  0.1111 -0.4529
  692TMC3    C210230   1.690   1.017  15.719 -0.4965  0.6416 -0.0542
  692TMC3    C310231   1.728   0.895  15.769  0.9469  0.0897  0.0627
  692TMC3    C410232   1.470   0.933  15.657  0.1343  0.3607  0.5826
  692TMC3    C510233   1.508   0.812  15.711  0.3131  0.1320 -1.3367
  692TMC3    C610234   1.627   0.796  15.774 -0.1490 -0.1671 -0.2564
  692TMC3     C10235   1.527   1.171  15.633 -0.2937  0.6378 -0.4841
  692TMC3     O10236   1.414   1.179  15.581 -0.7622  0.6465 -0.0452
  692TMC3     H10237   1.770   1.085  15.694  0.5873 -0.8365 -0.6238
  692TMC3    H110238   1.372   0.955  15.615 -0.6716 -2.6862  0.8830
  692TMC3    H210239   1.659   0.695  15.798 -1.3598  0.2045  2.8535
  692TMC3    C710240   1.407   0.716  15.744  0.1773 -0.0502 -0.3945
  692TMC3    C810241   1.767   0.916  15.910  1.0637  0.4192  0.3412
  692TMC3    O110242   1.303   0.720  15.676  0.1683 -1.0010 -0.2956
  692TMC3    O210243   1.719   0.837  15.990 -0.4669 -0.3234 -0.7128
  693MPD2     C10244   0.992   3.732  10.303  0.8378 -0.3682  0.8686
  693MPD2    C110245   0.939   3.761  10.430  0.1222  0.5640  0.2662
  693MPD2    C210246   1.012   3.716  10.532  0.1570 -0.9422  0.3163
  693MPD2    C310247   1.127   3.641  10.517 -0.3256  0.1009  0.1917
  693MPD2    C410248   1.164   3.599  10.395  0.3275  0.2848 -0.1315
  693MPD2    C510249   1.096   3.639  10.283 -0.5143  0.2832 -0.7379
  693MPD2     H10250   0.974   3.738  10.631  0.7506  0.7613  0.1649
  693MPD2    H110251   1.256   3.541  10.395  0.5510  0.6301  1.0591
  693MPD2    H210252   0.944   3.754  10.208  0.0516  0.9419  1.5740
  693MPD2    H310253   1.135   3.617  10.185  1.4002  0.6224 -0.0560
  693MPD2     N10254   1.206   3.593  10.630  0.4331 -0.3463  0.3433
  693MPD2    H510255   1.280   3.526  10.609 -0.1661 -0.6437 -0.8465
  693MPD2    N110256   0.815   3.826  10.445 -0.1879  0.1587  0.4438
  693MPD2    H710257   0.759   3.835  10.360 -2.3809 -0.2869  1.8277
  694TMC3    C110258   0.622   3.886  10.575 -0.7155 -0.3324 -0.1059
  694TMC3    C210259   0.571   3.760  10.534  0.2347  1.0546 -0.2317
  694TMC3    C310260   0.508   3.683  10.629  0.2093  0.0082  0.7153
  694TMC3    C410261   0.587   3.939  10.697 -0.8447 -0.2320  0.4878
  694TMC3    C510262   0.522   3.860  10.784  0.1515  0.6425 -0.1766
  694TMC3    C610263   0.489   3.728  10.753  0.5161  0.2471 -0.4082
  694TMC3     C10264   0.764   3.881  10.564 -0.0314 -0.6054  0.4621
  694TMC3     O10265   0.829   3.903  10.666  0.0004  0.0531  0.0376
  694TMC3     H10266   0.594   3.719  10.437 -0.5458 -0.4914  0.2287
  694TMC3    H110267   0.619   4.036  10.733  0.7453 -0.0004 -1.5772
  694TMC3    H210268   0.441   3.667  10.829 -0.7815  1.5722 -0.1666
  694TMC3    C710269   0.562   3.885  10.925  0.4618 -0.8076  0.0835
  694TMC3    C810270   0.453   3.554  10.598  0.1120  1.0540 -0.5412
  694TMC3    O110271   0.607   3.997  10.953  0.3245 -0.0595 -0.0105
  694TMC3    O210272   0.423   3.488  10.695  0.1430  0.9199  0.5424
  695MPD2     C10273   2.250   1.113  13.391  0.0814 -0.3536  0.1227
  695MPD2    C110274   2.196   1.151  13.511 -0.1687  0.1114 -0.8107
  695MPD2    C210275   2.059   1.158  13.531  0.3481  0.6861  0.2695
  695MPD2    C310276   1.971   1.123  13.434 -0.6233  0.4042 -0.1717
  695MPD2    C410277   2.021   1.087  13.307 -0.2041 -0.0003 -0.8129
  695MPD2    C510278   2.157   1.086  13.292 -0.0712  0.0118 -0.2675
  695MPD2     H10279   2.022   1.168  13.632  1.2878 -0.5717  0.7449
  695MPD2    H110280   1.964   1.074  13.216 -0.3458  0.1893 -0.7509
  695MPD2    H210281   2.356   1.114  13.369  0.4066 -1.5233  1.6450
  695MPD2    H310282   2.201   1.063  13.196 -0.4608  0.1563 -0.4853
  695MPD2     N10283   1.834   1.118  13.476  0.3363 -0.0044 -0.0663
  695MPD2    H510284   1.827   1.165  13.565  0.3199  0.0142 -0.0773
  695MPD2    N110285   2.278   1.164  13.628  0.2679  0.5889 -0.0946
  695MPD2    H710286   2.233   1.209  13.707 -0.2107  0.2218 -0.1641
  696TMC3    C110287   1.599   1.116  13.474  0.1203  0.3291  0.6257
  696TMC3    C210288   1.600   1.096  13.608  0.2441  0.1612 -0.6059
  696TMC3    C310289   1.486   1.122  13.684  0.8556 -0.5060  0.4164
  696TMC3    C410290   1.493   1.169  13.413  0.1605  0.3874 -0.1454
  696TMC3    C510291   1.383   1.206  13.487 -0.2400 -0.4606 -0.5181
  696TMC3    C610292   1.384   1.179  13.622  1.1291 -0.4630 -0.1075
  696TMC3     C10293   1.722   1.091  13.402 -0.2219 -0.0032 -0.3567
  696TMC3     O10294   1.720   1.066  13.282 -0.0226  0.3986  0.1340
  696TMC3     H10295   1.691   1.068  13.660  1.5862  0.0401 -3.0309
  696TMC3    H110296   1.496   1.175  13.305  1.2935 -0.4589 -0.1643
  696TMC3    H210297   1.294   1.201  13.677  0.4711 -2.4535 -0.3911
  696TMC3    C710298   1.330   1.338  13.446 -0.2309 -0.0665 -0.2534
  696TMC3    C810299   1.505   1.213  13.800 -0.7006 -0.5115  0.2721
  696TMC3    O110300   1.311   1.362  13.329 -0.0476  0.2688 -0.0920
  696TMC3    O210301   1.426   1.309  13.814  0.1548 -0.2323  0.0654
  697MPD2     C10302   1.258   2.775  15.666 -0.1704 -0.1500 -0.4685
  697MPD2    C110303   1.333   2.775  15.549 -0.3676 -0.2869 -0.1884
  697MPD2    C210304   1.355   2.897  15.488  0.0930  0.3822  0.1368
  697MPD2    C310305   1.319   3.015  15.544  0.6717  0.6196 -0.7421
  697MPD2    C410306   1.233   3.021  15.654 -0.1251  0.0251 -0.5975
  697MPD2    C510307   1.206   2.894  15.700 -0.3369  1.5159  0.6089
  697MPD2     H10308   1.404   2.889  15.392 -0.7608  0.8870 -0.3399
  697MPD2    H110309   1.209   3.113  15.705 -0.0494 -0.9880  1.2885
  697MPD2    H210310   1.217   2.693  15.724 -0.8992 -0.6540 -1.6899
  697MPD2    H310311   1.132   2.887  15.779  1.5373 -0.2548  2.2048
  697MPD2     N10312   1.375   3.131  15.482 -0.3890 -0.5702 -0.4672
  697MPD2    H510313   1.440   3.125  15.404  0.0559  0.3348 -0.1661
  697MPD2    N110314   1.384   2.654  15.486  0.2850 -0.0858 -0.0563
  697MPD2    H710315   1.439   2.667  15.402 -0.7106  0.1786 -0.6675
  698TMC3    C110316   1.412   3.372  15.454 -0.8051 -0.1552 -0.1827
  698TMC3    C210317   1.426   3.490  15.517 -0.1254 -0.5101 -0.2600
  698TMC3    C310318   1.467   3.595  15.441 -0.4105  0.7378 -0.8067
  698TMC3    C410319   1.437   3.354  15.319 -0.3649 -0.2796 -0.2389
  698TMC3    C510320   1.490   3.460  15.253  0.5220  0.2924  0.0915
  698TMC3    C610321   1.507   3.584  15.312 -0.0978  0.0127 -0.5307
  698TMC3     C10322   1.367   3.259  15.533  0.2436 -0.1888 -0.0867
  698TMC3     O10323   1.315   3.302  15.639  0.4518 -0.3995 -0.2260
  698TMC3     H10324   1.403   3.508  15.621  1.8007  1.6515 -0.2065
  698TMC3    H110325   1.429   3.260  15.265  0.8639 -0.1850 -0.5718
  698TMC3    H210326   1.515   3.673  15.250  1.6820 -0.6826 -1.3120
  698TMC3    C710327   1.546   3.428  15.125  0.2950  0.1133 -0.1381
  698TMC3    C810328   1.464   3.723  15.513 -0.6396 -0.7107  0.2120
  698TMC3    O110329   1.505   3.329  15.057  0.7807  0.0391 -0.2962
  698TMC3    O210330   1.388   3.737  15.609  0.1318  0.0451  0.3897
  699TMC3    C110331   1.523   0.974  12.998  0.0526  0.5046  0.6314
  699TMC3    C210332   1.542   0.855  13.067  0.2544 -0.3304  0.3837
  699TMC3    C310333   1.437   0.814  13.145  0.3453 -0.3531  0.9217
  699TMC3    C410334   1.422   1.056  13.025  0.0061 -0.3738  0.0378
  699TMC3    C510335   1.314   1.011  13.097 -0.0642  0.5664  0.3857
  699TMC3    C610336   1.323   0.890  13.162 -0.1733  0.1349  0.3281
  699TMC3     C10337   1.609   1.002  12.887  0.2058  0.6743 -1.1985
  699TMC3     O10338   1.583   1.101  12.819  0.2067 -0.5861  0.1275
  699TMC3     H10339   1.614   0.782  13.035  0.6295 -0.3045  1.1586
  699TMC3    H110340   1.420   1.155  12.981  0.3934 -0.3244  0.1321
  699TMC3    H210341   1.237   0.851  13.216  1.2316 -0.2484  2.2916
  699TMC3    C710342   1.216   1.106  13.147  0.5735 -0.0181  0.5109
  699TMC3    C810343   1.470   0.728  13.258 -0.2546 -0.5267  0.4585
  699TMC3    O110344   1.155   1.078  13.252 -0.0724  0.1998  0.0731
  699TMC3    O210345   1.379   0.694  13.332 -0.3449 -0.0809 -0.0855
  700TMC3    C110346   0.486   3.174   0.075 -0.2111 -0.0385  0.0984
  700TMC3    C210347   0.511   3.109  17.655  0.5658 -0.0514 -0.2416
  700TMC3    C310348   0.632   3.132  17.588  0.4743 -0.2884 -0.5267
  700TMC3    C410349   0.578   3.260   0.128  0.3231  0.1940  0.4596
  700TMC3    C510350   0.686   3.301   0.056 -0.1799 -0.3644 -0.0462
  700TMC3    C610351   0.709   3.232  17.633 -0.3157  0.2374  0.2858
  700TMC3     C10352   0.363   3.247   0.070 -0.2149 -0.5759  0.0460
  700TMC3     O10353   0.275   3.204  17.692 -0.3256 -0.2271 -0.0739
  700TMC3     H10354   0.436   3.041  17.614 -0.8440  0.8103  0.8794
  700TMC3    H110355   0.562   3.301   0.227 -0.7715 -0.6074  0.6224
  700TMC3    H210356   0.803   3.248  17.580 -1.1177  0.5740 -1.0381
  700TMC3    C710357   0.725   3.440   0.078  0.2078  0.2120  0.4535
  700TMC3    C810358   0.686   3.038  17.497  0.2924 -0.3649 -0.0265
  700TMC3    O110359   0.664   3.497   0.170  0.8775 -0.0300  0.3057
  700TMC3    O210360   0.799   3.059  17.457  0.6457  0.5832  0.2187
  701TMC3    C110361   0.930   2.702  15.484  0.3151  0.1150 -0.3326
  701TMC3    C210362   0.976   2.584  15.433  0.2003 -0.6431 -0.5196
  701TMC3    C310363   1.055   2.587  15.326  0.8352 -1.2289  0.9072
  701TMC3    C410364   0.955   2.818  15.421 -0.3850 -0.2107  0.3950
  701TMC3    C510365   1.045   2.817  15.325  0.3232 -0.2643  1.0541
  701TMC3    C610366   1.100   2.704  15.282 -0.1219 -0.4265 -0.4024
  701TMC3     C10367   0.822   2.689  15.580 -0.4693  1.2906 -0.2456
  701TMC3     O10368   0.770   2.578  15.574  0.4443 -0.7350 -0.1184
  701TMC3     H10369   0.937   2.492  15.477 -0.4694 -1.0703 -2.0238
  701TMC3    H110370   0.896   2.907  15.442 -0.6800 -0.7193  1.7107
  701TMC3    H210371   1.176   2.715  15.205 -0.3816 -0.3988 -0.6582
  701TMC3    C710372   1.080   2.934  15.249  0.1124  0.2939 -0.2588
  701TMC3    C810373   1.091   2.467  15.237  0.2899 -0.3945 -0.2318
  701TMC3    O110374   1.098   2.925  15.129  0.1154 -0.6147 -0.2366
  701TMC3    O210375   1.164   2.489  15.142 -1.1521 -0.5161 -0.2542
  702MPD2     C10376   0.459   4.191  10.505  0.5432 -0.2129  0.8580
  702MPD2    C110377   0.398   4.305  10.545 -0.4909  0.2605 -0.1568
  702MPD2    C210378   0.440   4.431  10.508  0.3234 -0.1964  0.4834
  702MPD2    C310379   0.554   4.441  10.423  0.1865  0.5230 -0.0174
  702MPD2    C410380   0.614   4.322  10.383 -0.7204  0.8121  0.6498
  702MPD2    C510381   0.568   4.203  10.427 -0.6792 -0.3771 -0.1763
  702MPD2     H10382   0.392   4.520  10.548  0.5334  0.5418 -0.9095
  702MPD2    H110383   0.706   4.323  10.325 -0.6796  0.3350  0.7032
  702MPD2    H210384   0.428   4.092  10.535  1.0463 -0.7448 -0.3905
  702MPD2    H310385   0.612   4.114  10.383  0.6961  0.0068  0.4342
  702MPD2     N10386   0.614   4.565  10.392 -0.5533 -0.0563 -0.5053
  702MPD2    H510387   0.703   4.559  10.345  0.4374 -0.2490  1.4083
  702MPD2    N110388   0.282   4.311  10.627  0.3020  0.6492 -0.6202
  702MPD2    H710389   0.248   4.406  10.633 -1.5132 -0.1679  1.9328
  703TMC3    C110390   0.642   0.078  10.414 -1.0996 -0.2152  0.8877
  703TMC3    C210391   0.568   0.188  10.449  0.4228 -0.2634  0.1929
  703TMC3    C310392   0.638   0.304  10.481  0.0823  0.0190 -0.0637
  703TMC3    C410393   0.777   0.071  10.407 -0.3237 -0.5913 -0.0885
  703TMC3    C510394   0.833   0.192  10.437  0.1864  0.1066 -0.7910
  703TMC3    C610395   0.774   0.306  10.482 -0.0447  1.5212  0.2862
  703TMC3     C10396   0.553   4.687  10.414  0.0543 -0.0543  0.0209
  703TMC3     O10397   0.433   4.709  10.447 -0.5921  0.0454  0.0468
  703TMC3     H10398   0.460   0.193  10.441  0.4040  1.4681  1.5247
  703TMC3    H110399   0.825   4.699  10.394 -1.3509 -1.1469  0.1613
  703TMC3    H210400   0.835   0.395  10.493  2.8407 -0.4033  0.0263
  703TMC3    C710401   0.975   0.197  10.407  0.0961  0.1757  0.2618
  703TMC3    C810402   0.567   0.414  10.539  0.1892  0.1814  0.0475
  703TMC3    O110403   1.040   0.276  10.470  0.0604  0.1667 -0.3665
  703TMC3    O210404   0.635   0.514  10.555  0.3923 -0.0831  0.1876
  704TMC3    C110405   2.150   2.922  12.059  1.8366 -0.0309 -0.7249
  704TMC3    C210406   2.276   2.982  12.043 -0.1691  0.2070  0.1217
  704TMC3    C310407   2.372   2.952  12.139 -0.2962  0.0095 -0.4000
  704TMC3    C410408   2.114   2.834  12.160 -0.5781  0.1356 -0.3651
  704TMC3    C510409   2.218   2.801  12.246 -0.2708  0.0639 -0.4946
  704TMC3    C610410   2.343   2.865  12.243 -0.0944  0.1961 -0.2450
  704TMC3     C10411   2.034   2.988  11.994  0.2190  0.7425 -0.4807
  704TMC3     O10412   1.918   2.960  12.025  0.0157 -0.0813  0.9383
  704TMC3     H10413   2.298   3.026  11.947 -0.5046  2.5956  1.1495
  704TMC3    H110414   2.014   2.792  12.154 -0.4353 -0.4739  1.6125
  704TMC3    H210415   2.415   2.836  12.318 -0.5658  0.5654  0.3468
  704TMC3    C710416   2.253   2.660  12.228  0.1829  0.3669 -0.2424
  704TMC3    C810417   2.513   2.972  12.104  0.6763 -0.6242  0.1804
  704TMC3    O110418   2.374   2.636  12.232 -0.9809 -0.0508 -0.1072
  704TMC3    O210419   2.528   3.016  11.990 -0.0712  0.1309  0.0421
  705MPD2     C10420   1.921   0.849  16.536 -0.5620  0.2282 -0.1813
  705MPD2    C110421   1.869   0.809  16.417 -0.8443  0.0758  0.0056
  705MPD2    C210422   1.733   0.811  16.412 -0.1045 -0.3985 -0.6259
  705MPD2    C310423   1.650   0.858  16.517  1.0133 -0.2241 -0.2138
  705MPD2    C410424   1.707   0.896  16.630 -0.1334  0.4759 -0.8581
  705MPD2    C510425   1.843   0.891  16.644  0.2615 -0.3691 -0.5521
  705MPD2     H10426   1.689   0.789  16.315 -1.1533 -2.2576  0.2704
  705MPD2    H110427   1.646   0.943  16.706  3.3978 -0.0506  2.3168
  705MPD2    H210428   2.030   0.849  16.543 -0.5126 -1.3308 -0.9706
  705MPD2    H310429   1.893   0.937  16.728  0.4422 -0.8309 -0.4053
  705MPD2     N10430   1.514   0.883  16.511  0.0780 -0.0397  0.3507
  705MPD2    H510431   1.471   0.923  16.594  2.4665 -0.4630  1.7791
  705MPD2    N110432   1.942   0.769  16.305  0.0076  0.0165  0.0837
  705MPD2    H710433   1.903   0.724  16.222  1.4654 -0.4047 -0.3683
  706TMC3    C110434   2.068   0.697  15.920  0.1884 -0.7637  0.3431
  706TMC3    C210435   2.115   0.819  15.862  0.2885  0.7071  0.4976
  706TMC3    C310436   2.178   0.908  15.945 -0.3495 -0.0114  0.0340
  706TMC3    C410437   2.061   0.694  16.055  1.1146  0.4140  0.4492
  706TMC3    C510438   2.093   0.806  16.129  0.2416 -0.2047 -0.4029
  706TMC3    C610439   2.176   0.903  16.081 -0.0927 -0.2075  0.0877
  706TMC3     C10440   2.121   0.570  15.868 -0.2722  0.1162 -0.7865
  706TMC3     O10441   2.138   0.489  15.958  0.1521 -0.0436 -0.6908
  706TMC3     H10442   2.129   0.835  15.755 -0.7278 -0.0898  0.2371
  706TMC3    H110443   2.019   0.608  16.106 -0.7626 -1.2009 -3.8505
  706TMC3    H210444   2.203   0.986  16.144  0.7630  1.3147 -2.2824
  706TMC3    C710445   2.056   0.820  16.269 -0.0163  0.6577  0.5143
  706TMC3    C810446   2.226   1.035  15.883  0.1055 -0.0550 -0.1084
  706TMC3    O110447   2.119   0.899  16.338  0.1769  0.2247  0.3552
  706TMC3    O210448   2.178   1.058  15.777 -0.3256  0.1023  0.0461
  707TMC3    C110449   3.885   0.194   1.337  0.4194  0.3549  0.0027
  707TMC3    C210450   3.949   0.146   1.449  0.7645  0.2325  0.0934
  707TMC3    C310451   3.864   0.106   1.551 -0.0228 -0.2761  0.1709
  707TMC3    C410452   3.749   0.198   1.323  0.3171  0.6131 -0.3203
  707TMC3    C510453   3.677   0.161   1.435  0.2998  0.0160  0.2415
  707TMC3    C610454   3.728   0.123   1.551 -0.2842 -0.5724  0.0355
  707TMC3     C10455   3.966   0.175   1.220 -0.0582 -0.1836  0.4592
  707TMC3     O10456   4.058   0.097   1.230 -0.2490 -0.7158  0.4054
  707TMC3     H10457   4.057   0.153   1.456  0.9365 -1.3057 -0.9615
  707TMC3    H110458   3.691   0.211   1.232  0.9104 -1.2706 -0.9495
  707TMC3    H210459   3.666   0.091   1.634 -1.0341  0.3456 -0.1683
  707TMC3    C710460   3.534   0.170   1.441  0.2636  0.0852 -0.2451
  707TMC3    C810461   3.921   0.062   1.675  0.1593 -0.5361  0.1840
  707TMC3    O110462   3.481   0.071   1.490 -0.0909  0.2622  0.2452
  707TMC3    O210463   3.854   0.088   1.775  0.1539 -0.7672  0.1773
  708MPD2     C10464   0.403   4.179  13.705  0.4226  0.6759 -0.0362
  708MPD2    C110465   0.358   4.110  13.819  0.6632 -0.3476 -0.3209
  708MPD2    C210466   0.454   4.048  13.897 -0.2583 -0.0307  0.3492
  708MPD2    C310467   0.585   4.035  13.855  0.5251  0.2844 -0.7046
  708MPD2    C410468   0.624   4.096  13.736 -0.1367  0.4173  0.5662
  708MPD2    C510469   0.529   4.155  13.660 -0.2544 -0.5271  0.0914
  708MPD2     H10470   0.431   3.990  13.986  1.9841 -0.7580  0.4726
  708MPD2    H110471   0.727   4.080  13.705 -0.0984  1.1803  0.3127
  708MPD2    H210472   0.325   4.210  13.637  0.3679 -0.0899 -0.3267
  708MPD2    H310473   0.556   4.186  13.560  0.0411  0.8787  0.6038
  708MPD2     N10474   0.679   3.960  13.929 -0.0026 -0.5233 -0.4907
  708MPD2    H510475   0.639   3.908  14.006  0.9178 -0.6911 -0.1310
  708MPD2    N110476   0.223   4.119  13.847 -0.2353  0.3205  0.5074
  708MPD2    H710477   0.163   4.143  13.769  1.5210  0.1181 -0.9221
  709TMC3    C110478   0.032   4.045  13.970 -0.0397  0.1167 -0.3595
  709TMC3    C210479   4.686   4.014  13.853 -0.1096 -0.1951  0.1997
  709TMC3    C310480   4.577   3.923  13.862  0.8842 -0.3637  0.0283
  709TMC3    C410481   4.716   3.988  14.082 -0.0969  0.6286  0.3589
  709TMC3    C510482   4.625   3.887  14.090  0.2379 -0.4644  0.6327
  709TMC3    C610483   4.559   3.850  13.975 -0.2652  0.3349  0.1470
  709TMC3     C10484   0.172   4.076  13.971 -0.2597  0.4090  0.0422
  709TMC3     O10485   0.232   4.044  14.073 -0.3791  0.1760  0.3034
  709TMC3     H10486   0.003   4.027  13.753 -0.2141 -0.0766  0.1739
  709TMC3    H110487   0.037   4.021  14.175  0.7109 -0.4552  0.3660
  709TMC3    H210488   4.480   3.776  13.976  0.2964 -0.3194 -2.7204
  709TMC3    C710489   4.688   3.773  14.157 -0.4252 -0.0163 -0.1740
  709TMC3    C810490   4.498   3.885  13.750  0.2844 -0.1045  0.0101
  709TMC3    O110491   4.619   3.679  14.191  0.3633  0.1069 -0.4862
  709TMC3    O210492   4.417   3.793  13.762  0.7170  0.0866  0.0758
  710TMC3    C110493   0.950   1.060   0.817  0.3733 -0.0051 -0.3795
  710TMC3    C210494   1.025   1.071   0.698  0.8501  0.3379  0.0274
  710TMC3    C310495   1.161   1.094   0.709  0.6369  0.1915 -0.4806
  710TMC3    C410496   1.016   1.050   0.935  0.6862 -0.7810 -0.1858
  710TMC3    C510497   1.153   1.048   0.939 -0.5726 -0.0512  0.0075
  710TMC3    C610498   1.231   1.090   0.827  0.3450 -0.3117 -0.6548
  710TMC3     C10499   0.803   1.082   0.808  1.0501 -0.9947  0.3669
  710TMC3     O10500   0.754   1.111   0.700 -0.4054  0.0858  0.7837
  710TMC3     H10501   0.987   1.055   0.598  0.0239  0.3801  0.3380
  710TMC3    H110502   0.960   1.042   1.027  0.1072 -1.8174 -0.6381
  710TMC3    H210503   1.339   1.085   0.823  0.3809 -0.0270 -0.0141
  710TMC3    C710504   1.215   1.018   1.070 -0.1309 -0.5532 -1.0516
  710TMC3    C810505   1.243   1.103   0.589 -0.5956  0.8026 -0.0432
  710TMC3    O110506   1.139   1.015   1.168  0.6641 -0.1897  0.2810
  710TMC3    O210507   1.209   1.040   0.485  0.2282  0.1195  0.1324
  711TMC3    C110508   1.256   1.881  14.775 -0.1026  0.1594 -0.2007
  711TMC3    C210509   1.303   1.939  14.887 -0.2626 -0.7868 -0.3443
  711TMC3    C310510   1.434   1.945  14.913 -0.3627  0.3614  0.0806
  711TMC3    C410511   1.338   1.827  14.686 -0.0863  0.0881  0.1494
  711TMC3    C510512   1.476   1.837  14.708 -0.8000  0.0474 -0.5718
  711TMC3    C610513   1.522   1.907  14.817 -0.0367  0.4255 -0.4647
  711TMC3     C10514   1.135   1.802  14.786 -0.3899  0.0921  0.5720
  711TMC3     O10515   1.084   1.753  14.686  0.1118 -0.3718  0.5155
  711TMC3     H10516   1.232   1.978  14.959 -0.2410  0.6408 -1.1002
  711TMC3    H110517   1.312   1.788  14.588  0.7042  1.1221 -0.4827
  711TMC3    H210518   1.629   1.893  14.833 -0.1998 -0.3876 -0.0934
  711TMC3    C710519   1.549   1.709  14.684 -0.0247  0.4792  0.4348
  711TMC3    C810520   1.470   1.942  15.059 -0.0526  0.0322 -0.2734
  711TMC3    O110521   1.645   1.685  14.757  0.4854  0.4179 -0.0021
  711TMC3    O210522   1.364   1.950  15.125  0.1968  0.0094 -0.2127
  712MPD2     C10523   2.695   3.559  14.215  0.3771 -0.1204  0.7033
  712MPD2    C110524   2.648   3.464  14.125  0.3094 -0.2897 -0.3995
  712MPD2    C210525   2.658   3.485  13.992  0.3768 -0.3664 -0.0602
  712MPD2    C310526   2.721   3.590  13.932  0.3150  0.9086  0.3048
  712MPD2    C410527   2.772   3.679  14.019  0.6712  0.5129  0.4816
  712MPD2    C510528   2.755   3.666  14.154  0.4872 -0.1841 -1.2707
  712MPD2     H10529   2.627   3.400  13.932  0.1492 -0.9358  0.8786
  712MPD2    H110530   2.833   3.765  13.994 -2.6279  2.5872 -0.4110
  712MPD2    H210531   2.698   3.556  14.324  2.0022 -0.2661  0.6453
  712MPD2    H310532   2.795   3.742  14.219  0.6844 -1.5935  0.2611
  712MPD2     N10533   2.747   3.584  13.794 -0.0326 -0.4905  0.0013
  712MPD2    H510534   2.816   3.652  13.764  0.2551 -0.3275  1.0200
  712MPD2    N110535   2.615   3.338  14.169 -0.1908 -0.3231 -0.4671
  712MPD2    H710536   2.575   3.277  14.100  0.9078 -0.0503 -1.3473
  713TMC3    C110537   2.767   3.487  13.584  0.7461  0.0501 -0.8210
  713TMC3    C210538   2.900   3.517  13.579  0.5863 -0.0458 -0.3465
  713TMC3    C310539   2.970   3.507  13.458  0.6234 -0.6428 -0.3663
  713TMC3    C410540   2.689   3.471  13.468 -0.3283  0.6329 -0.2230
  713TMC3    C510541   2.761   3.491  13.355 -0.3922  0.2441  0.1825
  713TMC3    C610542   2.894   3.504  13.351  0.0131  0.2856 -1.0268
  713TMC3     C10543   2.702   3.484  13.707 -0.2635  0.0539  0.5223
  713TMC3     O10544   2.610   3.404  13.711  0.0419 -0.2806  0.0209
  713TMC3     H10545   2.961   3.504  13.668 -0.2053  0.1336  0.2258
  713TMC3    H110546   2.583   3.449  13.463 -0.0534 -0.6875 -0.1858
  713TMC3    H210547   2.948   3.529  13.260 -2.0328  1.5300 -1.8812
  713TMC3    C710548   2.696   3.536  13.234  0.0874 -0.9374 -0.4717
  713TMC3    C810549   3.101   3.568  13.442  0.4929  0.0111  0.8937
  713TMC3    O110550   2.718   3.486  13.125 -0.9645 -0.5476  0.0992
  713TMC3    O210551   3.142   3.629  13.343  0.2071 -0.7427 -0.4532
  714MPD2     C10552   4.241   1.194   0.979  0.0696 -0.5191  0.3108
  714MPD2    C110553   4.197   1.191   1.114  0.6309 -0.4080 -0.6745
  714MPD2    C210554   4.059   1.204   1.138  0.0529 -0.4116 -0.3917
  714MPD2    C310555   3.976   1.214   1.024  0.1974 -0.7385 -0.6148
  714MPD2    C410556   4.025   1.226   0.895  0.2019  0.3857 -0.5277
  714MPD2    C510557   4.156   1.205   0.875 -0.5758  0.4301 -0.5166
  714MPD2     H10558   4.022   1.213   1.240 -0.6873  0.0095 -0.7016
  714MPD2    H110559   3.968   1.229   0.802  0.1786  0.5366 -0.5093
  714MPD2    H210560   4.348   1.188   0.959 -0.1916  1.6495 -1.7871
  714MPD2    H310561   4.210   1.196   0.781 -0.1757 -0.0016 -0.2448
  714MPD2     N10562   3.838   1.221   1.054 -0.2342  0.5741 -0.3017
  714MPD2    H510563   3.815   1.209   1.153  0.1522  2.0331 -0.0364
  714MPD2    N110564   4.294   1.176   1.215  0.0773  0.2470  0.4338
  714MPD2    H710565   4.391   1.171   1.186  0.1874  2.0593  0.4586
  715TMC3    C110566   4.386   1.135   1.426  0.6473 -0.2922  0.4481
  715TMC3    C210567   4.505   1.104   1.365  0.2647 -0.1004 -0.3256
  715TMC3    C310568   4.609   1.044   1.435 -1.1690  0.3433  0.5736
  715TMC3    C410569   4.366   1.094   1.564 -0.7548  0.2853 -0.0077
  715TMC3    C510570   4.474   1.047   1.630  0.4275  0.6226  0.4150
  715TMC3    C610571   4.590   1.011   1.567 -0.4358 -0.0341 -0.3243
  715TMC3     C10572   4.265   1.164   1.347 -0.3779  0.2994  0.5544
  715TMC3     O10573   4.161   1.164   1.408  0.2884  0.6712 -0.4632
  715TMC3     H10574   4.522   1.132   1.261  0.3615  1.0243 -0.0128
  715TMC3    H110575   4.274   1.110   1.618  0.9259  4.6515  1.5612
  715TMC3    H210576   4.668   0.951   1.612 -0.6488  0.5480  0.8123
  715TMC3    C710577   4.468   1.023   1.767  0.3426 -0.5017  0.5273
  715TMC3    C810578   4.712   0.990   1.350 -0.1255 -0.2970 -0.3177
  715TMC3    O110579   4.556   0.957   1.823 -0.5215  0.4289 -0.4303
  715TMC3    O210580   4.699   1.010   1.228  0.2458 -0.3942 -0.3446
  716MPD2     C10581   0.350   2.976  10.150 -0.1478  0.3496 -0.4358
  716MPD2    C110582   0.350   2.909  10.031  0.4119 -0.6313  0.2789
  716MPD2    C210583   0.408   2.787  10.024 -0.1413  0.1821 -0.0778
  716MPD2    C310584   0.451   2.720  10.130 -0.0407  0.9148  0.8889
  716MPD2    C410585   0.449   2.788  10.254  0.1360  0.3906 -0.0312
  716MPD2    C510586   0.406   2.916  10.263  0.0826  0.0805  0.2273
  716MPD2     H10587   0.413   2.733   9.930  0.4433 -2.2589  1.3367
  716MPD2    H110588   0.489   2.740  10.342 -0.8310 -0.3108  0.0229
  716MPD2    H210589   0.311   3.077  10.158  0.8011  0.6150  0.8185
  716MPD2    H310590   0.394   2.966  10.358 -2.7518 -1.2597  0.5524
  716MPD2     N10591   0.506   2.588  10.107  0.5523 -1.0624 -0.3717
  716MPD2    H510592   0.501   2.549  10.014  2.6083  1.4749 -1.5503
  716MPD2    N110593   0.294   2.967   9.920 -0.1915  0.3378 -0.5464
  716MPD2    H710594   0.275   3.065   9.935 -0.5593  0.1107  0.4805
  717TMC3    C110595   0.598   2.376  10.156 -0.0853 -0.5769 -0.0204
  717TMC3    C210596   0.527   2.333  10.046  0.3680 -0.8359  0.2105
  717TMC3    C310597   0.596   2.287   9.938 -0.2710  0.0096  0.2288
  717TMC3    C410598   0.728   2.339  10.168  0.8236 -0.2263 -0.1890
  717TMC3    C510599   0.792   2.274  10.064  0.6690  0.0131  0.0518
  717TMC3    C610600   0.728   2.257   9.943  0.7922 -0.0906  0.0360
  717TMC3     C10601   0.559   2.510  10.206 -0.4027  0.4156  0.4155
  717TMC3     O10602   0.595   2.540  10.319  0.1493  0.8175 -0.0677
  717TMC3     H10603   0.422   2.351  10.029  0.0972 -0.9463  1.7986
  717TMC3    H110604   0.784   2.361  10.258  0.2879  2.6414 -0.5624
  717TMC3    H210605   0.786   2.215   9.863  0.3421  0.5890 -0.6409
  717TMC3    C710606   0.923   2.207  10.100 -0.3962  0.4216  0.5274
  717TMC3    C810607   0.537   2.314   9.805  1.0415 -0.3072 -0.1053
  717TMC3    O110608   0.992   2.267  10.186  0.5215 -0.7715 -0.2458
  717TMC3    O210609   0.448   2.394   9.801 -0.4859  0.2252 -0.7733
  718MPD2     C10610   4.059   3.149  12.974 -0.0807 -0.2653 -0.3502
  718MPD2    C110611   3.995   3.165  12.861  0.4558  0.3282  0.3123
  718MPD2    C210612   3.941   3.056  12.807 -0.8028  0.9472 -0.0483
  718MPD2    C310613   3.942   2.931  12.859 -0.3279  0.1123  0.2971
  718MPD2    C410614   4.008   2.914  12.984  0.1059  0.1156 -0.3042
  718MPD2    C510615   4.061   3.025  13.040  0.0804  0.8468 -0.1891
  718MPD2     H10616   3.886   3.071  12.715 -0.8894  0.3568 -0.0937
  718MPD2    H110617   4.024   2.825  13.044 -1.8728  0.8335  1.2771
  718MPD2    H210618   4.100   3.230  13.034 -0.2279 -0.8350  0.5278
  718MPD2    H310619   4.117   3.015  13.132  1.3100 -0.8641 -1.1103
  718MPD2     N10620   3.862   2.835  12.795 -0.1165  0.2485  0.2381
  718MPD2    H510621   3.824   2.858  12.703  0.7768  2.5054  0.4306
  718MPD2    N110622   3.980   3.294  12.795 -0.4378  0.4485  0.2949
  718MPD2    H710623   3.905   3.301  12.727  0.8733  0.8796 -1.1035
  719TMC3    C110624   4.008   3.519  12.746  0.2037 -0.1898 -0.1861
  719TMC3    C210625   3.892   3.485  12.684 -0.1384  0.0807  0.0131
  719TMC3    C310626   3.892   3.481  12.545  0.3708  0.0761  0.1990
  719TMC3    C410627   4.120   3.560  12.679  0.3690  0.2385 -0.0177
  719TMC3    C510628   4.116   3.558  12.546 -0.1673  0.2737  0.2031
  719TMC3    C610629   4.000   3.523  12.481  0.2545  0.2315 -0.2351
  719TMC3     C10630   4.050   3.404  12.835 -0.7091 -0.2251  0.5594
  719TMC3     O10631   4.163   3.396  12.881 -0.2758 -0.1929  0.5762
  719TMC3     H10632   3.805   3.457  12.744 -0.2033  0.3601  0.0492
  719TMC3    H110633   4.216   3.574  12.728 -0.4893 -0.2984  1.8261
  719TMC3    H210634   4.017   3.518  12.374 -1.3706  0.3930 -0.4947
  719TMC3    C710635   4.236   3.499  12.488  0.0161 -0.3468  0.9642
  719TMC3    C810636   3.806   3.373  12.496  0.1071 -0.2218  0.1784
  719TMC3    O110637   4.260   3.526  12.371 -0.2050 -0.1853 -0.3097
  719TMC3    O210638   3.731   3.329  12.586  0.1341 -0.0734  0.1147
  720MPD2     C10639   2.553   0.380  13.923  0.0850  0.6559 -0.6864
  720MPD2    C110640   2.680   0.383  13.880  0.1587 -0.2461 -0.2183
  720MPD2    C210641   2.785   0.363  13.966 -0.7462  0.0980 -0.1244
  720MPD2    C310642   2.760   0.338  14.100 -0.4013  0.4425 -0.2748
  720MPD2    C410643   2.630   0.324  14.144  0.1885 -0.1895  0.5871
  720MPD2    C510644   2.526   0.349  14.058 -0.0472  0.4252 -0.4866
  720MPD2     H10645   2.889   0.365  13.936  0.5689 -2.3149  4.2118
  720MPD2    H110646   2.597   0.300  14.244  1.2113  3.0082  1.6924
  720MPD2    H210647   2.466   0.380  13.860  1.9408 -2.0898 -3.2588
  720MPD2    H310648   2.424   0.346  14.094 -0.1470  0.6009 -0.7556
  720MPD2     N10649   2.871   0.335  14.188  0.4943 -0.4843 -0.0649
  720MPD2    H510650   2.951   0.377  14.140  1.4602 -0.7881  1.2671
  720MPD2    N110651   2.711   0.412  13.748  0.0304  0.1299  0.1631
  720MPD2    H710652   2.808   0.392  13.727 -0.3359 -0.1406 -1.2695
  721TMC3    C110653   3.006   0.268  14.367  0.0848  0.1262  0.7992
  721TMC3    C210654   3.018   0.225  14.500  0.0705  0.0616 -0.1895
  721TMC3    C310655   3.149   0.205  14.548 -0.2633 -0.2493  0.4254
  721TMC3    C410656   3.111   0.293  14.277 -0.7238 -0.4512 -0.5357
  721TMC3    C510657   3.234   0.271  14.336 -0.6178  0.5547 -0.2832
  721TMC3    C610658   3.251   0.237  14.468 -0.8421  0.0829  0.0028
  721TMC3     C10659   2.871   0.278  14.313  0.0078  0.0135  0.2270
  721TMC3     O10660   2.783   0.232  14.381  0.3218  0.3462 -0.4876
  721TMC3     H10661   2.938   0.221  14.572  0.3165 -0.1067  0.0757
  721TMC3    H110662   3.115   0.313  14.170  0.2119  0.8919 -0.2587
  721TMC3    H210663   3.349   0.230  14.513 -0.4127  0.0144 -0.9540
  721TMC3    C710664   3.340   0.243  14.241  0.3092  0.1117 -0.4231
  721TMC3    C810665   3.174   0.163  14.684 -0.4475  0.6970  0.3142
  721TMC3    O110666   3.314   0.277  14.126  0.1168  0.7007  0.5839
  721TMC3    O210667   3.283   0.201  14.723  0.4797  0.4757  0.5907
  722MPD2     C10668   1.623   3.411  13.550 -0.7955 -0.1897 -0.4315
  722MPD2    C110669   1.554   3.495  13.464 -0.2414 -0.1625 -0.0551
  722MPD2    C210670   1.423   3.485  13.444 -0.1033  0.9170 -0.2781
  722MPD2    C310671   1.356   3.378  13.497 -0.6955 -0.4751 -0.0300
  722MPD2    C410672   1.414   3.292  13.587 -0.1497 -0.1652  0.6546
  722MPD2    C510673   1.550   3.308  13.616  0.2553 -0.0518 -0.3722
  722MPD2     H10674   1.377   3.555  13.375  2.5504  1.1277 -1.8189
  722MPD2    H110675   1.362   3.209  13.633 -0.1897  0.6008  1.9763
  722MPD2    H210676   1.729   3.421  13.566 -1.0275 -0.6921  1.4002
  722MPD2    H310677   1.600   3.238  13.682  0.7632 -0.1171 -0.8199
  722MPD2     N10678   1.230   3.365  13.440  0.3980 -0.3724 -0.5399
  722MPD2    H510679   1.199   3.432  13.370  0.3034 -0.0208 -0.1636
  722MPD2    N110680   1.616   3.597  13.388  0.1028 -0.9447 -0.0107
  722MPD2    H710681   1.560   3.651  13.324  0.5343  0.0872  0.4720
  723TMC3    C110682   1.026   3.277  13.388  0.7588 -0.0524 -0.2673
  723TMC3    C210683   0.936   3.175  13.381 -0.6428  0.1771 -0.7046
  723TMC3    C310684   0.808   3.205  13.342  0.4345  0.5538 -0.4996
  723TMC3    C410685   0.997   3.405  13.346  0.5520  0.0869 -0.0648
  723TMC3    C510686   0.868   3.425  13.289  0.3609  0.4319  0.1993
  723TMC3    C610687   0.770   3.326  13.299  0.3369 -0.2689 -0.7724
  723TMC3     C10688   1.145   3.264  13.465 -0.0127 -0.1941 -0.4003
  723TMC3     O10689   1.157   3.160  13.534  0.2757  0.1719  0.3996
  723TMC3     H10690   0.959   3.081  13.430  0.6316  1.3791  1.0507
  723TMC3    H110691   1.069   3.485  13.337  0.5240  0.1625  0.4018
  723TMC3    H210692   0.670   3.347  13.263  0.3612  1.1321 -0.0257
  723TMC3    C710693   0.844   3.548  13.217 -0.4856  0.3455 -0.3633
  723TMC3    C810694   0.706   3.102  13.361  0.5138 -0.5196  0.4266
  723TMC3    O110695   0.927   3.638  13.239  0.1745 -0.8367 -0.2148
  723TMC3    O210696   0.593   3.138  13.367 -0.4440 -0.2132  0.6036
  724TMC3    C110697   2.358   1.487   9.874 -0.2713 -0.0417 -0.3424
  724TMC3    C210698   2.422   1.591   9.930 -0.0692  0.8125 -0.4210
  724TMC3    C310699   2.423   1.594  10.070 -0.0288  0.1690 -0.4861
  724TMC3    C410700   2.315   1.379   9.948 -0.8276 -0.1590 -0.8899
  724TMC3    C510701   2.323   1.389  10.084 -0.2160  0.0417  0.6884
  724TMC3    C610702   2.382   1.488  10.143 -0.6971 -0.5995  0.0450
  724TMC3     C10703   2.301   1.500   9.746  0.1439 -0.2758 -0.2334
  724TMC3     O10704   2.185   1.470   9.743  0.1413  0.6624  0.2574
  724TMC3     H10705   2.460   1.676   9.876  1.5592  1.6860  2.0911
  724TMC3    H110706   2.255   1.304   9.897 -1.0326 -0.5655 -0.0477
  724TMC3    H210707   2.382   1.481  10.251  0.6421 -0.0760  0.0784
  724TMC3    C710708   2.288   1.267  10.156 -0.2618 -0.1075 -0.3541
  724TMC3    C810709   2.435   1.718  10.151  0.0481 -0.0251  0.5506
  724TMC3    O110710   2.303   1.164  10.096  0.1235 -0.5032  0.4312
  724TMC3    O210711   2.389   1.723  10.266  0.3497 -0.0230  0.4674
  725TMC3    C110712   3.289   0.371  12.544 -0.5726  0.8562  0.1056
  725TMC3    C210713   3.181   0.394  12.468 -0.0503 -0.7501  0.3882
  725TMC3    C310714   3.195   0.412  12.335 -1.1276 -0.8347 -0.7208
  725TMC3    C410715   3.403   0.328  12.492  0.0566  0.0473  0.6696
  725TMC3    C510716   3.417   0.332  12.351  0.0120  0.1631  0.8591
  725TMC3    C610717   3.312   0.376  12.274 -0.2797 -0.1909 -0.0360
  725TMC3     C10718   3.316   0.479  12.631  0.2520 -0.1020  0.1021
  725TMC3     O10719   3.430   0.523  12.643 -0.9264  0.1657  0.0136
  725TMC3     H10720   3.090   0.435  12.510 -0.3098 -0.6607 -0.2703
  725TMC3    H110721   3.487   0.305  12.556 -0.0953  0.4946  1.0304
  725TMC3    H210722   3.321   0.392  12.167  3.8408 -1.7690  0.0797
  725TMC3    C710723   3.537   0.282  12.288 -0.2902  0.7255  0.5535
  725TMC3    C810724   3.102   0.499  12.281 -0.5677 -0.6289  0.0860
  725TMC3    O110725   3.540   0.289  12.166  0.1674 -0.1866 -0.6489
  725TMC3    O210726   2.988   0.503  12.328 -0.2782  0.5180  0.0571
  726MPD2     C10727   1.663   1.454   9.562 -0.0304  0.5040 -0.1562
  726MPD2    C110728   1.538   1.485   9.534  0.1420 -0.8663  0.1232
  726MPD2    C210729   1.437   1.396   9.573 -0.1561 -0.1778 -0.1419
  726MPD2    C310730   1.469   1.289   9.648 -0.4627  0.0754  0.3180
  726MPD2    C410731   1.598   1.263   9.682 -0.0270  0.1133 -0.5270
  726MPD2    C510732   1.695   1.345   9.632 -0.3201 -0.4469  0.1290
  726MPD2     H10733   1.334   1.412   9.544 -0.2265 -0.9279 -0.3059
  726MPD2    H110734   1.624   1.170   9.732  0.5850  0.0006 -1.0452
  726MPD2    H210735   1.744   1.522   9.537  1.3573 -1.9013 -2.1524
  726MPD2    H310736   1.798   1.321   9.657 -1.0422 -4.1060 -0.4290
  726MPD2     N10737   1.373   1.200   9.701  0.3823  0.2969 -0.2266
  726MPD2    H510738   1.406   1.126   9.761  1.6593  0.0510 -1.2228
  726MPD2    N110739   1.503   1.597   9.457 -0.5239  0.5091 -0.5086
  726MPD2    H710740   1.406   1.626   9.450  0.1141  2.4358 -1.2868
  727TMC3    C110741   1.517   1.778   9.313  0.1554 -0.4696 -0.2805
  727TMC3    C210742   1.547   1.910   9.338  0.5764 -0.3891 -0.0553
  727TMC3    C310743   1.458   2.011   9.302  0.2779 -0.1826 -0.0439
  727TMC3    C410744   1.399   1.737   9.256 -0.1919  0.1924 -0.0795
  727TMC3    C510745   1.320   1.841   9.212 -0.2536 -0.3556  0.5835
  727TMC3    C610746   1.340   1.974   9.245 -0.4110 -0.2580 -0.9274
  727TMC3     C10747   1.591   1.681   9.391  0.1010  0.8702 -0.2078
  727TMC3     O10748   1.712   1.689   9.389 -0.7556  0.0673 -0.0677
  727TMC3     H10749   1.642   1.936   9.383  1.2213 -0.6258 -1.2765
  727TMC3    H110750   1.387   1.632   9.233  2.0406 -0.1170  0.1356
  727TMC3    H210751   1.257   2.040   9.224 -1.7094 -1.1715  1.3229
  727TMC3    C710752   1.199   1.824   9.130  0.1016  0.6774 -0.4180
  727TMC3    C810753   1.465   2.139   9.368  0.6536 -0.2651  0.5702
  727TMC3    O110754   1.134   1.916   9.089 -0.3033 -0.6304 -0.2793
  727TMC3    O210755   1.545   2.143   9.463 -0.3894  0.2030 -0.4580
  728TMC3    C110756   0.127   0.177  14.931  0.3463  0.3035  0.7050
  728TMC3    C210757   0.182   0.158  15.056 -0.4241 -0.4574  0.6458
  728TMC3    C310758   0.303   0.211  15.076 -0.0318 -0.2537  0.2343
  728TMC3    C410759   0.203   0.229  14.830  0.8605 -0.2812  0.0500
  728TMC3    C510760   0.329   0.291  14.858  0.5554  0.8891 -0.2947
  728TMC3    C610761   0.385   0.273  14.983  0.5654  0.4248  0.1152
  728TMC3     C10762   4.715   0.217  14.925 -0.0039 -0.4910 -0.0793
  728TMC3     O10763   4.701   0.316  14.856 -0.1758  0.1170 -0.5783
  728TMC3     H10764   0.123   0.124  15.141 -0.4769  2.4628  1.7710
  728TMC3    H110765   0.148   0.239  14.737  0.5121  1.1644  0.4105
  728TMC3    H210766   0.474   0.332  15.001 -1.1041  3.1578 -0.5873
  728TMC3    C710767   0.346   0.421  14.802  0.3306 -0.0511  0.8239
  728TMC3    C810768   0.353   0.175  15.212  0.3587  0.3184 -0.8776
  728TMC3    O110769   0.454   0.476  14.821 -0.1960  0.1626  0.2397
  728TMC3    O210770   0.281   0.123  15.292 -0.3083  0.4402 -0.3436
  729MPD2     C10771   2.660   1.108  16.275  0.0495  0.5090 -0.4906
  729MPD2    C110772   2.615   1.233  16.300  0.5422  0.4766  0.0043
  729MPD2    C210773   2.475   1.260  16.328 -1.6142  0.7398 -0.1127
  729MPD2    C310774   2.392   1.154  16.346  0.5353  0.0465 -0.3927
  729MPD2    C410775   2.445   1.024  16.333 -0.8575 -0.1240 -0.4553
  729MPD2    C510776   2.575   1.005  16.298 -0.0047 -0.4457 -0.0445
  729MPD2     H10777   2.445   1.360  16.354 -2.3815  0.5393 -0.2282
  729MPD2    H110778   2.386   0.934  16.340  0.5570 -0.9318  0.8741
  729MPD2    H210779   2.757   1.086  16.232 -0.3684  0.8793 -1.6422
  729MPD2    H310780   2.606   0.903  16.281 -0.5963 -1.1260  2.8482
  729MPD2     N10781   2.261   1.164  16.386 -0.0629 -0.3380 -0.3371
  729MPD2    H510782   2.218   1.076  16.413 -1.2873 -0.1375 -1.6244
  729MPD2    N110783   2.710   1.337  16.307  0.9468 -0.2177 -0.1905
  729MPD2    H710784   2.803   1.302  16.289  0.9858  0.9887 -2.2874
  730TMC3    C110785   2.081   1.269  16.506 -0.0874 -0.2658  0.7142
  730TMC3    C210786   2.106   1.160  16.585  0.1294  0.4835 -0.0597
  730TMC3    C310787   2.146   1.184  16.713  0.2226 -0.8386  0.7123
  730TMC3    C410788   2.048   1.395  16.550 -0.1658 -0.5527  0.6032
  730TMC3    C510789   2.081   1.413  16.683 -0.2934 -0.8299 -0.6679
  730TMC3    C610790   2.132   1.313  16.758 -0.3390 -0.1445 -0.2877
  730TMC3     C10791   2.186   1.287  16.408 -0.8873  0.1168  0.2999
  730TMC3     O10792   2.218   1.400  16.376 -0.3956 -0.0295  0.5395
  730TMC3     H10793   2.112   1.063  16.537 -0.4817  1.0579 -1.2990
  730TMC3    H110794   2.026   1.484  16.493 -0.4271 -0.6237  0.5947
  730TMC3    H210795   2.169   1.334  16.858  1.5328 -0.1031 -1.0005
  730TMC3    C710796   2.063   1.543  16.747  0.8021  0.4071 -0.1437
  730TMC3    C810797   2.283   1.138  16.717  0.1586  0.1745  0.4277
  730TMC3    O110798   2.139   1.568  16.843  0.4676  0.5153 -0.0893
  730TMC3    O210799   2.305   1.024  16.687  0.4937 -0.4152 -0.8439
  731MPD2     C10800   2.763   0.197  11.672 -0.7183 -0.0107 -0.2748
  731MPD2    C110801   2.871   0.114  11.695 -0.3354 -0.6081  0.1216
  731MPD2    C210802   2.936   0.110  11.822 -0.5578 -0.3317 -0.0414
  731MPD2    C310803   2.884   0.180  11.923 -0.5067  0.6917 -0.0879
  731MPD2    C410804   2.768   0.248  11.904  0.6015  0.0752  0.0155
  731MPD2    C510805   2.709   0.262  11.780 -0.0399  0.8831 -0.2789
  731MPD2     H10806   3.027   0.053  11.833  0.6157  1.6258  0.5079
  731MPD2    H110807   2.721   0.307  11.982  1.1574 -0.3111  0.6386
  731MPD2    H210808   2.716   0.197  11.574 -0.3967  0.6833 -0.4299
  731MPD2    H310809   2.616   0.316  11.762  0.1449  1.5396  0.7590
  731MPD2     N10810   2.934   0.156  12.049 -0.1322 -0.4664  0.0595
  731MPD2    H510811   3.010   0.089  12.058 -0.6578 -1.0065  0.4843
  731MPD2    N110812   2.907   0.029  11.589  0.3724 -0.5506  0.1336
  731MPD2    H710813   2.846   0.032  11.509  0.3064 -0.5450  0.1844
  732TMC3    C110814   3.015   4.566  11.493  0.2064 -0.5937 -0.0333
  732TMC3    C210815   2.898   4.495  11.477 -0.3643 -0.2896  1.1148
  732TMC3    C310816   2.902   4.374  11.415  0.5402  0.1733 -0.0937
  732TMC3    C410817   3.133   4.510  11.466 -0.0566 -0.0929  0.2761
  732TMC3    C510818   3.133   4.387  11.401 -0.6830 -0.4038 -0.3580
  732TMC3    C610819   3.022   4.318  11.363  0.5241  0.0947  0.2455
  732TMC3     C10820   3.020   4.668  11.592  0.0388 -0.3120  0.0658
  732TMC3     O10821   3.120   4.663  11.662 -0.1902 -0.3319  0.2155
  732TMC3     H10822   2.802   4.540  11.501 -0.7867  0.0791 -1.2450
  732TMC3    H110823   3.221   4.571  11.480 -0.1169 -0.2021  1.1116
  732TMC3    H210824   3.028   4.219  11.319  0.7816  0.4634 -0.5603
  732TMC3    C710825   3.257   4.341  11.345 -0.5744 -0.5320  0.2443
  732TMC3    C810826   2.783   4.304  11.399 -0.4871 -0.1563  0.1557
  732TMC3    O110827   3.244   4.273  11.245 -0.2411  0.1263  0.5073
  732TMC3    O210828   2.774   4.222  11.312  0.1883  0.5197 -0.1258
  733TMC3    C110829   3.533   2.560  12.696 -0.2027 -0.0376  0.6487
  733TMC3    C210830   3.639   2.581  12.781  0.2068 -0.0740 -0.1134
  733TMC3    C310831   3.747   2.654  12.735 -0.2588  0.0235  0.8476
  733TMC3    C410832   3.533   2.603  12.568 -0.3383  0.4956 -0.1769
  733TMC3    C510833   3.641   2.672  12.528  0.7732 -0.2289  0.6501
  733TMC3    C610834   3.746   2.712  12.608  0.0409  0.2339 -0.0812
  733TMC3     C10835   3.415   2.516  12.758  0.0615  0.0802 -0.4772
  733TMC3     O10836   3.424   2.525  12.882 -0.5150  0.2441 -0.4175
  733TMC3     H10837   3.644   2.539  12.881  0.9611 -0.1782 -0.1930
  733TMC3    H110838   3.453   2.589  12.496 -1.8637  0.9435  1.4338
  733TMC3    H210839   3.823   2.781  12.575 -1.5914  1.2615 -1.7686
  733TMC3    C710840   3.613   2.759  12.421  0.3913  0.1931 -0.0516
  733TMC3    C810841   3.830   2.711  12.838 -0.9430 -0.3590 -0.6408
  733TMC3    O110842   3.559   2.707  12.327  0.3064 -0.0562  0.2171
  733TMC3    O210843   3.845   2.656  12.948 -0.1180 -0.2091 -0.1572
  734MPD2     C10844   1.152   1.004  12.238 -0.7164 -0.2763  0.5304
  734MPD2    C110845   1.075   0.921  12.159  0.4817 -1.0495  0.0807
  734MPD2    C210846   1.075   0.937  12.021 -0.0221  0.0499 -0.3451
  734MPD2    C310847   1.133   1.051  11.964  0.3950 -0.7972 -0.6826
  734MPD2    C410848   1.212   1.134  12.044 -0.7714  0.1876 -0.4653
  734MPD2    C510849   1.213   1.110  12.177  0.5757  0.0672 -0.8683
  734MPD2     H10850   1.007   0.888  11.951  1.0625  0.1861 -1.4972
  734MPD2    H110851   1.247   1.230  12.010 -1.2179  0.3612 -0.4329
  734MPD2    H210852   1.156   0.995  12.346  2.2896 -0.5613  0.4000
  734MPD2    H310853   1.256   1.188  12.239  1.8566 -1.6932  0.4504
  734MPD2     N10854   1.124   1.057  11.828 -0.4316 -0.1052  0.4654
  734MPD2    H510855   1.059   0.995  11.780 -0.5666  0.1300  0.3418
  734MPD2    N110856   0.997   0.822  12.225  0.3416  0.1069 -0.3777
  734MPD2    H710857   0.988   0.828  12.326  1.4146 -0.1173 -0.2790
  735TMC3    C110858   0.875   0.610  12.218  0.6581  0.0410  0.3437
  735TMC3    C210859   0.774   0.543  12.152  0.0550  0.7404  0.7714
  735TMC3    C310860   0.788   0.405  12.125 -0.3677 -0.0194  0.4018
  735TMC3    C410861   0.973   0.544  12.287  0.3245  0.3255  0.0465
  735TMC3    C510862   0.970   0.405  12.282  0.3749 -0.3551  0.4233
  735TMC3    C610863   0.885   0.332  12.199 -0.0399  0.1824  0.0251
  735TMC3     C10864   0.913   0.734  12.152  0.9336 -0.5931 -0.4829
  735TMC3     O10865   0.888   0.723  12.033 -0.4109 -0.5716  0.1816
  735TMC3     H10866   0.695   0.594  12.099  0.6363 -1.6950 -2.4425
  735TMC3    H110867   1.049   0.597  12.344 -0.3712 -0.7964  2.0313
  735TMC3    H210868   0.899   0.227  12.175 -0.8194  0.2843 -0.8796
  735TMC3    C710869   1.104   0.352  12.272  0.1734  0.3516 -0.2120
  735TMC3    C810870   0.768   0.375  11.985  0.6509  0.0102 -0.7211
  735TMC3    O110871   1.181   0.435  12.236  0.2658  0.2801  0.1521
  735TMC3    O210872   0.771   0.253  11.951 -1.1246  0.4465 -0.7590
  736MPD2     C10873   1.267   0.043  12.421  0.4084 -0.7180  0.7195
  736MPD2    C110874   1.259   0.156  12.350  0.0393 -0.6361 -0.0433
  736MPD2    C210875   1.364   0.204  12.273  0.0964 -0.1966  0.6332
  736MPD2    C310876   1.480   0.134  12.272 -0.0996 -0.5036 -0.2388
  736MPD2    C410877   1.491   0.020  12.347 -0.4039 -0.0876 -0.4633
  736MPD2    C510878   1.388   4.705  12.428  0.2331  0.3596  0.1510
  736MPD2     H10879   1.355   0.279  12.195  2.4721 -1.3696 -0.7680
  736MPD2    H110880   1.584   4.687  12.351 -0.4899  0.0756  4.2292
  736MPD2    H210881   1.184   0.009  12.482  0.6018 -0.8011  0.9305
  736MPD2    H310882   1.404   4.613  12.483 -2.3595  0.0014  0.2852
  736MPD2     N10883   1.599   0.168  12.198 -0.5557 -1.0150  0.3101
  736MPD2    H510884   1.680   0.111  12.219 -0.5836 -1.1794 -0.0290
  736MPD2    N110885   1.128   0.226  12.335 -0.4222 -1.3104 -1.2984
  736MPD2    H710886   1.043   0.188  12.376  0.2089 -0.0587  1.1195
  737TMC3    C110887   1.718   0.222  12.001 -0.5109  0.5083  0.4304
  737TMC3    C210888   1.744   0.319  11.908  0.0812  0.2550 -0.0620
  737TMC3    C310889   1.860   0.304  11.835  0.3100  0.1611  0.2475
  737TMC3    C410890   1.803   0.112  12.013 -0.1273 -0.5671 -0.1431
  737TMC3    C510891   1.912   0.097  11.932 -0.6516 -0.3589  0.1671
  737TMC3    C610892   1.941   0.198  11.844 -0.5212 -0.0617  0.6109
  737TMC3     C10893   1.601   0.246  12.085 -0.8406 -1.1126  0.3550
  737TMC3     O10894   1.513   0.307  12.031 -0.8056  0.2944 -0.1838
  737TMC3     H10895   1.692   0.414  11.908  1.0249  0.7815 -0.5460
  737TMC3    H110896   1.778   0.031  12.082 -0.4344 -0.7611 -0.4818
  737TMC3    H210897   2.025   0.180  11.778  1.4531  4.3451  1.8740
  737TMC3    C710898   1.954   4.684  11.917 -0.3701  0.5852 -0.2788
  737TMC3    C810899   1.912   0.428  11.768  0.3547 -0.1434 -0.2893
  737TMC3    O110900   1.880   4.597  11.967 -0.3315 -0.2871 -0.1475
  737TMC3    O210901   2.032   0.446  11.759 -0.1744  0.4073 -0.2630
  738MPD2     C10902   1.566   3.956  15.659 -0.2766 -0.8040  0.6426
  738MPD2    C110903   1.601   3.930  15.528 -0.0194  0.2251 -0.2002
  738MPD2    C210904   1.691   4.022  15.465 -0.6551 -0.0405  0.4352
  738MPD2    C310905   1.733   4.138  15.531  0.0720  0.4523  0.2434
  738MPD2    C410906   1.702   4.151  15.661  0.1264 -0.0338 -0.5644
  738MPD2    C510907   1.619   4.065  15.725 -0.2575  0.4621  0.2369
  738MPD2     H10908   1.706   4.008  15.358  2.0569  1.3563  0.6293
  738MPD2    H110909   1.762   4.225  15.713 -0.0482 -0.6057  0.4527
  738MPD2    H210910   1.491   3.902  15.715 -0.3950 -0.5734  0.7075
  738MPD2    H310911   1.587   4.080  15.827 -2.0926  3.0685 -0.7401
  738MPD2     N10912   1.825   4.234  15.483  0.5107 -0.2450 -0.4852
  738MPD2    H510913   1.871   4.294  15.551  1.6597 -0.1901 -1.3006
  738MPD2    N110914   1.555   3.814  15.460 -0.5047  0.0637  0.5145
  738MPD2    H710915   1.599   3.791  15.372 -1.6808 -0.7680  0.1515
  739TMC3    C110916   1.998   4.298  15.334 -0.3132 -0.1350  0.2544
  739TMC3    C210917   2.038   4.313  15.202  0.0831  0.0182 -0.0450
  739TMC3    C310918   2.171   4.289  15.164  0.0682  0.1824  0.0991
  739TMC3    C410919   2.085   4.263  15.431  0.0728 -0.4855 -0.2530
  739TMC3    C510920   2.217   4.250  15.393 -0.1859 -0.8555  0.1940
  739TMC3    C610921   2.262   4.256  15.264 -0.1524 -0.2189 -0.7405
  739TMC3     C10922   1.869   4.240  15.353  0.0059  0.1487  0.3565
  739TMC3     O10923   1.822   4.190  15.251 -0.0203 -0.1380  0.2496
  739TMC3     H10924   1.967   4.344  15.126  1.2817 -0.2715 -1.2913
  739TMC3    H110925   2.060   4.267  15.536 -2.4967 -0.3099 -0.8758
  739TMC3    H210926   2.369   4.256  15.249 -0.3124  0.1754 -1.8494
  739TMC3    C710927   2.298   4.199  15.507  0.2256  0.8436 -0.2272
  739TMC3    C810928   2.207   4.273  15.026  0.0100 -0.0278  0.6246
  739TMC3    O110929   2.298   4.263  15.610  0.6105 -0.5556  0.2488
  739TMC3    O210930   2.135   4.330  14.945  0.4755 -0.1355 -0.9371
  740TMC3    C110931   2.438   0.676  14.174  0.0864  1.1382  0.1814
  740TMC3    C210932   2.481   0.627  14.295  1.0633 -0.0092 -0.2454
  740TMC3    C310933   2.617   0.621  14.325  0.2214 -0.2896 -0.2326
  740TMC3    C410934   2.531   0.727  14.084 -0.6313 -0.6583 -0.2924
  740TMC3    C510935   2.663   0.717  14.117 -0.4675 -0.7333 -0.0390
  740TMC3    C610936   2.708   0.658  14.233 -0.3011  0.2388  0.5017
  740TMC3     C10937   2.301   0.728  14.164 -0.2141 -0.1286 -0.2784
  740TMC3     O10938   2.280   0.802  14.067 -0.0327  0.1711  0.3987
  740TMC3     H10939   2.417   0.594  14.376  0.5819  0.0951 -0.5870
  740TMC3    H110940   2.490   0.794  14.010 -1.5276 -1.8014 -0.8207
  740TMC3    H210941   2.813   0.650  14.258  0.0007  1.3029 -0.4479
  740TMC3    C710942   2.757   0.729  14.016 -0.2315  0.8961  0.2718
  740TMC3    C810943   2.660   0.563  14.453 -0.1336 -0.5446  0.7660
  740TMC3    O110944   2.874   0.704  14.050 -0.0438  0.0532  0.0656
  740TMC3    O210945   2.574   0.501  14.512 -0.4885  0.1685  0.1750
  741TMC3    C110946   2.398   0.070  13.802 -0.5138 -0.1690  0.6966
  741TMC3    C210947   2.274   0.055  13.858  0.1361 -0.1374 -0.2703
  741TMC3    C310948   2.271   0.019  13.994 -0.3924  0.0591 -0.6980
  741TMC3    C410949   2.514   0.048  13.869 -0.2245  0.3067 -0.9710
  741TMC3    C510950   2.503   0.017  14.000  0.1341 -0.1204 -0.7303
  741TMC3    C610951   2.389   0.001  14.063  0.1681 -0.1401  0.9772
  741TMC3     C10952   2.416   0.103  13.665 -0.0201 -0.6263  0.2448
  741TMC3     O10953   2.524   0.083  13.610 -0.4798 -0.4807  0.3896
  741TMC3     H10954   2.185   0.050  13.796  0.5329  1.2274 -0.9666
  741TMC3    H110955   2.606   0.078  13.821  0.1346  0.8044  0.0236
  741TMC3    H210956   2.391   4.708  14.170  0.0873 -0.0335  0.9944
  741TMC3    C710957   2.619   4.706  14.082  0.3979 -0.2371  0.3589
  741TMC3    C810958   2.154   4.678  14.056 -0.4937 -0.3836 -0.5128
  741TMC3    O110959   2.609   4.641  14.189 -0.2631 -0.2400 -0.1978
  741TMC3    O210960   2.062   4.672  13.975 -0.1414  0.7010  0.4557
  742TMC3    C110961   1.957   3.243  15.196  0.7609 -0.4859  0.8655
  742TMC3    C210962   1.859   3.173  15.136 -0.0101 -0.6680 -0.2938
  742TMC3    C310963   1.888   3.056  15.084  0.7328 -0.5949  0.5749
  742TMC3    C410964   2.083   3.190  15.212 -0.0934  0.1811 -0.2080
  742TMC3    C510965   2.099   3.057  15.177 -0.1880  0.8328  0.4539
  742TMC3    C610966   2.009   2.996  15.095 -0.4850 -1.2130 -0.3009
  742TMC3     C10967   1.912   3.356  15.281  0.1618 -0.2576 -0.0092
  742TMC3     O10968   1.803   3.345  15.334 -0.1018 -0.0302  0.5987
  742TMC3     H10969   1.765   3.227  15.130 -0.4873 -1.3726  0.7951
  742TMC3    H110970   2.160   3.237  15.272 -1.3423  1.7916  0.1422
  742TMC3    H210971   2.025   2.896  15.058  0.1427 -1.2070 -0.0454
  742TMC3    C710972   2.219   2.978  15.200  0.3677  0.5326  0.0197
  742TMC3    C810973   1.799   2.993  14.991 -0.2154  0.1736 -0.7310
  742TMC3    O110974   2.218   2.856  15.172 -0.0018 -0.3457  0.3720
  742TMC3    O210975   1.849   2.907  14.918 -0.4514 -0.1891 -0.1855
  743MPD2     C10976   0.234   4.388   2.143  0.6217 -0.4873  0.5041
  743MPD2    C110977   0.266   4.375   2.009 -0.1679  0.2609 -0.1132
  743MPD2    C210978   0.397   4.416   1.968  0.7006 -0.2815 -0.6131
  743MPD2    C310979   0.485   4.462   2.064  0.5023 -0.4245  0.1765
  743MPD2    C410980   0.454   4.472   2.195 -1.0361 -0.2290  0.2119
  743MPD2    C510981   0.331   4.427   2.230  0.2554  0.3115 -0.0310
  743MPD2     H10982   0.422   4.414   1.863 -0.8406  0.1632 -0.9798
  743MPD2    H110983   0.522   4.511   2.270 -0.6644 -1.1003  0.3252
  743MPD2    H210984   0.137   4.367   2.187  0.5789  3.3206  2.1753
  743MPD2    H310985   0.308   4.429   2.335 -0.4826 -1.3822 -0.1506
  743MPD2     N10986   0.610   4.505   2.015 -0.0669  0.4160  0.2130
  743MPD2    H510987   0.634   4.480   1.919  1.9678  0.3883  0.7411
  743MPD2    N110988   0.170   4.322   1.919  0.2248  0.4208 -0.1824
  743MPD2    H710989   0.078   4.292   1.949 -0.3205  2.6429  0.3678
  744TMC3    C110990   0.082   4.255   1.718  0.7014  0.7893 -0.5865
  744TMC3    C210991   4.698   4.343   1.730  0.6380  0.0095 -0.1914
  744TMC3    C310992   4.596   4.327   1.647 -0.5730  0.1703 -0.1018
  744TMC3    C410993   0.095   4.156   1.632 -0.2347 -0.5832  0.0134
  744TMC3    C510994   4.711   4.136   1.553 -0.4002  0.5910  0.0337
  744TMC3    C610995   4.603   4.223   1.560  0.1419 -0.2340 -0.6580
  744TMC3     C10996   0.201   4.292   1.788 -0.2802 -0.1488 -0.1988
  744TMC3     O10997   0.306   4.267   1.728  0.4743  0.0903  0.0162
  744TMC3     H10998   4.697   4.427   1.799  0.7945  0.2131 -0.4387
  744TMC3    H110999   0.180   4.088   1.636  0.1564  0.1521  4.1318
  744TMC3    H211000   4.527   4.222   1.483 -0.4638  1.5849 -0.0738
  744TMC3    C711001   0.015   4.074   1.421  0.3339  0.4162  0.0525
  744TMC3    C811002   4.476   4.398   1.653  0.3076 -0.5566  0.5780
  744TMC3    O111003   4.663   4.093   1.325  0.2906 -0.0623  0.3444
  744TMC3    O211004   4.408   4.397   1.550 -0.2370  0.6600 -0.4602
  745TMC3    C111005   2.600   3.140  14.271  0.4489 -0.0295  0.0964
  745TMC3    C211006   2.722   3.084  14.280  0.7365 -0.3026  0.1238
  745TMC3    C311007   2.762   3.011  14.168 -0.2170 -0.1919 -0.1319
  745TMC3    C411008   2.519   3.120  14.160 -0.4104 -0.3116  0.0248
  745TMC3    C511009   2.566   3.047  14.053 -0.2963 -0.6833  0.1586
  745TMC3    C611010   2.688   2.995  14.060 -0.2295  0.0438  0.3065
  745TMC3     C11011   2.620   3.281  14.290 -0.0610  0.1739 -0.6025
  745TMC3     O11012   2.673   3.319  14.392 -0.1431  0.7037  0.3209
  745TMC3     H11013   2.780   3.102  14.370  0.9999  0.5210 -0.2067
  745TMC3    H111014   2.421   3.166  14.167 -0.4465 -0.2537 -0.9082
  745TMC3    H211015   2.728   2.931  13.982 -2.4613 -0.1662 -0.6778
  745TMC3    C711016   2.496   3.057  13.928  0.0114 -0.8315  0.2505
  745TMC3    C811017   2.891   2.954  14.171  0.2432 -0.2803 -0.0409
  745TMC3    O111018   2.378   3.085  13.930 -0.6711 -0.4050  1.1535
  745TMC3    O211019   2.922   2.843  14.128 -0.8339  0.4551  0.2986
  746TMC3    C111020   0.049   4.489  10.860  0.5673 -0.0426 -0.1015
  746TMC3    C211021   0.151   4.403  10.822  0.0378 -0.4335 -0.4171
  746TMC3    C311022   0.111   4.285  10.775  0.1934  0.2318 -0.0508
  746TMC3    C411023   4.640   4.455  10.855 -0.7339 -0.2624 -0.9502
  746TMC3    C511024   4.611   4.334  10.805 -0.1391 -0.5153  0.1692
  746TMC3    C611025   4.704   4.239  10.772  0.0642  0.6732  0.2985
  746TMC3     C11026   0.081   4.616  10.908  0.3229  0.5364  0.3374
  746TMC3     O11027   0.008   4.676  10.989  0.1043  0.1572  0.2224
  746TMC3     H11028   0.257   4.427  10.829 -0.4617  0.3642  4.0175
  746TMC3    H111029   4.561   4.521  10.888  0.1179 -0.7435  2.0365
  746TMC3    H211030   4.680   4.144  10.725 -2.0701  1.8965 -1.0723
  746TMC3    C711031   4.478   4.298  10.795  0.6200  0.3120 -0.0139
  746TMC3    C811032   0.214   4.215  10.700 -0.7663 -0.8646 -0.1677
  746TMC3    O111033   4.460   4.177  10.776 -0.1991 -0.0401 -0.1735
  746TMC3    O211034   0.219   4.092  10.687 -0.4169  0.1396 -0.0234
  747TMC3    C111035   2.494   4.558  11.038  0.8620  0.8190 -0.2327
  747TMC3    C211036   2.410   4.484  11.112  1.1024 -0.1780 -0.2445
  747TMC3    C311037   2.416   4.500  11.246  0.0947  0.1970 -0.3216
  747TMC3    C411038   2.601   4.632  11.087  0.5399 -0.3602  0.2961
  747TMC3    C511039   2.598   4.648  11.221 -0.3089 -0.5947  0.0582
  747TMC3    C611040   2.512   4.581  11.305  0.6419 -0.2404 -0.5680
  747TMC3     C11041   2.498   4.525  10.901 -0.6424  0.1680 -0.1308
  747TMC3     O11042   2.569   4.606  10.842 -0.1564  0.4084  0.0371
  747TMC3     H11043   2.322   4.441  11.067 -0.6357  0.7454  2.2217
  747TMC3    H111044   2.661   4.697  11.025 -1.4021  1.3803  0.2626
  747TMC3    H211045   2.535   4.585  11.411  3.1639 -3.1537 -0.9958
  747TMC3    C711046   2.726   4.706  11.268 -0.3435  0.1452 -0.1352
  747TMC3    C811047   2.300   4.440  11.316 -0.6205 -0.0098 -0.4266
  747TMC3    O111048   2.732   0.025  11.379  0.0100  0.0101 -0.0283
  747TMC3    O211049   2.210   4.383  11.253 -0.2243 -0.0057 -0.1660
  748MPD2     C11050   3.283   0.862   1.140  0.2153 -0.0798  0.3477
  748MPD2    C111051   3.315   0.806   1.263  0.0390 -0.5780 -0.2320
  748MPD2    C211052   3.447   0.789   1.303  0.1449 -0.8166  0.7641
  748MPD2    C311053   3.549   0.820   1.217 -0.5057  0.0958 -0.2023
  748MPD2    C411054   3.520   0.871   1.100 -0.4372 -0.2340 -0.6147
  748MPD2    C511055   3.390   0.892   1.059  0.1475 -0.2430  0.3078
  748MPD2     H11056   3.461   0.746   1.401  3.7464  1.0092  1.0600
  748MPD2    H111057   3.592   0.908   1.028 -0.5897 -1.1884 -1.2684
  748MPD2    H211058   3.180   0.875   1.109 -0.4478  0.1763  2.6751
  748MPD2    H311059   3.372   0.925   0.957 -1.1977 -0.3145  0.5207
  748MPD2     N11060   3.688   0.796   1.254  0.0102 -0.2354 -0.6091
  748MPD2    H511061   3.713   0.792   1.352  1.3938 -0.6358 -0.9831
  748MPD2    N111062   3.199   0.756   1.335 -0.3288  0.4033  0.1102
  748MPD2    H711063   3.108   0.767   1.292 -0.4474  0.3173  0.3405
  749TMC3    C111064   3.925   0.768   1.229  0.0009  0.2014  0.9739
  749TMC3    C211065   3.958   0.657   1.298  1.1181 -0.0218  0.5578
  749TMC3    C311066   4.078   0.592   1.283 -1.0175 -0.6919 -0.3467
  749TMC3    C411067   4.015   0.812   1.143  0.6327 -0.0743 -0.1844
  749TMC3    C511068   4.127   0.732   1.118 -0.3243 -0.4622  0.1362
  749TMC3    C611069   4.176   0.628   1.188  0.1927 -0.5527 -0.6914
  749TMC3     C11070   3.797   0.798   1.177  0.1097  0.0409  0.1923
  749TMC3     O11071   3.794   0.809   1.055  0.0452  0.4014 -0.0272
  749TMC3     H11072   3.885   0.622   1.369  0.4336 -1.2202 -0.7565
  749TMC3    H111073   3.989   0.907   1.097  2.8033 -0.4802 -2.2421
  749TMC3    H211074   4.265   0.575   1.156  1.3805  0.4644  0.9001
  749TMC3    C711075   4.156   0.729   0.974 -0.1762 -0.1679 -0.2757
  749TMC3    C811076   4.109   0.518   1.403 -0.1771  0.1205  0.0769
  749TMC3    O111077   4.267   0.685   0.943  0.1166 -0.5531 -0.2207
  749TMC3    O211078   4.030   0.508   1.495 -0.1410  1.4356  0.2321
  750MPD2     C11079   0.643   1.589  10.756  0.4836 -0.2958 -0.4737
  750MPD2    C111080   0.515   1.606  10.802 -0.0332 -0.0749  0.2268
  750MPD2    C211081   0.415   1.539  10.733 -0.2491 -0.0336  0.0830
  750MPD2    C311082   0.440   1.470  10.610 -0.0356 -0.1979  0.4050
  750MPD2    C411083   0.572   1.458  10.571  0.1258  0.3852  0.6905
  750MPD2    C511084   0.666   1.526  10.638 -0.0068  0.0714 -0.3887
  750MPD2     H11085   0.311   1.537  10.764 -0.6018  0.8629 -1.0288
  750MPD2    H111086   0.592   1.405  10.479 -0.1660 -1.5683  1.7321
  750MPD2    H211087   0.732   1.630  10.802  1.1933 -0.3390 -1.8151
  750MPD2    H311088   0.769   1.524  10.602  0.0142 -2.4571 -0.2423
  750MPD2     N11089   0.348   1.399  10.534  0.2114 -0.0437  0.2289
  750MPD2    H511090   0.381   1.332  10.465  1.6093 -0.0012  0.8418
  750MPD2    N111091   0.497   1.682  10.922 -0.3410  0.5904 -0.2915
  750MPD2    H711092   0.578   1.742  10.938 -1.4532  2.2400 -0.7916
  751TMC3    C111093   0.138   1.319  10.450  0.4675 -0.6462  0.6744
  751TMC3    C211094   0.007   1.290  10.477 -0.1504 -0.3366 -0.5162
  751TMC3    C311095   4.662   1.205  10.392 -0.8241 -0.3014  0.1636
  751TMC3    C411096   0.203   1.276  10.341  0.3844 -0.2167 -0.5088
  751TMC3    C511097   0.141   1.186  10.260  0.8700 -0.9104  0.1070
  751TMC3    C611098   0.006   1.154  10.287  0.6579  0.0527 -0.1705
  751TMC3     C11099   0.211   1.397  10.551 -0.2645 -0.2470  0.3574
  751TMC3     O11100   0.150   1.440  10.645 -0.3999  0.2974 -0.2374
  751TMC3     H11101   4.675   1.332  10.560 -0.4545 -0.7401 -0.5099
  751TMC3    H111102   0.300   1.316  10.313  1.0699 -0.2058  1.8525
  751TMC3    H211103   4.671   1.096  10.215 -0.9201 -0.3686  1.4275
  751TMC3    C711104   0.227   1.068  10.237 -0.0628  0.2664 -0.1217
  751TMC3    C811105   4.564   1.111  10.433  0.6331 -0.0104  0.4254
  751TMC3    O111106   0.342   1.081  10.199 -0.1699  0.2519  0.1210
  751TMC3    O211107   4.577   0.997  10.397  0.3019  0.1313 -0.4809
  752TMC3    C111108   3.602   1.407  17.036 -0.0288 -0.3132 -0.1016
  752TMC3    C211109   3.510   1.326  17.093  0.0657  0.0873 -0.4091
  752TMC3    C311110   3.498   1.329  17.229  0.3573  0.3556 -0.3383
  752TMC3    C411111   3.692   1.489  17.104 -0.4375 -0.2473 -0.2918
  752TMC3    C511112   3.673   1.497  17.241  0.0664 -1.0718 -0.2944
  752TMC3    C611113   3.575   1.420  17.303  0.0914  0.0437 -0.0848
  752TMC3     C11114   3.635   1.400  16.892 -0.4591 -0.0268 -0.0030
  752TMC3     O11115   3.747   1.427  16.850 -0.1977 -0.2258 -0.2252
  752TMC3     H11116   3.441   1.260  17.041 -1.3610  0.4636  1.0050
  752TMC3    H111117   3.774   1.541  17.056  0.3709 -1.0050  0.2734
  752TMC3    H211118   3.555   1.432  17.409  1.4092  2.1928 -0.0771
  752TMC3    C711119   3.770   1.567  17.329 -0.3218  0.3049 -0.3846
  752TMC3    C811120   3.373   1.287  17.295 -0.1377  0.1010  0.1150
  752TMC3    O111121   3.769   1.527  17.444  0.6098 -0.3827  0.6432
  752TMC3    O211122   3.266   1.274  17.243  0.0881  0.1320  0.0799
  753TMC3    C111123   0.938   3.074  13.777 -0.3704 -0.5550 -0.7787
  753TMC3    C211124   1.045   3.004  13.828 -0.1587  0.0280 -0.1340
  753TMC3    C311125   1.051   2.871  13.795  0.0587  0.2964  0.3524
  753TMC3    C411126   0.842   3.007  13.703 -0.7390 -0.1869 -0.1795
  753TMC3    C511127   0.860   2.873  13.669  0.0905 -0.3405 -0.9862
  753TMC3    C611128   0.962   2.798  13.716 -0.0679  0.2138  0.5603
  753TMC3     C11129   0.952   3.225  13.773 -0.5731 -0.4423  0.2203
  753TMC3     O11130   1.033   3.279  13.844 -0.6089  0.2036 -0.6486
  753TMC3     H11131   1.127   3.064  13.867  1.4770 -0.2754 -3.0979
  753TMC3    H111132   0.761   3.069  13.668  0.4733  2.2050  1.1949
  753TMC3    H211133   0.970   2.691  13.707  1.2595  0.5548 -2.1428
  753TMC3    C711134   0.733   2.806  13.668 -0.2544 -0.6395 -1.3920
  753TMC3    C811135   1.170   2.800  13.841 -0.2712  0.1272 -0.9457
  753TMC3    O111136   0.637   2.866  13.706  0.4099  0.6982  0.2349
  753TMC3    O211137   1.214   2.731  13.752  0.1717 -0.1979 -0.1369
  754MPD2     C11138   3.869   0.966  12.236 -1.0981  0.0619  0.3479
  754MPD2    C111139   3.784   0.893  12.320 -0.5264 -0.3842 -0.3749
  754MPD2    C211140   3.657   0.945  12.343  0.3754  0.3797 -0.0555
  754MPD2    C311141   3.632   1.077  12.313 -0.3835 -0.2774 -0.8160
  754MPD2    C411142   3.724   1.151  12.236  0.0434  0.4906  0.5153
  754MPD2    C511143   3.839   1.096  12.203  0.0998 -0.0315 -0.2337
  754MPD2     H11144   3.580   0.900  12.405  1.1344  0.3146  0.8408
  754MPD2    H111145   3.709   1.256  12.215 -2.3630  0.1485  0.4549
  754MPD2    H211146   3.957   0.924  12.190 -0.4465  0.8243  0.8870
  754MPD2    H311147   3.911   1.149  12.143  0.2421 -1.3461 -1.2329
  754MPD2     N11148   3.513   1.133  12.366  0.2080  0.4243  0.7294
  754MPD2    H511149   3.453   1.067  12.414  0.6780 -1.3645 -1.1478
  754MPD2    N111150   3.834   0.775  12.375 -0.1105  0.1740  0.5540
  754MPD2    H711151   3.934   0.761  12.374 -0.3521 -1.7026  2.1431
  755MPD2     C11152   3.491   1.622  13.300 -0.3290  0.2360  0.7077
  755MPD2    C111153   3.399   1.655  13.204  0.2536  0.0522 -1.2405
  755MPD2    C211154   3.404   1.576  13.086 -0.6054  0.0497  0.5497
  755MPD2    C311155   3.495   1.478  13.058 -0.2110  0.0228 -0.5840
  755MPD2    C411156   3.576   1.437  13.165  0.7672 -0.1838 -0.3821
  755MPD2    C511157   3.570   1.510  13.283 -0.0685 -0.3798  0.0720
  755MPD2     H11158   3.330   1.598  13.010  0.7355  0.5947 -0.5894
  755MPD2    H111159   3.638   1.351  13.142 -2.0964 -1.8970 -1.7667
  755MPD2    H211160   3.504   1.684  13.389  0.8193  0.9795  0.0211
  755MPD2    H311161   3.643   1.490  13.361 -0.0177 -0.5387 -0.0143
  755MPD2     N11162   3.494   1.409  12.933 -0.0908 -1.1751 -0.0544
  755MPD2    H511163   3.556   1.329  12.929  1.0621  0.0215 -5.0855
  755MPD2    N111164   3.310   1.757  13.202 -0.0857  0.2149 -0.4886
  755MPD2    H711165   3.253   1.773  13.120  1.4427  0.6539 -1.4716
  756MPD2     C11166   0.456   1.190   8.792 -0.7518  0.3297  0.5176
  756MPD2    C111167   0.566   1.243   8.859 -0.0948  0.0111  0.4359
  756MPD2    C211168   0.658   1.161   8.911  0.4298 -0.0433  0.0752
  756MPD2    C311169   0.659   1.029   8.880 -0.0915 -0.1436  0.2894
  756MPD2    C411170   0.553   0.973   8.804  0.8507  0.9465  0.6795
  756MPD2    C511171   0.448   1.057   8.764  0.1281 -0.1203 -0.6270
  756MPD2     H11172   0.734   1.193   8.981  0.9745  0.8767 -0.9384
  756MPD2    H111173   0.538   0.867   8.790  1.4510  0.7726  1.3679
  756MPD2    H211174   0.373   1.255   8.769 -0.4960  0.8341  1.0263
  756MPD2    H311175   0.374   1.009   8.700 -0.0809  0.1781 -0.6097
  756MPD2     N11176   0.765   0.954   8.938 -0.0853  0.5629 -0.6513
  756MPD2    H511177   0.828   1.006   9.000 -1.1919 -0.8309  1.6141
  756MPD2    N111178   0.571   1.378   8.911 -0.2288  0.4120  0.5779
  756MPD2    H711179   0.639   1.403   8.982  0.7094  0.7356 -0.4360
  757MPD2     C11180   1.014   4.648   8.981  0.2225 -0.8789 -1.0750
  757MPD2    C111181   0.950   4.694   9.099  0.0594 -0.5657  0.5908
  757MPD2    C211182   0.929   0.109   9.115 -0.7327 -0.1172  0.2877
  757MPD2    C311183   0.975   0.200   9.018  1.2059  0.0908  0.1240
  757MPD2    C411184   1.014   0.150   8.897  0.0968  0.3497  0.0079
  757MPD2    C511185   1.041   0.014   8.880  0.9516  0.1509 -0.4546
  757MPD2     H11186   0.902   0.146   9.213 -3.8820 -0.7061 -0.3447
  757MPD2    H111187   1.033   0.229   8.825 -1.5859  0.9447  0.2193
  757MPD2    H211188   1.023   4.542   8.960 -0.2929 -1.1418 -0.0081
  757MPD2    H311189   1.068   4.707   8.780 -0.0653 -3.3280  0.3136
  757MPD2     N11190   0.971   0.337   9.047  0.2522  0.0170 -0.1512
  757MPD2    H511191   0.921   0.373   9.127  0.0252 -1.9633  0.5893
  757MPD2    N111192   0.913   4.593   9.192  0.0339  0.3024  0.0414
  757MPD2    H711193   0.947   4.498   9.177 -1.8363 -0.4940  0.9006
  758MPD2     C11194   4.008   0.444  15.926 -0.3471 -0.0573  0.5176
  758MPD2    C111195   4.132   0.483  15.872 -0.3085 -0.1190 -0.1721
  758MPD2    C211196   4.184   0.604  15.912 -0.2050 -0.3217 -0.0416
  758MPD2    C311197   4.114   0.681  16.008  0.6559 -0.6803  0.1474
  758MPD2    C411198   3.985   0.645  16.049 -0.9801  0.0674 -0.3949
  758MPD2    C511199   3.936   0.524  16.007  0.0702 -0.3279 -0.1628
  758MPD2     H11200   4.280   0.633  15.870 -0.2704 -1.3692 -0.8909
  758MPD2    H111201   3.928   0.694  16.127  0.7764  1.5638 -0.0390
  758MPD2    H211202   3.968   0.351  15.887  0.7320 -0.5105  0.4994
  758MPD2    H311203   3.847   0.493  16.060  0.1092  0.4638  0.3621
  758MPD2     N11204   4.167   0.799  16.071 -0.1210 -0.1979  0.3718
  758MPD2    H511205   4.099   0.830  16.140 -0.9815 -1.7683  0.2372
  758MPD2    N111206   4.209   0.401  15.777 -0.2465 -0.4787 -0.0508
  758MPD2    H711207   4.295   0.443  15.743 -0.4814 -1.2273 -1.5628
  759MPD2     C11208   3.491   3.830   9.704 -0.6625  0.2726  0.3277
  759MPD2    C111209   3.551   3.742   9.786  0.7394 -0.1051  0.4681
  759MPD2    C211210   3.642   3.645   9.734  0.3533  1.0860 -0.0210
  759MPD2    C311211   3.673   3.643   9.599  0.2400 -0.1366 -0.2450
  759MPD2    C411212   3.603   3.730   9.520 -0.3356  0.3812 -0.0019
  759MPD2    C511213   3.512   3.821   9.571  0.1678  0.2102 -0.2236
  759MPD2     H11214   3.687   3.564   9.789 -0.5257  0.7484  0.1911
  759MPD2    H111215   3.607   3.732   9.412 -0.8629 -0.8786 -0.0514
  759MPD2    H211216   3.423   3.910   9.732 -0.6039  0.3261  0.3160
  759MPD2    H311217   3.465   3.896   9.509  0.8494  0.9508  0.1599
  759MPD2     N11218   3.763   3.539   9.560 -0.2513 -0.1122 -0.4597
  759MPD2    H511219   3.814   3.486   9.630  1.5543  1.9334 -0.2427
  759MPD2    N111220   3.535   3.751   9.925  0.9447  0.6853  0.5530
  759MPD2    H711221   3.588   3.685   9.980  0.7830  0.9652  1.0454
  760MPD2     C11222   2.832   1.739  11.633  0.2729  0.2711 -0.0815
  760MPD2    C111223   2.958   1.759  11.576  0.0932 -0.6372  0.0726
  760MPD2    C211224   3.047   1.657  11.595  0.5576  0.6547  1.0663
  760MPD2    C311225   3.018   1.539  11.652  0.1576 -0.2514  0.2480
  760MPD2    C411226   2.896   1.523  11.712 -0.2149  0.6383  0.3498
  760MPD2    C511227   2.802   1.618  11.699 -1.1791  0.1250 -0.3525
  760MPD2     H11228   3.143   1.671  11.546 -0.5969  1.9502 -0.8041
  760MPD2    H111229   2.853   1.432  11.753 -3.7500  1.3310 -1.7592
  760MPD2    H211230   2.755   1.814  11.620  2.2031  2.2443 -0.0578
  760MPD2    H311231   2.705   1.609  11.745 -0.6657  0.1347  0.7168
  760MPD2     N11232   3.109   1.429  11.658  1.2265  0.3195 -0.3067
  760MPD2    H511233   3.074   1.344  11.700 -1.4733  1.5431 -0.1017
  760MPD2    N111234   3.001   1.871  11.500  0.5744  0.2599  0.4875
  760MPD2    H711235   3.102   1.873  11.487 -0.0343 -0.9492 -4.0686
  761MPD2     C11236   4.178   0.952  10.704  0.0631 -0.5077 -0.5832
  761MPD2    C111237   4.281   0.882  10.660  0.5309 -0.1004  0.5873
  761MPD2    C211238   4.383   0.953  10.604 -0.8764  0.7806 -0.4959
  761MPD2    C311239   4.379   1.093  10.588 -0.1066 -0.0428 -0.9949
  761MPD2    C411240   4.269   1.153  10.631  0.5937  0.2957 -0.1366
  761MPD2    C511241   4.169   1.085  10.689  0.1786 -0.0778 -1.1619
  761MPD2     H11242   4.477   0.903  10.583 -0.4108  1.8651 -1.0172
  761MPD2    H111243   4.260   1.261  10.625 -1.5833  0.1402  0.1909
  761MPD2    H211244   4.091   0.911  10.754 -1.4569  0.7829 -2.1471
  761MPD2    H311245   4.078   1.137  10.715  1.5984  0.3642  2.9059
  761MPD2     N11246   4.476   1.165  10.521  0.1424 -0.6720 -0.3466
  761MPD2    H511247   4.471   1.266  10.516 -2.7597 -0.8274 -0.6545
  761MPD2    N111248   4.277   0.741  10.669 -0.0047 -0.6308  0.2175
  761MPD2    H711249   4.188   0.701  10.698 -1.5694  2.6712 -0.0583
  762MPD2     C11250   0.151   0.664  10.664 -0.6515  0.1880  0.5706
  762MPD2    C111251   0.117   0.531  10.671  0.2917  0.0128  0.1588
  762MPD2    C211252   0.217   0.442  10.640 -0.1940  0.4895 -0.4759
  762MPD2    C311253   0.342   0.487  10.600 -1.2911 -0.4572 -0.3880
  762MPD2    C411254   0.372   0.621  10.600 -0.6523  0.5029 -0.5478
  762MPD2    C511255   0.275   0.709  10.630  0.5137  0.3264  0.0256
  762MPD2     H11256   0.186   0.338  10.638  0.2665  0.3987 -2.7233
  762MPD2    H111257   0.471   0.652  10.568 -1.2100 -0.4772 -3.2084
  762MPD2    H211258   0.079   0.742  10.688 -1.2910  0.0640 -0.9682
  762MPD2    H311259   0.294   0.814  10.613 -0.3321  0.1826 -1.8241
  762MPD2     N11260   0.435   0.388  10.566  0.4713 -0.6507 -0.0478
  762MPD2    H511261   0.397   0.294  10.556 -0.3525 -0.1877 -1.3417
  762MPD2    N111262   4.709   0.493  10.710 -0.1301 -0.0943  0.2847
  762MPD2    H711263   4.644   0.571  10.707  0.8908  0.6723 -1.8685
  763MPD2     C11264   1.277   1.020  15.938  0.3727 -0.1038  0.5377
  763MPD2    C111265   1.230   1.137  15.887  0.3923 -0.1697  0.3680
  763MPD2    C211266   1.281   1.250  15.949  0.7710 -0.8696 -0.0746
  763MPD2    C311267   1.382   1.232  16.051 -0.0116  0.4987 -0.0168
  763MPD2    C411268   1.432   1.105  16.082 -0.1094  0.7171 -0.0854
  763MPD2    C511269   1.371   1.004  16.024  0.3363  0.1726  0.9796
  763MPD2     H11270   1.245   1.349  15.923  1.1315 -0.4631  0.9914
  763MPD2    H111271   1.501   1.078  16.161  1.3178 -1.4069 -2.0633
  763MPD2    H211272   1.235   0.924  15.911  2.4518 -0.8115 -0.1625
  763MPD2    H311273   1.406   0.904  16.047 -0.0428  0.4239  2.7078
  763MPD2     N11274   1.438   1.337  16.126  0.7668 -0.2227 -0.0097
  763MPD2    H511275   1.510   1.309  16.192  1.9710 -0.6391 -1.5030
  763MPD2    N111276   1.127   1.162  15.793 -0.1518 -0.6184  0.6809
  763MPD2    H711277   1.123   1.255  15.753  1.0903 -0.5174  0.7811
  764MPD2     C11278   3.838   2.233  17.441  0.3090 -0.6360 -0.4705
  764MPD2    C111279   3.742   2.175  17.360 -0.3096 -0.2359  0.1225
  764MPD2    C211280   3.683   2.057  17.403  0.9788 -0.2083  0.2958
  764MPD2    C311281   3.716   1.989  17.521 -0.1953  0.0267  0.4945
  764MPD2    C411282   3.819   2.047  17.595  0.3232  0.0022  0.7112
  764MPD2    C511283   3.876   2.169  17.555 -0.0069  0.2505 -0.3813
  764MPD2     H11284   3.602   2.018  17.341  2.1172  0.1605 -1.4250
  764MPD2    H111285   3.848   2.003  17.689 -0.6017 -1.6232  0.2292
  764MPD2    H211286   3.866   2.334  17.414  1.1649 -0.5787  0.6503
  764MPD2    H311287   3.956   2.201  17.620 -0.7728  1.7593 -0.1812
  764MPD2     N11288   3.632   1.883  17.567 -0.5062  0.1949  0.7980
  764MPD2    H511289   3.566   1.850  17.498  2.2273 -2.1512 -0.6606
  764MPD2    N111290   3.706   2.239  17.240 -0.6203  0.0696  0.2738
  764MPD2    H711291   3.729   2.337  17.233 -0.3127 -0.1246 -1.5724
  765MPD2     C11292   3.553   0.203  15.951  0.2821  0.1124  0.0880
  765MPD2    C111293   3.649   0.279  15.879 -1.0064  0.5909 -0.7234
  765MPD2    C211294   3.752   0.216  15.811 -0.2176 -0.4332 -0.2040
  765MPD2    C311295   3.759   0.078  15.818  0.5249 -0.0360  0.2856
  765MPD2    C411296   3.664   0.006  15.884  0.5651 -0.2260 -0.0312
  765MPD2    C511297   3.566   0.065  15.952 -0.4206  0.1972 -0.2784
  765MPD2     H11298   3.818   0.268  15.742 -0.7134  0.2405 -0.1724
  765MPD2    H111299   3.662   4.621  15.886 -0.3740 -0.2063 -0.1842
  765MPD2    H211300   3.467   0.239  16.008  0.2550 -1.0934  0.8160
  765MPD2    H311301   3.496   0.001  16.003  1.8369 -1.5192  0.6204
  765MPD2     N11302   3.860   0.023  15.737  0.5588 -0.1390 -0.6161
  765MPD2    H511303   3.914   0.098  15.695  0.2927  0.8739  0.8769
  765MPD2    N111304   3.622   0.411  15.864 -0.0768 -0.1027 -0.3945
  765MPD2    H711305   3.544   0.452  15.915  0.4721  0.7070 -0.2066
  766MPD2     C11306   3.166   0.827  15.309 -0.1264  0.4199 -0.3867
  766MPD2    C111307   3.281   0.788  15.365 -0.7821 -0.2838 -0.4165
  766MPD2    C211308   3.377   0.740  15.273  0.2289  0.2162  0.5451
  766MPD2    C311309   3.351   0.748  15.137  0.3592 -0.0007 -0.4122
  766MPD2    C411310   3.233   0.805  15.091  0.3395  0.6990  0.3777
  766MPD2    C511311   3.135   0.832  15.177 -0.4368  0.3237  0.0792
  766MPD2     H11312   3.471   0.696  15.303  0.6106 -0.0836 -1.1086
  766MPD2    H111313   3.219   0.830  14.987 -0.9966 -2.7339 -0.2787
  766MPD2    H211314   3.082   0.846  15.375 -0.1526  1.8947 -0.8464
  766MPD2    H311315   3.045   0.884  15.144  1.0999  2.5564 -0.6170
  766MPD2     N11316   3.463   0.730  15.046 -0.1801 -0.0391  0.2953
  766MPD2    H511317   3.455   0.783  14.960 -1.7741  0.6510  0.8647
  766MPD2    N111318   3.304   0.795  15.503  0.3948  0.1953 -0.4001
  766MPD2    H711319   3.251   0.850  15.569  2.0569 -0.9914  1.9072
  767MPD2     C11320   3.194   1.258  14.914 -0.2002 -0.0590 -0.0308
  767MPD2    C111321   3.296   1.166  14.936  0.2525 -0.0096 -0.2005
  767MPD2    C211322   3.299   1.065  14.848  0.0928 -0.3009 -0.0512
  767MPD2    C311323   3.220   1.055  14.733  0.8527 -0.5409 -0.1515
  767MPD2    C411324   3.130   1.154  14.705 -0.6902 -0.4589 -0.1394
  767MPD2    C511325   3.122   1.260  14.802  0.3107  0.9831 -0.2847
  767MPD2     H11326   3.377   0.991  14.861 -0.6502 -0.9555  0.6725
  767MPD2    H111327   3.065   1.151  14.619  2.6953 -0.0620 -2.7071
  767MPD2    H211328   3.176   1.339  14.984  2.2274 -0.7100  1.3236
  767MPD2    H311329   3.059   1.346  14.783  0.2023  0.6480 -1.4827
  767MPD2     N11330   3.236   0.956  14.633  0.7919 -0.4932 -0.1355
  767MPD2    H511331   3.181   0.963  14.549  0.9638 -0.0346 -0.2108
  767MPD2    N111332   3.385   1.190  15.047  0.3073 -0.0325  0.3853
  767MPD2    H711333   3.351   1.261  15.111 -3.2990 -0.1747 -1.3299
  768MPD2     C11334   4.387   3.510  10.533  0.8540  0.1668  0.3697
  768MPD2    C111335   4.331   3.623  10.597  0.0934 -0.6422  0.6795
  768MPD2    C211336   4.383   3.659  10.721 -0.3658 -0.1131 -0.7676
  768MPD2    C311337   4.483   3.590  10.782  0.4236  0.3316 -0.3232
  768MPD2    C411338   4.539   3.482  10.711 -0.0364 -0.2955 -0.4168
  768MPD2    C511339   4.492   3.449  10.587 -0.5558  0.7814  0.1526
  768MPD2     H11340   4.353   3.753  10.767 -1.1958 -1.0312  0.5788
  768MPD2    H111341   4.628   3.431  10.746 -0.4285 -0.6365  0.0921
  768MPD2    H211342   4.352   3.470  10.438 -0.5423  1.0711  0.4976
  768MPD2    H311343   4.551   3.377  10.530  1.4940  2.6084 -0.0112
  768MPD2     N11344   4.539   3.624  10.907 -0.2892 -0.2640  0.4170
  768MPD2    H511345   4.600   3.562  10.960  2.1355  1.0692 -0.7915
  768MPD2    N111346   4.221   3.701  10.550 -0.6910  0.1145  0.0653
  768MPD2    H711347   4.186   3.775  10.610 -0.3077  1.5254 -1.4356
  769MPD2     C11348   0.959   2.058  14.952 -0.2707  0.1413 -0.4566
  769MPD2    C111349   0.923   2.032  15.085 -0.2996 -0.4122  0.2865
  769MPD2    C211350   0.941   2.131  15.185 -0.1134 -0.5461 -0.0429
  769MPD2    C311351   1.009   2.250  15.150 -0.7633 -0.4905 -0.9587
  769MPD2    C411352   1.059   2.262  15.023 -0.1282 -0.3193 -0.6343
  769MPD2    C511353   1.022   2.175  14.927  0.2525  0.3075 -0.2654
  769MPD2     H11354   0.912   2.102  15.286 -0.3713 -0.4342 -0.0851
  769MPD2    H111355   1.113   2.348  14.985  0.7259  0.5151  2.5259
  769MPD2    H211356   0.940   1.988  14.872  2.1575 -0.3565 -0.5920
  769MPD2    H311357   1.043   2.202  14.824  1.4070 -1.0093 -0.3798
  769MPD2     N11358   1.015   2.352  15.252 -0.1341 -0.0166  0.5792
  769MPD2    H511359   0.964   2.331  15.337 -0.3047 -0.1838  0.4344
  769MPD2    N111360   0.853   1.905  15.100 -0.0127  0.1238  0.1141
  769MPD2    H711361   0.867   1.837  15.027  0.1017  0.0937  0.1642
  770MPD2     C11362   0.129   1.153  15.404 -0.2505 -0.0499 -0.3844
  770MPD2    C111363   0.114   1.188  15.266  0.3661  0.1770 -0.1742
  770MPD2    C211364   0.174   1.300  15.222 -0.0223 -0.1871 -0.2357
  770MPD2    C311365   0.259   1.372  15.304 -0.5019  0.1886 -0.2526
  770MPD2    C411366   0.284   1.326  15.430  0.5252 -0.4000 -0.3372
  770MPD2    C511367   0.216   1.218  15.482 -0.9298  0.1914 -0.0986
  770MPD2     H11368   0.168   1.325  15.117  0.6194 -3.3003 -1.0238
  770MPD2    H111369   0.350   1.375  15.500  0.5417 -4.0916  2.2117
  770MPD2    H211370   0.083   1.061  15.439  0.3827 -0.1752  0.1166
  770MPD2    H311371   0.239   1.189  15.584  0.5093  1.9679  0.0845
  770MPD2     N11372   0.340   1.476  15.238  0.1463  0.1852  0.1969
  770MPD2    H511373   0.300   1.506  15.150  0.8568  0.3024 -0.0857
  770MPD2    N111374   0.045   1.095  15.180 -0.1670  0.6317  0.5187
  770MPD2    H711375   0.021   1.004  15.216 -0.0819  0.0428 -0.9235
  771MPD2     C11376   1.361   4.450  13.588 -0.2405  0.4788 -0.4831
  771MPD2    C111377   1.279   4.555  13.578  0.1560  0.2096 -0.2446
  771MPD2    C211378   1.180   4.546  13.475 -0.6665  0.5875  0.4742
  771MPD2    C311379   1.166   4.431  13.399 -0.4142  0.2356  0.5892
  771MPD2    C411380   1.253   4.329  13.414 -0.2790  0.7538  0.0294
  771MPD2    C511381   1.346   4.342  13.508 -0.3210 -0.3915 -0.3831
  771MPD2     H11382   1.106   4.624  13.460 -0.4919  0.3467 -1.6175
  771MPD2    H111383   1.245   4.240  13.353 -2.6834  1.3287 -0.5117
  771MPD2    H211384   1.444   4.447  13.659 -0.3923  0.7894 -0.2918
  771MPD2    H311385   1.420   4.262  13.517 -1.7912 -1.5993  0.9872
  771MPD2     N11386   1.059   4.435  13.303  0.0507  0.3265 -0.1098
  771MPD2    H511387   1.005   4.520  13.297 -1.0532 -0.4090 -0.5961
  771MPD2    N111388   1.301   4.677  13.658 -0.4570 -0.1917 -0.4808
  771MPD2    H711389   1.232   0.025  13.634 -1.8644 -1.9533 -1.7377
  772MPD2     C11390   0.941   0.547  13.856  0.1378 -0.0296 -0.4286
  772MPD2    C111391   0.943   0.431  13.793  0.3923 -1.0789  0.0217
  772MPD2    C211392   0.824   0.367  13.764 -0.0838  0.1861 -0.1195
  772MPD2    C311393   0.700   0.429  13.795  0.1663  0.1961 -0.1882
  772MPD2    C411394   0.703   0.555  13.842  0.2832 -0.4572 -0.9229
  772MPD2    C511395   0.822   0.613  13.876 -0.1864  0.0693 -0.4558
  772MPD2     H11396   0.825   0.266  13.724 -1.9346  0.4099 -0.7721
  772MPD2    H111397   0.616   0.618  13.856 -0.2152 -1.0012 -1.6434
  772MPD2    H211398   1.032   0.593  13.891  0.2732 -0.0988 -0.6885
  772MPD2    H311399   0.822   0.711  13.923 -1.9412 -0.2290  0.1757
  772MPD2     N11400   0.573   0.372  13.777  0.2220  0.5980  0.4256
  772MPD2    H511401   0.493   0.428  13.807  0.1945  0.7711  0.0243
  772MPD2    N111402   1.065   0.358  13.774  0.1423 -0.9170 -0.4502
  772MPD2    H711403   1.062   0.280  13.709 -0.4925 -0.5796 -0.8290
  773MPD2     C11404   0.319   1.241   0.028 -0.5818  0.6353 -0.5130
  773MPD2    C111405   0.245   1.153  17.649  0.0167  0.1780  0.4685
  773MPD2    C211406   0.226   1.023  17.687  0.1694 -0.0438 -0.7364
  773MPD2    C311407   0.286   0.968   0.107  0.0946 -0.8492  0.2457
  773MPD2    C411408   0.367   1.056   0.181  0.7445 -0.6859 -0.5869
  773MPD2    C511409   0.376   1.193   0.144 -0.5881  0.6600  0.6665
  773MPD2     H11410   0.158   0.963  17.628 -1.5878 -0.6709  1.9632
  773MPD2    H111411   0.425   1.027   0.267  0.5457 -0.6738 -0.4490
  773MPD2    H211412   0.310   1.348   0.011  2.7907  1.2361  1.3355
  773MPD2    H311413   0.424   1.265   0.208  2.8384 -1.2328  0.1815
  773MPD2     N11414   0.275   0.828   0.121 -0.3288  0.2631 -0.1256
  773MPD2    H511415   0.193   0.784   0.080 -0.5878 -0.4337  1.1485
  773MPD2    N111416   0.165   1.198  17.532 -0.3615  0.0911 -0.9332
  773MPD2    H711417   0.100   1.129  17.495 -1.4994  0.6980 -0.0520
  774MPD2     C11418   3.832   0.066  13.215 -0.7236 -0.3684  0.5003
  774MPD2    C111419   3.836   0.197  13.251  0.1703 -0.0987 -0.3888
  774MPD2    C211420   3.830   0.305  13.160  0.4782 -0.0092  0.5753
  774MPD2    C311421   3.826   0.280  13.028  0.0177 -0.8161  0.8589
  774MPD2    C411422   3.829   0.146  12.983  0.0385 -0.0130  0.0110
  774MPD2    C511423   3.833   0.044  13.080  0.1438 -0.4523 -0.0960
  774MPD2     H11424   3.818   0.409  13.187 -1.3601 -0.3226  0.9876
  774MPD2    H111425   3.831   0.118  12.878  1.6127 -0.4581  0.1650
  774MPD2    H211426   3.836   4.706  13.286 -0.4142 -2.4805 -1.9960
  774MPD2    H311427   3.833   4.665  13.043 -2.6136 -0.0788 -1.1317
  774MPD2     N11428   3.811   0.390  12.945  0.0209 -0.2881  0.4397
  774MPD2    H511429   3.814   0.482  12.988  4.5106 -0.4604  0.5449
  774MPD2    N111430   3.831   0.223  13.389  0.9026 -0.2332 -0.2912
  774MPD2    H711431   3.835   0.139  13.445  0.7293  0.9044  1.4062
  775MPD2     C11432   0.999   1.651  15.490 -0.2461 -0.2671 -0.0397
  775MPD2    C111433   0.961   1.781  15.512 -0.0445 -0.4439  0.8059
  775MPD2    C211434   1.041   1.878  15.465  0.2307  0.4607  0.2629
  775MPD2    C311435   1.165   1.860  15.405  0.5202 -0.8053  0.3815
  775MPD2    C411436   1.214   1.732  15.389 -1.1907 -0.2697  0.1197
  775MPD2    C511437   1.127   1.634  15.433  0.2178 -0.2510 -0.0468
  775MPD2     H11438   0.998   1.978  15.473 -3.3748 -0.9927 -0.6873
  775MPD2    H111439   1.313   1.712  15.350 -1.4828  0.8936 -1.2128
  775MPD2    H211440   0.940   1.564  15.519 -1.7183  1.2967  1.6322
  775MPD2    H311441   1.151   1.528  15.434 -0.0761 -0.3061  1.2912
  775MPD2     N11442   1.242   1.972  15.385  0.0009  0.0959  0.1980
  775MPD2    H511443   1.318   1.964  15.318  0.9895 -1.1160  1.4594
  775MPD2    N111444   0.843   1.811  15.578 -0.3768  0.0054 -0.1750
  775MPD2    H711445   0.786   1.731  15.605 -2.4895  1.0845 -1.3868
  776MPD2     C11446   0.296   2.377  11.004 -0.0380 -0.4904  0.3400
  776MPD2    C111447   0.410   2.320  11.071 -0.4702  0.5599 -0.3167
  776MPD2    C211448   0.504   2.408  11.127 -0.0855 -0.3754 -0.4127
  776MPD2    C311449   0.503   2.542  11.094 -0.2067  0.3567  0.1088
  776MPD2    C411450   0.398   2.590  11.018 -0.0304 -0.0754  0.1063
  776MPD2    C511451   0.293   2.508  10.984 -0.4930 -0.6596  0.5653
  776MPD2     H11452   0.586   2.359  11.178  0.9682  0.2240 -1.5415
  776MPD2    H111453   0.390   2.693  10.985 -0.8328 -0.1575  0.0348
  776MPD2    H211454   0.215   2.316  10.967  0.6335 -0.5644 -1.0016
  776MPD2    H311455   0.212   2.562  10.936 -1.3031 -3.7436 -1.5594
  776MPD2     N11456   0.603   2.633  11.137 -0.6913 -0.2918  0.3000
  776MPD2    H511457   0.597   2.729  11.104 -1.3442 -0.4754 -0.1268
  776MPD2    N111458   0.416   2.184  11.092  0.4675 -0.6586  0.5598
  776MPD2    H711459   0.351   2.121  11.048 -1.7639  1.3215  1.0145
  777MPD2     C11460   0.121   0.044   0.711  0.6420  0.5557 -0.1618
  777MPD2    C111461   0.162   4.695   0.816 -0.9242  0.0471  0.1592
  777MPD2    C211462   0.174   4.559   0.806 -0.0049 -0.0790 -0.2310
  777MPD2    C311463   0.158   4.507   0.676  0.1890  0.3475  0.5874
  777MPD2    C411464   0.115   4.580   0.566  0.1815 -0.3415  0.8411
  777MPD2    C511465   0.095   4.712   0.589  0.5219 -0.6298  0.0263
  777MPD2     H11466   0.197   4.488   0.884 -2.0344 -2.7123 -1.9973
  777MPD2    H111467   0.087   4.537   0.470 -0.4245 -1.9936  1.7618
  777MPD2    H211468   0.106   0.150   0.725  1.0227  0.7951 -1.5760
  777MPD2    H311469   0.075   0.051   0.502  3.1271 -0.9629 -0.8098
  777MPD2     N11470   0.168   4.369   0.666 -0.0331 -0.3235  0.1508
  777MPD2    H511471   0.150   4.317   0.751 -2.6532 -1.1388 -0.9166
  777MPD2    N111472   0.177   0.040   0.943 -0.3691  0.2681 -0.3352
  777MPD2    H711473   0.126   0.128   0.951 -0.2701  0.6157 -3.5174
  778MPD2     C11474   1.286   0.220  14.632 -0.1635 -0.0761  0.4468
  778MPD2    C111475   1.362   0.108  14.598 -0.1959  0.1608 -0.6801
  778MPD2    C211476   1.460   0.122  14.501 -0.1667 -0.5042  0.0736
  778MPD2    C311477   1.486   0.250  14.447 -1.1407  0.0670 -0.2198
  778MPD2    C411478   1.406   0.358  14.481 -1.0231  0.8130 -0.0871
  778MPD2    C511479   1.314   0.345  14.576 -1.0457 -0.2604  0.8612
  778MPD2     H11480   1.516   0.033  14.474  1.2731  0.5673 -0.4963
  778MPD2    H111481   1.418   0.456  14.434 -1.7387  0.1403 -1.6529
  778MPD2    H211482   1.201   0.217  14.699  0.6630  1.4465  1.5922
  778MPD2    H311483   1.242   0.424  14.594  0.1019  1.0996 -0.4809
  778MPD2     N11484   1.591   0.258  14.350  0.2283  0.4771  0.3292
  778MPD2    H511485   1.652   0.177  14.342 -2.4281 -1.1729 -3.1752
  778MPD2    N111486   1.344   4.704  14.662  0.2193 -0.5304 -0.4928
  778MPD2    H711487   1.397   4.624  14.629  2.3801 -0.5446  3.0007
  779MPD2     C11488   1.593   3.607  13.853 -0.0668  0.1205  0.3130
  779MPD2    C111489   1.605   3.642  13.984  0.0739  0.4097  0.0594
  779MPD2    C211490   1.581   3.776  14.017 -0.5608 -0.6327 -0.8944
  779MPD2    C311491   1.544   3.866  13.927 -0.3430  0.5902  0.3412
  779MPD2    C411492   1.538   3.830  13.792  0.1439  0.9573 -0.4757
  779MPD2    C511493   1.564   3.701  13.758 -0.8307  0.4959  0.6357
  779MPD2     H11494   1.586   3.795  14.123 -0.1737  0.4813 -1.1115
  779MPD2    H111495   1.522   3.898  13.708  2.5227  1.4236 -0.5483
  779MPD2    H211496   1.592   3.503  13.822  2.1175 -0.0161  0.6957
  779MPD2    H311497   1.547   3.677  13.653  1.8398  1.0169  0.0893
  779MPD2     N11498   1.523   3.998  13.960  0.3294  0.3838  0.2292
  779MPD2    H511499   1.537   4.012  14.060  0.3248 -0.2751  0.3239
  779MPD2    N111500   1.633   3.555  14.093 -0.0285  0.0067  0.2231
  779MPD2    H711501   1.629   3.595  14.187 -2.1508  3.6276 -1.4022
  780MPD2     C11502   1.086   3.858   0.878 -0.5554  0.3468 -0.4360
  780MPD2    C111503   1.015   3.754   0.824 -0.3861 -0.0606  0.5008
  780MPD2    C211504   1.048   3.706   0.698 -0.4240  0.3230  0.0189
  780MPD2    C311505   1.153   3.753   0.631 -0.5970  0.7710 -0.1400
  780MPD2    C411506   1.209   3.865   0.681  0.0150  0.5258  0.1951
  780MPD2    C511507   1.177   3.920   0.802  0.0679 -0.2155  0.5736
  780MPD2     H11508   1.003   3.613   0.666  1.3092  0.0324 -1.5772
  780MPD2    H111509   1.285   3.930   0.637  0.9827 -0.8951 -0.2188
  780MPD2    H211510   1.057   3.903   0.972 -1.8512 -3.0541  0.7782
  780MPD2    H311511   1.219   4.015   0.833 -2.1028  0.7337  0.5965
  780MPD2     N11512   1.181   3.689   0.507 -0.2224  0.0639 -0.0249
  780MPD2    H511513   1.106   3.628   0.475 -1.9037  2.1301 -0.0323
  780MPD2    N111514   0.911   3.701   0.894  0.4582  0.0606  0.1956
  780MPD2    H711515   0.903   3.729   0.991  1.2401  0.0991  0.2481
  781MPD2     C11516   2.609   0.728  11.972  0.1263 -0.4014  0.1768
  781MPD2    C111517   2.701   0.627  11.999  0.6545 -0.2083  0.2872
  781MPD2    C211518   2.805   0.601  11.912 -0.3898  0.2637  0.7025
  781MPD2    C311519   2.818   0.682  11.793  0.4652 -0.1518  0.4538
  781MPD2    C411520   2.734   0.789  11.773  0.2303  0.2453  0.0940
  781MPD2    C511521   2.633   0.807  11.864  0.8663 -0.3744 -0.0995
  781MPD2     H11522   2.861   0.509  11.922 -1.7904 -0.5063  1.4356
  781MPD2    H111523   2.744   0.860  11.692  0.5251  1.1391  0.9188
  781MPD2    H211524   2.529   0.747  12.043  0.9779  1.7276  0.5662
  781MPD2    H311525   2.559   0.886  11.852  0.7524 -0.7318 -1.8416
  781MPD2     N11526   2.924   0.660  11.703 -0.7474  0.3712  0.6963
  781MPD2    H511527   2.926   0.724  11.625 -0.5407  0.6727  0.9467
  781MPD2    N111528   2.691   0.542  12.106 -0.2527 -0.3563 -0.6191
  781MPD2    H711529   2.775   0.494  12.137 -1.0155 -0.8453  0.7156
  782MPD2     C11530   1.232   0.247   9.862  0.1387  0.0539 -0.2631
  782MPD2    C111531   1.106   0.291   9.899 -0.1053  0.0878 -0.2280
  782MPD2    C211532   1.071   0.418   9.864 -0.6589  0.7479  0.5753
  782MPD2    C311533   1.162   0.512   9.824 -0.3433 -0.1899  0.2722
  782MPD2    C411534   1.290   0.470   9.794 -0.3859  0.2256  0.0533
  782MPD2    C511535   1.320   0.335   9.803  0.3561 -0.1858  0.2080
  782MPD2     H11536   0.967   0.446   9.873 -0.1983  3.2976 -1.9329
  782MPD2    H111537   1.362   0.537   9.747 -1.3692  0.2867 -1.3584
  782MPD2    H211538   1.270   0.148   9.886  0.5818  0.4236  0.5449
  782MPD2    H311539   1.418   0.300   9.772  0.4099  0.6621 -0.5678
  782MPD2     N11540   1.122   0.647   9.824 -0.2778  0.7726 -0.2449
  782MPD2    H511541   1.023   0.672   9.826  0.2060  2.8610 -1.6204
  782MPD2    N111542   1.022   0.199   9.963 -0.1032  0.3846 -0.0871
  782MPD2    H711543   1.069   0.109   9.966  0.3580  0.6199 -0.3540
  783MPD2     C11544   0.103   0.728  10.302  0.1609 -0.9434 -0.5261
  783MPD2    C111545   0.200   0.822  10.271  0.5362  0.2098 -0.6536
  783MPD2    C211546   0.324   0.775  10.228 -0.0159  0.0933  0.0368
  783MPD2    C311547   0.357   0.638  10.225  0.1987 -0.6423  0.5922
  783MPD2    C411548   0.261   0.547  10.266 -0.2169 -0.5292  0.5603
  783MPD2    C511549   0.135   0.594  10.305  0.6961 -0.2156  0.2462
  783MPD2     H11550   0.396   0.852  10.199 -1.6178  1.4455 -0.3476
  783MPD2    H111551   0.269   0.439  10.268  0.1324 -0.5132  0.0403
  783MPD2    H211552   0.003   0.758  10.332  0.2091 -0.8495 -0.4609
  783MPD2    H311553   0.061   0.521  10.337  0.6497  0.2497  1.2047
  783MPD2     N11554   0.484   0.597  10.178 -0.3670  0.0598  0.4260
  783MPD2    H511555   0.562   0.662  10.186  0.5093 -0.9214 -0.1754
  783MPD2    N111556   0.157   0.953  10.277  0.2090 -0.4535 -0.7513
  783MPD2    H711557   0.065   0.967  10.317  1.3386 -0.0976  1.7707
  784MPD2     C11558   2.545   1.199   0.469 -0.0443 -0.3519  0.7421
  784MPD2    C111559   2.512   1.323   0.525 -0.6441  0.1904  0.3711
  784MPD2    C211560   2.396   1.385   0.478  0.0215  0.3536  0.1738
  784MPD2    C311561   2.322   1.345   0.371  0.3332  0.2025 -0.3166
  784MPD2    C411562   2.365   1.230   0.305 -0.5521  0.5209 -0.0382
  784MPD2    C511563   2.463   1.160   0.363  0.1781 -0.3700  0.4672
  784MPD2     H11564   2.365   1.475   0.531  0.4780  0.3817  0.3952
  784MPD2    H111565   2.321   1.190   0.215  1.2800  0.8264 -1.0646
  784MPD2    H211566   2.621   1.134   0.510 -1.0872 -1.7247  0.4974
  784MPD2    H311567   2.489   1.068   0.313  0.4796 -0.5233  0.9061
  784MPD2     N11568   2.219   1.428   0.332  0.2893 -0.0046  0.5207
  784MPD2    H511569   2.192   1.508   0.389 -1.2405  0.7108 -1.2148
  784MPD2    N111570   2.599   1.390   0.603 -0.3075  0.6787  0.0768
  784MPD2    H711571   2.577   1.486   0.629 -0.2633  0.7295 -0.0728
  785MPD2     C11572   0.173   1.334   9.097  0.1006  0.1709  0.2170
  785MPD2    C111573   0.229   1.207   9.094 -0.2367  0.3439  0.4768
  785MPD2    C211574   0.181   1.122   8.996  0.1781  0.1972  0.0248
  785MPD2    C311575   0.099   1.164   8.901 -0.0430  0.5525 -0.0122
  785MPD2    C411576   0.042   1.290   8.902  0.1964 -0.0918  0.4035
  785MPD2    C511577   0.081   1.374   9.003 -0.2465  0.4693  0.1560
  785MPD2     H11578   0.218   1.020   8.991  0.8818  0.3661  1.7772
  785MPD2    H111579   4.693   1.323   8.828 -0.2993 -2.5371 -0.2328
  785MPD2    H211580   0.206   1.415   9.162  1.2688 -1.2709  1.4255
  785MPD2    H311581   0.041   1.474   9.009 -0.5932  0.2150  1.9970
  785MPD2     N11582   0.072   1.073   8.797  0.7099 -0.0618 -0.5396
  785MPD2    H511583   0.127   0.988   8.794 -1.6545 -1.6003 -0.1464
  785MPD2    N111584   0.322   1.170   9.198 -0.2551 -0.6056 -0.0696
  785MPD2    H711585   0.334   1.235   9.275 -0.8830 -1.5442  0.8271
  786MPD2     C11586   1.335   2.931  14.775 -0.6516 -0.4292  0.2331
  786MPD2    C111587   1.451   2.860  14.756 -0.1483  0.2494  0.4615
  786MPD2    C211588   1.560   2.892  14.833  0.1650  0.1160  0.3023
  786MPD2    C311589   1.558   2.985  14.936  0.2804  0.1808 -0.0539
  786MPD2    C411590   1.432   3.042  14.970 -0.1974  0.0998 -0.8452
  786MPD2    C511591   1.325   3.014  14.884 -0.0636 -0.0548  0.1597
  786MPD2     H11592   1.651   2.844  14.802  0.1189  0.8164 -0.9349
  786MPD2    H111593   1.413   3.113  15.049 -0.3234 -1.8049  0.8251
  786MPD2    H211594   1.250   2.913  14.711 -0.1630  1.3286 -0.9159
  786MPD2    H311595   1.227   3.059  14.894  0.4145  0.7951  1.0373
  786MPD2     N11596   1.670   3.036  15.010 -0.3435  0.0594 -0.4719
  786MPD2    H511597   1.647   3.107  15.079  2.7529  0.3622  0.2636
  786MPD2    N111598   1.475   2.765  14.651 -0.2156  0.0937  0.1591
  786MPD2    H711599   1.568   2.726  14.641  0.2295  0.7435  1.7313
  787MPD2     C11600   1.977   2.554  14.605  0.0154  0.0317  0.9502
  787MPD2    C111601   1.919   2.455  14.524 -0.9947  0.1544  0.3187
  787MPD2    C211602   1.980   2.331  14.517  0.3672  0.0580  0.4859
  787MPD2    C311603   2.100   2.310  14.585 -0.0813  0.5812  0.3135
  787MPD2    C411604   2.152   2.411  14.657 -0.1907  0.1427  0.1196
  787MPD2    C511605   2.096   2.534  14.671  0.6955  0.0299 -0.6601
  787MPD2     H11606   1.921   2.251  14.474 -2.3976  2.0069  0.5839
  787MPD2    H111607   2.250   2.397  14.702  0.5742  1.8410 -1.0149
  787MPD2    H211608   1.930   2.650  14.623  1.3471  1.1313 -1.4743
  787MPD2    H311609   2.127   2.621  14.728  0.0239 -0.8842  1.0973
  787MPD2     N11610   2.174   2.187  14.584  0.3114 -0.3742 -0.1082
  787MPD2    H511611   2.243   2.163  14.655  0.5240  0.0843 -0.1581
  787MPD2    N111612   1.794   2.485  14.466 -0.3176 -0.4847 -0.8487
  787MPD2    H711613   1.763   2.579  14.491 -0.6927 -0.8377 -0.0020
  788MPD2     C11614   3.568   0.774   0.736  0.3185  0.1578  0.2441
  788MPD2    C111615   3.479   0.674   0.690  0.0899 -0.2273  0.0942
  788MPD2    C211616   3.409   0.703   0.579  0.0682 -0.1739 -0.0327
  788MPD2    C311617   3.438   0.816   0.501  0.3040  0.1113 -0.1911
  788MPD2    C411618   3.514   0.912   0.552 -0.7496  0.7071  0.9383
  788MPD2    C511619   3.579   0.895   0.672  0.3382 -0.4674 -0.4253
  788MPD2     H11620   3.343   0.632   0.531 -1.1701 -0.0278  1.4258
  788MPD2    H111621   3.546   0.994   0.489  0.9197 -1.7330 -1.3503
  788MPD2    H211622   3.622   0.764   0.830  1.8121 -1.4953 -0.7779
  788MPD2    H311623   3.643   0.974   0.709  0.3442 -0.9396  0.5781
  788MPD2     N11624   3.384   0.844   0.366 -0.5754  0.1302 -0.6524
  788MPD2    H511625   3.435   0.907   0.305  1.6321  0.9653  2.0568
  788MPD2    N111626   3.462   0.552   0.757  0.3264  0.0162 -0.4290
  788MPD2    H711627   3.390   0.492   0.716 -0.3439 -0.9059  2.1198
  789MPD2     C11628   3.835   0.448  16.345  0.3339  0.9148 -0.6842
  789MPD2    C111629   3.716   0.398  16.298  0.2775  0.1051 -0.2552
  789MPD2    C211630   3.602   0.461  16.337  0.4654  0.2003 -0.3411
  789MPD2    C311631   3.608   0.577  16.418 -0.0010 -0.3130 -0.5775
  789MPD2    C411632   3.729   0.639  16.453  0.0183  0.2692  0.6473
  789MPD2    C511633   3.835   0.565  16.419 -0.2705 -0.0115  0.3928
  789MPD2     H11634   3.506   0.418  16.311 -0.8440  1.7592  1.9243
  789MPD2    H111635   3.736   0.739  16.495  2.7296  0.5912 -0.5788
  789MPD2    H211636   3.930   0.405  16.318  0.1588 -0.2126  0.5739
  789MPD2    H311637   3.929   0.616  16.441 -0.1987 -0.0666  0.2093
  789MPD2     N11638   3.503   0.661  16.442  0.4566 -0.1419 -0.3569
  789MPD2    H511639   3.528   0.745  16.494  3.4572 -0.1630 -1.7996
  789MPD2    N111640   3.704   0.272  16.231  0.0221  0.2992  0.3955
  789MPD2    H711641   3.611   0.233  16.233 -0.8447  2.2618 -1.9987
  790MPD2     C11642   4.605   2.630  13.458 -0.4904 -0.6144 -0.0274
  790MPD2    C111643   4.615   2.500  13.412  0.1878 -0.2001  0.2877
  790MPD2    C211644   4.599   2.472  13.278 -0.0597  0.1608  0.1667
  790MPD2    C311645   4.543   2.560  13.185 -0.2332 -0.2574 -0.0055
  790MPD2    C411646   4.528   2.693  13.230 -0.1067  0.3337 -0.6646
  790MPD2    C511647   4.558   2.716  13.364  0.5073  0.3417 -0.4514
  790MPD2     H11648   4.640   2.381  13.237  0.5528 -0.0599  1.2715
  790MPD2    H111649   4.481   2.774  13.176  1.7818  1.1656 -1.0512
  790MPD2    H211650   4.627   2.667  13.558  0.8588  0.2809 -0.6570
  790MPD2    H311651   4.546   2.820  13.391 -0.7520  0.5943 -1.9765
  790MPD2     N11652   4.515   2.515  13.055 -0.3454  0.1562  0.7975
  790MPD2    H511653   4.521   2.415  13.036  0.0373  0.3928 -0.3289
  790MPD2    N111654   4.660   2.398  13.496 -0.2903  0.1069  1.0009
  790MPD2    H711655   4.680   2.308  13.453  0.4877  1.1034 -0.7359
  791MPD2     C11656   4.018   2.616  12.412 -0.1721  0.2033  0.4479
  791MPD2    C111657   4.065   2.494  12.442  0.1034  0.2471  0.8270
  791MPD2    C211658   4.017   2.381  12.368 -0.5623  0.2076 -0.0765
  791MPD2    C311659   3.925   2.401  12.272 -0.2983  0.9062  0.5865
  791MPD2    C411660   3.871   2.525  12.246 -0.1536  0.3834 -0.3334
  791MPD2    C511661   3.932   2.623  12.316 -0.8904  0.3251  0.1153
  791MPD2     H11662   4.038   2.275  12.381 -1.4187 -0.0114 -0.4735
  791MPD2    H111663   3.788   2.549  12.180 -0.7470  0.6564  0.5057
  791MPD2    H211664   4.053   2.705  12.462  2.6194 -0.5779 -0.0688
  791MPD2    H311665   3.900   2.724  12.295 -0.9076  0.3054  0.0467
  791MPD2     N11666   3.883   2.289  12.197 -0.1638 -0.6274 -0.6551
  791MPD2    H511667   3.920   2.199  12.226  0.1867 -0.0058  0.8382
  791MPD2    N111668   4.152   2.480  12.554  0.0705  0.0042 -0.4323
  791MPD2    H711669   4.190   2.570  12.584 -1.2132 -0.0642  1.4085
  792MPD2     C11670   0.892   1.885  10.518 -0.4371  0.3292  0.0385
  792MPD2    C111671   0.756   1.896  10.557  0.5159 -1.2438  0.0422
  792MPD2    C211672   0.665   1.815  10.485  0.1469 -0.3642 -0.7201
  792MPD2    C311673   0.702   1.736  10.370  0.2009 -0.6069 -0.3721
  792MPD2    C411674   0.835   1.736  10.336 -0.5612 -0.2090  0.0113
  792MPD2    C511675   0.929   1.804  10.412 -0.5523  0.0831  0.0804
  792MPD2     H11676   0.563   1.809  10.522  0.3201 -3.2061 -0.7333
  792MPD2    H111677   0.875   1.700  10.242  0.1409 -1.8774  0.9585
  792MPD2    H211678   0.968   1.944  10.568 -0.4523 -0.3044  0.8143
  792MPD2    H311679   1.030   1.804  10.372 -0.5169  1.5072  0.1577
  792MPD2     N11680   0.614   1.661  10.287 -0.4170  0.0191 -0.1424
  792MPD2    H511681   0.660   1.595  10.225  2.0114  1.9896 -0.3843
  792MPD2    N111682   0.721   1.982  10.663  0.3398 -0.1053 -0.3002
  792MPD2    H711683   0.801   2.018  10.713 -0.1602 -0.8284  1.0069
  793MPD2     C11684   0.046   1.703   9.452 -0.1985 -0.6961 -0.2543
  793MPD2    C111685   0.186   1.679   9.464 -0.3187 -0.3319  0.1475
  793MPD2    C211686   0.238   1.643   9.588 -0.7480  0.8729  0.0048
  793MPD2    C311687   0.165   1.634   9.702  1.1432  0.1018 -0.4826
  793MPD2    C411688   0.030   1.677   9.686  0.1000  0.4377  0.2495
  793MPD2    C511689   4.695   1.701   9.565  0.2705  0.3857  0.0857
  793MPD2     H11690   0.344   1.620   9.587 -0.8606  0.3688 -0.1581
  793MPD2    H111691   4.688   1.677   9.773 -1.4909 -2.4556 -0.9281
  793MPD2    H211692   4.718   1.720   9.359 -0.7441 -0.4455  0.0904
  793MPD2    H311693   4.588   1.710   9.551  0.3610  1.7768  0.2824
  793MPD2     N11694   0.228   1.587   9.819 -0.2507  0.3982  0.0547
  793MPD2    H511695   0.323   1.553   9.807  0.1352  1.4844  0.0644
  793MPD2    N111696   0.269   1.691   9.350 -0.2391  0.1621 -0.4126
  793MPD2    H711697   0.368   1.684   9.371 -0.1731 -1.4663 -1.3120
  794MPD2     C11698   4.718   1.788  16.959  0.1544  0.0094 -0.2146
  794MPD2    C111699   4.662   1.673  16.906 -0.4880 -0.4333 -0.1072
  794MPD2    C211700   4.586   1.678  16.793  0.5290 -0.2148 -0.2549
  794MPD2    C311701   4.553   1.800  16.739  0.5062  0.0722 -0.3277
  794MPD2    C411702   4.610   1.917  16.787  0.5672  0.0316 -0.3673
  794MPD2    C511703   4.693   1.908  16.902 -0.2469  0.1658  0.9324
  794MPD2     H11704   4.532   1.588  16.764 -1.0819 -0.1134  2.3837
  794MPD2    H111705   4.595   2.012  16.738 -1.2776 -0.8868 -1.5955
  794MPD2    H211706   0.061   1.796  17.044  2.5237  2.4108 -2.2634
  794MPD2    H311707   4.722   2.004  16.942 -0.9016  0.9969 -0.6246
  794MPD2     N11708   4.459   1.809  16.631 -0.4526  0.2727  0.1344
  794MPD2    H511709   4.429   1.903  16.608  0.9503  0.0760 -2.4411
  794MPD2    N111710   4.679   1.551  16.972 -0.6785  0.0974  1.4770
  794MPD2    H711711   4.617   1.475  16.946  0.6024 -0.5000  0.1824
  795MPD2     C11712   2.319   3.767  12.975  0.0702  0.1148  0.3430
  795MPD2    C111713   2.278   3.753  13.108  0.1369 -0.2286  0.4021
  795MPD2    C211714   2.367   3.700  13.196  0.0386 -0.2240 -0.5309
  795MPD2    C311715   2.495   3.654  13.166 -0.1381  0.2906 -0.3838
  795MPD2    C411716   2.533   3.672  13.033 -1.0623  0.9945  0.1936
  795MPD2    C511717   2.445   3.728  12.942  0.4230 -0.2988  0.5410
  795MPD2     H11718   2.333   3.701  13.299  3.8414 -0.9756  0.7521
  795MPD2    H111719   2.637   3.656  13.007 -1.3509 -0.2428 -0.1856
  795MPD2    H211720   2.252   3.809  12.902  2.0163  0.3026 -1.3430
  795MPD2    H311721   2.481   3.741  12.841  0.8781 -0.5441  0.6728
  795MPD2     N11722   2.582   3.612  13.268  0.7135 -0.0967 -0.0250
  795MPD2    H511723   2.564   3.642  13.363 -1.3814  0.4839 -0.6186
  795MPD2    N111724   2.143   3.788  13.154  0.2356 -0.6962  0.0274
  795MPD2    H711725   2.124   3.743  13.243  1.3249 -1.9215 -0.3560
  796MPD2     C11726   1.163   0.487  16.129 -0.0167  0.7597 -0.0470
  796MPD2    C111727   1.292   0.492  16.161  0.5491 -0.9329  0.0890
  796MPD2    C211728   1.383   0.541  16.066 -0.0604 -0.1264 -0.5237
  796MPD2    C311729   1.336   0.581  15.941 -0.2322 -0.2255  0.1196
  796MPD2    C411730   1.193   0.564  15.907  0.2624 -0.6165 -0.1993
  796MPD2    C511731   1.120   0.518  16.003 -0.5049 -0.6639 -0.8411
  796MPD2     H11732   1.486   0.551  16.096 -1.0479  1.3435  2.4337
  796MPD2    H111733   1.150   0.608  15.819 -0.4002  0.3884  0.6304
  796MPD2    H211734   1.089   0.451  16.200  0.3833  1.2621  0.6245
  796MPD2    H311735   1.013   0.516  15.985 -0.5601  2.6562 -0.8674
  796MPD2     N11736   1.430   0.654  15.864  0.7050 -0.3269  0.9274
  796MPD2    H511737   1.526   0.661  15.895  0.7471 -0.6713  0.8822
  796MPD2    N111738   1.325   0.450  16.294  0.0182  0.0527 -0.6220
  796MPD2    H711739   1.253   0.410  16.354  0.6413 -0.8205 -0.4654
  797MPD2     C11740   2.521   0.298  17.283 -0.0634  0.4094  0.7568
  797MPD2    C111741   2.624   0.361  17.213  0.3986  0.1336 -0.1805
  797MPD2    C211742   2.610   0.454  17.116  0.5581  0.0214 -0.1789
  797MPD2    C311743   2.488   0.480  17.065 -0.7729 -0.0682  0.5687
  797MPD2    C411744   2.376   0.426  17.134  0.2515  0.0778  0.7621
  797MPD2    C511745   2.394   0.337  17.241 -0.1945  0.6060  0.8298
  797MPD2     H11746   2.696   0.509  17.081 -0.4619  0.1675 -2.4386
  797MPD2    H111747   2.274   0.439  17.099  0.6377  2.2836  0.4158
  797MPD2    H211748   2.540   0.236  17.370  0.0529 -1.9015 -0.9281
  797MPD2    H311749   2.305   0.302  17.292 -0.3735  0.6280  0.5279
  797MPD2     N11750   2.468   0.570  16.958 -0.0907 -0.0897 -0.0936
  797MPD2    H511751   2.372   0.582  16.928  0.7164  0.1165 -2.6226
  797MPD2    N111752   2.765   0.335  17.246 -0.8054  0.1471  0.2379
  797MPD2    H711753   2.828   0.382  17.182  0.9423 -1.2874  0.9013
  798MPD2     C11754   3.037   0.579  16.601 -0.0764  0.1753 -0.4288
  798MPD2    C111755   2.950   0.612  16.699 -0.2729  0.0015 -0.9233
  798MPD2    C211756   2.972   0.577  16.831  0.0365  0.3944  0.5212
  798MPD2    C311757   3.083   0.495  16.856  0.5541 -0.0102  0.9905
  798MPD2    C411758   3.161   0.454  16.746 -0.6563 -0.0372 -0.2122
  798MPD2    C511759   3.144   0.497  16.619 -0.5443  0.0386 -0.0293
  798MPD2     H11760   2.908   0.605  16.914 -0.1642  0.8245  0.2178
  798MPD2    H111761   3.254   0.402  16.765 -1.0676 -1.4629 -2.1010
  798MPD2    H211762   3.038   0.609  16.496 -2.4647  0.0794 -0.4692
  798MPD2    H311763   3.202   0.475  16.531 -0.9915  0.5817 -0.4612
  798MPD2     N11764   3.089   0.441  16.989 -0.7431 -0.2692  0.3832
  798MPD2    H511765   3.021   0.472  17.058 -0.3981  0.5845  0.3307
  798MPD2    N111766   2.832   0.688  16.682 -0.0759 -0.0740 -0.0200
  798MPD2    H711767   2.768   0.696  16.760 -0.2389 -0.7607 -0.0897
  799MPD2     C11768   1.868   1.768  14.535 -0.5856 -0.6473  0.3383
  799MPD2    C111769   1.800   1.704  14.435 -0.0038  0.5471  0.1775
  799MPD2    C211770   1.714   1.773  14.358  0.2780  0.1171 -0.2838
  799MPD2    C311771   1.693   1.907  14.377  0.7707  0.2416 -0.5795
  799MPD2    C411772   1.749   1.966  14.488  0.1062  0.4177 -0.1018
  799MPD2    C511773   1.839   1.896  14.563 -0.6384 -0.3897  0.0633
  799MPD2     H11774   1.681   1.721  14.269 -0.6945  1.2976 -0.6201
  799MPD2    H111775   1.724   2.068  14.515  0.8804  0.1348  1.6282
  799MPD2    H211776   1.939   1.721  14.601 -2.5479 -2.1448  1.3821
  799MPD2    H311777   1.878   1.926  14.659 -0.1460 -0.8820  0.0128
  799MPD2     N11778   1.606   1.979  14.291  0.0934  0.3367 -0.2264
  799MPD2    H511779   1.612   2.080  14.294  0.5736  0.2958  0.1329
  799MPD2    N111780   1.804   1.561  14.414  0.6689 -0.6419  0.5237
  799MPD2    H711781   1.737   1.521  14.349 -1.8756  0.3855  2.5188
  800MPD2     C11782   3.331   2.989  14.434  0.3373  0.3740  0.5107
  800MPD2    C111783   3.274   3.112  14.418  0.6399 -0.2745 -0.7652
  800MPD2    C211784   3.159   3.128  14.350 -0.0219 -0.9481 -0.2447
  800MPD2    C311785   3.101   3.018  14.295  0.1363  0.1944 -0.3673
  800MPD2    C411786   3.158   2.894  14.312 -0.9187  0.3277  0.5806
  800MPD2    C511787   3.272   2.878  14.376 -0.5738  0.1101  0.6741
  800MPD2     H11788   3.108   3.223  14.344 -0.5165 -1.1697  0.4229
  800MPD2    H111789   3.099   2.806  14.287  0.5158 -0.1293 -1.2124
  800MPD2    H211790   3.428   2.966  14.478  1.0666  0.3193 -1.1422
  800MPD2    H311791   3.312   2.778  14.388 -2.2050 -0.7114 -0.7720
  800MPD2     N11792   2.969   3.031  14.244  0.3224  0.2312 -0.2989
  800MPD2    H511793   2.932   3.125  14.255 -1.1506 -0.4543  0.7036
  800MPD2    N111794   3.328   3.234  14.469  0.1582 -0.7944  0.0385
  800MPD2    H711795   3.293   3.324  14.439  0.5561  0.0352  2.0598
  801MPD2     C11796   3.197   3.909  14.728  0.1460  0.2187 -0.9008
  801MPD2    C111797   3.167   3.786  14.664  0.0341  0.4083 -0.8867
  801MPD2    C211798   3.031   3.752  14.645  0.4310  0.1967  0.2354
  801MPD2    C311799   2.935   3.836  14.698 -0.4977  0.0819  0.4565
  801MPD2    C411800   2.970   3.956  14.757 -0.7259 -0.4233 -0.7923
  801MPD2    C511801   3.101   3.995  14.771 -0.2873 -0.2863 -0.2164
  801MPD2     H11802   3.010   3.656  14.599  0.8889  0.5635 -0.7212
  801MPD2    H111803   2.902   4.028  14.802 -0.3480 -0.8387  0.4439
  801MPD2    H211804   3.295   3.949  14.749  0.0114  0.4219 -0.6628
  801MPD2    H311805   3.131   4.085  14.824  0.2875 -0.1650 -0.7494
  801MPD2     N11806   2.795   3.807  14.711 -0.2591 -0.0772  0.2447
  801MPD2    H511807   2.740   3.869  14.768 -0.8560 -0.2418 -0.1574
  801MPD2    N111808   3.264   3.686  14.629  0.8468 -0.5153  0.2514
  801MPD2    H711809   3.233   3.601  14.583 -3.5021  1.6213 -0.7774
  802MPD2     C11810   1.337   2.807  16.942  0.0077  0.2991 -0.1545
  802MPD2    C111811   1.319   2.931  16.882 -0.7883  0.2369 -0.5111
  802MPD2    C211812   1.397   2.965  16.770  0.4337 -0.5723  0.4194
  802MPD2    C311813   1.485   2.870  16.715 -0.1186  0.4517  0.0550
  802MPD2    C411814   1.511   2.753  16.785  0.3522  0.5863  0.0689
  802MPD2    C511815   1.446   2.728  16.903 -0.4539 -1.0266 -0.0673
  802MPD2     H11816   1.396   3.066  16.730 -0.4482  0.7001  3.6670
  802MPD2    H111817   1.590   2.683  16.757  1.4693  1.1583  1.7810
  802MPD2    H211818   1.290   2.793  17.039 -0.0831 -1.4316 -0.4446
  802MPD2    H311819   1.463   2.633  16.953 -0.6857 -0.5831  0.8477
  802MPD2     N11820   1.554   2.912  16.597 -0.1035  0.4447  0.0050
  802MPD2    H511821   1.550   3.012  16.583 -2.4316  0.2742 -0.4927
  802MPD2    N111822   1.227   3.027  16.921 -0.5021  0.5223 -0.4273
  802MPD2    H711823   1.235   3.113  16.868 -0.5872  0.8626  0.1070
  803MPD2     C11824   2.771   2.497  11.423 -0.0666 -0.3893 -0.2919
  803MPD2    C111825   2.845   2.491  11.542 -0.6835 -0.4102 -0.3756
  803MPD2    C211826   2.819   2.389  11.638  0.0793 -0.0199  0.0532
  803MPD2    C311827   2.719   2.295  11.616 -0.2491  0.3603  0.1954
  803MPD2    C411828   2.641   2.311  11.502 -0.4256 -0.0408 -0.3639
  803MPD2    C511829   2.674   2.406  11.408 -0.1274 -0.2635  0.7365
  803MPD2     H11830   2.873   2.384  11.731 -0.7768 -1.7398  0.4571
  803MPD2    H111831   2.562   2.239  11.484  0.1640 -0.7954  0.0427
  803MPD2    H211832   2.784   2.579  11.353  2.7557 -1.1168 -0.5725
  803MPD2    H311833   2.606   2.406  11.323 -0.4403 -1.0883  0.9897
  803MPD2     N11834   2.694   2.198  11.711 -0.1558  0.1940  1.6377
  803MPD2    H511835   2.616   2.136  11.694  0.2178  0.5659 -1.4361
  803MPD2    N111836   2.942   2.591  11.563 -0.1976 -0.4972 -0.0224
  803MPD2    H711837   2.968   2.597  11.661 -1.4231  4.1683  0.0166
  804MPD2     C11838   2.354   3.545  16.817 -0.8706 -0.0638 -0.6480
  804MPD2    C111839   2.295   3.510  16.932  0.2421 -0.8366 -0.3556
  804MPD2    C211840   2.343   3.557  17.051 -0.3648  0.2708  0.2633
  804MPD2    C311841   2.450   3.635  17.051  0.6988  0.2051 -0.2925
  804MPD2    C411842   2.520   3.656  16.936  0.5376 -0.8611 -0.3705
  804MPD2    C511843   2.472   3.607  16.815  0.4087  0.0540  0.3556
  804MPD2     H11844   2.291   3.547  17.145 -0.4794  2.7911  0.4750
  804MPD2    H111845   2.613   3.710  16.928  0.6128 -0.9978 -0.4291
  804MPD2    H211846   2.325   3.514  16.717  1.4258  0.3282 -1.4506
  804MPD2    H311847   2.513   3.638  16.719  0.1583 -0.5476  0.0569
  804MPD2     N11848   2.495   3.683  17.173 -0.3046 -0.2248 -0.2673
  804MPD2    H511849   2.437   3.669  17.255  1.1709 -1.9231  0.4965
  804MPD2    N111850   2.186   3.426  16.936 -0.5645 -0.5718 -0.2033
  804MPD2    H711851   2.131   3.396  17.016 -1.0594  0.4274 -0.1606
  805MPD2     C11852   1.565   1.856  15.312  0.1355 -0.1636 -0.7377
  805MPD2    C111853   1.652   1.917  15.227  0.9480 -0.3888 -0.3798
  805MPD2    C211854   1.788   1.931  15.267 -0.2915  0.7102 -0.0320
  805MPD2    C311855   1.830   1.875  15.389  0.0717  0.0061  0.3493
  805MPD2    C411856   1.737   1.824  15.474  0.3030  0.5270  0.4207
  805MPD2    C511857   1.610   1.815  15.433 -0.7829  0.3086 -0.5491
  805MPD2     H11858   1.855   1.961  15.187 -1.0113 -2.4378 -1.8179
  805MPD2    H111859   1.766   1.782  15.570 -0.3437 -2.1632 -0.5711
  805MPD2    H211860   1.466   1.828  15.278  0.2840 -0.3637 -0.9959
  805MPD2    H311861   1.555   1.752  15.501  0.0445  1.8829  1.5864
  805MPD2     N11862   1.974   1.880  15.407 -0.4964  0.0969 -0.6658
  805MPD2    H511863   2.031   1.927  15.337  0.2180  0.1196 -0.0562
  805MPD2    N111864   1.604   1.953  15.099 -0.3626 -0.1328 -0.3376
  805MPD2    H711865   1.679   1.982  15.038  0.0127 -0.7202 -0.1568
  806MPD2     C11866   1.775   0.792   0.464  0.1604  0.7809 -0.8536
  806MPD2    C111867   1.838   0.914   0.456 -0.0533 -0.1539 -0.5782
  806MPD2    C211868   1.930   0.924   0.353 -0.3967 -0.1157  0.1103
  806MPD2    C311869   1.944   0.823   0.257  0.5728  0.3078 -0.0028
  806MPD2    C411870   1.885   0.697   0.276 -0.4974 -0.3694 -0.3561
  806MPD2    C511871   1.810   0.687   0.388 -0.3332 -0.0742 -0.1074
  806MPD2     H11872   1.980   1.017   0.330 -0.0140 -0.3608 -0.0445
  806MPD2    H111873   1.900   0.606   0.219  1.9481  0.3975 -0.9608
  806MPD2    H211874   1.696   0.776   0.536  0.7005 -2.7089 -1.0739
  806MPD2    H311875   1.758   0.594   0.411 -0.1844  0.1439  1.1126
  806MPD2     N11876   2.032   0.854   0.156 -0.0953  0.5002  0.2618
  806MPD2    H511877   2.081   0.942   0.149  0.8067 -0.1017 -0.9974
  806MPD2    N111878   1.798   1.023   0.541  0.4123 -0.1180  0.2222
  806MPD2    H711879   1.745   1.005   0.626 -0.1350  0.9042  0.0921
  807MPD2     C11880   1.471   1.259   1.197  0.0418 -0.0892 -0.2050
  807MPD2    C111881   1.600   1.209   1.210 -0.2936  0.2381 -1.3459
  807MPD2    C211882   1.637   1.146   1.327  0.4827  0.2849  0.8878
  807MPD2    C311883   1.547   1.128   1.431 -0.4715  0.7070  0.0778
  807MPD2    C411884   1.416   1.176   1.410 -0.3161  0.0876  0.4197
  807MPD2    C511885   1.382   1.246   1.302  0.2185 -0.6365 -0.0791
  807MPD2     H11886   1.735   1.100   1.326  0.4336  0.1491  1.8139
  807MPD2    H111887   1.337   1.158   1.481  0.1552 -0.6992  0.7461
  807MPD2    H211888   1.447   1.308   1.103 -0.2511  1.4617  0.6759
  807MPD2    H311889   1.280   1.280   1.288 -0.5898 -2.1496  2.1585
  807MPD2     N11890   1.593   1.053   1.539 -0.7893  0.2854  0.1348
  807MPD2    H511891   1.679   1.000   1.530 -1.5982 -1.6359  3.6300
  807MPD2    N111892   1.691   1.224   1.106 -0.0036 -1.0011  0.5614
  807MPD2    H711893   1.789   1.205   1.122  0.7619  1.3488 -1.2234
  808MPD2     C11894   2.453   2.780  10.814  0.2178  0.2163 -0.1712
  808MPD2    C111895   2.477   2.705  10.704  0.2974 -0.1211 -1.0248
  808MPD2    C211896   2.510   2.761  10.583 -0.2814 -1.0472  0.3956
  808MPD2    C311897   2.495   2.902  10.568  0.7323 -0.0001 -0.5685
  808MPD2    C411898   2.465   2.971  10.679 -0.2271 -0.4974 -0.3399
  808MPD2    C511899   2.444   2.914  10.808 -0.0992  0.1598  0.7437
  808MPD2     H11900   2.541   2.700  10.500  0.4615  0.0407 -0.1269
  808MPD2    H111901   2.465   3.079  10.667 -1.4802 -0.3536  0.9030
  808MPD2    H211902   2.421   2.738  10.909  0.1876  2.2313  0.6905
  808MPD2    H311903   2.419   2.982  10.889 -0.3783 -0.6249  1.3110
  808MPD2     N11904   2.542   2.974  10.454  0.4650  0.0187 -0.3418
  808MPD2    H511905   2.514   3.070  10.441 -1.5557 -0.5726 -0.2427
  808MPD2    N111906   2.468   2.561  10.708 -0.1550 -0.2736  0.3694
  808MPD2    H711907   2.462   2.521  10.615  0.4252  2.1646 -0.7290
  809MPD2     C11908   3.113   3.170   9.525 -0.0133  0.2319  0.4788
  809MPD2    C111909   3.127   3.079   9.636 -0.5243 -0.2501 -0.1270
  809MPD2    C211910   3.034   3.082   9.732 -0.2504 -0.7685  0.4292
  809MPD2    C311911   2.914   3.154   9.720 -0.0506 -0.5939 -0.7416
  809MPD2    C411912   2.902   3.237   9.620  0.2408 -0.4094  0.1662
  809MPD2    C511913   3.000   3.244   9.522  0.1731  0.1450  0.1228
  809MPD2     H11914   3.058   3.032   9.826  0.1679 -0.8393  0.2853
  809MPD2    H111915   2.819   3.306   9.623 -1.0943 -2.0845  1.3442
  809MPD2    H211916   3.186   3.178   9.445  0.2613 -1.0832  0.5944
  809MPD2    H311917   2.983   3.318   9.444 -1.0181 -0.8226 -0.5361
  809MPD2     N11918   2.817   3.161   9.827 -1.0122  0.4433  0.4883
  809MPD2    H511919   2.753   3.239   9.815 -0.9852  0.3883 -0.0123
  809MPD2    N111920   3.245   3.001   9.658  0.1457 -0.2974  0.0500
  809MPD2    H711921   3.243   2.946   9.744  1.0304  1.2904  1.0919
  810MPD2     C11922   2.045   2.274  10.378 -0.0123 -0.3621  0.5908
  810MPD2    C111923   2.026   2.251  10.247  0.1909  0.2375  0.6143
  810MPD2    C211924   1.946   2.337  10.167 -0.4910  0.0325 -0.0412
  810MPD2    C311925   1.884   2.441  10.229  0.6200 -0.1808  0.2399
  810MPD2    C411926   1.908   2.472  10.364 -0.1961  0.5558  0.0918
  810MPD2    C511927   1.989   2.386  10.434 -0.4848 -0.3942  0.2443
  810MPD2     H11928   1.933   2.311  10.062  1.1412 -0.4541 -0.1205
  810MPD2    H111929   1.851   2.547  10.417  0.5737 -0.4834  2.3909
  810MPD2    H211930   2.113   2.213  10.436 -0.4560 -1.2921  0.1196
  810MPD2    H311931   2.005   2.413  10.538 -2.6741  0.4802  0.3481
  810MPD2     N11932   1.806   2.535  10.158  0.5255 -0.8423 -0.1454
  810MPD2    H511933   1.757   2.602  10.217 -0.0471 -1.3039 -0.0943
  810MPD2    N111934   2.091   2.132  10.203  0.3653  0.1009 -0.5723
  810MPD2    H711935   2.132   2.076  10.277 -0.8798  2.1735  1.6514
  811MPD2     C11936   1.907   2.043   9.508  0.5357 -0.0721 -0.4175
  811MPD2    C111937   1.958   2.099   9.628  0.1842 -0.8362  0.2799
  811MPD2    C211938   1.937   2.229   9.652 -1.0830 -0.6410 -0.5276
  811MPD2    C311939   1.861   2.313   9.571  0.2006  0.5534  0.3576
  811MPD2    C411940   1.818   2.258   9.454 -0.6621  0.2804 -0.4263
  811MPD2    C511941   1.850   2.129   9.421 -0.5016 -0.0079  0.5646
  811MPD2     H11942   1.968   2.279   9.743 -2.2866 -0.7769 -0.0517
  811MPD2    H111943   1.754   2.313   9.386 -0.7727  0.1310 -0.4419
  811MPD2    H211944   1.933   1.945   9.471 -2.1448 -0.4365 -1.3121
  811MPD2    H311945   1.805   2.088   9.331 -1.5240  0.8562  0.6847
  811MPD2     N11946   1.826   2.437   9.621  0.0754 -0.6149  0.3908
  811MPD2    H511947   1.862   2.457   9.714 -0.7614  1.1906  0.3402
  811MPD2    N111948   2.031   2.026   9.720 -0.1994 -0.0832 -0.9442
  811MPD2    H711949   2.057   2.081   9.801  0.1720 -0.1223 -1.0367
  812MPD2     C11950   0.826   1.941  12.237 -0.4378  0.1585  0.1217
  812MPD2    C111951   0.782   2.036  12.333 -0.6988  0.3890  0.6409
  812MPD2    C211952   0.744   1.987  12.455  0.5920  0.3203  0.2407
  812MPD2    C311953   0.743   1.850  12.483  0.0747 -0.1142 -0.4769
  812MPD2    C411954   0.792   1.765  12.388 -0.3643 -0.3653 -0.6856
  812MPD2    C511955   0.834   1.808  12.269 -1.1760  0.4670 -0.0517
  812MPD2     H11956   0.703   2.052  12.531  0.1269 -0.8425  0.9990
  812MPD2    H111957   0.805   1.658  12.398 -1.0622 -0.4754 -0.9770
  812MPD2    H211958   0.837   1.975  12.134  1.0323 -2.0217 -0.4496
  812MPD2    H311959   0.877   1.742  12.195  2.3941  0.7201  1.8179
  812MPD2     N11960   0.675   1.804  12.602  0.1817 -0.0144 -1.0542
  812MPD2    H511961   0.624   1.877  12.649  0.7569 -0.5158  0.3506
  812MPD2    N111962   0.774   2.171  12.295  0.5004  0.2014  0.0217
  812MPD2    H711963   0.784   2.187  12.195  1.2223  1.8157  0.3461
  813MPD2     C11964   4.142   3.928  12.838 -0.7967 -0.6047  0.6178
  813MPD2    C111965   4.180   4.058  12.842  0.5678  0.3279 -0.2840
  813MPD2    C211966   4.130   4.136  12.945  0.1272 -0.0702  0.6444
  813MPD2    C311967   4.059   4.090  13.056  0.6965  0.7254  0.4080
  813MPD2    C411968   4.031   3.957  13.055 -0.5098 -0.7672  0.5956
  813MPD2    C511969   4.067   3.881  12.943 -0.2792 -0.2541 -0.4986
  813MPD2     H11970   4.156   4.241  12.950 -0.5248  0.0918  0.6453
  813MPD2    H111971   3.962   3.913  13.126 -2.5271  1.0621 -0.2198
  813MPD2    H211972   4.178   3.848  12.774 -0.1395  0.0972  0.1193
  813MPD2    H311973   4.038   3.777  12.948 -1.4028  0.0713 -0.1985
  813MPD2     N11974   4.022   4.175  13.158  0.0378  0.0334  0.3140
  813MPD2    H511975   4.053   4.271  13.150  0.5990 -0.2316 -0.6748
  813MPD2    N111976   4.261   4.112  12.740 -0.2912 -0.2407 -0.3666
  813MPD2    H711977   4.272   4.046  12.664  0.5082  1.8331 -2.0706
  814MPD2     C11978   0.461   0.691  12.115 -0.6852 -0.1374  0.0940
  814MPD2    C111979   0.520   0.744  12.005  0.1755 -0.0981 -0.4237
  814MPD2    C211980   0.600   0.855  12.027 -1.0147  0.6007 -0.1627
  814MPD2    C311981   0.612   0.910  12.151  0.2386  0.9662 -0.2272
  814MPD2    C411982   0.565   0.850  12.262  0.0276 -0.2189 -0.1714
  814MPD2    C511983   0.489   0.740  12.240 -0.5503  0.0056  0.7620
  814MPD2     H11984   0.644   0.900  11.939  3.2413  3.0588  3.1602
  814MPD2    H111985   0.586   0.883  12.363 -0.8072  2.7087 -0.9559
  814MPD2    H211986   0.382   0.618  12.116 -1.1760  0.3478 -2.4433
  814MPD2    H311987   0.451   0.682  12.323  0.9689 -0.1451  1.3503
  814MPD2     N11988   0.695   1.020  12.178 -0.5687  0.2847 -0.0370
  814MPD2    H511989   0.689   1.059  12.271  0.4757 -0.9527  0.5487
  814MPD2    N111990   0.482   0.699  11.876  0.0051 -0.4083 -0.2549
  814MPD2    H711991   0.512   0.765  11.805 -2.0281  0.6669 -0.1326
  815MPD2     C11992   1.029   3.449  12.005 -0.1129 -0.4791 -0.3581
  815MPD2    C111993   0.948   3.423  11.893 -0.5656  0.2796  0.1516
  815MPD2    C211994   0.810   3.407  11.908 -0.5136  0.7329  0.2686
  815MPD2    C311995   0.754   3.425  12.034  0.0830  0.8523 -0.0579
  815MPD2    C411996   0.835   3.447  12.146 -0.1461 -1.1691  0.2096
  815MPD2    C511997   0.968   3.469  12.129  0.1462 -0.3258  0.7900
  815MPD2     H11998   0.745   3.373  11.829  0.6313  1.4204 -0.9599
  815MPD2    H111999   0.802   3.450  12.249  2.1460 -3.4312  1.0105
  815MPD2    H212000   1.136   3.453  11.993 -0.2448  0.2002 -1.3083
  815MPD2    H312001   1.031   3.494  12.214  0.4922 -1.0378  0.7425
  815MPD2     N12002   0.618   3.418  12.031  0.0886 -0.0218 -0.3333
  815MPD2    H512003   0.581   3.397  11.939  0.5629  0.9244 -0.7406
  815MPD2    N112004   1.012   3.395  11.766 -0.1318 -0.3452  0.0505
  815MPD2    H712005   1.110   3.373  11.780  0.5153  0.5202 -3.1672
  816MPD2     C12006   0.520   2.721  17.393  0.8008 -0.0827 -0.2535
  816MPD2    C112007   0.622   2.814  17.400  0.4747 -0.1595 -0.8862
  816MPD2    C212008   0.735   2.790  17.314  0.3943 -0.6430 -0.1368
  816MPD2    C312009   0.746   2.681  17.236  0.0330  0.3358  0.6422
  816MPD2    C412010   0.641   2.593  17.232 -0.8075 -0.3250  0.3321
  816MPD2    C512011   0.525   2.616  17.305  0.5179  0.2188  0.3734
  816MPD2     H12012   0.812   2.866  17.316  1.2387 -1.4567 -1.5914
  816MPD2    H112013   0.646   2.495  17.185 -0.6706 -1.3737  2.5541
  816MPD2    H212014   0.431   2.739  17.453  0.3046  1.2953 -1.3960
  816MPD2    H312015   0.439   2.551  17.294  2.1679 -1.3391 -3.1478
  816MPD2     N12016   0.864   2.666  17.161 -0.5000  0.4320  0.2283
  816MPD2    H512017   0.925   2.745  17.143  0.3297 -0.4623 -0.9062
  816MPD2    N112018   0.603   2.932  17.478 -0.1232  0.0436  0.5365
  816MPD2    H712019   0.506   2.940  17.507 -0.1875 -0.2348  0.3944
  817MPD2     C12020   0.931   4.437   9.806  0.6339 -0.3290 -0.1772
  817MPD2    C112021   1.038   4.412   9.720  0.0404 -0.4479 -0.2425
  817MPD2    C212022   1.091   4.515   9.644 -0.0748 -0.1805 -0.7788
  817MPD2    C312023   1.038   4.645   9.650  0.1964 -0.3030 -0.0815
  817MPD2    C412024   0.937   4.669   9.739  0.4116  0.8260 -0.1630
  817MPD2    C512025   0.885   4.568   9.819  0.2029  0.2328  0.3436
  817MPD2     H12026   1.169   4.496   9.572  0.7494  1.3812 -0.3108
  817MPD2    H112027   0.897   0.046   9.735 -3.1798 -0.5773  0.5371
  817MPD2    H212028   0.884   4.370   9.878  1.6014  0.5826  1.3109
  817MPD2    H312029   0.798   4.577   9.883 -0.2436  0.1772 -0.2452
  817MPD2     N12030   1.098   0.028   9.576 -0.2047  0.1282  0.7750
  817MPD2    H512031   1.188   4.722   9.539 -0.5422  0.0663  0.0038
  817MPD2    N112032   1.083   4.276   9.702  0.1372 -0.4067 -0.1025
  817MPD2    H712033   1.164   4.258   9.644 -0.1329 -2.9990  0.3167
  818MPD2     C12034   0.137   4.556  10.169  0.5826 -0.3003  0.4853
  818MPD2    C112035   0.018   4.483  10.158 -0.0532  0.6951  0.3059
  818MPD2    C212036   0.012   4.352  10.210  0.4818 -0.1328 -0.1545
  818MPD2    C312037   0.134   4.289  10.230  0.3521 -0.9903  0.5731
  818MPD2    C412038   0.258   4.353  10.216 -0.5712 -0.2928  0.0526
  818MPD2    C512039   0.256   4.490  10.195 -0.1627  0.8003 -0.5144
  818MPD2     H12040   4.640   4.305  10.231  0.4349 -0.1040 -0.3025
  818MPD2    H112041   0.354   4.303  10.222 -1.5393 -1.6673  3.9760
  818MPD2    H212042   0.151   4.660  10.142 -0.4859  0.0913  1.4466
  818MPD2    H312043   0.346   4.547  10.211  1.7443 -2.8984  1.8882
  818MPD2     N12044   0.149   4.158  10.279 -0.7010  0.3879 -0.6114
  818MPD2    H512045   0.232   4.103  10.259  0.6505  2.2624 -0.0756
  818MPD2    N112046   4.628   4.543  10.094  0.0360  0.1324  0.5608
  818MPD2    H712047   4.536   4.500  10.096 -0.6527  1.6048  0.1075
  819MPD2     C12048   2.183   1.572  15.218  0.3190  0.4701 -0.2334
  819MPD2    C112049   2.153   1.460  15.292  0.2457  0.4664 -0.8036
  819MPD2    C212050   2.258   1.389  15.350 -0.4650 -0.7004  0.5371
  819MPD2    C312051   2.391   1.431  15.341  0.0039 -0.3366  0.3628
  819MPD2    C412052   2.411   1.549  15.269 -0.2436 -0.2717  0.2179
  819MPD2    C512053   2.309   1.613  15.203  0.7815 -0.3358  0.1050
  819MPD2     H12054   2.242   1.300  15.410  0.7115 -0.9455  0.4879
  819MPD2    H112055   2.514   1.581  15.256 -0.0993 -0.2837  1.3693
  819MPD2    H212056   2.103   1.628  15.172 -0.5044 -0.7425 -0.2763
  819MPD2    H312057   2.334   1.700  15.143 -1.4631 -0.3787 -0.9015
  819MPD2     N12058   2.495   1.362  15.401  0.0972  0.2938  0.1368
  819MPD2    H512059   2.476   1.281  15.459  3.0573  1.1036  2.2234
  819MPD2    N112060   2.023   1.422  15.298  0.1052 -0.3753  0.5622
  819MPD2    H712061   1.962   1.481  15.242 -1.6697 -0.6433  2.2248
  820MPD2     C12062   1.389   1.399  14.590 -0.3635 -0.4059 -0.6467
  820MPD2    C112063   1.483   1.475  14.651  0.1890 -0.1086  0.3503
  820MPD2    C212064   1.573   1.420  14.734  0.3111 -0.5463  0.7148
  820MPD2    C312065   1.563   1.285  14.762 -0.0409  0.1296 -0.0678
  820MPD2    C412066   1.468   1.204  14.698  0.4631  0.5408 -0.2818
  820MPD2    C512067   1.381   1.267  14.617 -0.1729  1.0749 -0.0402
  820MPD2     H12068   1.648   1.479  14.785 -0.0900  1.3673 -0.8660
  820MPD2    H112069   1.464   1.099  14.723 -0.0072  1.0837  1.9718
  820MPD2    H212070   1.313   1.441  14.524  1.6029  2.5139 -1.0434
  820MPD2    H312071   1.298   1.216  14.568  0.2822 -0.7934  1.1271
  820MPD2     N12072   1.635   1.223  14.865  0.0214 -0.3404 -0.0680
  820MPD2    H512073   1.608   1.133  14.902  0.9220  0.0258  1.5116
  820MPD2    N112074   1.472   1.617  14.623  0.2966  0.1434  0.1978
  820MPD2    H712075   1.388   1.654  14.579 -0.2400 -0.9453  0.3025
  821MPD2     C12076   2.417   3.034  13.636  0.1877 -0.1829 -0.4104
  821MPD2    C112077   2.550   3.052  13.679  0.3867  0.6567  0.3076
  821MPD2    C212078   2.650   3.069  13.587 -1.1730  0.3800  0.7736
  821MPD2    C312079   2.618   3.063  13.450  0.6034  0.4647  0.6278
  821MPD2    C412080   2.490   3.043  13.409 -0.0963  0.3465 -0.3912
  821MPD2    C512081   2.391   3.033  13.500  0.3854  0.3425  0.8479
  821MPD2     H12082   2.752   3.081  13.623 -0.1179 -0.7044 -1.9031
  821MPD2    H112083   2.457   3.034  13.306  0.8656 -0.3027 -0.6444
  821MPD2    H212084   2.336   3.028  13.708  0.2160  0.9247 -0.2868
  821MPD2    H312085   2.295   3.003  13.458 -0.2889  2.8086  0.6314
  821MPD2     N12086   2.714   3.083  13.344 -0.2271  0.1247  0.2811
  821MPD2    H512087   2.679   3.079  13.249 -0.2724 -0.8164  0.3429
  821MPD2    N112088   2.582   3.048  13.820  0.6606  0.4407 -0.2656
  821MPD2    H712089   2.680   3.045  13.846  1.0565 -0.1687 -1.8112
  822MPD2     C12090   2.919   2.902  15.955  0.4303  0.4503  0.3096
  822MPD2    C112091   2.900   2.825  16.074 -0.1972 -0.9893  0.1170
  822MPD2    C212092   2.818   2.881  16.177  0.3144 -0.6590  0.6190
  822MPD2    C312093   2.776   3.012  16.166 -0.3139 -0.6907  0.1527
  822MPD2    C412094   2.794   3.072  16.045 -0.2125  0.2840  0.5646
  822MPD2    C512095   2.866   3.021  15.944  0.5821  0.0504 -0.4687
  822MPD2     H12096   2.807   2.828  16.270  1.0885  0.8733  1.5921
  822MPD2    H112097   2.767   3.175  16.022  0.6883  0.2459 -0.6793
  822MPD2    H212098   2.984   2.866  15.876 -1.3217 -1.1841 -0.3825
  822MPD2    H312099   2.879   3.078  15.853 -1.8159 -0.2910 -1.0299
  822MPD2     N12100   2.720   3.078  16.276 -0.2851 -0.0311 -0.7310
  822MPD2    H512101   2.720   3.028  16.364 -1.9464  0.8312 -0.2528
  822MPD2    N112102   2.962   2.699  16.089 -0.2260 -0.2791 -0.0346
  822MPD2    H712103   2.944   2.649  16.175 -0.8727 -0.4692 -0.2763
  823MPD2     C12104   2.282   3.062  16.974  0.1657  0.4736 -0.0906
  823MPD2    C112105   2.379   2.999  16.898  0.1399 -0.2992 -0.8638
  823MPD2    C212106   2.395   2.862  16.902 -0.3093  0.8284 -0.2521
  823MPD2    C312107   2.297   2.788  16.969 -0.0307  0.2237 -0.2718
  823MPD2    C412108   2.194   2.857  17.033  0.2833 -0.9036  0.2509
  823MPD2    C512109   2.185   2.993  17.028  0.2000  0.8772 -0.4404
  823MPD2     H12110   2.480   2.819  16.850  0.2122 -0.0670  1.3502
  823MPD2    H112111   2.117   2.800  17.085 -0.9878  1.3876  0.8924
  823MPD2    H212112   2.272   3.170  16.984  0.3150  0.4101  0.7130
  823MPD2    H312113   2.101   3.043  17.074 -0.7885  0.1137 -1.3878
  823MPD2     N12114   2.297   2.640  16.976  0.6377  0.3712 -0.4978
  823MPD2    H512115   2.222   2.599  17.031  0.0646 -0.8765 -2.2174
  823MPD2    N112116   2.457   3.079  16.815  0.0863  0.9098 -0.1698
  823MPD2    H712117   2.442   3.177  16.837 -0.7018  1.1563 -1.7614
  824MPD2     C12118   3.224   1.958  15.733  0.5677 -0.5579 -0.3949
  824MPD2    C112119   3.329   2.032  15.783 -0.6956  0.1489  0.7463
  824MPD2    C212120   3.461   1.990  15.751 -0.2566  0.0977 -0.1011
  824MPD2    C312121   3.484   1.884  15.672 -0.4961  0.0009 -0.5085
  824MPD2    C412122   3.380   1.807  15.634  0.3832  0.2278  0.0475
  824MPD2    C512123   3.253   1.846  15.663 -0.4115  1.0223 -0.4297
  824MPD2     H12124   3.541   2.047  15.795 -1.0366  1.0957  0.0331
  824MPD2    H112125   3.390   1.718  15.573 -0.1687 -1.0913  1.8541
  824MPD2    H212126   3.120   1.973  15.759  0.8718 -1.9739  1.6924
  824MPD2    H312127   3.167   1.794  15.623  0.7208 -0.3845 -1.0095
  824MPD2     N12128   3.619   1.846  15.652 -0.1677 -1.2959 -0.0760
  824MPD2    H512129   3.683   1.921  15.675 -0.4310 -0.3469 -2.3843
  824MPD2    N112130   3.307   2.147  15.862 -0.0968 -0.3875 -0.1442
  824MPD2    H712131   3.385   2.197  15.904  0.7763 -3.0925  1.4269
  825MPD2     C12132   4.350   2.087  15.763 -0.6694  0.0336  0.7335
  825MPD2    C112133   4.245   2.104  15.679  0.0914 -0.1952 -0.0270
  825MPD2    C212134   4.228   2.230  15.616 -1.0803  0.2002 -0.1483
  825MPD2    C312135   4.315   2.339  15.649  0.1169  0.3129 -0.6549
  825MPD2    C412136   4.418   2.315  15.741 -0.4294 -0.4103  0.0854
  825MPD2    C512137   4.439   2.184  15.785  0.3613  0.7913 -0.0612
  825MPD2     H12138   4.141   2.240  15.552 -0.1091  1.7200 -1.2538
  825MPD2    H112139   4.489   2.393  15.765  1.8448 -1.7938 -2.1795
  825MPD2    H212140   4.375   1.992  15.808  0.5979  0.2175  0.3961
  825MPD2    H312141   4.516   2.171  15.861 -0.2916  1.1194  0.6531
  825MPD2     N12142   4.296   2.471  15.603 -0.2629 -0.5433  0.4159
  825MPD2    H512143   4.368   2.541  15.614 -0.3881 -0.4733  0.7762
  825MPD2    N112144   4.176   1.984  15.635  0.1388 -0.2785  0.0387
  825MPD2    H712145   4.211   1.895  15.671 -1.5397 -1.2725 -0.8149
  826MPD2     C12146   3.850   1.871  13.319  0.4633  0.3422  0.0860
  826MPD2    C112147   3.744   1.891  13.231  0.4993  0.4933 -0.8129
  826MPD2    C212148   3.633   1.957  13.275 -0.3334  0.3888 -0.0627
  826MPD2    C312149   3.637   2.005  13.404  0.7951  0.0461 -0.1202
  826MPD2    C412150   3.743   1.992  13.483  0.0752  0.2889  1.1634
  826MPD2    C512151   3.846   1.922  13.443 -0.7126 -0.8740  0.5016
  826MPD2     H12152   3.552   1.981  13.207  0.2510  0.3788 -0.7595
  826MPD2    H112153   3.734   2.019  13.588 -0.4323  0.0702  1.1778
  826MPD2    H212154   3.933   1.810  13.286 -0.7151 -0.5482 -1.2253
  826MPD2    H312155   3.925   1.895  13.512 -0.7910 -0.7106  0.6562
  826MPD2     N12156   3.538   2.094  13.461  0.1571 -0.2644 -0.3830
  826MPD2    H512157   3.554   2.119  13.558  2.6613 -1.7517 -0.4259
  826MPD2    N112158   3.757   1.843  13.103  0.1385 -0.4827  0.0814
  826MPD2    H712159   3.846   1.808  13.070 -0.7908 -0.6214 -2.2879
  827MPD2     C12160   4.422   2.817  10.173  0.3208  0.0374  0.2913
  827MPD2    C112161   4.389   2.795  10.305 -0.2748  0.4394 -0.9562
  827MPD2    C212162   4.265   2.734  10.319 -0.2254  0.4922 -0.4391
  827MPD2    C312163   4.186   2.698  10.207  0.2509  0.4068  0.0649
  827MPD2    C412164   4.236   2.708  10.082  1.5887 -0.4368  0.3507
  827MPD2    C512165   4.355   2.767  10.064 -0.3540 -0.0689 -0.1701
  827MPD2     H12166   4.225   2.732  10.420  1.3943 -1.0491  0.1630
  827MPD2    H112167   4.172   2.678  10.000  0.8467 -0.0773  0.7929
  827MPD2    H212168   4.518   2.862  10.149 -0.3722  0.4081 -1.7824
  827MPD2    H312169   4.412   2.777   9.973 -0.6221 -0.0510 -0.3370
  827MPD2     N12170   4.053   2.649  10.234 -0.3668 -0.0019 -0.1421
  827MPD2    H512171   4.024   2.657  10.331 -1.4672  1.4349 -0.5825
  827MPD2    N112172   4.481   2.828  10.405  0.5618  0.3359 -0.7135
  827MPD2    H712173   4.565   2.871  10.368  0.7391  0.8216  0.2339
  828MPD2     C12174   3.008   3.299  12.323 -0.4354  0.0888  0.0616
  828MPD2    C112175   2.906   3.323  12.234  0.5319  0.3961  0.1182
  828MPD2    C212176   2.942   3.326  12.101  0.3389  0.4049 -0.1714
  828MPD2    C312177   3.074   3.320  12.068 -0.2265 -0.7115 -0.5507
  828MPD2    C412178   3.172   3.302  12.159 -0.1896 -0.2430 -0.7487
  828MPD2    C512179   3.139   3.288  12.292 -0.4860 -0.2635 -0.2184
  828MPD2     H12180   2.864   3.332  12.026  0.9664  0.1751 -0.8514
  828MPD2    H112181   3.274   3.286  12.124  0.4379  1.0349  0.4583
  828MPD2    H212182   2.973   3.274  12.422  3.4862  1.5121  1.8108
  828MPD2    H312183   3.207   3.251  12.368 -1.2457  0.2429  0.7207
  828MPD2     N12184   3.112   3.315  11.928  0.5820  0.1045  0.2611
  828MPD2    H512185   3.209   3.292  11.913  0.4227 -0.9631  0.8902
  828MPD2    N112186   2.772   3.313  12.267  0.3038  0.0061  0.2865
  828MPD2    H712187   2.719   3.296  12.182  0.9253 -1.5947  0.2178
  829MPD2     C12188   2.106   3.578  11.786 -0.2764 -0.2152  0.0257
  829MPD2    C112189   2.043   3.527  11.897 -0.1702 -0.4196 -0.2769
  829MPD2    C212190   2.114   3.456  11.987 -0.0038 -0.4153  0.2558
  829MPD2    C312191   2.250   3.437  11.977 -0.0809  0.0979  0.2750
  829MPD2    C412192   2.309   3.484  11.863 -0.3289 -0.2013  0.4781
  829MPD2    C512193   2.239   3.555  11.767 -0.3453  0.3236 -0.3280
  829MPD2     H12194   2.052   3.412  12.064 -0.2627  0.3952  0.5092
  829MPD2    H112195   2.414   3.472  11.839 -0.6610  0.9137 -1.4529
  829MPD2    H212196   2.052   3.624  11.704  1.1150 -0.2544 -0.9263
  829MPD2    H312197   2.286   3.589  11.676 -0.8630  0.1675 -0.6575
  829MPD2     N12198   2.325   3.381  12.079  0.1308  0.6666  0.6035
  829MPD2    H512199   2.424   3.367  12.060 -0.2940 -3.3636  1.3884
  829MPD2    N112200   1.910   3.575  11.919 -0.8035  0.1034  0.2332
  829MPD2    H712201   1.868   3.624  11.841  0.9523  2.0770  0.5091
  830MPD2     C12202   3.315   1.196  15.615 -0.6920  0.6067  0.0547
  830MPD2    C112203   3.240   1.228  15.502  0.7103  0.5135 -0.4918
  830MPD2    C212204   3.284   1.322  15.412 -0.2109 -0.0283 -0.6818
  830MPD2    C312205   3.394   1.391  15.445  0.4842 -0.5891  0.7438
  830MPD2    C412206   3.469   1.350  15.555  0.0043  0.4493  0.0241
  830MPD2    C512207   3.425   1.258  15.648 -0.1624 -0.0187 -0.2127
  830MPD2     H12208   3.224   1.348  15.325 -0.0044 -0.6167 -1.0041
  830MPD2    H112209   3.563   1.399  15.575  0.2772  0.6918 -1.8818
  830MPD2    H212210   3.282   1.122  15.687 -0.6494  1.1740  0.6518
  830MPD2    H312211   3.474   1.215  15.734 -0.3981  0.3379  0.1039
  830MPD2     N12212   3.434   1.507  15.377  0.2854  0.3438 -0.6121
  830MPD2    H512213   3.509   1.558  15.423 -1.2343  1.5675  0.5169
  830MPD2    N112214   3.122   1.157  15.480  0.2750  0.1600 -0.5124
  830MPD2    H712215   3.086   1.099  15.554  0.3193  3.3444  2.0163
  831MPD2     C12216   2.966   3.062  16.500 -0.3575 -0.3962  0.6241
  831MPD2    C112217   3.038   2.972  16.429  0.1121  0.5431 -0.2916
  831MPD2    C212218   3.007   2.837  16.443  0.1187  0.1399  0.5793
  831MPD2    C312219   2.914   2.799  16.539 -0.6524 -0.2352 -0.7662
  831MPD2    C412220   2.856   2.896  16.621  0.4833  0.1272  0.1961
  831MPD2    C512221   2.886   3.023  16.599 -0.3618  0.1069  0.8441
  831MPD2     H12222   3.056   2.768  16.375  0.7920  0.1364  1.0793
  831MPD2    H112223   2.780   2.882  16.697  1.9053  0.4634  1.6790
  831MPD2    H212224   2.984   3.167  16.482 -1.5445 -0.5804 -1.6260
  831MPD2    H312225   2.843   3.102  16.659  2.7139  0.8176  2.0832
  831MPD2     N12226   2.860   2.669  16.551 -0.4958  0.1817  0.9883
  831MPD2    H512227   2.806   2.648  16.634  0.3099  0.2964  1.5421
  831MPD2    N112228   3.132   3.018  16.332 -0.0333 -0.4216  0.1607
  831MPD2    H712229   3.132   3.115  16.302  0.1243 -0.0064  1.5268
  832MPD2     C12230   1.288   3.993  17.409  0.5046  0.1013  0.3271
  832MPD2    C112231   1.239   4.085  17.504 -0.9399  0.0971  0.3879
  832MPD2    C212232   1.098   4.100  17.517 -0.3793  0.5381  0.2982
  832MPD2    C312233   1.013   4.034  17.435  0.9112 -0.3045  0.5588
  832MPD2    C412234   1.061   3.941  17.350 -0.2104 -0.7901 -0.1607
  832MPD2    C512235   1.196   3.922  17.338 -0.3809  0.2898  0.3973
  832MPD2     H12236   1.045   4.177  17.574 -0.7764 -0.7468  1.6654
  832MPD2    H112237   0.996   3.877  17.292 -0.6224  0.0620 -0.6359
  832MPD2    H212238   1.395   3.977  17.403  0.5267  0.0068  0.9970
  832MPD2    H312239   1.228   3.839  17.275  0.5773  0.9883 -0.0292
  832MPD2     N12240   0.869   4.036  17.444 -0.3483 -1.0392  0.7662
  832MPD2    H512241   0.817   3.972  17.385 -1.4833 -0.3510  1.0228
  832MPD2    N112242   1.332   4.148  17.586  0.2565 -0.7605 -0.2380
  832MPD2    H712243   1.429   4.122  17.570 -0.0125 -1.8396 -0.0954
  833MPD2     C12244   3.500   0.822  12.054  0.1985  0.8914  0.1444
  833MPD2    C112245   3.511   0.944  11.997 -0.1281  0.9285 -0.4277
  833MPD2    C212246   3.583   0.952  11.876  0.4685 -0.2162 -0.4883
  833MPD2    C312247   3.658   0.849  11.827 -0.0432  0.0169  0.3089
  833MPD2    C412248   3.637   0.720  11.885 -0.4207  0.4941 -0.4637
  833MPD2    C512249   3.560   0.716  11.999 -0.6065  0.5475  0.1504
  833MPD2     H12250   3.598   1.050  11.831 -1.2359  0.6172  0.7973
  833MPD2    H112251   3.684   0.625  11.861 -0.1317  0.6868 -0.6605
  833MPD2    H212252   3.450   0.815  12.151 -1.1929  0.0251 -0.6396
  833MPD2    H312253   3.546   0.623  12.053 -0.6657  0.4224 -0.0805
  833MPD2     N12254   3.736   0.860  11.717  0.2896  0.7558 -0.0445
  833MPD2    H512255   3.779   0.770  11.698 -1.4551  0.0163 -0.5010
  833MPD2    N112256   3.438   1.052  12.049  0.0313 -0.0003  0.2332
  833MPD2    H712257   3.369   1.031  12.121 -0.5383  0.6519 -0.1250
  834MPD2     C12258   3.397   0.531  10.926 -0.3142 -0.5434 -0.6746
  834MPD2    C112259   3.516   0.562  10.867 -0.4517 -0.1035 -0.6052
  834MPD2    C212260   3.607   0.645  10.931  0.0240 -0.8473  0.6916
  834MPD2    C312261   3.574   0.696  11.058 -0.8491 -0.0813  0.5100
  834MPD2    C412262   3.446   0.666  11.107  0.3183 -0.0234 -0.1508
  834MPD2    C512263   3.361   0.578  11.044 -0.9886  0.2651 -0.0370
  834MPD2     H12264   3.706   0.662  10.889 -0.6296  1.2651  0.0412
  834MPD2    H112265   3.419   0.709  11.202  0.1889 -0.9328  0.2271
  834MPD2    H212266   3.320   0.481  10.869 -1.2229  0.0610  0.0200
  834MPD2    H312267   3.264   0.556  11.086 -0.6948 -0.4566  0.2528
  834MPD2     N12268   3.661   0.787  11.130  0.0979 -0.4659  0.3553
  834MPD2    H512269   3.744   0.822  11.085 -1.6966  2.0229 -1.0296
  834MPD2    N112270   3.529   0.509  10.736 -0.3454 -0.6142  0.3104
  834MPD2    H712271   3.453   0.456  10.694 -1.3176  0.8434  0.2101
  835MPD2     C12272   3.839   3.287  11.131  0.5720 -0.3524 -0.1306
  835MPD2    C112273   3.757   3.325  11.240  0.8543  0.9526  0.8280
  835MPD2    C212274   3.808   3.339  11.365  0.6009  0.5648 -0.1083
  835MPD2    C312275   3.943   3.333  11.391 -0.7518 -0.0209  0.0964
  835MPD2    C412276   4.022   3.291  11.284  0.4827 -0.1382 -0.4419
  835MPD2    C512277   3.973   3.279  11.155 -0.2862  0.0150  0.2211
  835MPD2     H12278   3.738   3.356  11.446  0.0183 -3.9072  0.3548
  835MPD2    H112279   4.126   3.265  11.296  0.4835  0.3127  0.5403
  835MPD2    H212280   3.815   3.277  11.026 -0.2899  0.6349 -0.0280
  835MPD2    H312281   4.043   3.274  11.072  0.9966 -0.1056  1.2997
  835MPD2     N12282   3.984   3.350  11.527 -0.2965  0.3940 -0.3323
  835MPD2    H512283   3.911   3.374  11.593 -0.0227 -0.2432  0.1990
  835MPD2    N112284   3.616   3.334  11.226  0.1759 -0.6393 -0.5610
  835MPD2    H712285   3.562   3.356  11.309 -0.5921  1.0501 -1.5118
  836MPD2     C12286   3.601   3.476  12.002 -0.3231  0.3215  0.0700
  836MPD2    C112287   3.726   3.514  12.045  0.2878 -0.2202 -0.2343
  836MPD2    C212288   3.733   3.586  12.164 -0.2146 -0.2236  0.4060
  836MPD2    C312289   3.620   3.607  12.248 -0.2418  0.3714  0.0303
  836MPD2    C412290   3.499   3.561  12.203  0.0536  0.0310  0.2714
  836MPD2    C512291   3.491   3.497  12.083 -0.4325 -0.4514 -0.1070
  836MPD2     H12292   3.826   3.634  12.194 -1.0519  0.7658  1.4080
  836MPD2    H112293   3.410   3.573  12.265 -1.6444 -0.2083 -2.1298
  836MPD2    H212294   3.588   3.441  11.900  2.2523 -1.0595  0.2414
  836MPD2    H312295   3.394   3.464  12.049 -0.3590 -1.7473  0.9656
  836MPD2     N12296   3.624   3.684  12.369 -0.4306  0.0859 -0.3328
  836MPD2    H512297   3.533   3.694  12.412 -0.4608  1.6363 -0.7522
  836MPD2    N112298   3.844   3.486  11.967  0.2314  0.0302 -0.0901
  836MPD2    H712299   3.830   3.432  11.882  0.0456 -0.3614  0.1893
  837MPD2     C12300   1.994   3.023  10.091  0.6772  0.0894  0.2760
  837MPD2    C112301   1.994   3.080   9.971  0.0368  0.2493  0.6181
  837MPD2    C212302   2.005   3.217   9.968 -0.5843 -0.6810  0.5728
  837MPD2    C312303   1.995   3.297  10.083 -0.1049  0.7103 -0.5406
  837MPD2    C412304   1.984   3.233  10.203 -0.5689 -0.8550  0.1089
  837MPD2    C512305   1.999   3.096  10.207  0.0734 -0.0277 -0.5148
  837MPD2     H12306   2.011   3.261   9.869 -1.6174 -1.2794  0.2377
  837MPD2    H112307   1.982   3.286  10.297 -0.9968 -2.6257  1.1053
  837MPD2    H212308   1.995   2.916  10.108  1.3817  0.1844  0.8539
  837MPD2    H312309   2.001   3.047  10.304 -1.2001 -0.7813 -0.8598
  837MPD2     N12310   1.972   3.434  10.056 -0.5232 -0.0525  0.1761
  837MPD2    H512311   1.956   3.449   9.957  0.5537 -1.9622 -0.2909
  837MPD2    N112312   1.980   3.011   9.848 -0.0132 -0.2276 -0.7194
  837MPD2    H712313   1.977   3.067   9.763 -1.0023  0.2469 -0.3670
  838MPD2     C12314   4.714   0.971  10.811 -0.7485 -0.1634  0.1362
  838MPD2    C112315   0.076   1.033  10.895 -0.6665  0.6879  0.0932
  838MPD2    C212316   0.043   1.052  11.029 -0.1706  0.3022 -0.6877
  838MPD2    C312317   4.641   1.002  11.077  0.5535  0.8282 -0.2913
  838MPD2    C412318   4.570   0.917  10.996 -0.0535  0.4250  0.6253
  838MPD2    C512319   4.595   0.917  10.861  0.5008  0.4132  0.3190
  838MPD2     H12320   0.111   1.105  11.095 -0.4451  1.5929 -1.4360
  838MPD2    H112321   4.479   0.872  11.034  0.4678 -1.2574 -0.1205
  838MPD2    H212322   0.011   0.957  10.705 -1.2885 -0.1647  0.0320
  838MPD2    H312323   4.523   0.860  10.803  2.0900 -0.7192 -0.5515
  838MPD2     N12324   4.599   1.032  11.208 -0.4497 -0.9402  0.2931
  838MPD2    H512325   4.655   1.101  11.257 -1.5417 -0.7549  1.2823
  838MPD2    N112326   0.202   1.079  10.848 -0.5725  0.2827  0.0457
  838MPD2    H712327   0.258   1.130  10.915  1.0350 -1.2023 -0.1685
  839MPD2     C12328   0.318   1.158  11.319  0.4487  0.4188  0.5132
  839MPD2    C112329   0.358   1.058  11.229  0.3497  0.3002 -0.0189
  839MPD2    C212330   0.460   1.089  11.137  0.2274 -0.7931  0.4978
  839MPD2    C312331   0.515   1.218  11.129  0.5508 -0.9324 -0.0602
  839MPD2    C412332   0.475   1.311  11.223  0.2375  0.0050 -0.1029
  839MPD2    C512333   0.379   1.277  11.310 -0.0982 -0.0712  0.9627
  839MPD2     H12334   0.502   1.008  11.079 -0.4260 -0.2285 -0.7587
  839MPD2    H112335   0.514   1.413  11.226 -0.1548  0.1938 -1.8252
  839MPD2    H212336   0.247   1.145  11.400 -1.1242 -1.6307 -1.2030
  839MPD2    H312337   0.343   1.354  11.378  1.9078  2.1954 -0.5228
  839MPD2     N12338   0.619   1.261  11.037  0.6578  0.3536  0.1866
  839MPD2    H512339   0.661   1.353  11.045  1.7518  0.0074 -1.4988
  839MPD2    N112340   0.316   0.929  11.219 -0.3837  0.1865 -0.1808
  839MPD2    H712341   0.355   0.863  11.152  0.6330 -0.3199  0.8992
  840MPD2     C12342   0.173   3.258  10.294  0.2656  0.4142 -0.4691
  840MPD2    C112343   0.216   3.227  10.419 -0.3816 -0.2096 -0.9684
  840MPD2    C212344   0.301   3.315  10.479 -0.3968  0.1652 -0.0962
  840MPD2    C312345   0.343   3.433  10.409 -0.1383  0.5036  0.6882
  840MPD2    C412346   0.292   3.457  10.278  0.8703 -0.1806  0.4147
  840MPD2    C512347   0.210   3.368  10.220  0.3478  0.6436  0.2307
  840MPD2     H12348   0.336   3.289  10.579 -0.9869  1.6867  0.5017
  840MPD2    H112349   0.304   3.558  10.241 -2.1609 -0.2225 -0.6621
  840MPD2    H212350   0.095   3.200  10.245 -0.3444 -0.3362  1.3580
  840MPD2    H312351   0.170   3.385  10.121  0.2493  2.1850  0.5338
  840MPD2     N12352   0.422   3.539  10.468  0.2116  0.1354  0.6010
  840MPD2    H512353   0.447   3.619  10.411  0.6758 -1.4326 -1.4179
  840MPD2    N112354   0.153   3.112  10.468  0.1334  0.0809 -0.1225
  840MPD2    H712355   0.067   3.087  10.419  1.0626 -3.1447 -0.1332
  841MPD2     C12356   0.050   3.308  14.938  0.1251  0.3824 -0.3284
  841MPD2    C112357   0.090   3.228  14.834  0.6284  1.1198 -0.9668
  841MPD2    C212358   0.170   3.291  14.741 -0.6919 -0.7178  0.3267
  841MPD2    C312359   0.200   3.426  14.736 -0.2183 -0.2959 -0.2605
  841MPD2    C412360   0.151   3.504  14.844  0.0061 -0.4008  0.3852
  841MPD2    C512361   0.079   3.442  14.941 -0.7150 -0.4533 -0.1214
  841MPD2     H12362   0.214   3.225  14.667 -0.4159 -1.7743  1.4276
  841MPD2    H112363   0.162   3.611  14.858 -0.4225 -0.2598 -0.4247
  841MPD2    H212364   4.720   3.261  15.021 -0.4160 -0.1714 -0.9942
  841MPD2    H312365   0.046   3.493  15.030  0.3705  0.3874 -0.2011
  841MPD2     N12366   0.272   3.473  14.628  0.4906 -0.0732  0.0712
  841MPD2    H512367   0.298   3.406  14.557 -0.8229 -0.1468 -0.3463
  841MPD2    N112368   0.057   3.093  14.807  0.0015 -0.0665 -0.4101
  841MPD2    H712369   0.078   3.055  14.715 -2.4308 -2.6294  0.0906
  842MPD2     C12370   0.345   3.428  16.834  0.2003  0.1112  0.2081
  842MPD2    C112371   0.260   3.520  16.781  0.2518  0.1226  0.1479
  842MPD2    C212372   0.167   3.596  16.858  0.6618 -0.1039  0.5552
  842MPD2    C312373   0.181   3.585  16.996 -0.1702  0.1084  0.0123
  842MPD2    C412374   0.283   3.499  17.050  0.2411 -0.0918  0.1524
  842MPD2    C512375   0.356   3.420  16.968  0.8794 -0.1203  0.2372
  842MPD2     H12376   0.094   3.670  16.825  0.5949 -0.3757  0.0927
  842MPD2    H112377   0.299   3.489  17.157 -0.9890  0.7865  0.4209
  842MPD2    H212378   0.422   3.383  16.772 -0.3881 -0.4105 -0.1439
  842MPD2    H312379   0.442   3.367  17.008  2.6434  0.1873 -3.1755
  842MPD2     N12380   0.116   3.676  17.083 -0.0459  0.5329 -0.5540
  842MPD2    H512381   0.048   3.732  17.032 -3.1232 -0.7174  2.2379
  842MPD2    N112382   0.259   3.538  16.635 -0.9685 -0.0202 -0.2274
  842MPD2    H712383   0.335   3.501  16.579 -0.9924 -0.7310  0.2127
  843MPD2     C12384   2.240   4.518   1.009 -0.7370  0.0418 -0.3794
  843MPD2    C112385   2.223   4.459   0.884  0.0967 -0.5264  0.7603
  843MPD2    C212386   2.319   4.497   0.786  0.1535 -0.5294 -0.0021
  843MPD2    C312387   2.430   4.575   0.816  0.1302 -0.1666 -0.5101
  843MPD2    C412388   2.458   4.612   0.943  0.1520  0.2553 -0.2864
  843MPD2    C512389   2.355   4.590   1.039 -0.9340 -0.5847 -0.6313
  843MPD2     H12390   2.311   4.450   0.688 -0.2545  0.3993 -0.4050
  843MPD2    H112391   2.544   4.668   0.978 -0.1863  1.6507 -1.6802
  843MPD2    H212392   2.169   4.489   1.085 -0.2591 -0.9474 -0.3201
  843MPD2    H312393   2.361   4.619   1.144  2.1471 -0.9774 -0.6947
  843MPD2     N12394   2.523   4.610   0.716  0.0260 -0.1977 -0.2798
  843MPD2    H512395   2.614   4.639   0.749 -1.1210  0.5479  2.2513
  843MPD2    N112396   2.108   4.378   0.863  0.0766 -0.6250  0.2189
  843MPD2    H712397   2.042   4.366   0.940  2.0747 -1.3292  1.8314
  844MPD2     C12398   0.700   3.614  16.767  0.3015 -0.2213 -0.1155
  844MPD2    C112399   0.801   3.587  16.678 -0.4039 -0.3110  0.2954
  844MPD2    C212400   0.930   3.636  16.708 -0.4921 -0.2117  0.5290
  844MPD2    C312401   0.963   3.706  16.823 -0.4603 -0.5740 -0.3097
  844MPD2    C412402   0.858   3.727  16.917 -0.1205 -0.0523  0.3341
  844MPD2    C512403   0.730   3.687  16.878 -0.2512 -0.0643 -0.3540
  844MPD2     H12404   1.000   3.628  16.626 -2.1061  1.7628 -1.0140
  844MPD2    H112405   0.885   3.754  17.019  1.1781  2.8162 -0.7787
  844MPD2    H212406   0.597   3.585  16.752  0.5759 -0.7980 -0.8733
  844MPD2    H312407   0.645   3.705  16.943  0.7397 -0.9686  1.1971
  844MPD2     N12408   1.093   3.753  16.837 -0.4071  1.1211 -0.5160
  844MPD2    H512409   1.159   3.724  16.766  0.8665  1.5422  0.5108
  844MPD2    N112410   0.789   3.529  16.548 -0.5653  0.4497  0.0124
  844MPD2    H712411   0.875   3.517  16.496 -0.6358  1.4184 -0.3250
  845MPD2     C12412   1.558   4.448  17.436  0.5269 -0.0383 -0.1842
  845MPD2    C112413   1.443   4.441  17.367 -0.7868  0.2380 -0.1614
  845MPD2    C212414   1.405   4.328  17.297 -0.2916  0.0263  0.7380
  845MPD2    C312415   1.499   4.227  17.272  0.2818 -0.5565  0.5883
  845MPD2    C412416   1.621   4.232  17.348  0.3284  0.0096 -0.2253
  845MPD2    C512417   1.645   4.343  17.420 -0.1888  0.7142 -0.1198
  845MPD2     H12418   1.305   4.321  17.255  0.4455  2.8646 -1.4962
  845MPD2    H112419   1.704   4.162  17.342 -0.2448 -0.7994  1.3249
  845MPD2    H212420   1.587   4.537  17.491 -1.1306  0.4530 -0.0951
  845MPD2    H312421   1.746   4.348  17.461  0.7039 -1.1903 -2.1366
  845MPD2     N12422   1.466   4.135  17.174 -0.4688 -0.9491 -0.1903
  845MPD2    H512423   1.371   4.150  17.142 -1.3991 -0.7950  2.6075
  845MPD2    N112424   1.349   4.543  17.394  0.6397 -0.4450  0.2513
  845MPD2    H712425   1.388   4.624  17.442 -0.5260 -0.1235  0.6828
  846MPD2     C12426   2.946   0.861  13.550  0.5966 -0.5449 -0.5039
  846MPD2    C112427   2.813   0.897  13.554  0.1830  0.2644  0.0559
  846MPD2    C212428   2.739   0.865  13.667  0.6747 -0.9355 -0.2296
  846MPD2    C312429   2.789   0.798  13.777  0.1210 -0.1294 -0.1040
  846MPD2    C412430   2.923   0.759  13.770 -0.7356  0.3055  0.0741
  846MPD2    C512431   2.993   0.785  13.659  0.3042 -0.7048 -0.9967
  846MPD2     H12432   2.636   0.897  13.661 -0.0650 -3.0112  1.4680
  846MPD2    H112433   2.964   0.709  13.857 -1.6787 -1.1089 -0.2903
  846MPD2    H212434   3.012   0.894  13.471  1.0006 -1.4687 -0.5466
  846MPD2    H312435   3.101   0.772  13.663  0.0315 -2.2998  1.0724
  846MPD2     N12436   2.712   0.785  13.897 -0.5000  0.4215  0.5114
  846MPD2    H512437   2.614   0.809  13.893 -0.0260  2.0853 -0.9504
  846MPD2    N112438   2.748   0.967  13.443 -0.4377 -0.4760  0.4241
  846MPD2    H712439   2.650   0.987  13.458 -0.2123  1.1653 -0.3137
  847MPD2     C12440   3.708   1.549  14.214 -0.0197  1.1364 -0.7829
  847MPD2    C112441   3.665   1.681  14.218  0.4456  0.1596  0.0636
  847MPD2    C212442   3.744   1.773  14.285  0.2286 -0.4379  0.6042
  847MPD2    C312443   3.857   1.741  14.359 -0.4412 -0.2135  0.1255
  847MPD2    C412444   3.899   1.612  14.358  0.6171 -0.3917  0.2776
  847MPD2    C512445   3.816   1.516  14.285 -0.2144 -0.7119 -0.7341
  847MPD2     H12446   3.723   1.878  14.267 -0.7101 -0.2552  2.6729
  847MPD2    H112447   3.989   1.576  14.405  0.4808 -0.3595  0.5619
  847MPD2    H212448   3.677   1.472  14.145 -1.6150  0.5749  0.5586
  847MPD2    H312449   3.841   1.411  14.278  0.2265 -0.5717 -1.2314
  847MPD2     N12450   3.922   1.851  14.423  0.5195 -0.0262  0.3089
  847MPD2    H512451   3.863   1.934  14.421 -0.7107 -0.8734  1.4168
  847MPD2    N112452   3.551   1.727  14.151  0.0205  0.0498  0.2814
  847MPD2    H712453   3.543   1.828  14.148 -1.6155 -0.0572  1.1011
  848MPD2     C12454   0.431   3.884  16.926 -0.1282 -0.0610  0.4486
  848MPD2    C112455   0.493   3.993  16.977 -0.4033  0.2358 -0.7169
  848MPD2    C212456   0.557   4.082  16.892  0.1244 -0.2590  0.2722
  848MPD2    C312457   0.568   4.056  16.754 -0.8216  0.9337 -0.8352
  848MPD2    C412458   0.509   3.939  16.704 -0.3370 -0.0335 -0.4344
  848MPD2    C512459   0.441   3.853  16.790  0.6982 -0.3898  0.4660
  848MPD2     H12460   0.606   4.168  16.935  1.2341  0.1919 -1.8809
  848MPD2    H112461   0.515   3.921  16.598 -0.6083  1.6257 -0.7422
  848MPD2    H212462   0.374   3.822  16.994 -0.4060 -0.7873 -0.4672
  848MPD2    H312463   0.387   3.765  16.756 -0.1417  0.3147 -0.0310
  848MPD2     N12464   0.626   4.150  16.660 -0.3170 -0.4912 -0.9275
  848MPD2    H512465   0.614   4.127  16.562  0.5803 -0.2961 -1.0856
  848MPD2    N112466   0.501   4.031  17.114  0.3684 -0.0667 -0.1726
  848MPD2    H712467   0.545   4.121  17.130  0.4721 -0.1459 -0.0185
  849MPD2     C12468   0.179   3.561  14.172  0.7040  0.0169  0.3007
  849MPD2    C112469   0.203   3.696  14.190  0.2913 -0.4810  0.1788
  849MPD2    C212470   0.332   3.740  14.200 -1.0007 -0.3175  0.3317
  849MPD2    C312471   0.435   3.647  14.196  0.3748  0.3376  0.0105
  849MPD2    C412472   0.411   3.508  14.189 -0.4859 -0.4108  0.1817
  849MPD2    C512473   0.277   3.472  14.179  0.0470  0.2140  0.3001
  849MPD2     H12474   0.359   3.845  14.211  1.1383 -0.8826  0.5091
  849MPD2    H112475   0.492   3.436  14.188 -1.1714 -1.1906  0.5721
  849MPD2    H212476   0.082   3.518  14.152 -0.4774  2.7778  0.1347
  849MPD2    H312477   0.261   3.365  14.175  0.1979  0.1644  1.1787
  849MPD2     N12478   0.569   3.689  14.195  0.2498  0.5686  0.2760
  849MPD2    H512479   0.638   3.616  14.182  0.9715  0.8788  2.2732
  849MPD2    N112480   0.105   3.788  14.159  0.5913 -0.1261 -0.2346
  849MPD2    H712481   0.147   3.874  14.126 -1.0715  1.5949  2.0852
  850MPD2     C12482   2.793   1.971  14.928 -0.2638  0.5329 -0.7341
  850MPD2    C112483   2.773   2.098  14.976  0.4030  0.6964  0.7676
  850MPD2    C212484   2.886   2.177  15.002  0.3336 -0.2359 -0.2494
  850MPD2    C312485   3.010   2.120  14.994 -0.3227 -0.7348  0.8683
  850MPD2    C412486   3.026   1.992  14.948  0.2155  0.2249  0.0643
  850MPD2    C512487   2.920   1.915  14.911  0.4415 -0.2242  0.9135
  850MPD2     H12488   2.887   2.281  15.035 -0.4118  0.5841 -2.8360
  850MPD2    H112489   3.122   1.944  14.963  0.5488  0.9479  0.2682
  850MPD2    H212490   2.702   1.913  14.918  0.4357 -0.7480  0.2267
  850MPD2    H312491   2.928   1.809  14.890  1.5026  0.1112 -0.3991
  850MPD2     N12492   3.138   2.186  15.016 -0.2843 -0.1268  0.1382
  850MPD2    H512493   3.216   2.123  15.002 -1.7135 -1.6861 -0.8329
  850MPD2    N112494   2.638   2.148  14.999 -0.1124 -0.1930 -0.5017
  850MPD2    H712495   2.557   2.097  14.966 -0.5202  1.3347 -1.8555
  851MPD2     C12496   3.251   2.320  15.544  0.3498 -0.7740 -0.3452
  851MPD2    C112497   3.172   2.242  15.458 -0.3993 -0.0749 -0.1879
  851MPD2    C212498   3.230   2.136  15.389  0.5987 -0.1368  0.5902
  851MPD2    C312499   3.366   2.123  15.397  0.6951  0.6749  0.2719
  851MPD2    C412500   3.445   2.200  15.481 -0.3594  0.1959 -0.0867
  851MPD2    C512501   3.386   2.294  15.557  0.2959 -0.5190  0.2836
  851MPD2     H12502   3.177   2.083  15.311  2.2996  0.6944 -1.1189
  851MPD2    H112503   3.552   2.191  15.491 -0.1317  0.5493 -2.0655
  851MPD2    H212504   3.205   2.404  15.595  0.2504 -0.7613 -0.4565
  851MPD2    H312505   3.442   2.355  15.627  0.1605  0.3603 -0.3757
  851MPD2     N12506   3.414   2.019  15.309  0.6006  0.0811  0.1759
  851MPD2    H512507   3.342   1.956  15.276  0.5306 -0.2589  0.9716
  851MPD2    N112508   3.043   2.279  15.439  0.1434 -0.4468  0.1217
  851MPD2    H712509   3.009   2.369  15.472  1.4796  0.7451 -1.7424
  852MPD2     C12510   4.241   0.575   8.893  0.2540 -0.2468 -0.2579
  852MPD2    C112511   4.370   0.591   8.932 -0.0160 -0.8609  0.0672
  852MPD2    C212512   4.410   0.537   9.051 -0.2710  0.0122 -0.7840
  852MPD2    C312513   4.329   0.453   9.124 -0.7630  0.1872  0.5341
  852MPD2    C412514   4.194   0.434   9.082  0.4933  0.2083 -0.6336
  852MPD2    C512515   4.150   0.503   8.965 -0.2318  0.1731 -0.2162
  852MPD2     H12516   4.511   0.556   9.083 -0.7813  2.6178 -0.7597
  852MPD2    H112517   4.131   0.373   9.146  0.9776  0.7423  0.3607
  852MPD2    H212518   4.198   0.622   8.806 -0.0112 -1.1008 -0.5914
  852MPD2    H312519   4.051   0.483   8.926 -0.0506  0.8340 -1.0218
  852MPD2     N12520   4.382   0.410   9.245 -1.0486  0.7653  0.1110
  852MPD2    H512521   4.469   0.449   9.278 -0.2365 -2.2115  1.4468
  852MPD2    N112522   4.463   0.671   8.866 -0.1918  0.1621 -0.4020
  852MPD2    H712523   4.557   0.665   8.903 -0.5868  2.1556  0.9266
  853MPD2     C12524   4.356   4.460  12.379 -0.4118 -0.7737 -0.2743
  853MPD2    C112525   4.381   4.592  12.352  0.0533  0.2456  0.1866
  853MPD2    C212526   4.456   4.623  12.236 -0.3149 -0.1217  0.1140
  853MPD2    C312527   4.493   4.524  12.146  0.2343  0.5409 -0.0955
  853MPD2    C412528   4.470   4.388  12.177  0.1406 -0.1733  0.2354
  853MPD2    C512529   4.393   4.361  12.289 -0.2954 -0.7322  0.7979
  853MPD2     H12530   4.485   0.004  12.226 -0.5580 -0.0864 -0.2338
  853MPD2    H112531   4.503   4.302  12.120 -0.5239  1.5611 -2.7776
  853MPD2    H212532   4.286   4.439  12.459  1.5396 -1.1738  1.3393
  853MPD2    H312533   4.351   4.261  12.292  2.1551 -1.7161  2.9235
  853MPD2     N12534   4.549   4.553  12.021  0.8206 -0.8702  0.1660
  853MPD2    H512535   4.554   4.471  11.961  0.3026  1.1554 -2.6297
  853MPD2    N112536   4.314   4.678  12.440 -0.5747  0.4447 -0.5152
  853MPD2    H712537   4.253   4.632  12.507 -0.5838  1.6661  0.3290
  854MPD2     C12538   1.468   0.033  13.190  0.3340 -0.2393 -0.4697
  854MPD2    C112539   1.542   0.019  13.074  0.4669  0.6483  0.0671
  854MPD2    C212540   1.639   4.645  13.068  0.4335 -0.2376 -0.1727
  854MPD2    C312541   1.654   4.560  13.178  0.0900  0.1736  0.0205
  854MPD2    C412542   1.586   4.578  13.297 -0.3507  0.2256  0.3924
  854MPD2    C512543   1.486   4.676  13.302  0.0878  0.2499  0.1700
  854MPD2     H12544   1.712   4.636  12.988  0.8742  2.3281 -0.0406
  854MPD2    H112545   1.595   4.518  13.386 -2.0815 -0.6915 -0.0505
  854MPD2    H212546   1.398   0.115  13.198  1.2303  0.6346 -1.6805
  854MPD2    H312547   1.439   4.690  13.399 -4.2536  1.4245 -2.1195
  854MPD2     N12548   1.757   4.462  13.181 -0.2414  0.8171 -0.1327
  854MPD2    H512549   1.765   4.416  13.272  0.1205  1.0817 -0.0303
  854MPD2    N112550   1.521   0.116  12.970  0.7588 -0.1033  0.0849
  854MPD2    H712551   1.438   0.173  12.987  1.0320 -0.2166  1.7931
  855MPD2     C12552   2.491   4.435  13.829 -0.0324 -0.2468 -0.1523
  855MPD2    C112553   2.356   4.414  13.834 -0.0373  0.5097  0.1024
  855MPD2    C212554   2.287   4.418  13.720  0.1684  0.4978  0.2149
  855MPD2    C312555   2.349   4.428  13.598  0.0692  0.0436  0.0903
  855MPD2    C412556   2.488   4.442  13.599  0.3260 -0.4094 -0.3349
  855MPD2    C512557   2.555   4.443  13.714 -0.9859  0.1470  0.2043
  855MPD2     H12558   2.179   4.425  13.714  0.2168  0.2156 -0.8552
  855MPD2    H112559   2.535   4.452  13.502  1.0985  0.9294  0.1849
  855MPD2    H212560   2.547   4.443  13.921  0.0965  1.7696 -0.4075
  855MPD2    H312561   2.662   4.464  13.706 -0.7830 -1.1974 -0.6406
  855MPD2     N12562   2.290   4.408  13.473 -0.5114  0.4668 -0.2841
  855MPD2    H512563   2.355   4.415  13.395 -0.2784  0.9038 -0.0512
  855MPD2    N112564   2.280   4.389  13.951  0.3026 -0.5779  0.2785
  855MPD2    H712565   2.179   4.388  13.941  0.3374  2.4848 -0.3383
  856MPD2     C12566   3.500   0.917  13.550 -0.1092 -0.0750  0.5123
  856MPD2    C112567   3.592   0.989  13.622 -0.8051  0.6965  0.3006
  856MPD2    C212568   3.571   1.124  13.637 -0.3509 -0.6794  0.4772
  856MPD2    C312569   3.473   1.188  13.570  0.1636 -0.0740 -0.1335
  856MPD2    C412570   3.393   1.120  13.493 -0.0227 -0.6072  0.2294
  856MPD2    C512571   3.403   0.987  13.484 -0.1351 -0.6843 -0.2492
  856MPD2     H12572   3.635   1.172  13.710  0.4668 -0.6920 -0.2388
  856MPD2    H112573   3.308   1.169  13.445  1.2216  0.7100 -0.6180
  856MPD2    H212574   3.491   0.809  13.545  0.7996 -0.0038 -2.4217
  856MPD2    H312575   3.322   0.930  13.441 -0.2269 -0.9273  0.2374
  856MPD2     N12576   3.453   1.325  13.589  0.1410  0.8046  0.6460
  856MPD2    H512577   3.364   1.357  13.553  0.1885  2.1909  1.7608
  856MPD2    N112578   3.707   0.933  13.684 -0.5498  0.1128 -0.5677
  856MPD2    H712579   3.758   0.986  13.754  1.7622 -0.4334 -1.8029
  857MPD2     C12580   0.518   2.640  13.280  0.3033 -0.2389  0.8834
  857MPD2    C112581   0.645   2.647  13.221  0.0549  0.2588 -0.8347
  857MPD2    C212582   0.720   2.758  13.230 -0.2594 -0.6355 -0.5481
  857MPD2    C312583   0.674   2.867  13.310  0.5306 -0.5868  0.9860
  857MPD2    C412584   0.551   2.851  13.371  0.1304 -0.4558 -0.0387
  857MPD2    C512585   0.476   2.739  13.365  0.1465  0.1029 -0.7058
  857MPD2     H12586   0.813   2.774  13.177  0.0309  1.2928  0.5332
  857MPD2    H112587   0.501   2.932  13.423  1.8679  1.0970 -0.8111
  857MPD2    H212588   0.459   2.549  13.274 -0.3873  0.1207  2.1865
  857MPD2    H312589   0.389   2.728  13.429  1.4236 -1.0421  0.8426
  857MPD2     N12590   0.757   2.980  13.319  0.5140 -0.4598 -0.4293
  857MPD2    H512591   0.839   2.973  13.259  0.9360 -0.9307  0.2003
  857MPD2    N112592   0.684   2.534  13.141  0.6395  0.2781  0.2088
  857MPD2    H712593   0.616   2.463  13.120  1.2435 -0.0573 -0.5836
  858MPD2     C12594   1.208   1.937  16.577  0.9208 -0.4210 -0.1427
  858MPD2    C112595   1.305   1.843  16.620 -0.1954 -0.1463  0.8249
  858MPD2    C212596   1.329   1.814  16.757  0.0822 -0.2828 -0.5666
  858MPD2    C312597   1.256   1.891  16.842  0.0887 -0.4770  0.1924
  858MPD2    C412598   1.167   1.985  16.802 -0.8182 -0.2493 -0.4595
  858MPD2    C512599   1.150   2.013  16.670  0.3376  0.2337 -0.4747
  858MPD2     H12600   1.405   1.746  16.792 -0.1763  0.1383  0.8146
  858MPD2    H112601   1.125   2.049  16.879 -1.6911 -2.2632  0.7411
  858MPD2    H212602   1.209   1.970  16.474  1.6112  0.9269  0.2817
  858MPD2    H312603   1.086   2.092  16.634  0.2403  1.5666  2.6062
  858MPD2     N12604   1.276   1.887  16.979  0.6830 -0.2466 -0.6864
  858MPD2    H512605   1.235   1.961  17.036  1.0300 -0.8773  0.3871
  858MPD2    N112606   1.381   1.787  16.515  0.2303 -0.2678  0.4695
  858MPD2    H712607   1.340   1.809  16.425 -0.2940  1.0456  1.0295
  859MPD2     C12608   4.647   3.811  15.391  1.0958 -0.2839 -0.0971
  859MPD2    C112609   0.020   3.771  15.301 -0.5385 -1.1404 -0.2234
  859MPD2    C212610   0.072   3.640  15.296  0.8613 -0.4764  0.5210
  859MPD2    C312611   0.029   3.550  15.390  0.2916  0.2363 -0.2532
  859MPD2    C412612   4.658   3.594  15.480  1.3097  0.6722  0.6365
  859MPD2    C512613   4.611   3.717  15.488  0.4307  0.1246  0.1726
  859MPD2     H12614   0.136   3.610  15.213 -1.0730 -0.5878 -0.9380
  859MPD2    H112615   4.622   3.527  15.557  1.1413 -2.0677 -1.8157
  859MPD2    H212616   4.599   3.908  15.381  2.4069  0.4132  0.4204
  859MPD2    H312617   4.541   3.742  15.566 -1.2528 -2.4388 -0.5110
  859MPD2     N12618   0.061   3.416  15.385 -0.1817 -0.0989 -0.3422
  859MPD2    H512619   4.714   3.357  15.430  1.0277 -1.2289  0.0777
  859MPD2    N112620   0.059   3.879  15.211 -0.1074 -0.1890  0.3184
  859MPD2    H712621   0.015   3.970  15.220 -0.6116 -0.2776 -1.2915
  860MPD2     C12622   2.539   4.132  11.434 -0.3394 -0.1313  1.1732
  860MPD2    C112623   2.568   4.247  11.511  0.2682 -0.6112 -0.7994
  860MPD2    C212624   2.490   4.271  11.622 -0.6372 -0.7898  0.1116
  860MPD2    C312625   2.386   4.188  11.652 -0.0452  0.3391  0.1519
  860MPD2    C412626   2.361   4.072  11.579 -0.2545 -0.0389 -0.1184
  860MPD2    C512627   2.438   4.052  11.472 -0.2554  0.2073 -0.3732
  860MPD2     H12628   2.522   4.354  11.684  1.7514 -0.7729 -1.1445
  860MPD2    H112629   2.281   4.003  11.605 -1.1118  1.1708  0.4759
  860MPD2    H212630   2.588   4.090  11.347 -0.9993 -0.8585  1.1598
  860MPD2    H312631   2.425   3.957  11.421 -0.0147 -0.6952  1.2435
  860MPD2     N12632   2.312   4.229  11.764  0.0372 -0.2341 -0.4382
  860MPD2    H512633   2.352   4.306  11.816 -1.6208 -1.5319  2.8188
  860MPD2    N112634   2.686   4.328  11.495 -0.0228  0.7162 -0.4189
  860MPD2    H712635   2.704   4.398  11.567 -0.3273  0.2422  0.1161
  861MPD2     C12636   1.189   2.203  10.823  0.3220 -0.0005  0.3964
  861MPD2    C112637   1.262   2.315  10.859  0.1955  0.8290  0.4305
  861MPD2    C212638   1.278   2.418  10.765  0.4576 -0.5465 -0.8855
  861MPD2    C312639   1.197   2.419  10.650  0.0104 -0.1466  0.0822
  861MPD2    C412640   1.124   2.305  10.615  0.0529 -0.1980 -0.7458
  861MPD2    C512641   1.128   2.197  10.700 -0.0071 -0.5715  0.2164
  861MPD2     H12642   1.343   2.496  10.804 -0.8518 -0.4414  1.1021
  861MPD2    H112643   1.070   2.292  10.522 -0.1951 -0.1210 -0.6131
  861MPD2    H212644   1.166   2.120  10.889  0.2144  0.8452  1.4262
  861MPD2    H312645   1.080   2.105  10.669  1.3415 -0.8514 -1.0011
  861MPD2     N12646   1.172   2.535  10.569 -0.6355 -0.0327 -0.0983
  861MPD2    H512647   1.124   2.510  10.484 -2.0776  2.0005  0.0963
  861MPD2    N112648   1.327   2.334  10.977  0.7883 -0.0856  0.4404
  861MPD2    H712649   1.404   2.400  10.981 -1.4881  2.5975  0.2427
  862MPD2     C12650   0.794   2.726  10.010 -0.3640  0.3616 -0.1181
  862MPD2    C112651   0.893   2.665  10.082 -0.3168 -0.1523 -0.5424
  862MPD2    C212652   0.976   2.568  10.029  0.3674  0.1131  0.5508
  862MPD2    C312653   0.943   2.508   9.909  0.4937  0.1443  0.5819
  862MPD2    C412654   0.844   2.568   9.835 -0.5969  0.6855  0.4260
  862MPD2    C512655   0.770   2.674   9.884  0.3056 -0.2247 -0.2131
  862MPD2     H12656   1.060   2.539  10.090 -0.1786  1.8866  2.1441
  862MPD2    H112657   0.828   2.531   9.734  2.3507  1.1206 -0.2181
  862MPD2    H212658   0.736   2.812  10.042 -0.3400  0.5280 -0.5194
  862MPD2    H312659   0.688   2.696   9.817 -0.4512 -0.5526  0.6218
  862MPD2     N12660   1.038   2.418   9.851  0.2061  0.0238  0.2374
  862MPD2    H512661   1.121   2.403   9.907  1.5999  2.9909 -1.0292
  862MPD2    N112662   0.941   2.725  10.201 -0.4139  0.0985 -0.4500
  862MPD2    H712663   1.025   2.682  10.238 -0.2526  1.3386  0.5963
  863MPD2     C12664   0.172   1.128  16.462 -0.0783 -0.0838  0.2669
  863MPD2    C112665   0.081   1.039  16.508  0.7552  0.3632  0.0345
  863MPD2    C212666   0.122   0.941  16.595  0.2528  0.5410  1.4215
  863MPD2    C312667   0.247   0.947  16.649 -0.0004  0.0890  0.0060
  863MPD2    C412668   0.333   1.050  16.614  0.4344  0.2581 -0.5116
  863MPD2    C512669   0.301   1.144  16.514  0.2530 -0.6558 -0.6368
  863MPD2     H12670   0.045   0.876  16.634 -1.2336  0.3710 -1.8101
  863MPD2    H112671   0.428   1.061  16.665  1.1300 -0.7342 -1.5966
  863MPD2    H212672   0.142   1.195  16.382  2.4405 -0.5428 -1.0611
  863MPD2    H312673   0.374   1.222  16.490  0.1255 -0.9643 -2.0414
  863MPD2     N12674   0.292   0.861  16.746 -0.2852 -0.0192  0.0862
  863MPD2    H512675   0.380   0.891  16.787  0.4814 -0.9394 -0.8556
  863MPD2    N112676   4.670   1.054  16.455  0.0662  0.5348 -0.7008
  863MPD2    H712677   4.653   1.129  16.389 -0.9863  1.8816  1.1028
  864MPD2     C12678   0.315   1.956  17.086 -0.0424  0.6511  0.4375
  864MPD2    C112679   0.382   1.907  16.973  0.2095 -0.3135 -0.4918
  864MPD2    C212680   0.479   1.989  16.915  0.1741  0.2215  0.2042
  864MPD2    C312681   0.484   2.126  16.949 -0.7788  0.1505 -0.5226
  864MPD2    C412682   0.403   2.177  17.055  0.2839  0.2091  0.4146
  864MPD2    C512683   0.332   2.087  17.134 -0.6956  0.1339  0.2920
  864MPD2     H12684   0.535   1.941  16.835 -0.0531  1.7004 -0.8374
  864MPD2    H112685   0.406   2.280  17.090  1.3940  0.5753 -0.7529
  864MPD2    H212686   0.246   1.880  17.119  0.6007 -0.4131 -0.6842
  864MPD2    H312687   0.270   2.129  17.212  0.9561 -0.9454  2.1853
  864MPD2     N12688   0.559   2.214  16.882 -0.4973 -0.4118  0.2209
  864MPD2    H512689   0.524   2.309  16.890  0.9603  0.0606  1.1687
  864MPD2    N112690   0.359   1.768  16.950  0.1701 -0.7573  0.1683
  864MPD2    H712691   0.291   1.723  17.011  0.8916 -2.1249 -0.0387
  865MPD2     C12692   0.769   2.474  15.978 -0.9100 -0.1302  0.0526
  865MPD2    C112693   0.693   2.379  16.047 -0.5343 -0.3422 -0.0331
  865MPD2    C212694   0.660   2.401  16.181  0.1526  0.8127  0.0180
  865MPD2    C312695   0.690   2.526  16.234 -0.7639  0.7796 -0.1002
  865MPD2    C412696   0.743   2.625  16.153  1.3336  0.6243  0.5773
  865MPD2    C512697   0.793   2.596  16.026  0.3230  0.3940 -0.7590
  865MPD2     H12698   0.603   2.325  16.232 -0.8271 -0.0145 -2.2876
  865MPD2    H112699   0.768   2.725  16.188  2.3341  0.7286 -0.4130
  865MPD2    H212700   0.816   2.456  15.882 -0.2534  2.6405 -0.1420
  865MPD2    H312701   0.844   2.676  15.972  2.8285  0.3198  1.5301
  865MPD2     N12702   0.660   2.563  16.369 -0.7336 -0.3237  0.1069
  865MPD2    H512703   0.693   2.653  16.403  0.1485 -0.4354 -0.4540
  865MPD2    N112704   0.676   2.261  15.980  0.4383  0.0957  0.3958
  865MPD2    H712705   0.719   2.253  15.888  0.3137  0.1450  0.3327
  866MPD2     C12706   1.871   3.486  11.130 -0.1567  0.0677  1.2675
  866MPD2    C112707   1.948   3.398  11.054 -0.1217  0.1003  0.2067
  866MPD2    C212708   1.909   3.267  11.054  0.9365  0.1269  0.8107
  866MPD2    C312709   1.801   3.230  11.126  0.4183 -0.1581 -0.1250
  866MPD2    C412710   1.734   3.313  11.214 -0.1011 -0.2726 -0.2500
  866MPD2    C512711   1.766   3.443  11.206  0.3883  0.0561  0.3599
  866MPD2     H12712   1.946   3.201  10.975 -3.5793 -0.9952 -0.3390
  866MPD2    H112713   1.646   3.282  11.268 -1.0201 -0.3614 -1.7883
  866MPD2    H212714   1.873   3.594  11.120  4.6110 -0.0391  0.7252
  866MPD2    H312715   1.706   3.509  11.267 -1.0738 -1.0225  0.0746
  866MPD2     N12716   1.744   3.108  11.097 -0.2308  0.2463 -0.2321
  866MPD2    H512717   1.642   3.109  11.101 -0.2199  0.6360 -0.0647
  866MPD2    N112718   2.051   3.451  10.981 -0.1905 -0.7288 -0.3230
  866MPD2    H712719   2.049   3.552  10.973  1.5433 -0.7150 -0.5481
  867MPD2     C12720   3.879   2.196  16.178 -0.0820  0.0735 -0.3193
  867MPD2    C112721   3.891   2.108  16.282  0.0242  0.5689  0.2000
  867MPD2    C212722   3.812   2.127  16.396  0.3552 -0.0697 -0.1146
  867MPD2    C312723   3.733   2.243  16.413 -0.3142  0.1672  0.1655
  867MPD2    C412724   3.724   2.330  16.307 -0.6256 -0.2793  0.1116
  867MPD2    C512725   3.787   2.297  16.190  0.4933  0.2049 -0.2718
  867MPD2     H12726   3.805   2.042  16.464 -1.3642 -2.7760 -3.6886
  867MPD2    H112727   3.657   2.415  16.310  1.4254  1.4012 -1.4498
  867MPD2    H212728   3.935   2.177  16.088 -1.9148 -1.6840 -1.0920
  867MPD2    H312729   3.763   2.358  16.103  0.1526 -0.5496 -0.7133
  867MPD2     N12730   3.674   2.284  16.541  0.4736  0.2354  0.1728
  867MPD2    H512731   3.604   2.358  16.548 -0.8651 -1.0782  0.5500
  867MPD2    N112732   3.998   2.014  16.276  0.6989 -0.2544  0.3154
  867MPD2    H712733   4.069   2.022  16.203  1.8886  2.3330  1.7241
  868MPD2     C12734   1.067   1.392  12.951  0.3191 -0.6831  0.0939
  868MPD2    C112735   1.093   1.315  13.065  0.1528 -0.3064  0.2520
  868MPD2    C212736   1.015   1.335  13.173  0.1010 -0.2309 -0.2006
  868MPD2    C312737   0.921   1.440  13.179 -0.4543 -0.0464  0.9631
  868MPD2    C412738   0.902   1.519  13.066  0.1726  0.1595 -0.3587
  868MPD2    C512739   0.983   1.498  12.961 -0.7363 -0.0410 -0.3767
  868MPD2     H12740   1.047   1.282  13.262 -1.4424  0.0117  0.4959
  868MPD2    H112741   0.823   1.592  13.053  2.2870  2.5632  0.4377
  868MPD2    H212742   1.116   1.382  12.856 -1.2519 -1.5161 -0.6345
  868MPD2    H312743   0.971   1.563  12.875 -1.1976  1.1647  0.6129
  868MPD2     N12744   0.829   1.457  13.284 -0.0294 -0.0280  0.0516
  868MPD2    H512745   0.752   1.520  13.264  0.4702 -0.4316 -3.0075
  868MPD2    N112746   1.184   1.207  13.049 -0.6522  0.1415 -0.2503
  868MPD2    H712747   1.217   1.188  12.955 -0.4918  1.2249 -0.4115
  869MPD2     C12748   0.637   3.918   1.659  0.6738 -0.2001  0.2836
  869MPD2    C112749   0.693   3.939   1.781 -0.2839 -1.1009 -0.6784
  869MPD2    C212750   0.819   3.999   1.777 -0.3003  0.4745 -0.3407
  869MPD2    C312751   0.870   4.051   1.657 -0.5202 -0.5620 -0.5992
  869MPD2    C412752   0.800   4.032   1.539 -0.3630 -0.1886  0.0245
  869MPD2    C512753   0.682   3.966   1.539  0.5723  0.0472 -0.1084
  869MPD2     H12754   0.872   4.003   1.871 -0.7575  1.9813 -0.1511
  869MPD2    H112755   0.836   4.067   1.443  1.2811  3.2677  1.9293
  869MPD2    H212756   0.551   3.852   1.656  2.2444 -2.0550 -3.7929
  869MPD2    H312757   0.630   3.955   1.445  1.1593  0.3130 -0.4652
  869MPD2     N12758   0.996   4.114   1.651  0.4899 -0.3135  0.3827
  869MPD2    H512759   1.014   4.143   1.555  0.1165 -0.4906  0.2575
  869MPD2    N112760   0.640   3.880   1.899 -0.7444 -0.2450  0.2263
  869MPD2    H712761   0.568   3.811   1.877 -0.3438 -0.1197 -1.4767
  870MPD2     C12762   1.581   2.057   1.320 -0.1421 -0.1945 -0.4285
  870MPD2    C112763   1.539   2.178   1.367  0.0022  0.2162  0.2203
  870MPD2    C212764   1.584   2.296   1.310  0.4017  0.1887  0.4723
  870MPD2    C312765   1.668   2.289   1.204  0.3394  0.4017 -0.3057
  870MPD2    C412766   1.713   2.164   1.157 -0.6208  0.8139  0.3116
  870MPD2    C512767   1.663   2.054   1.207 -0.4863 -0.5591  0.0334
  870MPD2     H12768   1.541   2.393   1.330 -0.7237 -0.5132  1.5267
  870MPD2    H112769   1.771   2.154   1.067 -0.6065  1.0695  0.2934
  870MPD2    H212770   1.558   1.956   1.353  0.5248 -0.5382 -1.0216
  870MPD2    H312771   1.699   1.962   1.163  0.3653  0.8437 -2.2072
  870MPD2     N12772   1.701   2.411   1.138 -0.1947  0.7391  0.1836
  870MPD2    H512773   1.671   2.502   1.171 -0.1442  0.6971  0.3451
  870MPD2    N112774   1.457   2.177   1.480 -0.4345 -0.0652  0.6289
  870MPD2    H712775   1.447   2.087   1.525 -0.8877  0.3124  1.2727
  871MPD2     C12776   2.900   2.263  16.692 -0.8269 -0.0841 -0.4055
  871MPD2    C112777   2.790   2.179  16.709 -1.0543 -0.6221  1.1737
  871MPD2    C212778   2.784   2.059  16.633  0.1959  0.0536  0.1901
  871MPD2    C312779   2.884   2.018  16.549  0.0019 -0.1802  0.5594
  871MPD2    C412780   2.996   2.096  16.544 -0.2748 -0.3056 -0.2486
  871MPD2    C512781   2.999   2.228  16.599  0.1573  0.3179 -0.0107
  871MPD2     H12782   2.695   1.997  16.640  0.8745 -1.2921 -2.7820
  871MPD2    H112783   3.082   2.065  16.485  1.5828  0.4647  2.0807
  871MPD2    H212784   2.918   2.352  16.752 -1.1646 -0.1795 -0.1651
  871MPD2    H312785   3.083   2.295  16.585  0.4216 -0.2874 -1.3290
  871MPD2     N12786   2.863   1.900  16.471  0.3716 -0.4076 -0.9343
  871MPD2    H512787   2.769   1.866  16.454  1.5842 -2.6130 -3.1193
  871MPD2    N112788   2.691   2.225  16.803  0.3836  0.5604  0.0644
  871MPD2    H712789   2.720   2.306  16.856  0.1598  0.2095  0.7281
  872MPD2     C12790   3.757   4.699  14.116 -0.1183 -0.1057 -0.6247
  872MPD2    C112791   3.702   0.089  14.059  0.0339 -0.3996 -0.5114
  872MPD2    C212792   3.589   0.152  14.111  0.1503 -0.0309 -0.3254
  872MPD2    C312793   3.535   0.089  14.225 -0.4560 -0.4269  0.2435
  872MPD2    C412794   3.589   4.694  14.278 -0.2857 -0.0285 -1.0178
  872MPD2    C512795   3.695   4.636  14.220 -0.6052  0.2842  0.0796
  872MPD2     H12796   3.555   0.247  14.072 -0.4015 -1.0394 -2.3193
  872MPD2    H112797   3.558   4.650  14.371 -0.1970  0.4351 -0.7680
  872MPD2    H212798   3.844   4.646  14.078 -1.2871 -2.3194 -0.2316
  872MPD2    H312799   3.725   4.535  14.247 -3.3177 -0.6229 -0.2396
  872MPD2     N12800   3.417   0.138  14.289  0.1094 -0.0080 -0.4197
  872MPD2    H512801   3.384   0.088  14.370  2.0009  0.1590  0.4466
  872MPD2    N112802   3.755   0.142  13.941  0.4719  0.0184 -0.0726
  872MPD2    H712803   3.705   0.219  13.897  0.9300 -0.5449 -1.5673
  873MPD2     C12804   0.144   0.460   0.886  0.1000 -0.4439 -0.2350
  873MPD2    C112805   0.207   0.427   1.003 -0.1580  0.0069 -0.0363
  873MPD2    C212806   0.321   0.355   0.992  0.4672  0.2407  0.2614
  873MPD2    C312807   0.372   0.309   0.872 -0.1480 -0.2787 -1.4701
  873MPD2    C412808   0.317   0.358   0.749 -0.5635  0.0876  0.1872
  873MPD2    C512809   0.199   0.426   0.767 -1.1891  0.1921  0.5813
  873MPD2     H12810   0.371   0.318   1.081  0.5404 -1.0187 -0.2972
  873MPD2    H112811   0.344   0.319   0.651  1.4013  0.2578  0.6613
  873MPD2    H212812   0.053   0.518   0.880  0.2532 -0.2145 -0.3562
  873MPD2    H312813   0.145   0.464   0.681  0.3534  0.7084 -0.1638
  873MPD2     N12814   0.473   0.219   0.859  0.1931  0.5198 -0.0951
  873MPD2    H512815   0.481   0.186   0.763 -1.2650  2.9940 -1.0665
  873MPD2    N112816   0.147   0.470   1.129 -0.6723 -0.0855 -0.8025
  873MPD2    H712817   0.055   0.512   1.115  0.3830  2.6220  0.4698
  874MPD2     C12818   0.424   4.038  15.915  0.0075 -0.7112 -0.0674
  874MPD2    C112819   0.429   3.990  16.042 -0.0820  0.8069  0.0629
  874MPD2    C212820   0.466   4.083  16.134 -0.1614  0.3535 -0.0664
  874MPD2    C312821   0.518   4.206  16.102  0.6152  0.0346 -0.0962
  874MPD2    C412822   0.533   4.243  15.974 -0.1055  0.1302 -0.3534
  874MPD2    C512823   0.474   4.158  15.886 -0.0538 -0.5487  0.4686
  874MPD2     H12824   0.458   4.066  16.241  0.0949 -0.9541 -0.2590
  874MPD2    H112825   0.579   4.337  15.947 -2.5038  0.1539 -4.3446
  874MPD2    H212826   0.392   3.979  15.831  2.5648  0.6746 -2.0322
  874MPD2    H312827   0.473   4.181  15.780  1.4957 -0.9632  0.3706
  874MPD2     N12828   0.557   4.282  16.208 -0.3928 -0.3605  0.6485
  874MPD2    H512829   0.552   4.229  16.294  2.2208  0.6214  1.3951
  874MPD2    N112830   0.368   3.862  16.071 -0.1063  0.3199 -0.2075
  874MPD2    H712831   0.310   3.819  15.999  0.2619 -2.9680  1.4608
  875MPD2     C12832   1.928   3.497  14.789  0.2238 -0.0962 -0.9435
  875MPD2    C112833   1.820   3.421  14.780 -0.1221  0.3511 -0.3919
  875MPD2    C212834   1.732   3.407  14.882  0.5414  1.1330  0.2711
  875MPD2    C312835   1.755   3.485  15.000  0.4463  0.0593 -0.0223
  875MPD2    C412836   1.872   3.559  15.013  0.2334 -0.7312  0.1666
  875MPD2    C512837   1.960   3.556  14.903 -0.3877 -0.4186 -0.7112
  875MPD2     H12838   1.648   3.344  14.858  0.9390  0.2583  1.1916
  875MPD2    H112839   1.893   3.625  15.096  1.2075 -0.8105 -0.0122
  875MPD2    H212840   1.995   3.523  14.707 -0.3408  2.2168 -0.6765
  875MPD2    H312841   2.052   3.613  14.906 -1.2194  0.8608  0.4921
  875MPD2     N12842   1.665   3.495  15.111  0.3871 -0.8155  0.3233
  875MPD2    H512843   1.688   3.557  15.188  0.6568 -0.4325 -0.0722
  875MPD2    N112844   1.782   3.364  14.659  0.0016 -0.8506 -0.4789
  875MPD2    H712845   1.703   3.301  14.667 -0.5391  0.0220  1.0745
  876MPD2     C12846   0.077   4.055  15.648 -0.3539  0.1971  0.2690
  876MPD2    C112847   0.204   4.047  15.594  0.4870  1.1168 -1.0462
  876MPD2    C212848   0.267   3.919  15.611 -0.0065  0.1546 -0.5216
  876MPD2    C312849   0.215   3.822  15.694 -0.2644 -0.4842 -0.6950
  876MPD2    C412850   0.081   3.836  15.740 -0.3374  0.1035 -0.8330
  876MPD2    C512851   0.017   3.949  15.715 -0.7987  0.6892  0.5236
  876MPD2     H12852   0.367   3.906  15.572  0.8919  1.4691  1.3847
  876MPD2    H112853   0.031   3.761  15.800  0.7916  0.2128  0.2554
  876MPD2    H212854   0.019   4.146  15.633 -0.7604  0.0361  0.8511
  876MPD2    H312855   4.637   3.967  15.744 -0.6153  1.5302  0.6284
  876MPD2     N12856   0.290   3.703  15.714  0.4362  0.3268  0.2561
  876MPD2    H512857   0.377   3.686  15.666  0.5925  1.1961  0.2235
  876MPD2    N112858   0.258   4.156  15.521 -0.1355  0.0944  0.5176
  876MPD2    H712859   0.203   4.238  15.500  0.0897  0.6714  2.1435
  877MPD2     C12860   0.193   4.531  14.908  0.5628  0.2125  0.0280
  877MPD2    C112861   0.317   4.574  14.947  0.3316  0.1299  0.2872
  877MPD2    C212862   0.396   4.634  14.858 -0.7971 -0.3914 -0.8224
  877MPD2    C312863   0.354   4.646  14.731  0.6335  0.2527  0.3798
  877MPD2    C412864   0.231   4.599  14.693 -0.1087  0.0123  0.7299
  877MPD2    C512865   0.152   4.547  14.781 -0.3285  0.5220 -0.3143
  877MPD2     H12866   0.492   4.676  14.889 -1.3200 -0.1807  0.5024
  877MPD2    H112867   0.203   4.608  14.588  2.8507  0.6773 -0.0116
  877MPD2    H212868   0.127   4.470  14.969  0.6146 -1.0978 -1.2130
  877MPD2    H312869   0.059   4.497  14.755 -0.9727  2.2647 -1.3613
  877MPD2     N12870   0.422   4.712  14.630  0.2587 -0.1926  0.0360
  877MPD2    H512871   0.380   4.715  14.538  0.9069 -0.6443 -0.2708
  877MPD2    N112872   0.371   4.558  15.081 -0.1242 -0.2634 -0.6792
  877MPD2    H712873   0.471   4.566  15.096 -0.4086 -0.7998  1.4959
  878MPD2     C12874   4.314   3.949  13.281 -0.6537 -0.2721 -0.0429
  878MPD2    C112875   4.373   4.066  13.319 -0.6276  0.4011 -0.5063
  878MPD2    C212876   4.435   4.081  13.442  1.3097 -0.1096  0.2090
  878MPD2    C312877   4.428   3.974  13.530  0.4251  0.0154 -0.1601
  878MPD2    C412878   4.362   3.858  13.493  0.4173  0.2402  0.2365
  878MPD2    C512879   4.304   3.849  13.370  0.1561  0.2781  0.2927
  878MPD2     H12880   4.495   4.170  13.455 -0.0803  0.1723  4.4819
  878MPD2    H112881   4.390   3.764  13.539 -0.5299  0.1468  0.6113
  878MPD2    H212882   4.268   3.938  13.184  0.0631 -3.9716  0.0039
  878MPD2    H312883   4.255   3.762  13.328 -0.5350  0.3258  1.0066
  878MPD2     N12884   4.511   3.973  13.643 -0.8005  0.2613  0.2087
  878MPD2    H512885   4.573   4.049  13.668  0.3315 -0.6841  0.2691
  878MPD2    N112886   4.385   4.152  13.209  0.2768  0.9792  0.2546
  878MPD2    H712887   4.346   4.125  13.119 -0.4111 -1.2101  1.2017
  879MPD2     C12888   0.326   4.333  16.967 -1.0704 -0.0331  0.4547
  879MPD2    C112889   0.368   4.398  16.852  0.2300  0.1664 -0.5676
  879MPD2    C212890   0.326   4.363  16.727  0.7458  0.5265  0.1884
  879MPD2    C312891   0.250   4.240  16.715 -0.0906  0.1056  0.5683
  879MPD2    C412892   0.213   4.174  16.833 -0.2273  0.0324 -0.4154
  879MPD2    C512893   0.246   4.219  16.956 -0.2667 -0.4482 -0.2869
  879MPD2     H12894   0.352   4.423  16.640  0.3545  0.5070  0.0563
  879MPD2    H112895   0.160   4.080  16.827 -0.2773  0.1092 -1.2202
  879MPD2    H212896   0.365   4.364  17.062  0.0006  0.2021 -0.0696
  879MPD2    H312897   0.213   4.157  17.038 -2.0579 -1.4782 -1.7796
  879MPD2     N12898   0.193   4.185  16.595  0.1811 -0.8226  0.0766
  879MPD2    H512899   0.129   4.106  16.599  1.7163 -2.1718 -2.4533
  879MPD2    N112900   0.446   4.513  16.877  0.4846 -0.4423 -0.6082
  879MPD2    H712901   0.451   4.538  16.975  1.7909  0.1354 -0.8196
  880MPD2     C12902   2.069   2.300  17.684 -0.1398 -0.1927  0.1133
  880MPD2    C112903   1.942   2.268  17.657 -0.0881 -0.4702 -0.2280
  880MPD2    C212904   1.904   2.137  17.656  0.0323  0.7728  0.1259
  880MPD2    C312905   2.001   2.034  17.678 -0.1084  0.3294 -0.2929
  880MPD2    C412906   2.133   2.076  17.688 -0.2873 -0.0482  0.5386
  880MPD2    C512907   2.159   2.207   0.013  0.2251 -0.8675  0.3760
  880MPD2     H12908   1.800   2.114  17.636 -0.6000  2.0716  1.8743
  880MPD2    H112909   2.221   2.012  17.692 -1.1567 -1.1998  1.1236
  880MPD2    H212910   2.083   2.408  17.679 -2.0242  0.1083  1.0784
  880MPD2    H312911   2.259   2.245   0.031  0.6149 -1.6669 -0.1328
  880MPD2     N12912   1.960   1.901   0.004 -0.1070  0.0643 -0.3482
  880MPD2    H512913   1.860   1.886   0.008 -0.1874  0.6019 -0.3795
  880MPD2    N112914   1.855   2.381  17.644 -0.3088 -1.2737 -0.1730
  880MPD2    H712915   1.889   2.468  17.683 -2.8625 -1.3212  2.1406
  881MPD2     C12916   1.480   3.205  17.164  0.0825  0.1307  0.0276
  881MPD2    C112917   1.580   3.114  17.149  0.2333 -0.3835  0.3334
  881MPD2    C212918   1.563   2.994  17.216 -0.1785 -0.4601 -0.4575
  881MPD2    C312919   1.469   2.974  17.318 -0.2437 -0.6581  0.1515
  881MPD2    C412920   1.390   3.075  17.338 -0.0676 -0.7201  0.2342
  881MPD2    C512921   1.385   3.194  17.265 -0.4547  0.0463 -0.2467
  881MPD2     H12922   1.634   2.914  17.197 -1.7893 -1.2355 -3.3098
  881MPD2    H112923   1.318   3.062  17.418  2.3893 -0.6983  2.4759
  881MPD2    H212924   1.486   3.306  17.123  2.4041 -0.9351 -2.2360
  881MPD2    H312925   1.319   3.276  17.293  0.7066  0.9788 -0.2697
  881MPD2     N12926   1.460   2.865  17.411 -0.3478  0.7963  0.0625
  881MPD2    H512927   1.385   2.865  17.479 -1.7582 -1.4786 -1.4972
  881MPD2    N112928   1.684   3.127  17.054 -0.1086  0.3979 -0.3685
  881MPD2    H712929   1.742   3.044  17.044 -0.5783 -0.0685  0.8024
  882MPD2     C12930   0.298   4.621  13.926  0.3142 -0.0490 -0.3453
  882MPD2    C112931   0.278   4.717  14.020  0.2893  0.2653  0.4761
  882MPD2    C212932   0.148   0.054  14.022  0.2933 -0.0562 -0.3191
  882MPD2    C312933   0.047   4.723  13.945 -0.0325  0.5079  0.0932
  882MPD2    C412934   0.078   4.631  13.849  0.6023  0.1445 -0.3543
  882MPD2    C512935   0.201   4.574  13.848 -0.8077  0.0589  0.2684
  882MPD2     H12936   0.124   0.139  14.084  1.1808 -0.8416  1.1062
  882MPD2    H112937   0.003   4.591  13.782 -1.0328  0.4604  1.2941
  882MPD2    H212938   0.397   4.580  13.907 -0.1415 -1.0302 -0.5996
  882MPD2    H312939   0.221   4.489  13.784  2.9064  0.9632  0.2714
  882MPD2     N12940   4.631   0.039  13.961 -0.0049 -0.0400 -0.3736
  882MPD2    H512941   4.568   0.007  13.888 -0.6375  0.4353 -0.0315
  882MPD2    N112942   0.398   0.032  14.092  0.3308  0.1872 -0.5258
  882MPD2    H712943   0.488   4.709  14.080 -0.8847 -2.3862  0.1503
  883MPD2     C12944   1.940   0.071  16.375  0.7072 -0.1353 -0.8510
  883MPD2    C112945   2.014   0.063  16.255 -0.1737  0.1518  0.2062
  883MPD2    C212946   2.144   0.021  16.248  0.0758 -0.8474  0.7133
  883MPD2    C312947   2.208   4.694  16.361  0.1979  0.4398 -0.6057
  883MPD2    C412948   2.130   4.692  16.473 -0.5880 -0.4623  0.1763
  883MPD2    C512949   2.000   0.017  16.483  1.0603 -0.2914 -0.1074
  883MPD2     H12950   2.202   0.025  16.157 -0.1308  1.0008  0.6640
  883MPD2    H112951   2.162   4.654  16.570  3.1031  0.5374 -0.6457
  883MPD2    H212952   1.842   0.115  16.390 -0.0729 -1.8410 -0.9587
  883MPD2    H312953   1.952   0.042  16.577 -0.7999 -0.1549 -1.0880
  883MPD2     N12954   2.346   4.674  16.357  0.3994 -0.0446  0.1963
  883MPD2    H512955   2.383   4.681  16.263 -0.7667 -1.0124 -0.3405
  883MPD2    N112956   1.969   0.125  16.134  0.0651  0.1574 -0.0398
  883MPD2    H712957   2.040   0.130  16.062  0.0261 -1.5453 -0.2128
  884MPD2     C12958   4.288   0.685  15.204  0.3556  0.1552 -0.2105
  884MPD2    C112959   4.295   0.789  15.114 -0.0871  0.1148  0.5470
  884MPD2    C212960   4.194   0.888  15.118 -0.2624 -0.0832 -0.0351
  884MPD2    C312961   4.078   0.864  15.198  0.1098  0.2923 -0.2436
  884MPD2    C412962   4.071   0.753  15.277 -0.3007 -0.7002 -0.0216
  884MPD2    C512963   4.177   0.663  15.281  0.4349  0.4630  0.3399
  884MPD2     H12964   4.190   0.980  15.060 -0.7870  0.8560  1.4949
  884MPD2    H112965   3.979   0.727  15.328 -1.6940 -1.9788 -3.1792
  884MPD2    H212966   4.367   0.613  15.220  1.5100  1.2438 -1.0576
  884MPD2    H312967   4.175   0.578  15.349  0.5643 -0.9109 -1.3803
  884MPD2     N12968   3.974   0.960  15.192  0.2849 -0.5399  0.1670
  884MPD2    H512969   3.993   1.040  15.133 -2.4463 -0.7814 -1.0802
  884MPD2    N112970   4.403   0.813  15.035  0.9692  0.2623 -0.0698
  884MPD2    H712971   4.408   0.905  14.992 -2.9366  0.1497 -0.7642
  885MPD2     C12972   2.178   0.363   0.031 -0.4248 -0.3256 -0.2871
  885MPD2    C112973   2.276   0.453   0.053  0.0025 -0.0279 -0.6557
  885MPD2    C212974   2.326   0.531  17.641 -0.3885  0.1495 -0.5052
  885MPD2    C312975   2.260   0.516  17.518  0.0349 -0.3512  0.0470
  885MPD2    C412976   2.162   0.416  17.501  0.0678  0.3082 -0.1453
  885MPD2    C512977   2.116   0.348  17.607  0.4113  1.1713  0.2143
  885MPD2     H12978   2.405   0.603  17.656  1.3741 -1.2031 -3.2826
  885MPD2    H112979   2.106   0.407  17.408  0.5474 -0.5371 -0.3584
  885MPD2    H212980   2.143   0.301   0.113  2.8870 -1.2595  0.4339
  885MPD2    H312981   2.037   0.274  17.602  1.0958  0.4630 -0.2588
  885MPD2     N12982   2.288   0.594  17.406 -0.6494 -0.0471 -0.3709
  885MPD2    H512983   2.232   0.573  17.324  0.6528  1.7457 -1.7200
  885MPD2    N112984   2.315   0.482   0.188  0.8209  0.1060  0.2066
  885MPD2    H712985   2.286   0.411   0.255 -1.2175 -0.9911 -1.8121
  886MPD2     C12986   3.587   4.267  15.581 -0.4068  0.1067  0.6409
  886MPD2    C112987   3.660   4.181  15.503 -0.2301 -0.1295 -0.4478
  886MPD2    C212988   3.755   4.236  15.416  0.6652  0.4822  0.5158
  886MPD2    C312989   3.777   4.373  15.408 -0.1434  0.6525  0.8730
  886MPD2    C412990   3.709   4.453  15.493  0.0683  0.2843 -0.2452
  886MPD2    C512991   3.622   4.394  15.581 -0.5064 -0.1281 -0.0085
  886MPD2     H12992   3.808   4.175  15.345 -0.5531  0.9475 -0.7953
  886MPD2    H112993   3.750   4.552  15.507  0.0531  0.4592 -1.4145
  886MPD2    H212994   3.526   4.227  15.661  0.2539  0.5586  1.3712
  886MPD2    H312995   3.570   4.456  15.654 -0.3890  0.8273 -0.7239
  886MPD2     N12996   3.860   4.427  15.307  0.5089  0.0356 -0.4747
  886MPD2    H512997   3.913   4.365  15.246 -0.3690 -0.0172 -1.1819
  886MPD2    N112998   3.642   4.038  15.497  0.2267  0.0213  0.7214
  886MPD2    H712999   3.695   3.979  15.434  1.3148  0.6532  1.0307
  887MPD2     C13000   4.160   3.840  15.457  0.3801  0.5339 -0.7819
  887MPD2    C113001   4.080   3.896  15.557 -0.1308 -0.6207 -0.2929
  887MPD2    C213002   4.103   4.019  15.591 -0.0799  0.1532  0.0011
  887MPD2    C313003   4.189   4.105  15.527 -0.7430 -0.7172 -0.3989
  887MPD2    C413004   4.272   4.051  15.429 -0.4369 -0.0417  0.0225
  887MPD2    C513005   4.265   3.918  15.402  0.1849  0.1264 -0.9052
  887MPD2     H13006   4.047   4.059  15.675  0.5199  0.4499  0.2604
  887MPD2    H113007   4.357   4.097  15.378  0.3575 -0.7861  0.6684
  887MPD2    H213008   4.143   3.735  15.438  0.8564  0.1297  0.9529
  887MPD2    H313009   4.331   3.860  15.338  1.6200  1.5504 -0.6863
  887MPD2     N13010   4.171   4.240  15.551 -0.9287  0.7352 -0.4165
  887MPD2    H513011   4.085   4.264  15.600 -0.4572  0.1862  0.6746
  887MPD2    N113012   3.979   3.831  15.624 -0.5652  0.4533  0.1848
  887MPD2    H713013   3.905   3.882  15.671  0.6416  0.6385  1.9023
  888MPD2     C13014   1.776   4.474  14.902  0.6097  0.0685 -0.4998
  888MPD2    C113015   1.656   4.511  14.961 -0.4139 -0.5266 -0.1253
  888MPD2    C213016   1.617   4.642  14.939 -0.3395 -0.3465  0.3693
  888MPD2    C313017   1.689   0.010  14.856  0.2347  0.2685  0.3684
  888MPD2    C413018   1.803   4.681  14.796 -0.4004  0.4113  0.7644
  888MPD2    C513019   1.851   4.558  14.822 -0.3670  0.2202 -0.8281
  888MPD2     H13020   1.539   4.686  15.000  0.9941  0.7108  1.2844
  888MPD2    H113021   1.862   0.024  14.733 -3.1705  2.9803  0.8408
  888MPD2    H213022   1.824   4.384  14.939  0.9573  0.0889 -0.9046
  888MPD2    H313023   1.955   4.535  14.799 -0.2780  1.6414 -1.8955
  888MPD2     N13024   1.647   0.140  14.830 -0.1997 -0.3061 -0.0897
  888MPD2    H513025   1.575   0.165  14.897  0.1441  1.2766 -0.3115
  888MPD2    N113026   1.580   4.418  15.036  0.3297 -0.6379  0.3555
  888MPD2    H713027   1.502   4.451  15.092  0.6263 -0.1798  0.4982
  889MPD2     C13028   0.587   3.615  12.961 -0.3452  0.4626  0.6678
  889MPD2    C113029   0.697   3.636  13.039  0.0577 -0.0319  0.7171
  889MPD2    C213030   0.724   3.768  13.064 -0.1460 -0.6946 -0.4576
  889MPD2    C313031   0.662   3.871  13.001 -0.5118  0.5341  0.1329
  889MPD2    C413032   0.550   3.849  12.930 -0.1429  0.7382 -0.6479
  889MPD2    C513033   0.502   3.723  12.916  0.2065  1.2169 -0.6293
  889MPD2     H13034   0.813   3.793  13.121 -0.7785 -0.0832  0.2668
  889MPD2    H113035   0.493   3.931  12.887 -2.4399 -0.3733  0.2876
  889MPD2    H213036   0.553   3.514  12.941  0.8793  0.7713 -2.9969
  889MPD2    H313037   0.413   3.698  12.860  1.4818 -1.1145 -1.6232
  889MPD2     N13038   0.712   4.000  13.030  0.2164 -0.0473 -0.1080
  889MPD2    H513039   0.789   4.001  13.096  1.6537 -0.9949 -1.7660
  889MPD2    N113040   0.744   3.533  13.116  0.1275 -0.2963 -0.4720
  889MPD2    H713041   0.701   3.441  13.113 -0.3714 -0.0277 -1.8670
  890MPD2     C13042   0.129   0.826  14.578  0.0317 -0.5888  0.1530
  890MPD2    C113043   0.257   0.815  14.627 -0.7658 -0.6321 -0.6930
  890MPD2    C213044   0.301   0.690  14.677  0.3859 -0.2775 -0.2777
  890MPD2    C313045   0.204   0.588  14.695 -0.1145  0.1246 -0.6411
  890MPD2    C413046   0.079   0.597  14.642  0.5069 -0.1990  0.2030
  890MPD2    C513047   0.040   0.722  14.587 -0.2956  0.4546  0.4908
  890MPD2     H13048   0.399   0.669  14.718  1.0966  0.9882 -1.3302
  890MPD2    H113049   4.720   0.525  14.641  0.7335 -0.4552 -0.0314
  890MPD2    H213050   0.106   0.922  14.534 -2.0516 -0.5233  1.3641
  890MPD2    H313051   4.660   0.735  14.556 -0.6398  3.1552  2.7998
  890MPD2     N13052   0.226   0.470  14.761 -0.0686 -0.5531  0.9007
  890MPD2    H513053   0.149   0.405  14.775 -1.3532  1.0143  0.9966
  890MPD2    N113054   0.336   0.932  14.635  0.3471 -0.4898 -0.5812
  890MPD2    H713055   0.287   1.017  14.611 -1.0248 -0.8347  0.9585
  891MPD2     C13056   3.241   4.150  16.795 -0.4059 -0.2029 -0.3732
  891MPD2    C113057   3.184   4.086  16.896 -0.9842 -0.1243  0.4296
  891MPD2    C213058   3.269   4.005  16.970  0.6222  0.3251  0.5359
  891MPD2    C313059   3.406   3.990  16.942  0.5694 -0.9567 -0.3922
  891MPD2    C413060   3.456   4.067  16.839 -0.0253  0.1417 -0.0744
  891MPD2    C513061   3.373   4.142  16.761  0.5636 -0.8798 -0.0776
  891MPD2     H13062   3.226   3.953  17.055 -1.7791 -1.4486 -1.7668
  891MPD2    H113063   3.559   4.066  16.806  0.0487 -1.8880  0.1983
  891MPD2    H213064   3.180   4.209  16.728 -2.0445 -0.6115  0.7579
  891MPD2    H313065   3.414   4.186  16.671  1.0063  2.3274  1.6885
  891MPD2     N13066   3.490   3.930  17.037 -0.4334  0.3280 -0.4556
  891MPD2    H513067   3.437   3.889  17.113 -2.3763  0.2988 -1.8314
  891MPD2    N113068   3.053   4.109  16.924 -0.1785 -0.0785 -0.1210
  891MPD2    H713069   3.014   4.187  16.873 -1.6711 -0.9244 -0.2750
  892MPD2     C13070   4.175   0.257  14.830  0.0754  0.2041  0.4913
  892MPD2    C113071   4.126   0.350  14.742  0.3873 -0.2192  0.1036
  892MPD2    C213072   4.167   0.339  14.606  0.0062 -0.4500  0.4287
  892MPD2    C313073   4.246   0.231  14.562  0.4441 -0.2789  0.4961
  892MPD2    C413074   4.285   0.135  14.652 -0.7242 -0.7890  0.4133
  892MPD2    C513075   4.257   0.153  14.787  0.1552 -0.5006 -0.1903
  892MPD2     H13076   4.127   0.408  14.533  0.7488  0.6250  1.0357
  892MPD2    H113077   4.342   0.050  14.617  0.3829  0.6418 -1.2704
  892MPD2    H213078   4.144   0.246  14.933 -0.7361 -1.9141  0.0302
  892MPD2    H313079   4.287   0.077  14.858 -1.5272  1.1428  2.2928
  892MPD2     N13080   4.256   0.194  14.424  0.5124  0.0793  0.0886
  892MPD2    H513081   4.298   0.105  14.399  0.6610  0.7044 -1.9073
  892MPD2    N113082   4.038   0.458  14.778  0.4696 -0.5814  0.0528
  892MPD2    H713083   4.005   0.518  14.703  0.6354  0.2732  0.6641
  893MPD2     C13084   0.942   2.525   1.626 -0.9635  0.2674  0.2297
  893MPD2    C113085   1.011   2.596   1.532  0.4204  0.9002  0.9353
  893MPD2    C213086   1.083   2.525   1.434 -0.3878  0.4887  0.1103
  893MPD2    C313087   1.058   2.390   1.412  0.1153  0.2510  0.2954
  893MPD2    C413088   0.962   2.327   1.491 -0.6057  1.1153 -0.2109
  893MPD2    C513089   0.912   2.397   1.597 -1.1614 -1.3140  0.2037
  893MPD2     H13090   1.152   2.587   1.378 -0.1295  0.7446  0.7051
  893MPD2    H113091   0.936   2.224   1.470  1.0021  1.1575 -2.3867
  893MPD2    H213092   0.896   2.563   1.716  0.3239  0.8656  0.6466
  893MPD2    H313093   0.837   2.348   1.659 -1.2659 -1.7222 -0.2414
  893MPD2     N13094   1.107   2.315   1.303 -0.2413  0.0285 -0.0348
  893MPD2    H513095   1.072   2.219   1.300  0.6628 -0.2936 -0.4538
  893MPD2    N113096   1.010   2.736   1.546  0.5241  0.2906  0.2400
  893MPD2    H713097   0.942   2.773   1.611  0.3743  0.4491 -0.0063
  894MPD2     C13098   3.216   0.944   1.726 -0.1905  0.6501 -0.0135
  894MPD2    C113099   3.117   0.976   1.639  0.1543 -0.4791 -0.3668
  894MPD2    C213100   3.155   1.040   1.524  0.2659  0.4660 -0.0597
  894MPD2    C313101   3.287   1.071   1.496 -1.1519 -0.3463 -0.2062
  894MPD2    C413102   3.385   1.025   1.585 -0.4198 -0.1643 -0.2551
  894MPD2    C513103   3.352   0.948   1.693  0.1290  0.1726 -0.1405
  894MPD2     H13104   3.071   1.055   1.457 -0.3424 -1.2024  0.3398
  894MPD2    H113105   3.492   1.042   1.582 -0.5560  0.7447 -0.1222
  894MPD2    H213106   3.203   0.888   1.818  0.7089 -1.1030 -0.9728
  894MPD2    H313107   3.434   0.912   1.754  0.7362  2.1703  0.2069
  894MPD2     N13108   3.316   1.132   1.369 -0.2786  0.7363 -0.4008
  894MPD2    H513109   3.242   1.128   1.299 -0.0890  1.0950 -0.6230
  894MPD2    N113110   2.980   0.929   1.644  0.3084  0.0612 -0.1299
  894MPD2    H713111   2.930   0.962   1.563  1.3683 -3.4230 -2.2262
  895MPD2     C13112   3.350   0.082  13.724  0.0436  0.2255  0.4741
  895MPD2    C113113   3.372   0.050  13.587  0.5910 -1.0723 -0.2895
  895MPD2    C213114   3.470   4.681  13.561  0.3286  0.0368  0.4895
  895MPD2    C313115   3.529   4.605  13.659 -0.0680 -0.2785  0.7095
  895MPD2    C413116   3.486   4.617  13.790  0.1147 -0.7922 -0.4143
  895MPD2    C513117   3.395   4.717  13.819  0.2127 -0.5793  0.0255
  895MPD2     H13118   3.513   4.690  13.462  0.9095  1.3559  0.8608
  895MPD2    H113119   3.530   4.565  13.874 -0.2413 -0.8179 -0.2417
  895MPD2    H213120   3.288   0.165  13.757  0.3771 -0.4408  2.7784
  895MPD2    H313121   3.366   0.007  13.922  1.8691 -0.8999  0.5386
  895MPD2     N13122   3.624   4.503  13.636  0.8825  0.2937 -0.1493
  895MPD2    H513123   3.630   4.427  13.703  2.4457  0.7756  0.2641
  895MPD2    N113124   3.300   0.111  13.475 -0.5333 -0.0687 -0.0670
  895MPD2    H713125   3.334   0.093  13.381 -2.7356  0.1726 -0.9024
  896MPD2     C13126   0.491   1.458   1.409  0.3445 -0.8378  0.8056
  896MPD2    C113127   0.525   1.447   1.278  0.3306  0.2092 -0.5314
  896MPD2    C213128   0.430   1.494   1.187  0.1190  0.3433 -0.4338
  896MPD2    C313129   0.299   1.536   1.224  0.0600 -0.6114 -0.5317
  896MPD2    C413130   0.273   1.556   1.360  0.1875  0.8980 -0.3612
  896MPD2    C513131   0.368   1.517   1.448 -0.8094  0.5254 -0.3109
  896MPD2     H13132   0.442   1.481   1.080  0.3338  1.7960 -0.5832
  896MPD2    H113133   0.175   1.590   1.392 -0.3016  0.7519 -1.7094
  896MPD2    H213134   0.559   1.431   1.489 -1.2730  0.0904  2.5183
  896MPD2    H313135   0.345   1.519   1.554 -0.1055 -1.4664 -0.1360
  896MPD2     N13136   0.202   1.571   1.123 -0.6574  0.0950 -0.7113
  896MPD2    H513137   0.234   1.563   1.027 -0.5851 -0.6221 -0.6274
  896MPD2    N113138   0.650   1.397   1.246 -0.0772 -0.1214 -0.2847
  896MPD2    H713139   0.710   1.376   1.326  2.8352 -0.7660 -2.6283
  897MPD2     C13140   1.972   3.262  10.567 -0.0596 -0.0570 -0.3938
  897MPD2    C113141   1.958   3.396  10.604  0.5645  0.4375 -0.2096
  897MPD2    C213142   1.859   3.434  10.684  0.3266 -0.0909  0.2588
  897MPD2    C313143   1.761   3.345  10.721 -0.1657  0.0599 -0.4021
  897MPD2    C413144   1.777   3.210  10.687 -0.0592  0.2645 -0.3600
  897MPD2    C513145   1.888   3.171  10.620 -0.2059  0.5851  0.4264
  897MPD2     H13146   1.864   3.540  10.707  1.6555 -0.1173  0.0569
  897MPD2    H113147   1.705   3.134  10.715  0.8315 -1.1660 -1.9514
  897MPD2    H213148   2.064   3.230  10.518 -0.4427  1.0258 -1.8154
  897MPD2    H313149   1.902   3.064  10.608 -1.5383  0.3778  0.6766
  897MPD2     N13150   1.648   3.393  10.787 -0.1300  0.3311 -0.0985
  897MPD2    H513151   1.634   3.493  10.790 -1.4404  0.1014  1.8420
  897MPD2    N113152   2.062   3.480  10.566  0.2498  0.3161  0.5476
  897MPD2    H713153   2.130   3.437  10.505 -1.1118 -0.5269 -0.3630
  898MPD2     C13154   3.309   0.266  17.594  0.1408  0.4173  0.5118
  898MPD2    C113155   3.424   0.259  17.517 -0.1243 -0.3697 -0.1094
  898MPD2    C213156   3.432   0.353  17.417  0.0087 -0.1031 -0.3343
  898MPD2    C313157   3.328   0.438  17.386 -0.3272 -0.2668 -0.9818
  898MPD2    C413158   3.216   0.447  17.468 -0.2236 -0.4151 -0.6674
  898MPD2    C513159   3.217   0.363  17.574 -0.4542  0.2456  0.2277
  898MPD2     H13160   3.515   0.351  17.348  0.4090 -2.6460  0.2221
  898MPD2    H113161   3.141   0.524  17.455 -0.5189 -0.7173 -0.7325
  898MPD2    H213162   3.307   0.213  17.688 -1.6156 -1.3923 -0.5551
  898MPD2    H313163   3.135   0.375  17.644 -1.6477 -1.0230 -0.9646
  898MPD2     N13164   3.348   0.516  17.270  0.5186 -0.6711  0.8565
  898MPD2    H513165   3.437   0.495  17.227  0.0074  0.4848 -0.7534
  898MPD2    N113166   3.532   0.164  17.530  0.4596  0.4125 -0.4754
  898MPD2    H713167   3.606   0.166  17.461 -0.8493 -0.5978 -1.9256
  899MPD2     C13168   0.280   0.170  17.395 -0.4008  0.2340  0.3893
  899MPD2    C113169   0.212   0.282  17.357 -0.7711 -0.2402 -1.0708
  899MPD2    C213170   0.096   0.309  17.424 -0.0099  0.1075 -0.0670
  899MPD2    C313171   0.042   0.229  17.524  0.4678 -0.3784  0.6476
  899MPD2    C413172   0.117   0.121  17.562 -0.1040  0.3026 -0.4113
  899MPD2    C513173   0.234   0.094  17.497  0.9032  0.3412  0.5452
  899MPD2     H13174   0.056   0.402  17.387  0.4334  0.6299  0.7863
  899MPD2    H113175   0.078   0.060  17.643 -3.7939  0.7560 -1.8444
  899MPD2    H213176   0.370   0.142  17.342  0.0388  5.4086 -1.5225
  899MPD2    H313177   0.306   0.019  17.527  0.8011  1.1186  2.7247
  899MPD2     N13178   4.641   0.258  17.582 -0.4940  0.1893 -0.0462
  899MPD2    H513179   4.597   0.198  17.651  0.3093  1.4626  1.6073
  899MPD2    N113180   0.262   0.351  17.246  0.4330  0.0811 -0.5953
  899MPD2    H713181   0.352   0.324  17.207  0.3576  2.2521 -2.2948
  900MPD2     C13182   4.535   2.379  12.376  0.2523  0.4066 -0.0262
  900MPD2    C113183   4.480   2.278  12.309 -1.1790 -1.0376 -0.5619
  900MPD2    C213184   4.384   2.310  12.217 -0.5390 -0.1860  0.8846
  900MPD2    C313185   4.330   2.434  12.207  0.5973  0.4470  0.4695
  900MPD2    C413186   4.382   2.537  12.278  0.2614 -0.0855 -0.1827
  900MPD2    C513187   4.491   2.514  12.360  0.4487  0.2845  0.5614
  900MPD2     H13188   4.344   2.234  12.151  2.2446 -0.2107 -0.7625
  900MPD2    H113189   4.339   2.636  12.268 -0.7000 -0.2597  2.1069
  900MPD2    H213190   4.615   2.373  12.448 -0.8292  0.8661  1.2134
  900MPD2    H313191   4.531   2.598  12.416  4.2105 -0.6908 -0.6907
  900MPD2     N13192   4.230   2.452  12.108 -0.3778  1.3510  0.6673
  900MPD2    H513193   4.210   2.370  12.052  3.3567  0.6220  0.4033
  900MPD2    N113194   4.525   2.150  12.328 -0.5522 -0.0205 -0.1604
  900MPD2    H713195   4.602   2.128  12.390 -0.1744  0.2150 -0.5522
  901MPD2     C13196   4.327   1.175  12.726  1.0576  0.0109 -0.0948
  901MPD2    C113197   4.430   1.158  12.641 -0.7800  0.6374  0.2413
  901MPD2    C213198   4.473   1.265  12.567 -0.3425 -0.7744 -0.0389
  901MPD2    C313199   4.414   1.388  12.567  0.6223  0.6783 -1.3517
  901MPD2    C413200   4.304   1.408  12.652  0.2883 -0.2479  0.0202
  901MPD2    C513201   4.265   1.301  12.734  0.7312 -0.2486 -0.5440
  901MPD2     H13202   4.568   1.259  12.515  0.1225 -2.8831  1.0244
  901MPD2    H113203   4.248   1.501  12.664  0.4077 -0.2399  0.4911
  901MPD2    H213204   4.289   1.100  12.794  0.6677  1.0396  0.8095
  901MPD2    H313205   4.207   1.326  12.823 -1.0810  0.9799 -2.0527
  901MPD2     N13206   4.473   1.495  12.496 -0.1425  0.3699 -0.7016
  901MPD2    H513207   4.559   1.466  12.450  0.7459 -0.3695  1.4256
  901MPD2    N113208   4.486   1.028  12.637 -0.5290 -0.2624  0.5465
  901MPD2    H713209   4.450   0.960  12.703  1.1356 -1.8370 -0.1653
  902MPD2     C13210   3.816   0.105  12.449  0.0683 -0.8904  0.4064
  902MPD2    C113211   3.740   0.153  12.340  0.0850  0.4524  0.2683
  902MPD2    C213212   3.776   0.123  12.205 -0.3822 -0.7877  0.0349
  902MPD2    C313213   3.894   0.052  12.181 -0.7884 -0.1895  1.0102
  902MPD2    C413214   3.961   0.007  12.290  0.2928  0.4802  0.5313
  902MPD2    C513215   3.918   0.028  12.418 -0.0348  0.1050 -0.4414
  902MPD2     H13216   3.712   0.154  12.123  2.2647 -0.9153 -2.0566
  902MPD2    H113217   4.054   4.675  12.284  0.5666  0.7715  2.1122
  902MPD2    H213218   3.795   0.115  12.555  2.8555  2.4729  0.6352
  902MPD2    H313219   3.962   4.690  12.497  1.6254 -2.8464 -3.6504
  902MPD2     N13220   3.925   0.024  12.046 -0.0168  0.5016  0.6207
  902MPD2    H513221   3.853   0.044  11.977  0.4828  0.1876  0.0075
  902MPD2    N113222   3.626   0.228  12.381  0.6673  0.2644 -0.0742
  902MPD2    H713223   3.616   0.246  12.480  3.8637 -0.9642  0.4763
  903MPD2     C13224   3.770   4.300  11.343  0.4687 -0.0236 -0.7506
  903MPD2    C113225   3.729   4.383  11.448 -0.5522 -0.0862  0.3591
  903MPD2    C213226   3.593   4.396  11.476 -0.0532  0.0564 -0.3384
  903MPD2    C313227   3.500   4.329  11.398  0.5545 -0.7044  0.2547
  903MPD2    C413228   3.545   4.267  11.282  0.4471 -0.3364  0.3488
  903MPD2    C513229   3.677   4.256  11.259 -0.5008  0.8055  0.9814
  903MPD2     H13230   3.564   4.475  11.544 -1.5373 -0.8658  0.0793
  903MPD2    H113231   3.480   4.214  11.214 -1.3456  1.6326  0.5505
  903MPD2    H213232   3.874   4.288  11.315  0.2986 -0.7155 -1.0670
  903MPD2    H313233   3.689   4.199  11.167  0.9678 -0.2891  1.8480
  903MPD2     N13234   3.367   4.359  11.425 -1.0072 -0.1673  0.4163
  903MPD2    H513235   3.344   4.410  11.510  0.0934 -0.7368  1.0486
  903MPD2    N113236   3.826   4.464  11.509  0.5015 -0.9919 -0.3497
  903MPD2    H713237   3.920   4.451  11.472  0.8176 -0.5150  0.2896
  904MPD2     C13238   3.445   3.690  14.235 -0.0197  0.0391  0.8009
  904MPD2    C113239   3.430   3.809  14.303 -0.3026 -0.2879 -0.1484
  904MPD2    C213240   3.539   3.865  14.363 -0.0260 -0.9623 -0.5266
  904MPD2    C313241   3.665   3.815  14.346  0.5366  0.1574  0.5343
  904MPD2    C413242   3.679   3.694  14.281  0.3807  0.4748  0.4180
  904MPD2    C513243   3.568   3.625  14.241  0.9611 -0.4418 -0.1663
  904MPD2     H13244   3.524   3.950  14.429  2.3328  0.2707 -1.5707
  904MPD2    H113245   3.775   3.645  14.267  0.2259  0.0502  0.8663
  904MPD2    H213246   3.363   3.638  14.188  1.8508 -0.4784 -1.9365
  904MPD2    H313247   3.578   3.528  14.193 -0.5133 -0.9965  0.6385
  904MPD2     N13248   3.780   3.886  14.400 -0.0834  0.3910 -0.5904
  904MPD2    H513249   3.758   3.974  14.444 -1.6537 -0.6308  0.6570
  904MPD2    N113250   3.297   3.865  14.315  0.4889 -0.0611 -0.6380
  904MPD2    H713251   3.287   3.961  14.346 -3.2226 -0.4185 -0.7256
  905MPD2     C13252   2.925   4.409  13.884  0.5270 -0.6897  0.7379
  905MPD2    C113253   2.957   4.280  13.876 -0.4537 -0.2453  0.0478
  905MPD2    C213254   3.042   4.240  13.779 -0.4620 -0.4207 -0.1554
  905MPD2    C313255   3.090   4.326  13.678  0.4531 -0.1118  0.3002
  905MPD2    C413256   3.062   4.461  13.694  0.2043 -0.1376 -0.1272
  905MPD2    C513257   2.984   4.500  13.804  0.2850 -0.5645  0.4388
  905MPD2     H13258   3.075   4.137  13.772 -0.1078 -0.4471  1.9121
  905MPD2    H113259   3.108   4.533  13.627  0.2475 -1.5120 -1.5842
  905MPD2    H213260   2.868   4.444  13.969 -1.5890 -0.0409 -0.9463
  905MPD2    H313261   2.949   4.600  13.822  2.8391  0.2054  1.1910
  905MPD2     N13262   3.180   4.272  13.585  0.5883  0.0520 -0.8984
  905MPD2    H513263   3.196   4.173  13.599 -0.6699  0.0820  0.7608
  905MPD2    N113264   2.911   4.201  13.983 -0.0527  0.0498 -0.6903
  905MPD2    H713265   2.874   4.239  14.069 -0.8605  0.2017 -1.1118
  906MPD2     C13266   0.651   3.873  11.214  0.3471 -0.2430 -0.0678
  906MPD2    C113267   0.605   3.763  11.139  0.3294 -0.4340 -0.5735
  906MPD2    C213268   0.592   3.634  11.197 -0.3257 -0.3880 -0.6232
  906MPD2    C313269   0.645   3.615  11.327  0.1287  0.0219 -0.0127
  906MPD2    C413270   0.716   3.717  11.385 -0.3317 -0.4713  0.3520
  906MPD2    C513271   0.704   3.848  11.337 -0.2768  0.3869  0.3975
  906MPD2     H13272   0.533   3.558  11.147  0.4201 -0.6832 -1.0502
  906MPD2    H113273   0.769   3.696  11.478 -0.3204  1.8838  0.8813
  906MPD2    H213274   0.656   3.973  11.173 -1.2459 -0.5663 -1.0525
  906MPD2    H313275   0.751   3.918  11.405  1.1400  0.2924 -0.4743
  906MPD2     N13276   0.655   3.488  11.388  0.7064  0.3919  0.0677
  906MPD2    H513277   0.711   3.476  11.472  0.9907 -2.3691 -0.5274
  906MPD2    N113278   0.561   3.771  11.004  0.5735 -0.0749  0.4745
  906MPD2    H713279   0.538   3.685  10.956 -2.9400  0.1414  1.7774
  907MPD2     C13280   4.321   3.182  15.748  0.2330  0.2602  0.0368
  907MPD2    C113281   4.381   3.057  15.753  0.0053  0.1335 -0.1423
  907MPD2    C213282   4.472   3.039  15.855 -0.7423  0.6679 -0.2198
  907MPD2    C313283   4.489   3.128  15.962  0.0329  0.0477  0.0010
  907MPD2    C413284   4.413   3.239  15.964  0.5108 -0.4722  0.6534
  907MPD2    C513285   4.341   3.266  15.854  0.5558 -0.1418 -0.1643
  907MPD2     H13286   4.542   2.959  15.834  0.2481  1.4401  0.1655
  907MPD2    H113287   4.408   3.313  16.043  0.8938 -0.6262  0.8196
  907MPD2    H213288   4.260   3.218  15.665 -0.2959 -1.4933 -0.3397
  907MPD2    H313289   4.284   3.358  15.849 -1.0708 -1.1136  0.4775
  907MPD2     N13290   4.573   3.100  16.076 -0.7352 -0.2362  0.0875
  907MPD2    H513291   4.583   3.163  16.155  1.9081 -0.5692  0.0348
  907MPD2    N113292   4.366   2.961  15.650 -0.2853  0.2147 -0.2646
  907MPD2    H713293   4.403   2.871  15.679 -1.0010  0.5280  1.6670
  908MPD2     C13294   2.309   3.307   9.770  0.1142  0.9694  0.0614
  908MPD2    C113295   2.321   3.234   9.890  0.0021 -0.4688  0.6023
  908MPD2    C213296   2.317   3.299  10.011  0.2237  0.1320 -0.0871
  908MPD2    C313297   2.303   3.434  10.012 -0.0892 -0.2526  0.3469
  908MPD2    C413298   2.302   3.507   9.894 -0.0661  0.5520  0.3802
  908MPD2    C513299   2.318   3.444   9.773 -1.0887 -0.5237 -0.8436
  908MPD2     H13300   2.311   3.249  10.107 -0.1518  2.2216  0.9862
  908MPD2    H113301   2.298   3.615   9.889 -0.4617  0.5276  0.1734
  908MPD2    H213302   2.302   3.252   9.677 -3.3829  0.4383  0.6610
  908MPD2    H313303   2.322   3.500   9.680  0.7465  1.6028  0.5003
  908MPD2     N13304   2.290   3.489  10.139  0.0540 -0.0771 -0.4403
  908MPD2    H513305   2.292   3.430  10.221 -1.0771  0.1769 -0.2309
  908MPD2    N113306   2.334   3.090   9.882 -0.0357 -0.5347  0.0718
  908MPD2    H713307   2.342   3.045   9.791  1.7525  1.6066 -0.8216
  909MPD2     C13308   2.823   1.166  11.624 -0.0526 -0.2154 -0.4541
  909MPD2    C113309   2.793   1.269  11.537 -1.0008 -0.1372  0.3924
  909MPD2    C213310   2.675   1.331  11.555 -0.5825 -0.0908  0.0666
  909MPD2    C313311   2.589   1.301  11.659  0.8669  0.6981 -0.5204
  909MPD2    C413312   2.625   1.207  11.753  0.5387  0.4741 -0.1918
  909MPD2    C513313   2.749   1.151  11.742  0.1771  0.1129 -0.3998
  909MPD2     H13314   2.649   1.412  11.488  0.2143 -0.7829 -1.0655
  909MPD2    H113315   2.573   1.182  11.845 -1.2294 -2.1848 -1.9433
  909MPD2    H213316   2.922   1.122  11.631  1.1051  2.2155 -1.1473
  909MPD2    H313317   2.790   1.089  11.821 -0.3692  2.5226  1.7797
  909MPD2     N13318   2.476   1.379  11.668  0.7833  0.4903  0.0773
  909MPD2    H513319   2.466   1.451  11.597  0.2860  0.9239  0.5815
  909MPD2    N113320   2.876   1.296  11.427  0.7540  0.2378  0.1520
  909MPD2    H713321   2.858   1.384  11.378  0.1546 -1.2221 -2.2897
  910MPD2     C13322   3.577   3.325  16.018  0.0810  0.6701  0.1801
  910MPD2    C113323   3.671   3.295  15.920  0.7591  0.5896 -0.7363
  910MPD2    C213324   3.636   3.306  15.783 -0.3741  0.4778 -0.0062
  910MPD2    C313325   3.510   3.352  15.749 -0.1321 -0.0942  0.5295
  910MPD2    C413326   3.421   3.381  15.850 -0.0326 -0.1002 -0.0147
  910MPD2    C513327   3.450   3.368  15.976  1.2859 -0.5058  0.0779
  910MPD2     H13328   3.710   3.271  15.712 -1.4019 -1.2361 -0.2263
  910MPD2    H113329   3.337   3.435  15.809  1.8380  2.3623 -0.5578
  910MPD2    H213330   3.608   3.340  16.121  0.3247 -0.0373  0.2142
  910MPD2    H313331   3.381   3.412  16.047  2.5260  1.5976 -0.0136
  910MPD2     N13332   3.461   3.385  15.622  0.1346  0.5547  0.1722
  910MPD2    H513333   3.377   3.442  15.627  0.5231  0.8967  2.9433
  910MPD2    N113334   3.811   3.277  15.954  0.7684 -0.4248 -0.0860
  910MPD2    H713335   3.878   3.257  15.880  0.2560 -0.2837 -0.5894
  911MPD2     C13336   1.421   4.536  16.872  0.0350 -0.4333 -0.4207
  911MPD2    C113337   1.442   4.423  16.812 -0.5746  0.2541 -0.0041
  911MPD2    C213338   1.374   4.396  16.692 -0.0380  0.1739 -0.4679
  911MPD2    C313339   1.288   4.491  16.640  0.5169 -0.1817  0.1040
  911MPD2    C413340   1.264   4.611  16.702  0.0664 -0.0856 -0.2601
  911MPD2    C513341   1.331   4.622  16.818 -0.3357 -0.2517 -0.4298
  911MPD2     H13342   1.384   4.304  16.635  0.1663  0.1572 -0.4069
  911MPD2    H113343   1.190   4.682  16.668 -3.2901 -3.9690 -1.1361
  911MPD2    H213344   1.477   4.570  16.958 -0.6544 -1.2126  0.3344
  911MPD2    H313345   1.310   4.709  16.879 -0.5072 -1.1686  0.8245
  911MPD2     N13346   1.211   4.473  16.529 -0.0730  0.0207  0.4113
  911MPD2    H513347   1.181   4.559  16.484 -2.0622 -0.6254  0.5029
  911MPD2    N113348   1.540   4.333  16.872 -0.4986  0.3727  0.2432
  911MPD2    H713349   1.589   4.375  16.951  0.5995  1.0884 -0.8239
  912MPD2     C13350   0.784   4.018  15.811  0.3186 -0.2379  0.3606
  912MPD2    C113351   0.812   4.012  15.942  0.0506 -0.4671 -0.0660
  912MPD2    C213352   0.762   3.907  16.016 -0.3511  0.7761 -0.4214
  912MPD2    C313353   0.706   3.793  15.963  0.0982 -0.1654 -1.0117
  912MPD2    C413354   0.697   3.794  15.827  0.6018  0.5378 -0.7605
  912MPD2    C513355   0.722   3.910  15.751  0.2627  0.1162 -0.4316
  912MPD2     H13356   0.777   3.896  16.123  0.8921 -1.6457 -0.8498
  912MPD2    H113357   0.661   3.708  15.772  1.0817  1.0678 -1.8937
  912MPD2    H213358   0.811   4.104  15.749  1.5709  0.1039  1.3926
  912MPD2    H313359   0.713   3.899  15.644  1.3221  2.4308 -0.7740
  912MPD2     N13360   0.692   3.675  16.046 -0.8908  0.5297  0.1788
  912MPD2    H513361   0.700   3.699  16.144 -0.4222  1.1720 -0.0151
  912MPD2    N113362   0.880   4.126  15.999  0.0755 -0.0117  0.5041
  912MPD2    H713363   0.891   4.202  15.932 -1.3751 -0.0178  0.2600
  913MPD2     C13364   2.494   1.518  10.761 -0.2464 -0.3842  0.2754
  913MPD2    C113365   2.514   1.441  10.655  0.0686  0.9025 -1.1225
  913MPD2    C213366   2.567   1.500  10.541  0.0024 -0.0689 -0.0168
  913MPD2    C313367   2.608   1.634  10.552  0.2808 -0.3033 -0.5461
  913MPD2    C413368   2.602   1.698  10.673 -0.4860  0.5386 -0.4826
  913MPD2    C513369   2.535   1.644  10.781  0.2680  0.3683  0.2871
  913MPD2     H13370   2.564   1.444  10.449 -0.2597  0.4382 -0.3154
  913MPD2    H113371   2.643   1.798  10.677  2.5484 -0.8349  2.3943
  913MPD2    H213372   2.448   1.482  10.852 -0.1388  0.0687  0.5151
  913MPD2    H313373   2.544   1.691  10.879  0.6496  1.0646 -0.0815
  913MPD2     N13374   2.673   1.705  10.448 -0.4865  0.4228 -0.1248
  913MPD2    H513375   2.695   1.803  10.459  1.0498  0.0736 -0.1599
  913MPD2    N113376   2.457   1.307  10.651  0.1447 -0.6520 -0.4960
  913MPD2    H713377   2.400   1.288  10.733 -0.5097 -0.9345 -1.0166
  914MPD2     C13378   4.288   0.632  11.852  0.3109 -0.2154  0.2637
  914MPD2    C113379   4.396   0.719  11.862 -0.1211  0.2443 -1.2419
  914MPD2    C213380   4.478   0.706  11.968  0.3549 -0.1070 -0.0571
  914MPD2    C313381   4.446   0.627  12.068  0.1263  0.7130  0.4736
  914MPD2    C413382   4.347   0.532  12.055 -0.4884 -0.3604  1.2151
  914MPD2    C513383   4.267   0.528  11.944 -0.6283 -0.1890 -0.0461
  914MPD2     H13384   4.561   0.776  11.975 -0.2627  0.6739 -0.5733
  914MPD2    H113385   4.309   0.464  12.131 -2.1632 -0.9925 -0.2011
  914MPD2    H213386   4.226   0.636  11.764  0.2054  1.3995  0.4094
  914MPD2    H313387   4.180   0.465  11.936 -2.0632  1.8380 -0.4911
  914MPD2     N13388   4.512   0.647  12.197 -0.7195 -0.4593  0.2460
  914MPD2    H513389   4.569   0.731  12.200  1.2368 -1.7735 -0.2568
  914MPD2    N113390   4.411   0.809  11.748  0.7769 -0.5623 -0.2269
  914MPD2    H713391   4.348   0.791  11.671  0.1438  1.7273 -0.2341
  915MPD2     C13392   2.286   0.271  15.485 -1.0020  0.1637  0.0094
  915MPD2    C113393   2.216   0.378  15.432 -0.5548  0.5549 -0.5486
  915MPD2    C213394   2.173   0.475  15.517 -0.0180  0.5418  0.8688
  915MPD2    C313395   2.193   0.466  15.656  0.1935  0.5386  0.2052
  915MPD2    C413396   2.272   0.368  15.705 -0.1602  0.3258 -0.4634
  915MPD2    C513397   2.311   0.266  15.622 -0.0262 -0.2765  0.2100
  915MPD2     H13398   2.108   0.550  15.473 -2.9610 -3.2902 -1.2631
  915MPD2    H113399   2.302   0.358  15.808 -2.0749 -0.4018  0.0412
  915MPD2    H213400   2.319   0.181  15.433 -0.5984  0.1818  0.2277
  915MPD2    H313401   2.368   0.181  15.658 -0.0304  0.0365  0.9395
  915MPD2     N13402   2.136   0.569  15.734 -0.2526 -0.0984 -0.0386
  915MPD2    H513403   2.089   0.639  15.677 -0.4600 -1.0873 -1.0738
  915MPD2    N113404   2.176   0.388  15.298 -0.6594  0.6161  0.0571
  915MPD2    H713405   2.106   0.456  15.270  0.2577  0.6990 -2.0025
  916MPD2     C13406   0.475   2.871  15.528 -0.1988 -0.6456 -0.1018
  916MPD2    C113407   0.485   3.003  15.500  0.1216  0.1690  0.5277
  916MPD2    C213408   0.525   3.044  15.375 -0.3569  0.5437  0.5642
  916MPD2    C313409   0.568   2.957  15.278 -0.0975 -0.3917 -0.3222
  916MPD2    C413410   0.554   2.820  15.303  0.3210  0.4924  0.6186
  916MPD2    C513411   0.490   2.781  15.421  0.1236  0.0441 -0.0975
  916MPD2     H13412   0.522   3.148  15.346  0.2018  0.6896  1.0225
  916MPD2    H113413   0.580   2.739  15.236 -1.0698 -0.0096  0.6895
  916MPD2    H213414   0.429   2.832  15.618 -0.9982  0.3013 -0.0976
  916MPD2    H313415   0.465   2.679  15.448 -0.0898  0.0931 -0.1099
  916MPD2     N13416   0.637   3.006  15.163  0.0243 -0.3958 -0.0531
  916MPD2    H513417   0.638   3.107  15.157 -1.5492 -0.3699  0.1917
  916MPD2    N113418   0.459   3.096  15.604 -0.6470 -0.1025 -0.4313
  916MPD2    H713419   0.429   3.055  15.692 -1.5851  1.4606 -0.0347
  917MPD2     C13420   1.009   1.539  10.872 -0.1610  0.4161 -0.4773
  917MPD2    C113421   1.084   1.591  10.974 -0.0201  0.2518 -0.7294
  917MPD2    C213422   1.179   1.691  10.950  0.7316 -0.2000  0.1739
  917MPD2    C313423   1.198   1.733  10.818  0.0299  0.2162  0.4532
  917MPD2    C413424   1.129   1.673  10.718 -1.1022  0.4480  0.0570
  917MPD2    C513425   1.036   1.579  10.749  0.1436  0.2676  0.1152
  917MPD2     H13426   1.239   1.725  11.034  0.3525 -1.1279  0.8166
  917MPD2    H113427   1.143   1.702  10.614  1.5307  1.7769  0.7900
  917MPD2    H213428   0.937   1.464  10.901  1.7293  0.1509  3.5062
  917MPD2    H313429   0.980   1.539  10.666 -0.7128  2.9712 -0.6132
  917MPD2     N13430   1.283   1.840  10.785 -0.1281 -0.0830 -0.3602
  917MPD2    H513431   1.313   1.862  10.690 -0.6454  1.8546 -0.0847
  917MPD2    N113432   1.055   1.538  11.105 -0.3961  0.5856 -0.0904
  917MPD2    H713433   0.994   1.457  11.110  0.1987 -0.0429 -2.9757
  918MPD2     C13434   1.228   1.509  12.191  0.4053  0.6280 -0.5233
  918MPD2    C113435   1.321   1.480  12.092  0.3750 -0.8559 -0.1251
  918MPD2    C213436   1.276   1.491  11.963 -0.1817  0.7794  0.1921
  918MPD2    C313437   1.143   1.500  11.933  0.1065  0.2264 -0.1070
  918MPD2    C413438   1.052   1.517  12.035 -0.5500 -0.2532 -0.5120
  918MPD2    C513439   1.094   1.513  12.165 -0.8721 -0.1032 -0.7334
  918MPD2     H13440   1.355   1.474  11.891  1.5810 -1.5298  2.6461
  918MPD2    H113441   0.946   1.521  12.010  0.3471  0.5084 -4.2077
  918MPD2    H213442   1.260   1.515  12.295 -0.2379 -1.7390 -0.2055
  918MPD2    H313443   1.018   1.524  12.241  1.5072  2.4163  1.3162
  918MPD2     N13444   1.091   1.486  11.801  0.0594  0.8198  0.3063
  918MPD2    H513445   0.990   1.482  11.795  0.1773 -0.0126 -1.0401
  918MPD2    N113446   1.462   1.459  12.107  0.1490 -0.2005  0.1447
  918MPD2    H713447   1.515   1.434  12.025  0.7924 -0.3564  0.6080
  919MPD2     C13448   1.921   0.700  11.650 -0.9375 -0.3530  0.3648
  919MPD2    C113449   1.819   0.610  11.624 -0.2160 -0.2227  0.2275
  919MPD2    C213450   1.716   0.650  11.530  0.7251 -0.5031  0.5227
  919MPD2    C313451   1.721   0.770  11.460 -0.3993  0.5695 -0.0035
  919MPD2    C413452   1.820   0.853  11.503 -0.5386  0.2829 -0.5715
  919MPD2    C513453   1.917   0.817  11.586  0.1855  0.2769 -0.7759
  919MPD2     H13454   1.644   0.570  11.515 -0.7068  1.2097 -1.7707
  919MPD2    H113455   1.832   0.948  11.454 -0.0452 -0.2638 -1.5111
  919MPD2    H213456   2.000   0.671  11.718  0.2682  2.3804  0.1394
  919MPD2    H313457   2.001   0.885  11.597  0.0830  0.3852 -0.6515
  919MPD2     N13458   1.630   0.814  11.361  0.8523 -0.1328 -0.0455
  919MPD2    H513459   1.639   0.911  11.333  1.9070 -0.7307 -1.7584
  919MPD2    N113460   1.811   0.489  11.691  0.6265  0.0019 -0.1836
  919MPD2    H713461   1.731   0.431  11.666  0.6128 -0.2693  0.4941
  920MPD2     C13462   1.724   1.028  10.472  0.6276  0.6274  0.2467
  920MPD2    C113463   1.621   0.938  10.463 -0.0672  0.3263  0.3850
  920MPD2    C213464   1.532   0.929  10.571  0.0037 -0.0057  0.7460
  920MPD2    C313465   1.561   1.000  10.688 -0.1126 -0.1297 -0.6251
  920MPD2    C413466   1.661   1.087  10.691 -0.6786 -0.4850  0.3996
  920MPD2    C513467   1.743   1.108  10.582 -0.2059 -0.4035  0.5693
  920MPD2     H13468   1.453   0.855  10.571 -0.1186  0.1337 -0.9764
  920MPD2    H113469   1.674   1.145  10.782 -1.9135 -2.2023  1.6972
  920MPD2    H213470   1.798   1.051  10.395  0.0115 -1.2164 -0.9076
  920MPD2    H313471   1.831   1.170  10.580 -1.0168  0.7098 -0.4902
  920MPD2     N13472   1.480   0.981  10.802 -0.2236  0.4708 -0.3160
  920MPD2    H513473   1.412   0.906  10.805 -0.2921  0.6041  1.1207
  920MPD2    N113474   1.609   0.835  10.368  0.2263  0.0255 -0.0797
  920MPD2    H713475   1.546   0.757  10.384  0.4184 -0.0929  0.1151
  921MPD2     C13476   2.353   4.452  17.383 -0.0240 -0.1752  0.4780
  921MPD2    C113477   2.382   4.340  17.311 -0.1599 -0.6290 -0.3382
  921MPD2    C213478   2.285   4.269  17.242 -0.2270 -0.0696 -0.2810
  921MPD2    C313479   2.157   4.316  17.236  0.2669  0.1678  0.3289
  921MPD2    C413480   2.123   4.431  17.301 -0.2935  0.3186  0.2853
  921MPD2    C513481   2.224   4.492  17.374  0.1084 -0.4551  0.1412
  921MPD2     H13482   2.310   4.178  17.190 -1.2130 -1.5034  1.7708
  921MPD2    H113483   2.020   4.467  17.302 -0.5391 -0.3816 -0.4090
  921MPD2    H213484   2.424   4.521  17.425  0.3447  1.0076 -2.0481
  921MPD2    H313485   2.199   4.585  17.424 -1.4610 -1.2375  0.8094
  921MPD2     N13486   2.073   4.244  17.146 -0.4009 -0.1679  0.4251
  921MPD2    H513487   2.129   4.180  17.091  0.7309 -0.2042  1.6226
  921MPD2    N113488   2.523   4.302  17.298  0.1864  0.3546 -0.3260
  921MPD2    H713489   2.597   4.361  17.337  0.4943 -0.6496  0.6053
  922MPD2     C13490   2.787   1.240  16.664 -0.3812 -0.0654  0.3387
  922MPD2    C113491   2.724   1.358  16.718  0.1007 -0.3257 -0.0765
  922MPD2    C213492   2.586   1.356  16.734  0.2096  0.1141  0.6627
  922MPD2    C313493   2.509   1.240  16.699  0.1794 -0.2479  0.2272
  922MPD2    C413494   2.576   1.126  16.671  0.5473 -0.3235  0.1554
  922MPD2    C513495   2.717   1.118  16.660  0.0723  0.1928  0.6147
  922MPD2     H13496   2.535   1.446  16.765  0.5700  0.7305 -0.5303
  922MPD2    H113497   2.526   1.036  16.637 -3.2618  0.6913  3.0560
  922MPD2    H213498   2.889   1.237  16.630 -1.0639 -1.2002 -1.5952
  922MPD2    H313499   2.765   1.030  16.618 -2.1020 -0.5502 -0.3228
  922MPD2     N13500   2.371   1.250  16.712 -1.1050  0.1091  0.1931
  922MPD2    H513501   2.325   1.340  16.703 -2.4676 -0.6822 -0.6735
  922MPD2    N113502   2.786   1.478  16.746  0.7543  0.1921  0.1889
  922MPD2    H713503   2.728   1.557  16.773 -0.1645 -0.5345  0.3368
  923MPD2     C13504   0.534   2.316   9.290 -0.0296  0.0725  0.7645
  923MPD2    C113505   0.441   2.362   9.377 -0.2063 -0.4264 -0.5307
  923MPD2    C213506   0.463   2.350   9.517  0.6809 -0.0813 -0.2376
  923MPD2    C313507   0.572   2.283   9.560  0.3387 -0.3938  0.3522
  923MPD2    C413508   0.655   2.218   9.472  0.3141  0.1159 -0.7338
  923MPD2    C513509   0.639   2.246   9.343  0.0686 -0.0186  0.7942
  923MPD2     H13510   0.385   2.396   9.577  2.7899  1.9098  0.9570
  923MPD2    H113511   0.737   2.161   9.516  0.0070 -0.4638 -0.9170
  923MPD2    H213512   0.531   2.331   9.183  0.4547 -1.7076  0.4980
  923MPD2    H313513   0.719   2.205   9.281  0.4764  0.1447  1.2090
  923MPD2     N13514   0.610   2.263   9.697 -0.2364 -0.1046 -0.0443
  923MPD2    H513515   0.693   2.208   9.719 -0.4963 -0.6647 -0.4604
  923MPD2    N113516   0.330   2.430   9.316  0.1686  0.0930  0.1689
  923MPD2    H713517   0.333   2.432   9.215  2.3052  1.7474  0.2654
  924MPD2     C13518   0.203   2.220  16.286 -0.3582 -0.2279 -0.4988
  924MPD2    C113519   0.087   2.273  16.343 -0.4335 -0.2943  0.0346
  924MPD2    C213520   0.087   2.407  16.391  0.3302 -0.5054  0.3173
  924MPD2    C313521   0.185   2.487  16.346  0.5161 -0.5651 -0.4690
  924MPD2    C413522   0.297   2.437  16.287 -0.3220  0.4455 -0.0492
  924MPD2    C513523   0.311   2.303  16.257 -0.2788 -0.5008 -0.4590
  924MPD2     H13524   4.721   2.441  16.442  0.7667  0.3512  0.5095
  924MPD2    H113525   0.380   2.501  16.258  2.6940 -2.3566  2.2597
  924MPD2    H213526   0.212   2.117  16.254 -2.4656 -0.4245 -0.3989
  924MPD2    H313527   0.401   2.279  16.201 -0.3291  1.4706 -1.3837
  924MPD2     N13528   0.164   2.625  16.368  0.7956 -0.3075  0.5952
  924MPD2    H513529   0.088   2.654  16.430 -1.2183  0.7730 -2.3811
  924MPD2    N113530   4.686   2.207  16.358  0.2747  0.1699 -0.3194
  924MPD2    H713531   4.608   2.255  16.402 -0.3590 -1.3752  0.2162
  925MPD2     C13532   3.177   0.083  14.978  0.1934 -0.1265  0.2401
  925MPD2    C113533   3.068   0.069  14.897 -0.4120  0.2845  0.1040
  925MPD2    C213534   2.953   0.010  14.949  0.0485  0.6687  0.2709
  925MPD2    C313535   2.952   4.695  15.082 -0.5648  0.3955 -0.2072
  925MPD2    C413536   3.065   4.715  15.166  0.9270  0.8442  0.1029
  925MPD2    C513537   3.174   0.046  15.109  0.4830 -0.1423  0.0535
  925MPD2     H13538   2.870   4.712  14.883  0.0810  3.5021 -0.6776
  925MPD2    H113539   3.075   4.680  15.268 -0.3324 -3.1390 -1.1600
  925MPD2    H213540   3.269   0.125  14.941 -0.5627  0.8061 -0.5796
  925MPD2    H313541   3.266   0.057  15.165  1.3440  2.8249 -1.9187
  925MPD2     N13542   2.845   4.620  15.140  0.0599  0.3833 -0.2519
  925MPD2    H513543   2.853   4.582  15.233  1.2395 -2.1232 -1.3837
  925MPD2    N113544   3.073   0.098  14.751 -0.3510 -0.3582  0.1339
  925MPD2    H713545   2.992   0.081  14.692 -1.4114 -0.5481  1.6155
  926MPD2     C13546   2.235   3.294  13.348  0.0784  0.0760  0.9210
  926MPD2    C113547   2.109   3.352  13.341  0.4616 -0.4311  0.5698
  926MPD2    C213548   2.079   3.408  13.215 -0.3035  0.3061  0.1051
  926MPD2    C313549   2.176   3.405  13.115  0.3264 -0.1369 -0.2088
  926MPD2    C413550   2.303   3.356  13.132 -0.4267  1.2546 -0.0247
  926MPD2    C513551   2.327   3.290  13.246 -0.0806  0.5050 -0.3074
  926MPD2     H13552   1.982   3.455  13.201 -0.6852 -1.3631 -2.9266
  926MPD2    H113553   2.376   3.353  13.052 -0.9468  1.3992 -0.5093
  926MPD2    H213554   2.270   3.265  13.447 -0.2831 -1.0960  0.7118
  926MPD2    H313555   2.427   3.254  13.271 -0.4337 -1.5946 -1.9399
  926MPD2     N13556   2.160   3.459  12.988 -0.0225 -0.4571 -0.0929
  926MPD2    H513557   2.241   3.455  12.927  1.7166  0.9202  2.1237
  926MPD2    N113558   2.030   3.375  13.450 -0.2054 -0.1517 -0.3415
  926MPD2    H713559   1.962   3.450  13.449  0.0858  0.1201  0.7677
  927MPD2     C13560   1.524   1.318   0.499  0.4405  0.1092  0.7418
  927MPD2    C113561   1.444   1.202   0.495  0.1696  0.3862  0.3022
  927MPD2    C213562   1.464   1.114   0.394 -0.5049 -0.3122 -0.3013
  927MPD2    C313563   1.552   1.141   0.293 -0.0099 -0.8837  0.0009
  927MPD2    C413564   1.634   1.255   0.296  0.2136 -0.1356 -0.2140
  927MPD2    C513565   1.617   1.344   0.399 -0.4888 -0.4668  0.2109
  927MPD2     H13566   1.413   1.019   0.401  1.4633 -1.4577 -1.2596
  927MPD2    H113567   1.716   1.269   0.227 -0.4702 -0.0945 -1.0175
  927MPD2    H213568   1.515   1.387   0.582 -1.2861  0.1619  0.5103
  927MPD2    H313569   1.688   1.426   0.403  0.9100 -1.7658  1.7882
  927MPD2     N13570   1.571   1.033   0.201  0.3351  0.2905  0.5250
  927MPD2    H513571   1.521   0.945   0.209  0.3245  0.1276 -1.1672
  927MPD2    N113572   1.351   1.189   0.598  0.3302 -0.8961 -0.6277
  927MPD2    H713573   1.357   1.249   0.680  1.6745 -1.5629 -0.2362
  928MPD2     C13574   0.332   3.927   1.307 -0.1939 -0.2827 -0.3418
  928MPD2    C113575   0.210   3.982   1.297  0.2527  0.3586 -0.7205
  928MPD2    C213576   0.158   3.992   1.171 -0.2338 -0.0146  0.1112
  928MPD2    C313577   0.234   3.955   1.060 -0.0685 -0.0200 -0.2121
  928MPD2    C413578   0.360   3.904   1.080  0.2701 -0.8849  0.2412
  928MPD2    C513579   0.410   3.885   1.203  0.1477 -0.3710  0.3772
  928MPD2     H13580   0.073   4.051   1.141 -0.1140  1.1002  1.9994
  928MPD2    H113581   0.427   3.888   0.996  0.9074 -0.6618  0.7048
  928MPD2    H213582   0.373   3.918   1.407 -1.6126 -0.8571  0.1977
  928MPD2    H313583   0.511   3.852   1.223  0.7861 -0.5473 -3.1882
  928MPD2     N13584   0.193   3.975   0.929  0.7750 -0.9150  0.1828
  928MPD2    H513585   0.261   3.962   0.854  0.6464 -0.3509 -0.0262
  928MPD2    N113586   0.139   4.016   1.417 -0.0792 -0.2389  0.1479
  928MPD2    H713587   0.195   4.016   1.501  0.4616 -1.9616 -0.2035
  929MPD2     C13588   0.242   3.753  11.146 -0.0344 -0.2420 -0.2267
  929MPD2    C113589   0.184   3.648  11.080 -0.6997  0.5321  0.3650
  929MPD2    C213590   0.149   3.673  10.948 -0.7135 -0.1520  0.1920
  929MPD2    C313591   0.165   3.793  10.891  0.3786 -0.1022  0.3229
  929MPD2    C413592   0.214   3.900  10.962 -0.0452 -0.6906  0.6593
  929MPD2    C513593   0.259   3.879  11.088 -0.1489 -0.0755  0.6177
  929MPD2     H13594   0.116   3.588  10.889 -1.6966  1.3068 -1.3676
  929MPD2    H113595   0.241   3.995  10.917  0.3901 -0.8882  0.5026
  929MPD2    H213596   0.265   3.748  11.252  1.5842  0.3641 -0.5579
  929MPD2    H313597   0.312   3.957  11.141  0.1653 -0.8848  1.4794
  929MPD2     N13598   0.143   3.821  10.749  0.0446 -0.2128 -0.5291
  929MPD2    H513599   0.154   3.917  10.720  1.5333 -0.2566 -0.1266
  929MPD2    N113600   0.153   3.532  11.148  0.5971  0.8107 -0.1196
  929MPD2    H713601   0.198   3.519  11.238 -0.8254 -0.1987  0.4485
  930MPD2     C13602   1.823   1.459  14.100  0.0685  0.3330 -0.5712
  930MPD2    C113603   1.734   1.500  14.005  0.4053  0.0454  0.6236
  930MPD2    C213604   1.668   1.407  13.929  0.5716 -0.2289 -0.0937
  930MPD2    C313605   1.692   1.277  13.954  0.7637 -0.5789  0.2589
  930MPD2    C413606   1.774   1.232  14.049  0.0494 -0.0128  0.4223
  930MPD2    C513607   1.840   1.326  14.126  0.5115  0.0377  0.4407
  930MPD2     H13608   1.610   1.445  13.846  0.1563  1.2417  0.8689
  930MPD2    H113609   1.796   1.127  14.067 -0.6727 -0.4191 -1.1080
  930MPD2    H213610   1.872   1.540  14.151 -2.0009  1.9250 -1.0994
  930MPD2    H313611   1.915   1.282  14.190 -0.3797 -0.8244  0.8961
  930MPD2     N13612   1.623   1.179  13.875 -0.2597 -0.6411 -0.3657
  930MPD2    H513613   1.659   1.085  13.869 -0.5920 -0.6872 -1.7419
  930MPD2    N113614   1.734   1.641  13.986 -0.2620  0.3917  1.0645
  930MPD2    H713615   1.799   1.695  14.043  0.4994  0.5009  0.0791
  931MPD2     C13616   1.554   0.878   1.148  0.3110 -0.0407 -0.0030
  931MPD2    C113617   1.424   0.890   1.157 -0.6909  0.3141 -0.8685
  931MPD2    C213618   1.360   0.830   1.267  0.6691  0.0467 -0.0585
  931MPD2    C313619   1.434   0.758   1.358 -0.1570  0.0873  0.1566
  931MPD2    C413620   1.572   0.750   1.345 -0.1792 -0.8455 -0.0897
  931MPD2    C513621   1.632   0.812   1.241 -0.4229 -0.5663 -0.5200
  931MPD2     H13622   1.252   0.833   1.272  0.5026 -1.3093 -2.7317
  931MPD2    H113623   1.640   0.704   1.416 -1.1720  1.2980  2.2364
  931MPD2    H213624   1.607   0.918   1.062  0.6520  1.9762  1.1541
  931MPD2    H313625   1.737   0.787   1.231 -0.4434 -0.3041 -1.4083
  931MPD2     N13626   1.369   0.689   1.458  0.5538  0.1014 -0.1825
  931MPD2    H513627   1.424   0.639   1.526 -0.1779 -0.6570 -0.1468
  931MPD2    N113628   1.349   0.968   1.060 -0.4568  0.2067 -0.2003
  931MPD2    H713629   1.408   0.998   0.983  0.0355  1.8768  0.8209
  932MPD2     C13630   3.427   4.568  10.498  0.2378  0.1631 -0.0178
  932MPD2    C113631   3.535   4.634  10.557 -0.4918  0.3194  0.5146
  932MPD2    C213632   3.626   4.568  10.646 -0.8383 -0.0398  0.6271
  932MPD2    C313633   3.614   4.434  10.664  0.3221  0.1258 -0.2330
  932MPD2    C413634   3.510   4.371  10.606  0.2000 -0.5696  0.3142
  932MPD2    C513635   3.414   4.436  10.532  0.0850  0.1258 -0.6778
  932MPD2     H13636   3.707   4.622  10.694 -0.7019  1.2546 -1.0641
  932MPD2    H113637   3.508   4.263  10.605  0.0109 -0.5664  0.2384
  932MPD2    H213638   3.359   4.616  10.429  0.7733  2.3422  0.9576
  932MPD2    H313639   3.323   4.385  10.503  0.2988 -0.6404  0.0036
  932MPD2     N13640   3.715   4.364  10.731 -0.1833  0.0226 -0.5914
  932MPD2    H513641   3.797   4.422  10.746 -0.5466 -0.3478  2.7583
  932MPD2    N113642   3.560   0.044  10.521 -1.1928 -0.4232  0.2612
  932MPD2    H713643   3.629   0.093  10.578  0.0371 -0.6235 -1.0367
  933MPD2     C13644   4.297   4.550   1.941 -0.1274  0.5991 -0.5659
  933MPD2    C113645   4.323   4.521   1.808 -0.0292  0.7248 -0.3378
  933MPD2    C213646   4.235   4.580   1.710  0.8619 -0.1384  0.0201
  933MPD2    C313647   4.128   4.659   1.746 -0.0837  0.6190  0.2005
  933MPD2    C413648   4.107   4.676   1.881  0.4192  0.2501  0.3249
  933MPD2    C513649   4.184   4.621   1.976 -0.1223  0.9463 -0.0127
  933MPD2     H13650   4.267   4.564   1.608 -0.3764  1.2336 -0.5700
  933MPD2    H113651   4.023   0.011   1.918 -0.8234  1.1006 -3.8323
  933MPD2    H213652   4.355   4.496   2.015 -0.3736  0.0901 -0.7427
  933MPD2    H313653   4.158   4.633   2.080  2.5149 -0.1986  0.7957
  933MPD2     N13654   4.037   4.713   1.650 -0.3843  0.2906 -0.7456
  933MPD2    H513655   4.070   4.708   1.554  1.4371 -0.7467 -0.0827
  933MPD2    N113656   4.437   4.441   1.779  0.1242  0.4310 -0.0654
  933MPD2    H713657   4.500   4.418   1.855 -0.8692 -1.6563  0.1263
  934MPD2     C13658   4.214   1.092   2.212 -0.0125  0.3738 -0.7477
  934MPD2    C113659   4.320   1.011   2.182 -0.1557 -0.6472  0.4403
  934MPD2    C213660   4.369   1.005   2.052 -0.5566  0.0529  0.1947
  934MPD2    C313661   4.322   1.099   1.959 -0.8572  0.3887 -0.3791
  934MPD2    C413662   4.201   1.164   1.982 -0.5986  0.6032  0.5989
  934MPD2    C513663   4.149   1.155   2.111 -0.2688 -0.1384 -0.6064
  934MPD2     H13664   4.440   0.930   2.017 -0.3852 -0.1594  1.0143
  934MPD2    H113665   4.146   1.215   1.904 -0.4614 -2.0510 -1.2236
  934MPD2    H213666   4.174   1.107   2.312 -0.1891  1.1093 -0.9316
  934MPD2    H313667   4.062   1.213   2.139  0.6967  1.4684 -0.9746
  934MPD2     N13668   4.363   1.091   1.826 -0.1831 -0.2402  0.0114
  934MPD2    H513669   4.310   1.154   1.766  0.4321  0.9425  0.7183
  934MPD2    N113670   4.391   0.940   2.284  0.8010 -0.1728  0.0149
  934MPD2    H713671   4.479   0.893   2.267  1.4794  0.6668  1.2040
  935MPD2     C13672   0.431   0.745   1.256  0.7194  0.3574 -0.0725
  935MPD2    C113673   0.336   0.795   1.166 -0.5732  0.2888  0.5960
  935MPD2    C213674   0.228   0.856   1.223 -0.1816 -0.5943 -0.9022
  935MPD2    C313675   0.205   0.874   1.360 -0.0037  0.3393 -0.0590
  935MPD2    C413676   0.294   0.815   1.448 -0.8038  0.1392 -0.0531
  935MPD2    C513677   0.401   0.750   1.392  0.3270  0.1848 -0.5870
  935MPD2     H13678   0.157   0.898   1.153  0.1282  2.3380  0.5693
  935MPD2    H113679   0.291   0.811   1.556 -0.2097  2.0550  0.0335
  935MPD2    H213680   0.529   0.713   1.224  1.8046  0.6344  2.9446
  935MPD2    H313681   0.469   0.716   1.469  1.9099  0.9208 -1.6569
  935MPD2     N13682   0.088   0.936   1.417  0.4168  0.5757 -0.3569
  935MPD2    H513683   0.092   0.933   1.519  1.5387 -1.5604 -0.4665
  935MPD2    N113684   0.355   0.789   1.019 -0.0166  0.2307  0.1948
  935MPD2    H713685   0.276   0.823   0.966 -0.3166 -1.3417 -0.3637
  936MPD2     C13686   3.720   2.941  12.217 -0.1057 -0.9603  0.7050
  936MPD2    C113687   3.695   2.982  12.350  0.0199 -0.0735 -0.1679
  936MPD2    C213688   3.727   3.111  12.402  0.2452  0.8965 -0.5833
  936MPD2    C313689   3.784   3.208  12.320 -0.3434  0.1044 -0.7286
  936MPD2    C413690   3.800   3.167  12.186 -0.2291 -0.3294 -0.9149
  936MPD2    C513691   3.770   3.042  12.140  0.0430 -0.0983  0.6499
  936MPD2     H13692   3.718   3.130  12.508  0.0800 -1.6553 -0.1212
  936MPD2    H113693   3.822   3.240  12.108  1.0555 -0.3518 -0.5872
  936MPD2    H213694   3.706   2.843  12.175 -0.6473 -0.1996 -0.8880
  936MPD2    H313695   3.770   3.028  12.032  0.9673 -2.5886  0.9779
  936MPD2     N13696   3.829   3.336  12.363 -0.2207 -0.2569  0.2686
  936MPD2    H513697   3.877   3.400  12.300  1.0863  0.9188  2.4370
  936MPD2    N113698   3.644   2.888  12.451 -0.1325  0.7353  0.3207
  936MPD2    H713699   3.669   2.911  12.547  2.4033 -1.8000  0.2816
  937MPD2     C13700   1.978   4.465  11.720 -0.1400 -0.2793  0.5308
  937MPD2    C113701   2.072   4.563  11.736 -0.5826 -0.8385 -0.2716
  937MPD2    C213702   2.170   4.574  11.637 -0.6642  0.1563  0.4515
  937MPD2    C313703   2.177   4.488  11.532  0.1732  0.3826 -0.0556
  937MPD2    C413704   2.084   4.386  11.522  0.6935 -0.0948 -0.1846
  937MPD2    C513705   1.985   4.378  11.619 -0.7835 -0.3612 -0.4210
  937MPD2     H13706   2.244   4.653  11.642 -2.1402  1.6475 -1.2488
  937MPD2    H113707   2.082   4.323  11.434 -1.7136 -0.0768 -0.1399
  937MPD2    H213708   1.882   4.463  11.771 -0.8089 -5.9921 -0.9354
  937MPD2    H313709   1.901   4.310  11.608  0.3301 -1.9508  0.8516
  937MPD2     N13710   2.286   4.500  11.436  0.2486  0.1255  0.3858
  937MPD2    H513711   2.352   4.576  11.449 -0.7642  1.0683  0.0147
  937MPD2    N113712   2.052   4.674  11.823  0.7005 -0.5113 -0.5813
  937MPD2    H713713   2.107   0.036  11.810  5.3052 -2.9843  2.9540
  938MPD2     C13714   4.027   0.766   0.488 -0.2422 -0.0786 -1.0744
  938MPD2    C113715   4.151   0.766   0.552  0.4977  1.0263 -0.3567
  938MPD2    C213716   4.151   0.751   0.683  0.0811  0.0399 -0.0121
  938MPD2    C313717   4.034   0.745   0.761  0.0072 -0.5379  0.0774
  938MPD2    C413718   3.912   0.763   0.698  0.0164  0.0303  0.9501
  938MPD2    C513719   3.908   0.754   0.561  0.0799 -0.5805  0.5146
  938MPD2     H13720   4.254   0.753   0.717 -0.2341 -0.7212  0.9830
  938MPD2    H113721   3.819   0.764   0.755 -0.2314 -1.1093  0.5641
  938MPD2    H213722   4.019   0.777   0.380 -1.5690 -1.7844 -1.1566
  938MPD2    H313723   3.812   0.761   0.511 -0.6027 -2.6036  1.5762
  938MPD2     N13724   4.040   0.744   0.902  0.0263 -0.4533  0.5273
  938MPD2    H513725   3.950   0.756   0.948 -1.6634  0.1277 -2.9802
  938MPD2    N113726   4.272   0.794   0.485  0.0699  0.0196  0.1729
  938MPD2    H713727   4.358   0.809   0.538 -0.3817  2.2593  0.3060
  939MPD2     C13728   0.537   1.984   1.315  0.2582 -0.4959  0.7730
  939MPD2    C113729   0.590   2.096   1.243  0.3575 -0.1983  1.2462
  939MPD2    C213730   0.634   2.073   1.117 -0.1027 -0.4455 -0.0055
  939MPD2    C313731   0.638   1.941   1.070 -0.0394  0.0495  0.1501
  939MPD2    C413732   0.586   1.838   1.139 -0.9171 -0.2176  0.8038
  939MPD2    C513733   0.534   1.853   1.265  0.4320  0.3796 -0.0689
  939MPD2     H13734   0.674   2.157   1.060 -3.1815  3.1387  3.1332
  939MPD2    H113735   0.592   1.742   1.089  2.8954 -0.9841  2.7330
  939MPD2    H213736   0.505   1.992   1.418 -0.6629  0.5555  0.3972
  939MPD2    H313737   0.497   1.768   1.321  0.0909  0.1980 -0.5722
  939MPD2     N13738   0.705   1.933   0.950  0.2411 -0.1932 -0.0433
  939MPD2    H513739   0.735   2.025   0.919  0.4207 -0.8211 -1.7750
  939MPD2    N113740   0.598   2.230   1.302  0.4638 -0.4094  0.1853
  939MPD2    H713741   0.553   2.239   1.393  3.9776  0.0198  1.8806
  940MPD2     C13742   4.448   3.061  13.150  0.2035  0.2388 -0.0551
  940MPD2    C113743   4.573   3.064  13.205  0.6608 -1.1519  0.5815
  940MPD2    C213744   4.679   3.010  13.129  0.0279 -0.3733  0.3602
  940MPD2    C313745   4.651   2.949  13.007  0.2228  0.4246 -0.7711
  940MPD2    C413746   4.525   2.950  12.959  0.4121  0.0907  0.4299
  940MPD2    C513747   4.420   3.004  13.030  0.4365 -0.9016  0.1826
  940MPD2     H13748   0.055   3.011  13.173  1.3733  1.4434 -2.6969
  940MPD2    H113749   4.506   2.896  12.867  1.1535  0.7939 -0.1298
  940MPD2    H213750   4.357   3.080  13.207  0.6982 -1.6771  1.3626
  940MPD2    H313751   4.317   2.986  12.999  1.1467 -1.9261 -1.5445
  940MPD2     N13752   0.025   2.865  12.936 -0.8896  0.5782 -0.0418
  940MPD2    H513753   0.000   2.819  12.850  1.8573  0.1822 -0.6338
  940MPD2    N113754   4.590   3.101  13.342 -0.7169  0.1636 -0.4390
  940MPD2    H713755   4.685   3.114  13.372 -1.3517  1.7270  0.8618
  941MPD2     C13756   4.332   1.323   8.909  0.1594 -0.1767  0.4062
  941MPD2    C113757   4.343   1.443   8.982 -0.0899 -0.4776 -0.2399
  941MPD2    C213758   4.416   1.440   9.097 -0.8539  0.4633  0.0350
  941MPD2    C313759   4.471   1.325   9.149 -0.0602 -0.3817 -0.1743
  941MPD2    C413760   4.457   1.209   9.075 -0.9419 -0.2720  0.1191
  941MPD2    C513761   4.389   1.208   8.957 -0.6178  0.0713  0.4145
  941MPD2     H13762   4.425   1.532   9.152  2.4820  1.4589 -2.2059
  941MPD2    H113763   4.512   1.124   9.115 -1.0903 -0.4878 -0.1307
  941MPD2    H213764   4.284   1.318   8.812  0.1867 -2.9869  0.5299
  941MPD2    H313765   4.380   1.118   8.897 -0.5241  1.1341 -1.1790
  941MPD2     N13766   4.541   1.320   9.265  0.4455 -0.1762  0.2564
  941MPD2    H513767   4.596   1.237   9.285 -0.3475  0.0586  3.5207
  941MPD2    N113768   4.281   1.563   8.947 -0.0592 -0.1532  0.2874
  941MPD2    H713769   4.322   1.642   8.997  0.6831 -0.4163  0.0974
  942MPD2     C13770   3.554   3.269   9.856 -0.6338  0.3564 -0.5268
  942MPD2    C113771   3.546   3.272   9.721  0.2515  0.2631 -0.4434
  942MPD2    C213772   3.645   3.208   9.641 -0.1128 -0.5283 -0.4684
  942MPD2    C313773   3.736   3.126   9.704  0.7980 -0.4342 -0.4906
  942MPD2    C413774   3.737   3.122   9.850  0.4159  0.8399  0.7897
  942MPD2    C513775   3.649   3.195   9.917  0.4526  0.1428  0.2739
  942MPD2     H13776   3.636   3.222   9.534 -0.6146  3.2786  0.0627
  942MPD2    H113777   3.799   3.053   9.904  2.4077  1.1013 -1.1760
  942MPD2    H213778   3.485   3.312   9.927  0.1437 -1.2666  1.2178
  942MPD2    H313779   3.650   3.189  10.025  0.7743  1.8472  0.3744
  942MPD2     N13780   3.832   3.049   9.635  0.6242  0.4152 -0.3805
  942MPD2    H513781   3.900   2.994   9.688  0.4838 -1.5032 -2.2000
  942MPD2    N113782   3.446   3.339   9.651 -0.1213 -0.1410  0.0296
  942MPD2    H713783   3.453   3.341   9.550  0.4306 -2.0305  0.0126
  943MPD2     C13784   2.076   0.606   9.442 -0.6107  0.4506  0.1598
  943MPD2    C113785   2.160   0.666   9.532  0.2815 -0.1427  0.0298
  943MPD2    C213786   2.169   0.616   9.661  0.0518  0.1321  0.2450
  943MPD2    C313787   2.086   0.518   9.705 -0.0222  0.5863  0.4862
  943MPD2    C413788   2.006   0.454   9.619  0.1895 -0.0418 -0.1382
  943MPD2    C513789   2.006   0.503   9.490 -0.0667 -0.8953 -0.4680
  943MPD2     H13790   2.223   0.683   9.726  0.7130 -2.2512  2.1766
  943MPD2    H113791   1.957   0.361   9.645  0.2732 -0.2606 -0.7498
  943MPD2    H213792   2.066   0.645   9.341 -1.5900  0.1321  0.1305
  943MPD2    H313793   1.949   0.448   9.416 -0.1810  1.1418 -1.8831
  943MPD2     N13794   2.073   0.483   9.843  0.2669  0.5305  0.7778
  943MPD2    H513795   1.994   0.424   9.866 -0.7977  1.4597 -0.5066
  943MPD2    N113796   2.239   0.777   9.483  0.5296 -0.1876  0.5517
  943MPD2    H713797   2.219   0.822   9.394 -2.0692 -1.8740  0.2917
  944MPD2     C13798   2.784   1.292  10.827 -0.1341 -0.7874  0.0390
  944MPD2    C113799   2.787   1.158  10.824  0.8464 -0.3588  0.1367
  944MPD2    C213800   2.732   1.103  10.935 -0.4934 -0.8948 -0.2555
  944MPD2    C313801   2.698   1.177  11.045 -0.2604 -0.1645  0.1539
  944MPD2    C413802   2.714   1.310  11.044  0.2623  0.4572  0.1761
  944MPD2    C513803   2.748   1.364  10.932  0.1769  0.5761 -0.4861
  944MPD2     H13804   2.708   0.998  10.943 -1.7334 -0.6911 -1.3768
  944MPD2    H113805   2.701   1.375  11.130  0.2876  0.3059  0.2946
  944MPD2    H213806   2.824   1.346  10.742  0.1381 -3.5335 -1.5740
  944MPD2    H313807   2.755   1.472  10.928  1.3506  0.4780 -1.0619
  944MPD2     N13808   2.647   1.111  11.164  0.0047  0.1851  0.3707
  944MPD2    H513809   2.650   1.010  11.160 -2.4174  0.0982  0.5020
  944MPD2    N113810   2.804   1.088  10.699  0.0187  0.1422 -0.1253
  944MPD2    H713811   2.825   1.147  10.619 -0.2857  0.4450  0.0160
    1TCq1    O113812   4.351   1.947  13.408 -0.5539 -0.1261 -0.4230
    1TCq1    C113813   4.251   1.851  13.424 -0.3650 -0.3593 -0.6094
    1TCq1    O213814   4.159   1.837  13.348  0.3089 -0.3364 -0.6800
    1TCq1    C213815   4.295   1.741  13.514 -0.9157  0.6400 -0.6791
    1TCq1    C313816   4.220   1.625  13.506 -0.1669  0.4077  0.2607
    1TCq1    C413817   4.213   1.541  13.613 -0.3328 -0.1086  0.0711
    1TCq1    C513818   4.274   1.581  13.728 -0.1976 -0.3179  0.3934
    1TCq1    C613819   4.338   1.702  13.738  0.2748 -0.9801 -0.0435
    1TCq1    C713820   4.354   1.782  13.633  0.2877 -0.7711  0.1537
    1TCq1    C813821   4.429   1.717  13.846 -0.0884 -0.5853  0.4934
    1TCq1    O413822   4.455   1.609  13.898 -0.2572 -0.0046  0.0552
    1TCq1    C913823   4.130   1.427  13.612 -0.0137  0.1053 -0.1566
    1TCq1    O513824   4.156   1.343  13.700  0.1103 -0.3044  0.0941
    1TCq1    O613825   4.036   1.419  13.528  0.1760 -0.7689 -0.1502
    1TCq1    H113826   4.435   1.929  13.456 -2.0861 -0.4493  2.1060
    1TCq1    H213827   4.161   1.606  13.417 -1.5103 -2.1345  1.7029
    1TCq1    H313828   4.258   1.514  13.812  0.3776 -0.3364  0.4920
    1TCq1    H413829   4.399   1.881  13.642 -0.1240 -0.6883  1.3744
    2MPD2     C13830   0.086   1.950  14.104 -0.4962 -0.4826  0.1133
    2MPD2    C113831   4.714   2.042  14.059  0.1873 -0.5984  0.4401
    2MPD2    C213832   4.605   2.004  13.984  0.3327  0.4221 -0.6920
    2MPD2    C313833   4.581   1.873  13.953  1.1508 -0.3173  0.6219
    2MPD2    C413834   4.672   1.777  14.006 -0.6894 -0.1456  0.1658
    2MPD2    C513835   0.059   1.822  14.075 -0.6121 -0.3809 -0.4140
    2MPD2     H13836   4.530   2.076  13.953  0.0394  0.6377  0.5363
    2MPD2    H113837   4.655   1.671  13.991 -3.1429  0.5645 -2.0162
    2MPD2    H213838   0.180   1.970  14.154 -0.8752  1.0657  0.1999
    2MPD2    H313839   0.138   1.755  14.108  0.7422  1.3309 -0.2114
    2MPD2     N13840   4.465   1.840  13.876 -0.2339  0.1897  0.5982
    2MPD2    H513841   4.419   1.916  13.827 -1.2560 -0.4074  0.6356
    2MPD2    N113842   0.023   2.173  14.087  0.1400 -0.3613 -0.0632
    2MPD2    H713843   0.105   2.188  14.146  0.2262 -0.1303 -0.2431
    3TMC2    C113844   4.695   2.403  14.116  0.3794  0.5345 -0.4167
    3TMC2    C213845   0.018   2.395  14.250 -0.9490 -0.0119  0.4152
    3TMC2    C313846   0.098   2.501  14.294  0.2300  0.2248 -0.3001
    3TMC2    C413847   0.007   2.509  14.035  0.4743  0.7506  0.1718
    3TMC2    C513848   0.096   2.597  14.082  0.2411 -0.6328 -0.4030
    3TMC2    C613849   0.143   2.600  14.216 -0.1408 -0.0545  0.0378
    3TMC2     C13850   4.663   2.281  14.057  0.2045  0.3194 -0.2007
    3TMC2     O13851   4.566   2.286  13.987  0.0664 -0.1497 -0.1587
    3TMC2     H13852   0.001   2.304  14.306 -0.0939  0.8339  2.0471
    3TMC2    H113853   4.682   2.513  13.938 -2.2749  0.4688  1.5383
    3TMC2    H213854   0.208   2.674  14.260 -0.4291  0.1927  0.0459
    3TMC2    C713855   0.148   2.706  13.996  0.0403 -0.1581  0.1990
    3TMC2    C813856   0.150   2.492  14.426 -0.3144 -0.3057  0.4420
    3TMC2    O113857   0.217   2.789  14.050 -0.4817 -0.3286  0.1990
    3TMC2    O213858   0.243   2.556  14.466  0.0557  0.2006  0.0946
    3TMC2    O513859   0.055   2.434  14.511  0.1004  0.4466 -0.3898
    3TMC2    H513860   4.695   2.399  14.472  0.4411  0.9946 -1.6205
    4MPD2     C13861   0.091   3.895  13.469  0.1963  1.1613  0.0012
    4MPD2    C113862   0.052   3.760  13.460 -0.3082  0.2187  0.6067
    4MPD2    C213863   0.107   3.678  13.556  0.1435  0.1157 -0.3107
    4MPD2    C313864   0.213   3.720  13.637  0.0701 -0.0669 -0.0361
    4MPD2    C413865   0.253   3.851  13.636  0.5637  0.8167  0.4556
    4MPD2    C513866   0.192   3.941  13.556  0.0994  0.2723 -0.1466
    4MPD2     H13867   0.087   3.572  13.567  1.0586  0.0022  0.2392
    4MPD2    H113868   0.325   3.890  13.707  1.2207  0.5425 -0.0600
    4MPD2    H213869   0.057   3.965  13.394 -2.6008  0.1326  0.2857
    4MPD2    H313870   0.225   4.044  13.550 -1.1142  0.5941 -1.2356
    4MPD2     N13871   0.275   3.619  13.715 -0.5465 -0.3587  1.3087
    4MPD2    H513872   0.225   3.531  13.710 -0.9898 -0.0826  0.8246
    4MPD2    N113873   4.687   3.718  13.352 -0.9707 -0.5356 -0.1866
    4MPD2    H713874   4.660   3.794  13.290  1.7653 -1.0684 -2.0600
    5TCq2    C113875   0.391   3.635  13.792  0.1068  0.0812 -0.2346
    5TCq2    O213876   0.459   3.732  13.812  0.3553  0.8180  0.2951
    5TCq2    C213877   0.453   3.502  13.836  0.0657 -0.1015  0.0405
    5TCq2    C313878   0.564   3.505  13.919  0.4236  0.1027 -0.5248
    5TCq2    C413879   0.610   3.385  13.964 -0.0944  0.4762 -0.2730
    5TCq2    C513880   0.557   3.267  13.930 -1.2523  0.2243  0.2551
    5TCq2    C613881   0.448   3.266  13.845 -0.5893 -0.5423 -0.5994
    5TCq2    C713882   0.393   3.384  13.801  0.8185  0.0901 -0.4976
    5TCq2    C813883   0.378   3.139  13.836 -0.7894 -0.4202  0.4627
    5TCq2    O413884   0.402   3.050  13.926  0.4462  0.5915  0.2206
    5TCq2    C913885   0.723   3.384  14.053  0.0999  0.1528  0.2250
    5TCq2    O513886   0.736   3.277  14.122 -0.5548 -0.1018 -0.3005
    5TCq2    O613887   0.764   3.495  14.100 -0.7698  0.4064  0.0759
    5TCq2    H213888   0.612   3.599  13.942  2.8118 -0.8155 -1.8325
    5TCq2    H313889   0.601   3.173  13.962 -0.5937  1.2410  2.3782
    5TCq2    H413890   0.307   3.367  13.738  1.1338 -0.7805 -0.6967
    6MPD1     C13891   1.160   4.028  12.978  0.1172  0.3691 -0.2208
    6MPD1    C113892   1.152   3.893  12.971  0.3357  0.1737  0.9349
    6MPD1    C213893   1.052   3.828  12.903  0.7033  0.6171  0.7677
    6MPD1    C313894   0.967   3.904  12.827  0.8792 -0.1510 -0.5971
    6MPD1    C413895   0.983   4.037  12.826 -0.1825 -0.6531 -0.1437
    6MPD1    C513896   1.081   4.102  12.898 -0.5355 -0.5011  0.3536
    6MPD1     H13897   1.029   3.722  12.913 -2.1158  0.9855 -1.5684
    6MPD1    H113898   0.912   4.095  12.768  0.7021 -0.4027 -0.9746
    6MPD1    H213899   1.225   4.071  13.052  0.4024 -1.3991  0.5606
    6MPD1    H313900   1.086   4.210  12.903 -1.3577 -0.3986 -0.9679
    6MPD1     N13901   0.859   3.852  12.748 -0.7206 -0.3292  0.9480
    6MPD1    H513902   0.818   3.920  12.684 -0.2479 -1.5735 -0.6759
    6MPD1    N113903   1.243   3.810  13.039  1.0254  0.0457  0.2213
    6MPD1    H613904   1.256   3.720  12.994 -2.7899  0.1667 -1.1843
    6MPD1    H713905   1.335   3.852  13.050  0.5437  0.8103  1.4720
    7MPD2     C13906   0.160   4.001  12.663 -0.2986 -0.0043 -0.2999
    7MPD2    C113907   0.172   3.869  12.658 -0.2536  0.4786 -0.1852
    7MPD2    C213908   0.069   3.791  12.716 -0.6796 -0.4186  0.2915
    7MPD2    C313909   4.683   3.849  12.779 -0.2874 -0.0627 -0.3321
    7MPD2    C413910   4.665   3.984  12.751  0.4978  0.0768  0.5777
    7MPD2    C513911   0.046   4.059  12.705  0.2894 -0.4169 -0.5014
    7MPD2     H13912   0.088   3.684  12.721  0.0454 -0.3181 -0.2760
    7MPD2    H113913   4.576   4.035  12.787 -0.5355  0.0443 -1.9651
    7MPD2    H213914   0.235   4.059  12.610 -0.3058 -0.6595 -1.0203
    7MPD2    H313915   0.028   4.165  12.689  2.6255 -0.2141 -1.7326
    7MPD2     N13916   4.593   3.768  12.850  0.5426 -0.1917  0.5541
    7MPD2    H513917   4.616   3.669  12.844  1.9826 -0.0577  3.7206
    7MPD2    N113918   0.285   3.806  12.605 -0.0968  0.3498  0.7256
    7MPD2    H713919   0.275   3.706  12.599 -0.7406  0.3894  1.1513
    8TMC3    C113920   4.449   3.691  13.005 -0.1792  0.1387 -0.6104
    8TMC3    C213921   4.505   3.694  13.136  0.6525  0.3207  0.3267
    8TMC3    C313922   4.577   3.580  13.184  0.2216 -0.4906 -0.9957
    8TMC3    C413923   4.475   3.574  12.933 -0.6091  0.3596  0.3740
    8TMC3    C513924   4.554   3.467  12.979 -0.1184 -0.1696 -0.0224
    8TMC3    C613925   4.603   3.473  13.107 -0.0459  1.0863  0.8132
    8TMC3     C13926   4.487   3.806  12.928 -0.3772 -0.2363  0.1209
    8TMC3     O13927   4.471   3.920  12.980 -0.1483  0.5041  0.0499
    8TMC3     H13928   4.503   3.779  13.203  0.1961 -0.0761  0.8186
    8TMC3    H113929   4.438   3.571  12.831  2.2764  1.3634 -0.6812
    8TMC3    H213930   4.662   3.395  13.154 -1.2072  0.0951  0.6300
    8TMC3    C713931   4.662   3.434  12.885  0.6241  0.3569 -0.6412
    8TMC3    C813932   4.651   3.593  13.312  0.3500  0.6555  0.3024
    8TMC3    O113933   4.675   3.514  12.795  0.0859 -0.2756  0.1134
    8TMC3    O213934   4.699   3.488  13.354  0.1774  0.0883 -0.1331
    9TMC3    C113935   0.718   3.699  12.628 -0.9068 -0.1645 -0.9120
    9TMC3    C213936   0.685   3.570  12.615 -0.4280  0.1466  0.0410
    9TMC3    C313937   0.568   3.538  12.560  0.3395  0.1004 -0.5289
    9TMC3    C413938   0.628   3.803  12.612 -0.5223  0.4124  0.1389
    9TMC3    C513939   0.507   3.771  12.559  0.3723  0.1898  0.3683
    9TMC3    C613940   0.481   3.639  12.525  0.3772  0.3372  0.3297
    9TMC3     C13941   0.834   3.717  12.716  0.5136 -0.6186  0.2577
    9TMC3     O13942   0.903   3.620  12.744 -1.0227 -0.0557  0.3167
    9TMC3     H13943   0.740   3.487  12.659  0.2622  0.2415 -0.6321
    9TMC3    H113944   0.647   3.908  12.628  0.8350  0.4987 -1.9708
    9TMC3    H213945   0.388   3.612  12.475  0.6620  0.5029 -0.2913
    9TMC3    C713946   0.405   3.868  12.573  0.0959  0.4747 -0.8237
    9TMC3    C813947   0.518   3.404  12.581 -0.5842  0.2921  0.6757
    9TMC3    O113948   0.432   3.987  12.556 -0.3928 -0.2032 -0.0535
    9TMC3    O213949   0.589   3.305  12.582 -0.3396 -0.0599 -0.0181
   10MPD2     C13950   0.185   3.163  12.884 -0.5922  0.2892  0.4278
   10MPD2    C113951   0.138   3.290  12.860  0.2249 -0.6710 -0.7413
   10MPD2    C213952   0.197   3.365  12.759 -0.7010 -0.7948 -0.5707
   10MPD2    C313953   0.312   3.322  12.701 -0.2877 -0.4488  0.2863
   10MPD2    C413954   0.355   3.194  12.726  0.3697  0.3532  0.2678
   10MPD2    C513955   0.289   3.119  12.813 -0.3035 -0.6697  0.4360
   10MPD2     H13956   0.165   3.468  12.743 -2.4553 -1.2256  0.1243
   10MPD2    H113957   0.444   3.158  12.677  1.2677  2.5764  0.2508
   10MPD2    H213958   0.144   3.092  12.955 -2.1288  0.3267 -0.4314
   10MPD2    H313959   0.316   3.016  12.832  3.0358 -0.1836 -1.7908
   10MPD2     N13960   0.393   3.417  12.633  0.5230  0.3850 -0.5993
   10MPD2    H513961   0.351   3.506  12.610  0.5766  0.6501  0.3442
   10MPD2    N113962   0.025   3.334  12.934  0.3916 -0.1133  1.1018
   10MPD2    H713963   0.000   3.271  13.010  1.1877 -0.8496  0.7589
   11MPD2     C13964   0.135   2.761  13.633  0.2442 -0.0579  0.4197
   11MPD2    C113965   0.147   2.796  13.763 -0.0325  0.4128 -0.2338
   11MPD2    C213966   0.199   2.915  13.791 -0.1975  0.0793 -0.3073
   11MPD2    C313967   0.237   3.003  13.691  0.0151  1.4620  0.3611
   11MPD2    C413968   0.218   2.966  13.554 -0.1137 -0.3790  0.3551
   11MPD2    C513969   0.163   2.845  13.521  0.1339  0.0335 -0.1426
   11MPD2     H13970   0.209   2.951  13.893 -0.2160 -0.2411 -0.1924
   11MPD2    H113971   0.265   3.022  13.474 -0.6826  0.7042  0.7791
   11MPD2    H213972   0.112   2.659  13.605  0.6601  0.4069 -1.6163
   11MPD2    H313973   0.158   2.810  13.419  0.4207  0.5919 -0.3467
   11MPD2     N13974   0.308   3.125  13.718 -0.4370  0.3596 -0.4286
   11MPD2    H513975   0.310   3.203  13.653  1.3724 -1.7573 -2.9241
   11MPD2    N113976   0.112   2.701  13.862  0.2695  0.1915  0.0114
   11MPD2    H713977   0.065   2.619  13.824  1.9983  0.6571 -3.1126
    1MPD1     C13978   1.932   0.234  17.130  0.2872 -0.3118  0.4734
    1MPD1    C113979   1.954   0.305  17.015 -0.1949  0.0714 -0.7543
    1MPD1    C213980   2.063   0.281  16.936  0.3120  0.4610 -1.2120
    1MPD1    C313981   2.159   0.188  16.977  0.2360  0.0686 -0.0298
    1MPD1    C413982   2.132   0.112  17.092  1.0917 -0.5397 -0.2004
    1MPD1    C513983   2.021   0.141  17.164 -0.4204  0.1597  0.0356
    1MPD1     H13984   2.081   0.325  16.839  3.3463  2.8980  0.4743
    1MPD1    H113985   2.196   0.029  17.121 -2.4165 -2.7467  1.3445
    1MPD1    H213986   1.853   0.255  17.202  0.6532  1.0654  0.4645
    1MPD1    H313987   2.006   0.080  17.253 -0.2633 -3.0801 -2.1661
    1MPD1     N13988   2.283   0.175  16.912  0.4304  0.0174  0.6408
    1MPD1    H513989   2.347   0.100  16.934  1.1710  0.3331 -0.4544
    1MPD1    N113990   1.868   0.422  16.989  0.1744 -0.4889 -0.3218
    1MPD1    H613991   1.769   0.429  17.011  0.3086 -1.0932  0.4731
    1MPD1    H713992   1.876   0.460  16.895 -1.3743  1.7685  0.4593
    2MPD1     C13993   2.901   4.439  17.249 -0.2190 -0.2068 -0.0207
    2MPD1    C113994   2.800   4.507  17.315  0.6212 -0.3598  0.0857
    2MPD1    C213995   2.734   4.604  17.245  0.3858  0.5923 -0.7160
    2MPD1    C313996   2.782   4.645  17.117  0.7736 -0.5251  0.3724
    2MPD1    C413997   2.892   4.590  17.070 -0.2585 -0.3792 -0.5313
    2MPD1    C513998   2.956   4.489  17.138  0.5170 -0.5356 -0.4062
    2MPD1     H13999   2.647   4.655  17.284 -0.3420  1.2264 -3.1659
    2MPD1    H114000   2.938   4.614  16.975 -0.2082 -2.1657 -0.9725
    2MPD1    H214001   2.957   4.356  17.289 -2.0896 -1.9621 -1.0095
    2MPD1    H314002   3.034   4.432  17.089  0.5662 -0.5771 -0.2782
    2MPD1     N14003   2.714   0.024  17.042 -0.1965  0.6733 -0.7739
    2MPD1    H514004   2.623   0.055  17.073 -1.0733  0.1964 -2.9109
    2MPD1    N114005   2.749   4.449  17.429  0.7185 -0.0142 -0.0460
    2MPD1    H614006   2.691   4.505  17.493  2.2965 -0.1410  1.4995
    2MPD1    H714007   2.809   4.386  17.482  0.9817 -1.0631 -1.6014
    3TMC3    C114008   2.689   0.186  16.869 -0.0249  0.4659  0.3126
    3TMC3    C214009   2.742   0.241  16.754  0.3408  0.1492  0.2833
    3TMC3    C314010   2.659   0.280  16.654  0.2017  0.3820 -0.8187
    3TMC3    C414011   2.553   0.175  16.889 -0.6819  0.2310 -0.0843
    3TMC3    C514012   2.472   0.228  16.795  0.2504  0.5830 -0.0962
    3TMC3    C614013   2.525   0.281  16.674 -0.1223  0.1865 -0.4427
    3TMC3     C14014   2.778   0.097  16.945 -0.2055  0.8791 -0.2938
    3TMC3     O14015   2.899   0.106  16.911 -0.3891  0.0119 -0.1610
    3TMC3     H14016   2.850   0.244  16.742  0.0740 -0.1166 -2.1653
    3TMC3    H114017   2.506   0.158  16.986  0.3120  0.4409  0.4381
    3TMC3    H214018   2.452   0.323  16.605 -0.5727 -2.6361 -1.6843
    3TMC3    C714019   2.331   0.259  16.815  0.4708 -0.3910  0.3327
    3TMC3    C814020   2.705   0.319  16.518  0.3439  0.0465  0.2290
    3TMC3    O114021   2.296   0.362  16.762 -1.0572  0.2637 -0.1148
    3TMC3    O214022   2.616   0.309  16.437 -0.2344 -0.5539 -0.0049
    4MPD1     C14023   3.063   0.427  16.165 -1.0028 -0.0929  0.0219
    4MPD1    C114024   3.123   0.360  16.263  0.8803  0.3447  0.0207
    4MPD1    C214025   3.046   0.320  16.376  0.4477 -0.1099 -0.3263
    4MPD1    C314026   2.904   0.336  16.380  0.1119  0.4939 -0.3395
    4MPD1    C414027   2.848   0.401  16.275 -1.0129  1.2006  0.2165
    4MPD1    C514028   2.927   0.441  16.166  0.2369 -0.4391  0.0024
    4MPD1     H14029   3.092   0.265  16.457 -0.1408  1.9168  1.3654
    4MPD1    H114030   2.741   0.415  16.274 -0.8071  2.7684 -0.5171
    4MPD1    H214031   3.117   0.479  16.086  0.8199  0.8024  1.8753
    4MPD1    H314032   2.882   0.494  16.083 -1.5479 -2.1998 -0.1552
    4MPD1     N14033   2.838   0.308  16.502  0.2385 -0.0438 -0.1972
    4MPD1    H514034   2.895   0.281  16.582 -0.5182  0.2656  0.4462
    4MPD1    N114035   3.253   0.309  16.255  0.6512  0.4250  0.1388
    4MPD1    H614036   3.307   0.375  16.199 -1.5313 -0.1187 -2.5698
    4MPD1    H714037   3.292   0.288  16.347  1.0889  0.2904 -0.0761
    1TCq1    O114038   2.949   4.116  11.631  0.1088 -0.3128 -0.2875
    1TCq1    C114039   2.997   3.993  11.579  0.0015 -0.1403  0.2136
    1TCq1    O214040   2.932   3.926  11.501 -0.0914 -0.3340  0.1639
    1TCq1    C214041   3.145   4.004  11.574 -0.2126 -0.5363 -0.2530
    1TCq1    C314042   3.201   3.967  11.452 -0.4257  0.4093  0.4582
    1TCq1    C414043   3.333   3.990  11.449  0.3250 -0.3581 -0.4458
    1TCq1    C514044   3.406   4.018  11.563  0.0171 -0.5219 -0.1060
    1TCq1    C614045   3.348   4.058  11.679  0.0020 -0.2333 -0.3542
    1TCq1    C714046   3.213   4.060  11.683 -0.3597 -0.0550  0.6086
    1TCq1    C814047   3.421   4.126  11.787  0.2413 -0.2912 -0.1066
    1TCq1    O414048   3.355   4.166  11.882  0.0681  0.2812 -0.2958
    1TCq1    C914049   3.414   3.916  11.352 -0.2547  0.0569 -0.5797
    1TCq1    O514050   3.368   3.894  11.235  0.2419  0.4301  0.2760
    1TCq1    O614051   3.535   3.897  11.381  0.0060 -0.1427 -0.4140
    1TCq1    H114052   3.008   4.174  11.682 -1.5894 -0.7970  2.2378
    1TCq1    H214053   3.161   3.886  11.393  1.8511  0.2056 -0.7947
    1TCq1    H314054   3.514   4.012  11.553 -0.1859 -1.9922 -1.3365
    1TCq1    H414055   3.166   4.105  11.770 -0.9548 -0.2233  0.3728
    2MPD1     C14056   3.850   4.307  11.986  0.2898  0.4472  0.0390
    2MPD1    C114057   3.878   4.273  11.857 -0.4560  0.0001  0.1442
    2MPD1    C214058   3.775   4.218  11.787 -0.5155  0.0657  0.1843
    2MPD1    C314059   3.646   4.223  11.835 -0.8740 -0.1648  0.2638
    2MPD1    C414060   3.618   4.262  11.966 -0.3755 -0.5896  0.0908
    2MPD1    C514061   3.724   4.301  12.043  0.0574  0.1768  0.7963
    2MPD1     H14062   3.789   4.185  11.685  0.2218 -1.3574  0.7485
    2MPD1    H114063   3.525   4.254  12.019 -1.9427  1.3218 -2.3578
    2MPD1    H214064   3.930   4.344  12.050 -0.6344  1.3735  0.6640
    2MPD1    H314065   3.713   4.336  12.145 -0.2347  1.4851  0.3161
    2MPD1     N14066   3.545   4.174  11.750 -0.0632  0.1607  0.1929
    2MPD1    H514067   3.570   4.162  11.652  0.7021  0.4248  0.3561
    2MPD1    N114068   4.009   4.285  11.803 -0.1814  0.2413  0.4256
    2MPD1    H614069   4.070   4.348  11.854 -0.5839  2.5288 -1.8816
    2MPD1    H714070   4.011   4.283  11.701 -0.9825  2.2670  0.3669
    1TCq1    O114071   2.231   2.222   1.116  0.2204 -0.1445 -0.0778
    1TCq1    C114072   2.097   2.218   1.122  0.2656 -0.6747  0.4480
    1TCq1    O214073   2.028   2.121   1.092  0.4755  0.4953 -0.0131
    1TCq1    C214074   2.062   2.293   1.234 -0.2000 -0.1906 -0.3346
    1TCq1    C314075   2.093   2.431   1.248 -0.0349  0.0759  0.6652
    1TCq1    C414076   2.051   2.487   1.370  0.1714 -0.6071  0.1031
    1TCq1    C514077   1.981   2.416   1.465  0.0625  0.0133  0.4874
    1TCq1    C614078   1.969   2.281   1.451 -0.2597  0.1221  0.2287
    1TCq1    C714079   2.005   2.222   1.329  0.4321 -0.2460 -0.0003
    1TCq1    C814080   1.899   2.202   1.550 -0.3141  0.4714 -0.1732
    1TCq1    O414081   1.946   2.087   1.565  0.5280 -0.7744  0.7633
    1TCq1    C914082   2.028   2.631   1.377  0.4923 -0.2627  0.0622
    1TCq1    O514083   2.044   2.701   1.269  0.1109  0.2439 -0.2272
    1TCq1    O614084   1.950   2.672   1.466  0.0103  0.1017 -0.2632
    1TCq1    H114085   2.280   2.284   1.174  0.2750  0.1357 -0.4259
    1TCq1    H214086   2.132   2.480   1.159 -3.6882 -2.3505 -2.2493
    1TCq1    H314087   1.952   2.464   1.558 -1.7613  0.7372 -0.4613
    1TCq1    H414088   1.976   2.118   1.318  1.3710 -0.5542  0.4157
    2MPD1     C14089   1.566   2.119   1.945 -0.0912 -0.0498 -0.0007
    2MPD1    C114090   1.570   2.250   1.910 -0.2409  0.3941 -0.1670
    2MPD1    C214091   1.643   2.290   1.799 -0.2341 -0.1838  0.1133
    2MPD1    C314092   1.723   2.209   1.724 -0.7037 -0.2148 -0.1085
    2MPD1    C414093   1.715   2.076   1.760 -0.4762  0.1278  0.5407
    2MPD1    C514094   1.639   2.027   1.868  0.0409  0.2143  0.1275
    2MPD1     H14095   1.637   2.395   1.771  4.2731 -0.2370 -0.9793
    2MPD1    H114096   1.764   2.004   1.696 -1.9422 -1.4310  1.1630
    2MPD1    H214097   1.520   2.089   2.038  1.2298 -1.6343  0.1546
    2MPD1    H314098   1.632   1.920   1.885  1.2858  0.2861  1.0956
    2MPD1     N14099   1.802   2.268   1.619 -0.3202  0.0462 -0.2730
    2MPD1    H514100   1.786   2.365   1.597  1.7227  0.3256 -0.5813
    2MPD1    N114101   1.522   2.344   2.001  0.3911 -0.0090 -0.2218
    2MPD1    H614102   1.515   2.439   1.965  0.4932  0.4051  0.8446
    2MPD1    H714103   1.451   2.324   2.071  1.3508 -0.6875  0.5640
    1MPD1     C14104   0.742   4.498  12.698 -0.4680  0.1640 -0.3202
    1MPD1    C114105   0.635   4.497  12.608  0.1139 -0.5736 -0.1702
    1MPD1    C214106   0.631   4.395  12.515  0.0730  0.3197 -0.2880
    1MPD1    C314107   0.726   4.298  12.509  0.4220  0.1570  0.5095
    1MPD1    C414108   0.836   4.312  12.593  0.8560  0.2999  0.3693
    1MPD1    C514109   0.843   4.416  12.677  0.3128  0.3813  0.2897
    1MPD1     H14110   0.541   4.379  12.456 -0.0264  0.1216 -0.0849
    1MPD1    H114111   0.908   4.231  12.605  2.2196  1.3606 -0.6072
    1MPD1    H214112   0.733   4.558  12.788 -0.5046 -0.1298 -0.1264
    1MPD1    H314113   0.932   4.420  12.738 -0.5282 -3.1868  1.7235
    1MPD1     N14114   0.707   4.181  12.427  0.4665  0.3944  0.1232
    1MPD1    H514115   0.622   4.172  12.371 -0.5709  0.6844  1.6433
    1MPD1    N114116   0.524   4.581  12.628 -0.2200 -0.2590 -0.0154
    1MPD1    H614117   0.485   4.608  12.538  0.9585  0.4403 -0.3255
    1MPD1    H714118   0.551   4.662  12.684  1.2101 -1.8924  1.6836
    2MPD1     C14119   1.447   4.313   9.720 -0.6730  0.1694 -0.5742
    2MPD1    C114120   1.480   4.183   9.742  0.7955 -0.6173  0.0560
    2MPD1    C214121   1.443   4.130   9.863 -0.1723 -0.2652 -0.7185
    2MPD1    C314122   1.362   4.199   9.953  0.5063 -0.0542  0.7282
    2MPD1    C414123   1.336   4.331   9.931 -0.6632  0.1262 -0.3712
    2MPD1    C514124   1.367   4.388   9.806  0.2414  0.9000 -1.1318
    2MPD1     H14125   1.462   4.024   9.877  0.9981 -0.1239 -1.2405
    2MPD1    H114126   1.284   4.389  10.005  2.1290 -0.5422  2.0870
    2MPD1    H214127   1.468   4.378   9.636  0.3762  1.2941  0.5480
    2MPD1    H314128   1.347   4.493   9.787  0.5710  1.6301  2.4980
    2MPD1     N14129   1.325   4.153  10.085  0.1987  0.1774  0.1871
    2MPD1    H514130   1.288   4.223  10.149 -1.7167 -0.6534 -0.0236
    2MPD1    N114131   1.580   4.124   9.662  0.1825  0.6089 -0.3622
    2MPD1    H614132   1.577   4.022   9.658  0.3820  0.5621  0.6856
    2MPD1    H714133   1.564   4.163   9.569 -1.8250 -0.5271 -0.4955
    3MPD1     C14134   0.822   4.444  10.841 -0.2561  0.0757 -0.7051
    3MPD1    C114135   0.950   4.426  10.886  0.2342 -0.0995 -0.0159
    3MPD1    C214136   1.040   4.362  10.798  0.2091  0.2138 -0.1876
    3MPD1    C314137   1.000   4.309  10.677  0.6506  0.3900  0.3055
    3MPD1    C414138   0.874   4.336  10.634  0.2742 -0.5246 -0.0330
    3MPD1    C514139   0.779   4.395  10.716 -0.4299 -0.0820 -0.5905
    3MPD1     H14140   1.145   4.351  10.825  0.1750  2.9695  1.1440
    3MPD1    H114141   0.832   4.285  10.548  0.3515  1.8078 -1.4383
    3MPD1    H214142   0.754   4.492  10.910 -0.7554 -1.2450 -0.2798
    3MPD1    H314143   0.683   4.415  10.669 -0.3610  1.5869 -0.0224
    3MPD1     N14144   1.085   4.223  10.604  0.6508  0.5791 -0.3287
    3MPD1    H514145   1.172   4.206  10.654  0.1087  2.0650  1.1033
    3MPD1    N114146   0.990   4.493  11.004  0.1801  0.3424  0.0191
    3MPD1    H614147   1.068   4.446  11.049  0.4715  2.2501  1.5096
    3MPD1    H714148   0.912   4.511  11.066  0.5567  0.7392  0.3821
    4MPD2     C14149   0.609   4.123  11.723  0.0136  0.4443  0.0516
    4MPD2    C114150   0.722   4.048  11.772  0.1487 -0.2387  0.8442
    4MPD2    C214151   0.838   4.026  11.702 -0.2794 -0.0271  0.4970
    4MPD2    C314152   0.852   4.096  11.579  0.4965 -0.0755 -0.4411
    4MPD2    C414153   0.740   4.160  11.526 -0.5545  0.0416  0.7579
    4MPD2    C514154   0.622   4.171  11.595  0.4655 -0.3280 -0.1837
    4MPD2     H14155   0.917   3.967  11.745  1.1356 -0.5368 -2.7836
    4MPD2    H114156   0.752   4.214  11.433  0.7524  1.3319  1.6645
    4MPD2    H214157   0.518   4.138  11.780  0.1192  0.8766  0.1013
    4MPD2    H314158   0.533   4.210  11.547  0.6769 -0.8619 -0.9991
    4MPD2     N14159   0.978   4.104  11.508  0.2862  0.1180  0.0077
    4MPD2    H514160   0.969   4.136  11.412  2.4982 -0.5944 -0.4416
    4MPD2    N114161   0.725   3.998  11.902 -0.3379 -0.0339  0.0133
    4MPD2    H714162   0.814   3.954  11.923  0.0431  2.4009  3.5230
    5TMC3    C114163   0.667   3.936  12.112 -0.2298 -0.3492  0.4892
    5TMC3    C214164   0.668   4.012  12.224  0.6039  0.4387 -0.3751
    5TMC3    C314165   0.755   3.970  12.321 -0.3521 -0.0328 -0.2316
    5TMC3    C414166   0.749   3.829  12.094 -0.0283 -0.4132 -0.0689
    5TMC3    C514167   0.847   3.801  12.182  0.0524 -0.6481 -0.3871
    5TMC3    C614168   0.855   3.872  12.303  0.1214  0.5784 -0.1733
    5TMC3     C14169   0.629   4.011  11.998 -0.1072 -0.5934  0.1643
    5TMC3     O14170   0.513   4.050  11.988 -0.2276 -0.1516  0.0772
    5TMC3     H14171   0.610   4.103  12.212  1.8611  1.3039  0.1146
    5TMC3    H114172   0.736   3.767  12.005  2.4316 -1.3458  0.2468
    5TMC3    H214173   0.940   3.857  12.369 -0.2237  0.3376  0.2160
    5TMC3    C714174   0.965   3.811  12.097  0.3456 -0.1244 -0.0709
    5TMC3    C814175   0.794   4.079  12.411 -0.1465  0.3056 -0.0351
    5TMC3    O114176   0.948   3.808  11.976 -0.0717  0.4346 -0.3364
    5TMC3    O214177   0.902   4.061  12.468  1.0365 -0.0671 -0.2358
    6TMC3    C114178   1.290   3.999  10.269 -0.8023  0.2068  0.1146
    6TMC3    C214179   1.179   4.069  10.313 -0.0438 -0.3972  0.0258
    6TMC3    C314180   1.155   4.061  10.446 -0.1649 -0.0049  0.4782
    6TMC3    C414181   1.377   3.936  10.348 -0.0879  0.2618  0.2532
    6TMC3    C514182   1.354   3.948  10.481  0.5688 -1.2015 -0.5812
    6TMC3    C614183   1.247   4.015  10.535  0.4752 -0.3819  0.1723
    6TMC3     C14184   1.329   4.020  10.130 -1.0301 -0.0125  0.4891
    6TMC3     O14185   1.387   3.926  10.074 -0.3771 -0.6514  0.4842
    6TMC3     H14186   1.109   4.121  10.248  2.7340  3.0881 -0.1608
    6TMC3    H114187   1.465   3.884  10.311  0.4139  0.9640  0.4671
    6TMC3    H214188   1.220   4.014  10.640  0.6739 -4.2227  0.2044
    6TMC3    C714189   1.443   3.883  10.575  0.8502 -0.2595  0.2203
    6TMC3    C814190   1.053   4.157  10.487 -0.0377 -0.4026 -0.7828
    6TMC3    O114191   1.521   3.803  10.522  0.1669  0.5365 -0.1964
    6TMC3    O214192   0.967   4.193  10.404  0.0826 -0.1125  0.6292
    7MPD2     C14193   1.455   3.897  11.980 -0.2141  0.0640  0.7008
    7MPD2    C114194   1.340   3.926  11.910 -0.6869 -0.7527  0.3946
    7MPD2    C214195   1.212   3.910  11.972 -0.1767  0.3800  0.4199
    7MPD2    C314196   1.203   3.854  12.101  0.3783 -0.1897  0.1740
    7MPD2    C414197   1.321   3.835  12.171 -0.0754  0.1976  0.5424
    7MPD2    C514198   1.443   3.855  12.111 -0.1438  0.6867  0.3407
    7MPD2     H14199   1.122   3.940  11.920 -0.9314 -0.4143  1.2655
    7MPD2    H114200   1.313   3.791  12.270 -1.4400 -0.3828  0.1707
    7MPD2    H214201   1.556   3.899  11.941 -1.1247  1.3984 -1.5785
    7MPD2    H314202   1.534   3.830  12.162  1.1938 -2.5603 -3.6285
    7MPD2     N14203   1.084   3.823  12.163 -0.1515 -0.1029  0.3374
    7MPD2    H514204   1.097   3.777  12.252  2.3745 -0.3986 -0.1816
    7MPD2    N114205   1.346   3.968  11.771 -0.3208 -0.1990  0.1247
    7MPD2    H714206   1.258   4.003  11.733 -1.2835 -2.2071  0.4974
    8TMC3    C114207   1.429   4.037  11.574  0.0614 -0.2042 -0.6542
    8TMC3    C214208   1.442   3.960  11.457  0.2373  0.5067 -0.1956
    8TMC3    C314209   1.342   3.970  11.361  0.1591  0.9265  0.0498
    8TMC3    C414210   1.321   4.118  11.590 -0.2165 -0.3377 -0.0852
    8TMC3    C514211   1.217   4.112  11.504 -0.4640 -0.6714 -0.7036
    8TMC3    C614212   1.225   4.042  11.384 -0.1428 -0.1798  0.2336
    8TMC3     C14213   1.460   3.971  11.695  0.7481 -0.4273 -0.1717
    8TMC3     O14214   1.573   3.927  11.710 -0.1759 -0.6042 -0.2600
    8TMC3     H14215   1.525   3.890  11.453  0.1816  0.4460 -0.2862
    8TMC3    H114216   1.315   4.185  11.675  2.3273  2.4509 -2.0918
    8TMC3    H214217   1.146   4.027  11.312 -0.4940 -1.2978  0.8587
    8TMC3    C714218   1.093   4.109  11.577  0.0587  0.2117 -1.0889
    8TMC3    C814219   1.355   3.924  11.222 -0.7957 -0.5371 -0.2732
    8TMC3    O114220   1.108   4.112  11.698  0.0018 -0.0053 -0.1931
    8TMC3    O214221   1.253   3.939  11.151  0.4863 -0.3586  0.0409
    9MPD2     C14222   1.615   3.734  11.034 -0.6720 -0.4214  0.0423
    9MPD2    C114223   1.506   3.827  11.056  0.5526  0.9468  0.1958
    9MPD2    C214224   1.450   3.886  10.943  0.1459  0.5179 -0.7444
    9MPD2    C314225   1.485   3.855  10.817  0.3340  0.0836 -0.3906
    9MPD2    C414226   1.584   3.755  10.800  0.2567 -0.4342 -0.0717
    9MPD2    C514227   1.643   3.692  10.905 -0.2174  0.3137  0.4485
    9MPD2     H14228   1.372   3.962  10.943  1.2962  1.7187  0.0797
    9MPD2    H114229   1.614   3.713  10.705 -0.2275  2.2231 -1.3870
    9MPD2    H214230   1.675   3.681  11.106 -0.9578 -1.3223 -0.3785
    9MPD2    H314231   1.722   3.621  10.886 -0.9265 -0.4655  0.3992
    9MPD2     N14232   1.423   3.918  10.711 -0.0493 -0.2025  0.3187
    9MPD2    H514233   1.359   3.995  10.731  0.8394  0.5678  0.1794
    9MPD2    N114234   1.467   3.853  11.189 -0.1292 -0.7434  0.3923
    9MPD2    H714235   1.528   3.827  11.265 -0.3836 -0.7613  0.5913
    1MPD1     C14236   3.960   2.529  16.907 -0.2335  0.3072  0.3812
    1MPD1    C114237   4.023   2.544  17.027 -0.1588 -0.2164  0.1087
    1MPD1    C214238   4.062   2.670  17.068 -1.3243 -0.0621  0.0641
    1MPD1    C314239   4.027   2.779  16.991 -0.2289 -0.1470 -0.0369
    1MPD1    C414240   3.948   2.767  16.880 -0.0231  0.1332  0.3089
    1MPD1    C514241   3.927   2.638  16.834  0.5327 -0.0535  0.0985
    1MPD1     H14242   4.108   2.677  17.166 -2.6024  1.7720  0.5350
    1MPD1    H114243   3.903   2.848  16.825  0.7522  0.1784 -0.2668
    1MPD1    H214244   3.926   2.440  16.855 -1.6336  1.4341 -0.6604
    1MPD1    H314245   3.866   2.627  16.744 -1.4754  0.6862  1.3705
    1MPD1     N14246   4.061   2.908  17.026 -0.7886 -0.1442 -0.5718
    1MPD1    H514247   4.018   2.984  16.975  0.5305  0.5675 -0.6138
    1MPD1    N114248   4.054   2.433  17.112  0.3120 -0.6269  0.1671
    1MPD1    H614249   4.129   2.458  17.176  0.7999  2.6609 -1.6758
    1MPD1    H714250   4.080   2.346  17.066  0.2480  1.0742 -3.0250
    2MPD1     C14251   3.611   3.550  16.719 -0.0863 -0.7071  0.2138
    2MPD1    C114252   3.650   3.421  16.693 -0.1756  0.0104  0.8742
    2MPD1    C214253   3.749   3.366  16.776 -0.1774  1.1531  0.4580
    2MPD1    C314254   3.804   3.427  16.889  0.5215 -1.0266 -0.3044
    2MPD1    C414255   3.762   3.553  16.914 -0.4670 -0.8597  0.2422
    2MPD1    C514256   3.661   3.612  16.831  0.1761 -0.0940 -0.0428
    2MPD1     H14257   3.777   3.266  16.746 -0.6002  1.5341 -1.2169
    2MPD1    H114258   3.801   3.620  16.990 -2.9944  0.7933  0.0982
    2MPD1    H214259   3.526   3.605  16.680 -0.0590 -0.4519  0.5121
    2MPD1    H314260   3.624   3.712  16.848 -0.8536 -0.1725 -1.7034
    2MPD1     N14261   3.903   3.356  16.971 -0.8015  0.0673 -0.2290
    2MPD1    H514262   3.934   3.266  16.936  2.4397  1.3420 -0.6451
    2MPD1    N114263   3.602   3.359  16.579  0.1946 -0.2336 -0.3088
    2MPD1    H614264   3.590   3.258  16.591  0.9486 -0.4606 -1.4330
    2MPD1    H714265   3.511   3.390  16.544 -0.8722 -1.9810  0.9017
    3TCq2    C114266   3.939   3.393  17.100 -0.5273 -0.0710  0.5697
    3TCq2    O214267   3.888   3.483  17.172  0.1049  0.2206 -0.2819
    3TCq2    C214268   4.032   3.298  17.165 -0.1681  0.9647  0.2052
    3TCq2    C314269   4.118   3.335  17.267  0.9848  0.4611 -0.0318
    3TCq2    C414270   4.217   3.256  17.307  0.4620  0.5518  0.0161
    3TCq2    C514271   4.231   3.132  17.248  0.0483 -0.2406  0.1924
    3TCq2    C614272   4.149   3.093  17.144 -0.1056 -0.0190 -0.0405
    3TCq2    C714273   4.035   3.174  17.109  0.1613  0.5198 -0.5425
    3TCq2    C814274   4.145   2.946  17.127 -0.0348 -0.3366  1.0538
    3TCq2    O414275   4.204   2.882  17.215  0.1664 -0.0133 -0.8015
    3TCq2    C914276   4.313   3.291  17.414  0.3444  0.0816  0.6427
    3TCq2    O514277   4.415   3.216  17.433 -0.8117  0.4089  0.6028
    3TCq2    O614278   4.280   3.395  17.477  0.2054 -0.2162 -0.0988
    3TCq2    H214279   4.107   3.435  17.306 -0.6936  0.0274  0.6030
    3TCq2    H314280   4.315   3.072  17.280  0.0112  0.8230  2.2728
    3TCq2    H414281   3.949   3.126  17.064  0.8690  0.3922 -1.7741
    1TCq1    O114282   2.806   2.182  12.239  0.6851 -0.3972  0.3522
    1TCq1    C114283   2.763   2.089  12.332  0.1881 -0.0382 -0.3972
    1TCq1    O214284   2.652   2.040  12.340  0.4083  0.0776 -0.1933
    1TCq1    C214285   2.883   2.044  12.406  0.6947 -0.4018  0.6897
    1TCq1    C314286   2.860   1.968  12.520 -0.2075  0.0264 -0.0062
    1TCq1    C414287   2.973   1.910  12.575 -0.3417  0.0078  0.1410
    1TCq1    C514288   3.100   1.932  12.533 -0.8725 -0.2280  0.4663
    1TCq1    C614289   3.108   2.005  12.414  0.0236 -0.0725  0.6215
    1TCq1    C714290   3.006   2.071  12.351  0.2652 -0.0792  0.3290
    1TCq1    C814291   3.237   2.065  12.392  0.0678 -0.2301  0.4392
    1TCq1    O414292   3.267   2.128  12.289  0.4850  0.8560 -0.1459
    1TCq1    C914293   2.956   1.837  12.700  0.2000  0.3362  0.4964
    1TCq1    O514294   3.059   1.769  12.726 -0.1239  0.1813  0.1014
    1TCq1    O614295   2.839   1.798  12.727  0.3940  0.4141 -0.1720
    1TCq1    H114296   2.886   2.232  12.267  0.9062  0.7014 -2.2613
    1TCq1    H214297   2.763   1.951  12.563  0.3105  0.5163  1.3467
    1TCq1    H314298   3.182   1.882  12.582 -2.1040 -1.9318  0.7931
    1TCq1    H414299   3.028   2.129  12.262  1.5955 -0.1564  0.6094
    2MPD2     C14300   3.508   2.186  12.445  0.0531  0.4845  0.6317
    2MPD2    C114301   3.423   2.138  12.539 -0.1725  0.2638 -0.0173
    2MPD2    C214302   3.453   2.166  12.674  0.4316  0.0539  0.0816
    2MPD2    C314303   3.576   2.217  12.715  0.1745 -0.6329  0.4415
    2MPD2    C414304   3.664   2.254  12.614 -0.6116 -0.2993  0.4880
    2MPD2    C514305   3.623   2.240  12.484  0.5258 -0.0036 -0.1360
    2MPD2     H14306   3.378   2.137  12.748  0.9966  0.8411  0.9662
    2MPD2    H114307   3.761   2.297  12.635 -0.7079 -0.1136  0.5488
    2MPD2    H214308   3.485   2.177  12.339 -0.0738 -1.0660  0.7876
    2MPD2    H314309   3.685   2.276  12.402 -0.8405 -0.0223 -1.1654
    2MPD2     N14310   3.601   2.233  12.853 -0.1071 -0.2458 -0.3233
    2MPD2    H514311   3.530   2.206  12.920 -0.2638 -0.5139 -0.5933
    2MPD2    N114312   3.304   2.068  12.512 -0.5136  1.1377  0.0130
    2MPD2    H714313   3.259   2.037  12.598 -1.4560  0.8157 -0.6014
    3TCq1    O114314   3.518   2.493  13.387 -0.1358  0.3448  0.6041
    3TCq1    C114315   3.531   2.502  13.256  1.2877 -0.8531  0.1962
    3TCq1    O214316   3.438   2.532  13.180 -0.7432  0.0564  0.3144
    3TCq1    C214317   3.642   2.415  13.219  0.1808  0.5164 -1.5751
    3TCq1    C314318   3.767   2.416  13.276 -0.4029  0.5402 -0.6407
    3TCq1    C414319   3.872   2.351  13.218 -0.5763  0.2491  0.7348
    3TCq1    C514320   3.850   2.282  13.097 -0.0120  0.8245 -0.2117
    3TCq1    C614321   3.729   2.282  13.047 -0.3295 -0.1408 -0.0522
    3TCq1    C714322   3.618   2.352  13.099  0.4068 -0.0592  0.2220
    3TCq1    C814323   3.723   2.271  12.902 -0.0300  0.4940 -0.2885
    3TCq1    O414324   3.826   2.294  12.842 -0.5327  0.3337 -0.3420
    3TCq1    C914325   4.006   2.348  13.263  0.4147  0.1330 -0.2448
    3TCq1    O514326   4.030   2.411  13.367 -0.1671  0.2034  0.0581
    3TCq1    O614327   4.101   2.309  13.195  0.4277 -0.2864 -0.3184
    3TCq1    H114328   3.595   2.461  13.438  0.6798  2.8166  0.9486
    3TCq1    H214329   3.779   2.459  13.375 -2.0566  1.1266 -0.7001
    3TCq1    H314330   3.929   2.224  13.051 -1.1063 -0.3931 -0.5518
    3TCq1    H414331   3.520   2.359  13.054  0.9247  1.7524 -0.6108
    1MPD2     C14332   3.319   2.935  15.243  0.3265  0.3546  0.3943
    1MPD2    C114333   3.397   2.881  15.141 -0.3907 -0.1676 -0.7504
    1MPD2    C214334   3.529   2.914  15.128 -0.6241 -0.4623  0.4543
    1MPD2    C314335   3.596   3.004  15.213 -0.2245  0.1514  0.0436
    1MPD2    C414336   3.529   3.037  15.330  0.5789 -0.1671  0.0034
    1MPD2    C514337   3.395   3.006  15.339  0.7665  0.6923 -0.6529
    1MPD2     H14338   3.584   2.887  15.039 -0.5488  0.2602  0.2827
    1MPD2    H114339   3.578   3.102  15.402 -2.1502 -0.7976  2.4122
    1MPD2    H214340   3.219   2.897  15.258  0.1488  0.7772  0.2766
    1MPD2    H314341   3.337   3.029  15.428  1.0126 -3.1327  0.4875
    1MPD2     N14342   3.729   3.044  15.199 -0.1393  0.0746  0.7836
    1MPD2    H514343   3.758   3.113  15.267 -0.3365  0.0312  0.9118
    1MPD2    N114344   3.332   2.808  15.044 -0.0238  0.0953  0.3559
    1MPD2    H714345   3.234   2.784  15.051 -0.3212  1.2682  0.1157
    2TMC3    C114346   3.310   2.659  14.873 -0.7821 -0.3857  0.5879
    2TMC3    C214347   3.384   2.568  14.802 -0.3419  0.1713 -0.8500
    2TMC3    C314348   3.358   2.544  14.668 -0.8311 -0.2054  0.2659
    2TMC3    C414349   3.201   2.711  14.819 -0.7554  0.2451 -0.6088
    2TMC3    C514350   3.164   2.663  14.696  0.3310  0.2581  0.0797
    2TMC3    C614351   3.239   2.578  14.625  0.0762  0.2686 -0.1377
    2TMC3     C14352   3.395   2.746  14.940 -0.2003  0.1980 -0.0126
    2TMC3     O14353   3.513   2.741  14.903 -0.5090  0.0932 -0.0097
    2TMC3     H14354   3.483   2.544  14.841 -1.6249 -0.9720  1.7357
    2TMC3    H114355   3.151   2.789  14.875 -1.6352 -0.2437 -0.7104
    2TMC3    H214356   3.208   2.543  14.528 -2.8560  1.3658  0.4182
    2TMC3    C714357   3.049   2.721  14.634 -0.5982 -0.2197  0.7558
    2TMC3    C814358   3.466   2.580  14.568  0.7820 -1.2439 -0.4788
    2TMC3    O114359   3.007   2.657  14.541  0.0930 -0.3287  0.2172
    2TMC3    O214360   3.448   2.578  14.450  0.1603  0.0009 -0.3931
    3TCq1    O114361   2.473   3.465  15.329 -0.6038  0.0008  0.3046
    3TCq1    C114362   2.399   3.474  15.216 -0.2387  0.4794 -0.6601
    3TCq1    O214363   2.283   3.453  15.202 -0.4486  0.2203 -0.0972
    3TCq1    C214364   2.487   3.460  15.107 -0.3683 -0.3903 -0.5801
    3TCq1    C314365   2.600   3.540  15.107 -0.0045  0.0114  0.6074
    3TCq1    C414366   2.700   3.509  15.020  0.5890 -0.4614 -0.0774
    3TCq1    C514367   2.688   3.405  14.927  0.2033  0.5554 -0.0946
    3TCq1    C614368   2.575   3.326  14.943 -0.7162 -0.3744  0.3426
    3TCq1    C714369   2.471   3.358  15.021 -0.4933 -0.2323 -0.1987
    3TCq1    C814370   2.562   3.206  14.859  0.1064  0.0525 -0.4576
    3TCq1    O414371   2.451   3.157  14.850  0.0686  0.0116  0.4875
    3TCq1    C914372   2.823   3.579  15.024 -0.0184  0.3392  0.9067
    3TCq1    O514373   2.927   3.527  14.979 -0.6636 -0.0285 -0.3559
    3TCq1    O614374   2.831   3.685  15.091  0.6211  0.2429  0.6811
    3TCq1    H114375   2.568   3.483  15.311 -0.6016  0.7757  1.0666
    3TCq1    H214376   2.607   3.630  15.167 -0.0204 -1.3989  2.7255
    3TCq1    H314377   2.775   3.393  14.863  0.6950 -1.2096  0.8998
    3TCq1    H414378   2.378   3.303  15.022  1.4291 -3.4742 -0.5241
    4MPD2     C14379   2.628   3.005  14.648  0.4650 -0.3797 -0.8673
    4MPD2    C114380   2.720   3.050  14.742  0.5268  0.2044 -0.0866
    4MPD2    C214381   2.846   2.994  14.747  0.1473  0.2993  0.8024
    4MPD2    C314382   2.874   2.888  14.668 -0.6812  0.7540 -0.2214
    4MPD2    C414383   2.788   2.848  14.569  0.0475 -0.3699 -0.5091
    4MPD2    C514384   2.665   2.899  14.560 -0.0447 -0.4986  0.4345
    4MPD2     H14385   2.917   3.027  14.822 -0.3326 -1.0960  1.8802
    4MPD2    H114386   2.809   2.773  14.493 -2.6036 -0.3652 -1.2311
    4MPD2    H214387   2.525   3.036  14.654  0.0944 -1.7664 -0.0848
    4MPD2    H314388   2.602   2.851  14.486 -2.5608  2.0337  0.9283
    4MPD2     N14389   3.002   2.835  14.691 -0.6172 -0.0811  0.2028
    4MPD2    H514390   3.056   2.876  14.766 -0.8414  2.2498 -0.9133
    4MPD2    N114391   2.688   3.158  14.830 -0.3243 -0.3722  0.8003
    4MPD2    H714392   2.769   3.207  14.868  1.5749 -1.5901 -1.5908
    5TMC2    C114393   4.004   3.131  14.855 -0.3419  0.1689 -0.0996
    5TMC2    C214394   3.946   3.257  14.856 -0.2391 -0.5886  0.1499
    5TMC2    C314395   3.909   3.311  14.975  0.4877 -0.3866  0.2177
    5TMC2    C414396   3.990   3.050  14.965  0.1899  0.0777 -0.4708
    5TMC2    C514397   3.928   3.099  15.075  0.2350 -0.0407  0.4546
    5TMC2    C614398   3.892   3.235  15.092  0.3469 -0.2236  0.7179
    5TMC2     C14399   4.001   3.057  14.728 -0.3778 -1.2437  0.6437
    5TMC2     O14400   4.058   3.112  14.634  0.4410 -0.3258 -0.6830
    5TMC2     H14401   3.925   3.313  14.766  0.9181 -1.7733 -0.8648
    5TMC2    H114402   4.015   2.945  14.971  0.4551  0.2046  0.6634
    5TMC2    H214403   3.828   3.255  15.177  0.8833  2.2873  0.5438
    5TMC2    C714404   3.815   3.005  15.094  0.5094  0.3277  0.9757
    5TMC2    C814405   3.817   3.415  14.951  0.4795 -0.3916 -0.3558
    5TMC2    O114406   3.803   2.918  15.010 -0.0707 -0.6669 -0.1131
    5TMC2    O214407   3.736   3.411  14.858 -0.2087  0.3912  0.1915
    5TMC2    O514408   3.804   3.493  15.060  0.2676 -0.2763 -0.3276
    5TMC2    H514409   3.867   3.468  15.130 -0.8581  0.2944  0.8886
    6MPD2     C14410   3.687   2.750  14.442 -0.5144  0.0698  0.3163
    6MPD2    C114411   3.666   2.729  14.579  0.4302  0.1372 -0.1964
    6MPD2    C214412   3.749   2.787  14.673 -0.6527  0.1164  0.1401
    6MPD2    C314413   3.842   2.880  14.633  0.0245  0.4723  0.1440
    6MPD2    C414414   3.859   2.901  14.500  0.3647 -0.1204  0.2365
    6MPD2    C514415   3.786   2.838  14.401  0.0967 -0.2162  0.0089
    6MPD2     H14416   3.738   2.766  14.779  1.3002  0.2084  0.3619
    6MPD2    H114417   3.934   2.971  14.464 -1.3438  2.1882  1.0981
    6MPD2    H214418   3.606   2.727  14.374 -1.3933  0.2801  1.2871
    6MPD2    H314419   3.789   2.865  14.296 -0.1876 -1.0918 -0.2266
    6MPD2     N14420   3.924   2.939  14.735  0.0284 -0.3009 -1.0021
    6MPD2    H514421   3.908   2.906  14.830  1.5043 -1.0736 -1.0330
    6MPD2    N114422   3.570   2.642  14.631 -0.1806 -0.1120 -0.0172
    6MPD2    H714423   3.558   2.668  14.729 -1.8331  2.7022 -0.9721
  945NH4     N114424   2.763   1.667  15.151  0.2573  0.2379  0.5861
  945NH4     H214425   2.855   1.669  15.102 -1.5871 -1.1822 -2.8950
  945NH4     H314426   2.706   1.634  15.071 -3.5082  4.3887  1.5596
  945NH4     H414427   2.733   1.763  15.179 -0.3397  0.8554 -2.1737
  945NH4     H514428   2.767   1.597  15.228  0.1273 -0.7821 -0.3361
  946SOD     NA14429   2.624   0.403  10.264 -0.1783  0.1309 -0.1598
  947SOD     NA14430   0.273   0.441  14.171  0.3442  0.0106 -0.0541
  948SOD     NA14431   0.754   4.288   4.657 -0.0748 -0.2538 -0.2157
  949SOD     NA14432   2.306   3.820   8.811 -0.2052 -0.0572 -0.1659
  950SOD     NA14433   4.173   2.107  11.763 -0.1069 -0.2594 -0.5549
  951SOD     NA14434   0.590   1.528   0.830 -0.1289 -0.2147  0.4137
  952SOD     NA14435   1.509   1.528   7.536 -0.1933  0.2138 -0.3372
  953SOD     NA14436   1.712   2.141  12.499 -0.1606 -0.0022  0.4428
  954SOD     NA14437   2.181   2.136  11.214  0.4083 -0.5914 -0.1786
  955SOD     NA14438   4.172   2.011  12.905  0.2573  0.0518 -0.2474
  956SOD     NA14439   3.685   3.448   0.022  0.1430 -0.5283  0.4117
  957SOD     NA14440   4.244   2.444  13.314 -0.2510  0.6130 -0.4988
  958SOD     NA14441   4.085   1.363  11.770 -0.3922  0.3622  0.4488
  959SOD     NA14442   2.644   0.808   1.116  0.1499  0.2657 -0.5560
  960SOD     NA14443   3.231   3.876  11.076  0.1611 -0.2984  0.2339
  961SOD     NA14444   0.281   0.333   2.469 -0.6515 -0.0116  0.0593
  962SOD     NA14445   0.010   4.351  12.363  0.3849 -0.0991  0.0472
  963SOD     NA14446   4.445   1.766  11.426 -0.2168 -0.0747  0.1764
  964SOD     NA14447   4.062   3.385  13.589  0.4328  0.0305  0.4746
  965SOD     NA14448   3.632   2.746  11.612  0.1578  0.7034  0.3518
  966SOD     NA14449   3.629   0.936   9.118  0.2151  0.6078 -0.4050
  967SOD     NA14450   2.237   1.946   1.894 -0.0560  0.0002  0.3778
  968SOD     NA14451   0.141   3.029  17.671  0.3609  0.4262 -0.3830
  969SOD     NA14452   0.301   2.029   8.105 -0.1909  0.1298  0.1421
  970SOD     NA14453   3.242   1.821   9.751 -0.4546 -0.2094 -0.0258
  971SOD     NA14454   2.397   0.770   9.880  0.1209  0.0706  0.1047
  972SOD     NA14455   4.257   1.155  13.674  0.3028  0.7619  0.1333
  973SOD     NA14456   3.578   2.246   9.809  0.0997 -0.8390  0.0680
  974SOD     NA14457   2.174   1.146   3.451  0.2573  0.6495 -0.2256
  975SOD     NA14458   2.740   0.021  10.783  0.4737 -0.5683  0.2025
  976SOD     NA14459   4.448   2.806  11.401 -0.0862  0.1457 -0.0729
  977SOD     NA14460   3.118   4.691   1.264 -0.1137 -0.0434  0.1023
  978SOD     NA14461   1.236   0.532  11.771 -0.2277 -0.3910 -0.2954
  979SOD     NA14462   0.616   1.119   0.532 -0.1382 -0.5289  0.3096
  980SOD     NA14463   0.470   2.293  15.289 -0.2339 -0.2989  0.0565
  981SOD     NA14464   1.197   3.359  13.996  0.3532 -0.1934  0.1462
  982SOD     NA14465   3.844   2.822  11.418 -0.4609 -0.0899  0.1752
  983SOD     NA14466   0.897   2.552  14.685  0.5199 -0.2690  0.0472
  984SOD     NA14467   3.232   2.757   2.123  0.0355 -0.6803  0.0339
  985SOD     NA14468   1.994   2.705   6.818  0.1876  0.0275 -0.0233
  986SOD     NA14469   1.438   0.335  10.728 -0.4033 -0.3129  0.1411
  987SOD     NA14470   4.717   0.069  16.675  0.6153  0.2806 -0.0476
  988SOD     NA14471   3.231   0.215   4.291  0.2865 -0.3307  0.1989
  989SOD     NA14472   2.160   4.689   2.091  0.6109  0.0745  0.0831
  990SOD     NA14473   2.683   2.630   3.802 -0.3205 -0.1400  0.1603
  991SOD     NA14474   3.754   0.419  15.487 -0.0492 -0.3835  0.1311
  992SOD     NA14475   3.058   3.668  15.093  0.0987  0.3365  0.2101
  993SOD     NA14476   0.874   0.812  13.398 -0.1159  0.0817  0.6323
  994SOD     NA14477   0.761   0.833  14.724 -0.5803  0.1754 -0.0225
  995SOD     NA14478   1.142   3.797  13.250 -0.3047  0.2144 -0.1020
  996SOD     NA14479   2.676   1.926  12.837 -0.2743  0.1411 -0.1467
  997SOD     NA14480   4.233   2.740   0.471 -0.1875  0.0940  0.3113
  998SOD     NA14481   3.540   3.854  11.127 -0.1837 -0.0184  0.0579
  999SOD     NA14482   0.252   1.684   7.121  0.5851 -0.7518  0.0511
 1000SOD     NA14483   1.913   2.559  11.828  0.1561  0.0151 -0.6197
 1001SOD     NA14484   2.690   1.656  12.664  0.3907  0.2621 -0.7560
 1002SOD     NA14485   4.034   4.619   9.546  0.1191  0.1202 -0.4493
 1003SOD     NA14486   0.700   0.835   0.258  0.3144  0.1071 -0.0304
 1004SOD     NA14487   0.701   2.676  14.491 -0.0058 -0.5498  0.1984
 1005SOD     NA14488   3.363   1.784   9.135  0.0361 -0.8509  0.2208
 1006SOD     NA14489   2.211   2.769  14.209  0.5846  0.1500  0.2069
 1007SOD     NA14490   4.500   2.379  15.117 -0.1150 -0.3686  0.2305
 1008SOD     NA14491   3.961   1.068  16.644  0.0587 -0.2549  0.2565
 1009SOD     NA14492   0.481   2.985  10.747 -0.1586  0.1570 -0.4941
 1010SOD     NA14493   1.109   1.013   0.285 -0.5762  0.5106  0.2909
 1011SOL     OW14494   1.055   1.644   4.987 -0.5146 -0.1713  0.4374
 1011SOL    HW114495   0.960   1.645   4.976 -0.4515  1.3484  0.0371
 1011SOL    HW214496   1.085   1.562   4.947 -1.2930  1.1877 -2.9906
 1012SOL     OW14497   4.456   2.767   7.889  0.0752 -0.3583  0.3135
 1012SOL    HW114498   4.539   2.755   7.842 -0.9700 -0.6655 -1.4536
 1012SOL    HW214499   4.405   2.825   7.832 -0.5588 -0.1630  1.0937
 1013SOL     OW14500   4.134   1.321  11.005 -0.1761 -0.7467  0.5071
 1013SOL    HW114501   4.171   1.244  11.048  1.3536 -0.3326 -0.0694
 1013SOL    HW214502   4.053   1.289  10.964 -1.8837  2.9121  1.0877
 1014SOL     OW14503   0.339   1.132   4.519  0.3928 -0.4839 -0.1265
 1014SOL    HW114504   0.259   1.162   4.477  0.5316  0.1558  0.0664
 1014SOL    HW214505   0.403   1.203   4.506  0.4580 -0.5959 -0.4157
 1015SOL     OW14506   3.868   3.037   4.920 -0.5729 -0.1029  0.0116
 1015SOL    HW114507   3.774   3.032   4.936 -0.6329  2.2756  0.4402
 1015SOL    HW214508   3.898   2.977   4.989 -2.1536 -0.6239  0.2531
 1016SOL     OW14509   3.639   0.882   7.230  0.2488 -0.3518  0.4656
 1016SOL    HW114510   3.588   0.859   7.307 -2.4890  2.1344 -0.5998
 1016SOL    HW214511   3.725   0.857   7.262  1.1847  1.7269 -0.4441
 1017SOL     OW14512   1.154   0.432   1.249  0.1791 -0.0660 -0.2070
 1017SOL    HW114513   1.158   0.336   1.241 -0.4799 -0.1379  0.3373
 1017SOL    HW214514   1.222   0.435   1.315  0.4254 -0.3904 -0.4411
 1018SOL     OW14515   3.386   2.736  14.077  0.1069 -0.2105 -0.2763
 1018SOL    HW114516   3.478   2.753  14.096 -0.0730 -1.5697  1.8450
 1018SOL    HW214517   3.343   2.818  14.099 -2.3132 -1.5403 -0.0493
 1019SOL     OW14518   4.099   2.583   3.744  0.0215  0.2891  0.2615
 1019SOL    HW114519   4.046   2.608   3.819 -1.3066  1.4279 -1.0603
 1019SOL    HW214520   4.186   2.621   3.760  2.0980 -3.3762 -2.3319
 1020SOL     OW14521   3.438   3.677   3.144  0.4896  0.0382 -0.1368
 1020SOL    HW114522   3.518   3.714   3.109  0.6898  0.8188  1.1432
 1020SOL    HW214523   3.475   3.600   3.189 -0.0497 -1.4954 -2.2893
 1021SOL     OW14524   1.354   0.561  10.705  0.8535 -0.7317 -0.5326
 1021SOL    HW114525   1.339   0.599  10.619 -0.6222 -3.7090 -1.5875
 1021SOL    HW214526   1.311   0.621  10.767  2.7597 -0.3953  0.4586
 1022SOL     OW14527   1.290   4.247   0.687 -0.5323 -0.0831  0.1112
 1022SOL    HW114528   1.217   4.305   0.664 -0.6848 -0.4742 -0.3723
 1022SOL    HW214529   1.352   4.251   0.614  1.2117  1.7326  1.6726
 1023SOL     OW14530   3.930   2.208   5.713 -0.1081 -0.1749 -0.4963
 1023SOL    HW114531   4.010   2.249   5.680  0.9517 -0.7573  1.3486
 1023SOL    HW214532   3.965   2.162   5.789 -1.6429  0.4790  0.6044
 1024SOL     OW14533   3.745   3.644   2.806 -0.5996 -0.3130  0.1419
 1024SOL    HW114534   3.773   3.570   2.860  3.7965 -0.1113 -1.8400
 1024SOL    HW214535   3.699   3.597   2.736  0.2703 -0.5180 -0.2957
 1025SOL     OW14536   0.368   4.477  12.150 -0.0663 -0.1092  0.1071
 1025SOL    HW114537   0.363   4.402  12.209 -0.3175  0.4481  0.7926
 1025SOL    HW214538   0.461   4.499  12.162 -0.1128  0.1111  0.0712
 1026SOL     OW14539   4.280   2.941   1.427  0.1980  0.4671  0.0779
 1026SOL    HW114540   4.254   3.023   1.470  1.5457  0.4204  0.9914
 1026SOL    HW214541   4.304   2.966   1.337 -0.7755  1.0075 -0.0275
 1027SOL     OW14542   0.276   0.367   2.104 -0.4348 -0.3768  0.1166
 1027SOL    HW114543   0.319   0.316   2.172  2.9015  1.0306 -0.9837
 1027SOL    HW214544   0.297   0.322   2.022 -0.2828 -0.9470  0.4685
 1028SOL     OW14545   0.231   2.796   1.631  0.1508  0.0711 -0.0963
 1028SOL    HW114546   0.256   2.797   1.538  0.7081  0.2544  0.0576
 1028SOL    HW214547   0.316   2.763   1.657 -1.1175 -1.5984  1.9073
 1029SOL     OW14548   4.615   0.232   8.506  0.2900  1.0530 -0.1534
 1029SOL    HW114549   4.666   0.181   8.443  1.0093  2.4703 -0.7277
 1029SOL    HW214550   4.667   0.249   8.584  0.4381  0.1793 -0.0670
 1030SOL     OW14551   4.519   4.594   9.090  0.1792  0.3570  0.1854
 1030SOL    HW114552   4.593   4.604   9.150  0.5700 -2.4130  0.1786
 1030SOL    HW214553   4.530   4.676   9.041 -1.0728  1.0911  1.1446
 1031SOL     OW14554   1.682   0.880   0.788  0.1090  0.0778  0.5166
 1031SOL    HW114555   1.753   0.887   0.852 -0.2483 -1.0621  1.0509
 1031SOL    HW214556   1.655   0.788   0.798 -0.3037 -0.1764 -2.9329
 1032SOL     OW14557   4.049   4.077   1.797  0.0694  0.0885  0.4833
 1032SOL    HW114558   3.979   4.143   1.805 -1.2814 -1.3300  0.2944
 1032SOL    HW214559   4.112   4.106   1.863  0.6067 -0.1652  0.0757
 1033SOL     OW14560   4.567   2.115   2.734 -0.8972 -0.4188  0.3579
 1033SOL    HW114561   4.608   2.032   2.709  0.5369  1.2579 -2.7861
 1033SOL    HW214562   4.517   2.124   2.653 -0.3593 -1.2387 -0.0590
 1034SOL     OW14563   2.222   2.331   6.361 -0.5077  0.2134  0.6937
 1034SOL    HW114564   2.248   2.276   6.287  2.0052 -0.0382  1.7742
 1034SOL    HW214565   2.127   2.332   6.348 -0.2349  0.4363 -1.4048
 1035SOL     OW14566   4.616   2.490  17.153  0.0890 -0.1748  0.1147
 1035SOL    HW114567   4.643   2.566  17.102  0.2091 -1.0269 -1.0928
 1035SOL    HW214568   4.543   2.521  17.207  1.8210  0.1650  2.2644
 1036SOL     OW14569   3.740   0.616   5.786  0.7795 -0.2178 -0.0203
 1036SOL    HW114570   3.800   0.552   5.825  2.3166  0.4127 -1.3520
 1036SOL    HW214571   3.761   0.694   5.838 -1.0457  0.6130 -0.5420
 1037SOL     OW14572   0.655   2.532  14.683 -0.1978 -0.0914  0.0041
 1037SOL    HW114573   0.601   2.478  14.626 -4.2457  0.4886  3.3434
 1037SOL    HW214574   0.613   2.510  14.766 -0.7773  1.9562  0.2653
 1038SOL     OW14575   2.041   1.560   7.705  0.4971 -0.5167  0.5463
 1038SOL    HW114576   2.041   1.656   7.712 -3.4335 -0.4362 -0.4668
 1038SOL    HW214577   2.032   1.536   7.797  1.5948 -0.1430  0.7492
 1039SOL     OW14578   3.809   1.957   0.739  0.5350  0.5122  0.1048
 1039SOL    HW114579   3.725   2.003   0.731  0.0271 -0.1449  1.7243
 1039SOL    HW214580   3.774   1.876   0.776 -1.1277  0.9049 -0.5926
 1040SOL     OW14581   2.611   2.574   8.403  0.2809 -0.6826  0.2662
 1040SOL    HW114582   2.690   2.535   8.440  0.2114 -0.9818  0.1038
 1040SOL    HW214583   2.592   2.639   8.470 -1.2974 -0.4714 -0.3734
 1041SOL     OW14584   3.836   3.132   2.060  0.2577  0.3613 -0.6161
 1041SOL    HW114585   3.836   3.048   2.015  0.3875  0.6067 -1.0759
 1041SOL    HW214586   3.925   3.165   2.046  0.8480  0.5693  3.6847
 1042SOL     OW14587   0.120   2.164   3.822 -0.3778 -0.2900 -0.0102
 1042SOL    HW114588   0.090   2.249   3.788 -2.0513 -0.9937 -0.2802
 1042SOL    HW214589   0.052   2.102   3.794  1.2134 -1.3777 -1.5154
 1043SOL     OW14590   3.481   4.721   6.393  0.1277 -0.3812 -0.4515
 1043SOL    HW114591   3.423   4.646   6.401 -1.3180  0.9786  1.7356
 1043SOL    HW214592   3.505   4.710   6.301 -0.0524  0.4197 -0.5931
 1044SOL     OW14593   2.335   4.276   2.611  0.1762 -0.2459  0.1110
 1044SOL    HW114594   2.381   4.257   2.693 -1.1475 -4.8496 -0.2051
 1044SOL    HW214595   2.246   4.293   2.643  0.4370 -0.0788  0.7491
 1045SOL     OW14596   1.250   1.486   8.770 -0.2452 -0.0143  1.1522
 1045SOL    HW114597   1.168   1.481   8.821  1.0996 -0.3903  3.2875
 1045SOL    HW214598   1.310   1.525   8.834 -0.1903  2.0789 -0.1917
 1046SOL     OW14599   1.168   3.412  16.690 -0.1424  0.4925 -0.1976
 1046SOL    HW114600   1.230   3.373  16.629  0.3544 -1.8131  1.8351
 1046SOL    HW214601   1.116   3.463  16.627 -1.7794 -0.4846  0.3723
 1047SOL     OW14602   1.458   2.081  15.805 -0.4376 -0.3787 -0.1836
 1047SOL    HW114603   1.549   2.075  15.775 -0.2673 -0.2235  0.2885
 1047SOL    HW214604   1.452   2.177  15.810  1.0466 -0.1891 -2.2825
 1048SOL     OW14605   3.127   0.231  15.409 -0.1037  0.4201 -0.4758
 1048SOL    HW114606   3.076   0.250  15.488  0.9075 -1.3348  0.6060
 1048SOL    HW214607   3.156   0.141  15.427  2.6348  1.1919 -0.9198
 1049SOL     OW14608   2.258   2.840   6.041 -0.2045  0.0063  0.0536
 1049SOL    HW114609   2.347   2.874   6.046  0.8984 -2.5142 -2.0664
 1049SOL    HW214610   2.245   2.800   5.954  1.0788 -1.4015  0.4992
 1050SOL     OW14611   3.323   1.275   4.526 -0.4220  0.5907  0.4827
 1050SOL    HW114612   3.349   1.305   4.439 -0.5656  0.9646  0.5664
 1050SOL    HW214613   3.273   1.196   4.505 -0.2294  1.0446 -1.5954
 1051SOL     OW14614   3.103   1.352  13.801  0.3148  0.0565  0.6261
 1051SOL    HW114615   3.070   1.429  13.848  1.6019 -0.3735  2.2290
 1051SOL    HW214616   3.043   1.343  13.727  1.2809  2.0828 -0.4045
 1052SOL     OW14617   3.373   4.222   0.470  0.0121 -0.0678  0.2477
 1052SOL    HW114618   3.384   4.208   0.564 -1.0551  2.1676  0.6917
 1052SOL    HW214619   3.304   4.159   0.449  0.3970 -1.1208  2.1074
 1053SOL     OW14620   4.309   1.211  16.904  0.5797  0.2747 -0.1570
 1053SOL    HW114621   4.311   1.304  16.881 -0.3255  0.2912 -0.1457
 1053SOL    HW214622   4.306   1.212  17.000 -2.8590 -1.5713 -0.2485
 1054SOL     OW14623   3.866   3.802  13.676 -0.0888 -0.3468  0.2173
 1054SOL    HW114624   3.928   3.821  13.747  1.6735 -0.9120 -1.1636
 1054SOL    HW214625   3.795   3.865  13.688  0.5059  0.0167  1.7872
 1055SOL     OW14626   3.401   3.094   1.821  0.9031 -0.1194 -0.2207
 1055SOL    HW114627   3.462   3.166   1.834 -2.8277  3.1880 -1.1383
 1055SOL    HW214628   3.332   3.139   1.773 -1.7773  0.5106  4.2405
 1056SOL     OW14629   0.362   3.199   1.800 -0.1688  0.2013  0.3366
 1056SOL    HW114630   0.430   3.173   1.862  0.5878 -1.1297 -1.0518
 1056SOL    HW214631   0.342   3.117   1.757 -1.0694  1.0138 -0.7840
 1057SOL     OW14632   2.755   1.440   1.912  0.2237  0.3908 -0.4391
 1057SOL    HW114633   2.673   1.439   1.963  0.9983 -1.0525  0.7993
 1057SOL    HW214634   2.765   1.535   1.916  2.8834  0.0807  0.5176
 1058SOL     OW14635   2.961   1.301   2.412  0.0170  0.3401  0.3946
 1058SOL    HW114636   3.056   1.300   2.405  0.0115  1.2465  0.1253
 1058SOL    HW214637   2.929   1.378   2.364  0.8360  0.3485 -0.1367
 1059SOL     OW14638   3.495   1.053   3.597  0.3050  0.5312 -0.1933
 1059SOL    HW114639   3.561   1.085   3.536 -1.1404  1.3402 -1.3227
 1059SOL    HW214640   3.413   1.089   3.563 -0.0971  3.2101  3.4865
 1060SOL     OW14641   1.038   3.493  16.401  0.1512  0.2192  0.0888
 1060SOL    HW114642   1.039   3.527  16.311  1.3655  1.6581  0.6517
 1060SOL    HW214643   1.088   3.413  16.393  0.8311  0.6105  0.4492
 1061SOL     OW14644   2.125   3.260  17.689 -0.2862 -0.4797 -0.0381
 1061SOL    HW114645   2.082   3.200   0.055 -1.3468  0.3566  0.0443
 1061SOL    HW214646   2.060   3.329   0.010  0.2678  0.4485 -1.9212
 1062SOL     OW14647   0.408   1.833  16.428 -0.0331 -0.1138 -0.0785
 1062SOL    HW114648   0.483   1.801  16.379 -2.1548 -0.8714 -2.8534
 1062SOL    HW214649   0.410   1.927  16.408 -0.1855 -0.5268 -2.0656
 1063SOL     OW14650   3.033   2.367  12.203 -0.0966 -0.3214  0.1357
 1063SOL    HW114651   3.078   2.389  12.121  0.9510  1.3028  1.1477
 1063SOL    HW214652   2.988   2.448  12.226 -0.8044 -0.3497 -1.1303
 1064SOL     OW14653   2.027   3.806   3.603  0.1953 -0.0280  0.0295
 1064SOL    HW114654   2.087   3.857   3.658 -0.2095 -1.4100  1.7408
 1064SOL    HW214655   2.050   3.835   3.514 -1.2510  1.6847  0.2237
 1065SOL     OW14656   3.803   0.514   7.013  0.3045  0.3015 -1.3330
 1065SOL    HW114657   3.829   0.433   6.968 -0.2087 -0.3887 -0.3816
 1065SOL    HW214658   3.878   0.565   6.980  2.0480 -0.2515  1.7745
 1066SOL     OW14659   4.560   3.584   4.099 -0.0866  0.0197  0.0556
 1066SOL    HW114660   4.591   3.626   4.179  0.7087 -2.2816  0.9546
 1066SOL    HW214661   4.587   3.494   4.114 -2.8658 -1.1009 -1.6559
 1067SOL     OW14662   0.526   1.127  11.903  0.0422 -0.0128  0.0320
 1067SOL    HW114663   0.620   1.119  11.918 -0.0041  2.0389  1.3222
 1067SOL    HW214664   0.515   1.221  11.892  3.3408  0.7032  2.8673
 1068SOL     OW14665   2.251   2.899   2.873 -0.2932 -0.0412 -0.1097
 1068SOL    HW114666   2.272   2.844   2.797  1.1061 -0.5862  0.6687
 1068SOL    HW214667   2.178   2.950   2.839  0.2033 -0.0008 -1.1431
 1069SOL     OW14668   4.662   1.383  15.579 -0.7476  0.0823  0.0034
 1069SOL    HW114669   4.584   1.419  15.621 -1.7771 -2.1137 -0.0412
 1069SOL    HW214670   4.622   1.351  15.498  2.5613  0.3367 -1.7478
 1070SOL     OW14671   1.532   0.271   7.277 -0.8156 -0.4146  0.2843
 1070SOL    HW114672   1.626   0.281   7.290 -1.4440  0.3522  4.3595
 1070SOL    HW214673   1.511   0.307   7.191 -1.9127 -0.2520  0.6170
 1071SOL     OW14674   2.514   3.822   9.402 -0.7116  0.4159 -0.1854
 1071SOL    HW114675   2.423   3.850   9.389 -0.2769  2.3798  1.0182
 1071SOL    HW214676   2.534   3.861   9.487  0.5907 -0.4534 -0.0862
 1072SOL     OW14677   1.734   3.379   7.588 -0.5240 -0.0410 -0.7821
 1072SOL    HW114678   1.741   3.465   7.629  0.3092 -1.1290  1.3390
 1072SOL    HW214679   1.813   3.331   7.613 -0.0917  0.2210 -1.6380
 1073SOL     OW14680   1.184   2.423   7.170  0.2182 -0.3681 -0.7504
 1073SOL    HW114681   1.102   2.383   7.199 -0.4655  2.3655  1.1117
 1073SOL    HW214682   1.189   2.512   7.206  3.0022 -0.7464 -0.2329
 1074SOL     OW14683   1.503   3.000   6.519 -0.7569  0.3956 -0.0490
 1074SOL    HW114684   1.559   2.931   6.554 -2.1496 -0.8694 -0.3094
 1074SOL    HW214685   1.559   3.069   6.484  0.9992 -0.8346  0.3549
 1075SOL     OW14686   1.967   2.592  10.782  0.6304  0.0170  0.2780
 1075SOL    HW114687   1.982   2.630  10.868  0.1879  2.7909 -0.8675
 1075SOL    HW214688   2.025   2.653  10.737 -0.8163  1.1054 -0.1312
 1076SOL     OW14689   4.455   4.167   7.246 -0.0434 -0.1369 -0.0076
 1076SOL    HW114690   4.526   4.183   7.183 -1.3733  2.8042 -0.7589
 1076SOL    HW214691   4.411   4.091   7.209 -2.1792  1.8849 -1.6069
 1077SOL     OW14692   0.770   1.220   9.385 -0.1045 -0.1653 -0.1535
 1077SOL    HW114693   0.690   1.211   9.437 -0.5166 -2.1117 -1.1347
 1077SOL    HW214694   0.831   1.237   9.457  1.0046 -1.5474 -0.7552
 1078SOL     OW14695   0.249   0.270   8.246  0.3510  0.5028  0.1095
 1078SOL    HW114696   0.252   0.364   8.229 -0.1294  0.6417  0.7702
 1078SOL    HW214697   0.316   0.261   8.314  1.5116 -0.7505 -1.2196
 1079SOL     OW14698   2.686   3.920   3.258  1.0069  0.5822  0.0818
 1079SOL    HW114699   2.730   3.929   3.343  2.3221  1.2549 -0.6579
 1079SOL    HW214700   2.663   4.009   3.232 -0.0367  0.0031 -0.9283
 1080SOL     OW14701   1.974   3.882   0.372  0.2261  0.2498 -0.0192
 1080SOL    HW114702   1.916   3.955   0.393  0.6597  0.3624  0.8018
 1080SOL    HW214703   2.034   3.918   0.307 -0.2822  0.3035 -0.4639
 1081SOL     OW14704   1.047   2.686   6.975  0.1994  0.1312 -0.2516
 1081SOL    HW114705   1.072   2.633   7.051  0.6411  2.0111  0.9169
 1081SOL    HW214706   0.961   2.719   7.000  1.7760  1.9797  2.6709
 1082SOL     OW14707   2.073   2.801   7.054  0.6590  0.1274  0.1244
 1082SOL    HW114708   2.046   2.741   7.123  0.7712 -1.4435 -1.1970
 1082SOL    HW214709   2.168   2.802   7.052  0.6098  1.6343 -1.8363
 1083SOL     OW14710   1.189   3.878   7.761  0.4776 -0.2215 -0.3395
 1083SOL    HW114711   1.132   3.891   7.685 -0.5603  0.9378  0.6240
 1083SOL    HW214712   1.227   3.791   7.753 -2.9477 -1.7730  0.2840
 1084SOL     OW14713   0.480   4.334   3.553 -0.8953 -0.1308 -0.3300
 1084SOL    HW114714   0.542   4.295   3.614  1.2600  0.5994 -2.0478
 1084SOL    HW214715   0.532   4.328   3.473 -0.3255 -2.0310  0.1946
 1085SOL     OW14716   4.435   1.110   0.695  0.0289  0.0724 -0.2819
 1085SOL    HW114717   4.515   1.092   0.647 -0.1928  1.3097 -1.0973
 1085SOL    HW214718   4.440   1.054   0.773  1.6382 -0.8624 -1.0663
 1086SOL     OW14719   2.955   0.629   3.168 -0.2332 -0.5102 -0.0152
 1086SOL    HW114720   2.870   0.599   3.202 -1.1617 -0.2866 -2.1585
 1086SOL    HW214721   2.930   0.713   3.129 -2.5600 -0.3075  1.8179
 1087SOL     OW14722   3.724   3.738  14.894 -0.3889 -0.5218  0.4514
 1087SOL    HW114723   3.791   3.693  14.946  1.7502  0.9669 -1.0171
 1087SOL    HW214724   3.652   3.681  14.921 -0.9917 -0.0670 -0.1823
 1088SOL     OW14725   4.416   1.314  13.081 -0.1569 -0.1029 -0.4265
 1088SOL    HW114726   4.447   1.224  13.093 -0.1235 -0.0222  0.0558
 1088SOL    HW214727   4.454   1.337  12.996 -0.9076  0.0407 -0.7305
 1089SOL     OW14728   1.967   3.458   0.055  0.2705  0.1403 -0.0406
 1089SOL    HW114729   1.974   3.516   0.131 -1.6847  0.4391 -0.0949
 1089SOL    HW214730   1.877   3.473   0.028  0.0919 -0.2984  0.3044
 1090SOL     OW14731   2.608   4.038   5.157  0.1098 -0.7433 -0.1468
 1090SOL    HW114732   2.603   4.006   5.247  1.6641  2.8822  1.2430
 1090SOL    HW214733   2.569   3.970   5.103 -2.1824  1.5718 -1.4169
 1091SOL     OW14734   3.914   0.660   7.856 -0.0515 -0.2592  0.0776
 1091SOL    HW114735   3.946   0.570   7.854 -0.8793 -0.5958  1.9757
 1091SOL    HW214736   3.820   0.646   7.869  0.2683  0.6234  3.1488
 1092SOL     OW14737   0.167   3.681   9.561  0.6212 -0.0588  0.6853
 1092SOL    HW114738   0.133   3.764   9.529  2.3040  0.7554  1.0099
 1092SOL    HW214739   0.106   3.656   9.630 -0.5607  2.1448  0.4343
 1093SOL     OW14740   3.608   2.992   6.359 -0.5587 -0.5787  0.3359
 1093SOL    HW114741   3.675   2.924   6.348 -0.4816  0.0291 -2.8383
 1093SOL    HW214742   3.616   3.034   6.273  2.5463 -1.3617  0.2476
 1094SOL     OW14743   4.365   0.631  16.482 -1.0113 -0.4391  0.6700
 1094SOL    HW114744   4.455   0.649  16.457 -1.0105 -0.5604  0.5879
 1094SOL    HW214745   4.362   0.536  16.490  1.4837 -0.5693 -0.0637
 1095SOL     OW14746   1.516   2.664   4.031 -0.1517  0.4452  0.8894
 1095SOL    HW114747   1.522   2.730   4.100 -3.0025  1.8787 -0.2396
 1095SOL    HW214748   1.573   2.697   3.962  1.8143  1.8565  3.1736
 1096SOL     OW14749   3.644   3.229  17.634 -0.3056 -0.0560 -0.5039
 1096SOL    HW114750   3.556   3.216  17.597 -0.7335  0.9165  0.1510
 1096SOL    HW214751   3.664   3.138  17.657 -1.9231 -0.2647  0.1084
 1097SOL     OW14752   3.611   0.805   4.849  0.0201  0.0373 -0.0441
 1097SOL    HW114753   3.621   0.871   4.780  2.2206  0.8308  1.0148
 1097SOL    HW214754   3.682   0.745   4.825 -0.1116  0.1757 -0.8025
 1098SOL     OW14755   1.129   0.995   1.656  0.1533 -0.1639 -0.4312
 1098SOL    HW114756   1.120   1.035   1.569 -1.5440 -2.8706 -1.5132
 1098SOL    HW214757   1.221   0.972   1.641  1.0772  1.5540  2.7098
 1099SOL     OW14758   1.732   2.307   2.339  0.2903 -0.1556 -0.7687
 1099SOL    HW114759   1.756   2.331   2.249 -0.3035  1.3892 -0.5242
 1099SOL    HW214760   1.731   2.396   2.375  1.4439 -0.4431 -0.0497
 1100SOL     OW14761   0.585   0.711   3.551  0.3750  0.1823 -0.2625
 1100SOL    HW114762   0.575   0.731   3.458  1.3150  0.9545 -0.2009
 1100SOL    HW214763   0.566   0.618   3.562 -2.1309  0.6989 -0.1092
 1101SOL     OW14764   3.643   2.390   9.273 -0.3214 -0.1163  0.3172
 1101SOL    HW114765   3.679   2.421   9.191  0.4967  1.8622  1.4348
 1101SOL    HW214766   3.675   2.459   9.332 -0.5872  0.2920 -0.0250
 1102SOL     OW14767   0.876   0.297  16.286 -0.3716 -0.3872 -0.0363
 1102SOL    HW114768   0.879   0.236  16.213  1.5211  0.6669 -0.8523
 1102SOL    HW214769   0.824   0.370  16.253  0.4202 -0.3454 -1.1918
 1103SOL     OW14770   3.258   2.780  15.792  0.0750  0.2441  0.4301
 1103SOL    HW114771   3.238   2.792  15.699  2.7230  0.1883 -0.1219
 1103SOL    HW214772   3.180   2.737  15.828  0.5958 -2.2884 -1.4641
 1104SOL     OW14773   3.501   0.064   1.924  0.0485 -0.0555 -0.2203
 1104SOL    HW114774   3.411   0.097   1.915  0.2451  0.0253 -2.0352
 1104SOL    HW214775   3.547   0.146   1.909  0.8898 -0.4450  0.2416
 1105SOL     OW14776   3.083   1.825   0.135 -0.3360  0.2806  0.3932
 1105SOL    HW114777   3.165   1.818   0.182 -0.5079 -3.4223  0.1441
 1105SOL    HW214778   3.024   1.867   0.197 -0.7446 -2.1097  1.5884
 1106SOL     OW14779   4.703   1.701   8.506 -0.6273 -0.2173  0.6155
 1106SOL    HW114780   0.014   1.615   8.530  0.1997 -0.7937 -2.5854
 1106SOL    HW214781   4.637   1.668   8.444  0.6342  0.4154 -1.0682
 1107SOL     OW14782   3.553   2.214   1.633 -0.1731  0.3868 -0.0593
 1107SOL    HW114783   3.609   2.195   1.558 -0.2229 -3.1073  0.7878
 1107SOL    HW214784   3.501   2.135   1.646 -0.9106  0.6303 -1.5348
 1108SOL     OW14785   1.062   4.247  16.813 -0.2136  0.0845 -0.0617
 1108SOL    HW114786   0.997   4.183  16.842  1.5702 -1.3815  0.7188
 1108SOL    HW214787   1.068   4.237  16.718 -0.3189  0.3480 -0.0964
 1109SOL     OW14788   3.557   0.713   2.789 -0.5901 -0.0697 -0.5425
 1109SOL    HW114789   3.642   0.744   2.818 -0.4446 -0.5370 -0.4648
 1109SOL    HW214790   3.520   0.789   2.744  1.2888 -0.2759 -2.4299
 1110SOL     OW14791   2.289   3.295  16.449  0.1925 -0.2448 -0.0495
 1110SOL    HW114792   2.264   3.294  16.542  0.2497 -0.3867 -0.0350
 1110SOL    HW214793   2.249   3.217  16.410 -0.1400  0.2470 -0.6825
 1111SOL     OW14794   4.280   0.108  10.552  0.1125 -0.2209 -0.0410
 1111SOL    HW114795   4.294   0.122  10.458  1.2298  0.2390  0.1955
 1111SOL    HW214796   4.186   0.124  10.565  0.2770  2.4256 -2.3863
 1112SOL     OW14797   1.818   0.435   0.017 -0.5205 -0.2437  0.0116
 1112SOL    HW114798   1.872   0.505  17.675 -1.2474  0.5479  0.4503
 1112SOL    HW214799   1.806   0.396  17.625 -2.2260 -1.4843  0.8096
 1113SOL     OW14800   4.113   2.242   1.561 -0.2853  0.3423  0.0314
 1113SOL    HW114801   4.152   2.166   1.519 -1.5044 -0.4739  0.3655
 1113SOL    HW214802   4.043   2.199   1.611 -0.8679  0.3136 -0.8133
 1114SOL     OW14803   3.539   2.608   0.284  0.0545  0.0624 -0.1195
 1114SOL    HW114804   3.468   2.552   0.254  1.0286 -0.8712 -0.6721
 1114SOL    HW214805   3.491   2.683   0.318 -0.9053 -0.5834 -0.0481
 1115SOL     OW14806   1.745   4.142   2.746  0.4215 -0.5546 -0.2132
 1115SOL    HW114807   1.656   4.135   2.712  1.1450 -2.9117 -1.5727
 1115SOL    HW214808   1.743   4.213   2.811  0.7395 -2.4178  1.8269
 1116SOL     OW14809   3.154   2.748   4.540 -0.0288  0.7275 -0.1780
 1116SOL    HW114810   3.217   2.717   4.605 -1.8895  3.2915  2.8943
 1116SOL    HW214811   3.078   2.759   4.598  0.4193 -1.1285  0.7576
 1117SOL     OW14812   4.288   1.541   3.182 -0.0195 -0.2625  0.9250
 1117SOL    HW114813   4.230   1.490   3.126 -1.5480  0.5821  1.7350
 1117SOL    HW214814   4.230   1.614   3.204 -2.1761 -1.5182 -0.6846
 1118SOL     OW14815   4.606   2.334   7.309 -0.4310 -0.1394 -0.3998
 1118SOL    HW114816   4.621   2.272   7.237 -0.1834  0.2561 -0.6878
 1118SOL    HW214817   4.516   2.311   7.333 -0.5246 -0.8951 -1.4445
 1119SOL     OW14818   0.629   1.572   3.340  0.2413  0.0645  0.0982
 1119SOL    HW114819   0.630   1.523   3.258  1.8086  0.3747 -0.0654
 1119SOL    HW214820   0.718   1.582   3.373  0.6432 -1.1617 -0.6446
 1120SOL     OW14821   2.624   2.015   8.624  0.3125  0.3775  0.8235
 1120SOL    HW114822   2.561   2.025   8.695 -0.5265 -1.7449  0.3648
 1120SOL    HW214823   2.693   2.067   8.666 -1.2199 -0.1707  4.0556
 1121SOL     OW14824   3.257   3.436  12.721 -0.2727 -0.2836  0.5144
 1121SOL    HW114825   3.329   3.499  12.726 -1.2046  0.6829  1.8742
 1121SOL    HW214826   3.248   3.404  12.811 -3.3297 -0.0254  0.3179
 1122SOL     OW14827   3.991   0.713   9.123  0.3917  0.2902 -0.1089
 1122SOL    HW114828   3.904   0.711   9.085  0.6615  0.4447 -0.7375
 1122SOL    HW214829   4.028   0.692   9.037 -1.6123 -2.5166 -0.2827
 1123SOL     OW14830   1.430   2.833   4.496 -0.0627  0.2867  0.2203
 1123SOL    HW114831   1.517   2.840   4.537 -0.4788 -2.2895  1.5756
 1123SOL    HW214832   1.433   2.741   4.469  2.1190  0.2975  0.3917
 1124SOL     OW14833   4.026   0.670  15.593 -0.7344 -0.2057  0.2622
 1124SOL    HW114834   3.994   0.594  15.641  0.0931 -1.6857 -1.5571
 1124SOL    HW214835   4.121   0.664  15.585 -0.9207 -1.4948 -0.9282
 1125SOL     OW14836   2.946   2.685   4.716 -0.1686 -0.5786 -0.4016
 1125SOL    HW114837   2.854   2.694   4.740 -0.2958 -2.1688 -0.3132
 1125SOL    HW214838   2.939   2.610   4.656 -0.0936  0.2043 -1.3969
 1126SOL     OW14839   3.574   1.693   9.448 -0.1869  0.8723 -0.0463
 1126SOL    HW114840   3.497   1.724   9.399  0.2040  0.8174 -0.6916
 1126SOL    HW214841   3.550   1.600   9.456 -1.0357  0.9450 -1.6348
 1127SOL     OW14842   1.281   1.627   7.606 -0.6429  0.0236 -0.1552
 1127SOL    HW114843   1.215   1.695   7.589 -0.5561  0.6660  2.1694
 1127SOL    HW214844   1.241   1.541   7.598 -1.8756  0.5524  0.3024
 1128SOL     OW14845   0.120   4.370   9.146  0.7159 -0.0680 -0.1858
 1128SOL    HW114846   0.037   4.326   9.130  0.9858 -0.1219 -1.4800
 1128SOL    HW214847   0.181   4.298   9.133 -0.3290 -0.9343 -0.2311
 1129SOL     OW14848   1.527   1.454  13.182 -0.5582  0.3013  0.0378
 1129SOL    HW114849   1.506   1.500  13.100 -1.6338 -0.1752  0.0447
 1129SOL    HW214850   1.449   1.433  13.233 -0.9034  1.6674  0.0830
 1130SOL     OW14851   0.226   2.837  11.699 -0.1318 -0.8148 -0.2609
 1130SOL    HW114852   0.315   2.836  11.733  0.7219  1.3473 -2.4182
 1130SOL    HW214853   0.221   2.927  11.667  1.0437 -0.1346  1.4849
 1131SOL     OW14854   2.595   0.231   8.349  0.0264 -0.5000  0.1688
 1131SOL    HW114855   2.502   0.219   8.328  0.3395 -1.7502 -0.5020
 1131SOL    HW214856   2.635   0.198   8.269  1.9237  0.1130  0.8735
 1132SOL     OW14857   4.085   2.737   5.319  0.1570  0.4601 -0.3113
 1132SOL    HW114858   4.158   2.680   5.296 -0.1705 -1.0215  2.3527
 1132SOL    HW214859   4.070   2.722   5.412 -3.0480 -1.1757 -1.0802
 1133SOL     OW14860   2.571   0.907   6.956 -0.3103 -0.1368  0.1234
 1133SOL    HW114861   2.605   0.935   7.041 -2.7158  3.1518  0.0136
 1133SOL    HW214862   2.490   0.862   6.978 -0.6916  1.0854  1.2321
 1134SOL     OW14863   1.732   2.133   2.727  0.2961 -0.3724 -0.4031
 1134SOL    HW114864   1.689   2.188   2.793 -0.3201  0.3766 -1.4365
 1134SOL    HW214865   1.673   2.131   2.652  1.1751  1.5460 -1.1368
 1135SOL     OW14866   1.906   2.780   5.220 -0.0469 -0.2672 -0.1204
 1135SOL    HW114867   1.988   2.819   5.250 -0.3381 -0.3424  0.7819
 1135SOL    HW214868   1.926   2.721   5.148  2.1733  1.8816 -1.2658
 1136SOL     OW14869   1.230   0.898  14.816  0.3276 -0.4776 -0.1921
 1136SOL    HW114870   1.264   0.973  14.865 -0.6877  0.0978 -0.3767
 1136SOL    HW214871   1.270   0.826  14.865 -1.7106  0.4271  2.7538
 1137SOL     OW14872   0.686   4.470   8.024 -0.5069 -0.3303 -0.3264
 1137SOL    HW114873   0.754   4.408   7.999 -0.2733 -1.1726  2.3661
 1137SOL    HW214874   0.737   4.534   8.073 -0.4538 -1.4866  1.1459
 1138SOL     OW14875   3.423   1.363   3.989 -0.3935  0.1340  0.1659
 1138SOL    HW114876   3.464   1.300   3.930  0.6472 -0.4803  1.5539
 1138SOL    HW214877   3.483   1.437   3.997 -1.8961  1.5126 -1.2003
 1139SOL     OW14878   3.137   1.131   2.021  0.3781 -0.3933 -0.3487
 1139SOL    HW114879   3.184   1.052   2.046 -0.5267 -0.8310 -0.0249
 1139SOL    HW214880   3.155   1.189   2.095  0.1369  0.7596 -1.1903
 1140SOL     OW14881   2.536   4.017   9.608 -0.1258 -0.0707  0.0758
 1140SOL    HW114882   2.494   4.102   9.618 -1.3824 -0.5661 -0.8786
 1140SOL    HW214883   2.548   3.997   9.701  1.7937  2.4937  0.3918
 1141SOL     OW14884   0.173   1.552   7.356  0.3197 -0.5183  0.0484
 1141SOL    HW114885   0.244   1.548   7.421  0.2054 -0.3466  0.1822
 1141SOL    HW214886   0.191   1.467   7.316  0.7178  0.6428 -2.2602
 1142SOL     OW14887   0.637   2.421   1.839 -0.6079  0.1837  0.3008
 1142SOL    HW114888   0.651   2.504   1.884 -4.9324  0.8146  0.5231
 1142SOL    HW214889   0.565   2.434   1.777  1.3318 -0.2122 -2.0095
 1143SOL     OW14890   2.905   3.233   3.439  0.1718  0.0062  0.6570
 1143SOL    HW114891   2.967   3.243   3.366 -1.3119  0.3504 -0.5608
 1143SOL    HW214892   2.835   3.291   3.410  0.2365 -0.1674  0.1509
 1144SOL     OW14893   1.316   3.030   2.382 -0.5011 -0.7652  0.2375
 1144SOL    HW114894   1.369   3.088   2.436  0.5277 -1.8907  0.4160
 1144SOL    HW214895   1.233   3.077   2.392  1.4734  3.2718 -2.1918
 1145SOL     OW14896   0.091   1.715  13.161  0.0728  0.2202  0.1761
 1145SOL    HW114897   0.034   1.790  13.180 -0.8930 -0.6415  0.6385
 1145SOL    HW214898   0.088   1.662  13.240  1.2386  1.3629  0.9781
 1146SOL     OW14899   3.831   1.132  10.702 -0.3642  0.7451  0.1172
 1146SOL    HW114900   3.856   1.040  10.712 -0.5190  0.5829 -1.0397
 1146SOL    HW214901   3.757   1.131  10.642 -1.3925 -2.0706  1.4483
 1147SOL     OW14902   3.927   0.708  12.036  0.5804  0.0404  0.0902
 1147SOL    HW114903   3.999   0.771  12.046  0.2312  0.6272 -1.0783
 1147SOL    HW214904   3.852   0.742  12.085  0.0858 -2.0447  0.7727
 1148SOL     OW14905   4.416   3.688   7.967 -0.2078 -0.3720 -0.6158
 1148SOL    HW114906   4.457   3.774   7.956 -0.5907  0.0445  1.2228
 1148SOL    HW214907   4.409   3.672   7.873  1.6893  0.5276 -0.9133
 1149SOL     OW14908   1.387   0.504   5.177  0.3933 -0.2698  0.5883
 1149SOL    HW114909   1.300   0.528   5.210 -0.1668 -3.4402  1.3411
 1149SOL    HW214910   1.386   0.409   5.167  1.5553 -0.2237 -0.0436
 1150SOL     OW14911   4.359   3.964   1.874  0.8234  0.7041 -0.7191
 1150SOL    HW114912   4.434   3.907   1.887 -1.0835 -1.4095  1.0579
 1150SOL    HW214913   4.349   3.956   1.779 -0.7978  1.1865 -0.6010
 1151SOL     OW14914   2.173   0.630   7.395  0.2401 -0.3051  0.3674
 1151SOL    HW114915   2.225   0.565   7.443  0.7095 -1.7515 -2.1122
 1151SOL    HW214916   2.224   0.645   7.316 -0.3469  1.7164  0.3685
 1152SOL     OW14917   3.380   1.584   8.713 -0.1907  0.2166 -0.0936
 1152SOL    HW114918   3.470   1.606   8.739 -1.0450  1.8714  1.4277
 1152SOL    HW214919   3.376   1.501   8.761 -0.8513  0.8964  1.0184
 1153SOL     OW14920   4.292   3.896   2.169  0.1974  1.0641  0.2658
 1153SOL    HW114921   4.287   3.917   2.076  1.0767  2.2780  0.4931
 1153SOL    HW214922   4.232   3.822   2.164  0.1499  1.2646 -1.8849
 1154SOL     OW14923   0.920   3.290  10.353 -0.1237  0.4590 -0.0679
 1154SOL    HW114924   0.964   3.340  10.284  0.1398 -0.2939 -0.4414
 1154SOL    HW214925   0.853   3.253  10.295 -1.0504 -0.3472  1.5057
 1155SOL     OW14926   2.083   1.259  14.816 -0.2732  0.1631 -0.1284
 1155SOL    HW114927   2.153   1.319  14.791 -1.7171  1.9635  0.0790
 1155SOL    HW214928   2.012   1.318  14.842 -0.9504 -0.3131 -0.8885
 1156SOL     OW14929   2.993   2.936   8.982  0.1426  0.0692 -0.4720
 1156SOL    HW114930   3.077   2.981   8.966 -0.0144 -0.4275 -2.6556
 1156SOL    HW214931   2.968   2.903   8.896  1.4898 -0.9177 -0.4837
 1157SOL     OW14932   3.838   2.555   8.452 -0.3160  0.9558  0.4239
 1157SOL    HW114933   3.861   2.564   8.360 -0.0947  0.6690  0.4499
 1157SOL    HW214934   3.921   2.576   8.495 -0.3084 -0.3955  1.0899
 1158SOL     OW14935   3.458   0.526   5.794  0.7460  0.0081  0.2579
 1158SOL    HW114936   3.424   0.583   5.863 -1.2264 -0.0426 -0.6734
 1158SOL    HW214937   3.513   0.464   5.842  2.0826  1.0822  0.1254
 1159SOL     OW14938   3.206   2.048   9.790  0.3786 -0.5378  0.5723
 1159SOL    HW114939   3.259   2.092   9.856 -1.0542 -0.1790  1.4621
 1159SOL    HW214940   3.158   2.123   9.755 -2.1523 -2.3324  0.1855
 1160SOL     OW14941   2.154   3.281   2.746  0.1359  0.1960 -0.1705
 1160SOL    HW114942   2.219   3.350   2.760 -0.7881  1.3863 -1.7647
 1160SOL    HW214943   2.143   3.303   2.653  1.2257 -1.6855 -0.7370
 1161SOL     OW14944   4.423   3.267   5.657 -0.1974 -0.2016  1.0254
 1161SOL    HW114945   4.351   3.205   5.665 -0.7573  0.0039 -2.1060
 1161SOL    HW214946   4.391   3.356   5.671  0.5144  0.2477 -0.0950
 1162SOL     OW14947   2.902   4.443  15.817  0.4985  0.2262  0.5093
 1162SOL    HW114948   2.851   4.478  15.890 -1.8321 -1.4640 -0.3250
 1162SOL    HW214949   2.837   4.414  15.753  3.2867 -1.3830 -1.6121
 1163SOL     OW14950   4.403   1.979  11.526 -0.1934  0.3174 -0.0104
 1163SOL    HW114951   4.316   2.000  11.491 -0.8571 -1.1257  0.7905
 1163SOL    HW214952   4.391   2.024  11.610  1.2559  0.2375  0.2281
 1164SOL     OW14953   4.093   2.295   9.066  0.4869  0.6518  0.4370
 1164SOL    HW114954   4.141   2.353   9.006  0.9788  0.0011  0.2043
 1164SOL    HW214955   4.159   2.228   9.082 -1.6386 -1.3795  0.7119
 1165SOL     OW14956   3.585   3.450   7.707  0.2153 -0.3371 -0.5336
 1165SOL    HW114957   3.612   3.375   7.760  2.4291  1.0583  0.3036
 1165SOL    HW214958   3.620   3.522   7.759 -0.5450  0.3162 -0.9154
 1166SOL     OW14959   2.655   1.598  14.918  0.0005  0.0568 -0.7478
 1166SOL    HW114960   2.600   1.676  14.913 -0.6340 -0.1037  3.9378
 1166SOL    HW214961   2.664   1.564  14.829  0.2061  0.0381 -0.7190
 1167SOL     OW14962   1.217   0.553  17.448 -0.0150  0.2225  0.3729
 1167SOL    HW114963   1.238   0.646  17.439  0.9109 -0.1148 -0.9699
 1167SOL    HW214964   1.240   0.512  17.364 -2.3641 -1.1985  0.4340
 1168SOL     OW14965   2.728   2.409  11.066  0.1102 -0.5998 -0.2719
 1168SOL    HW114966   2.777   2.354  11.004  1.8968  0.7194 -0.0281
 1168SOL    HW214967   2.680   2.339  11.112 -0.3350 -1.9681 -2.7775
 1169SOL     OW14968   2.366   0.278   9.206 -0.0514 -0.2497 -0.3385
 1169SOL    HW114969   2.455   0.260   9.236  0.1146 -2.0603 -1.8817
 1169SOL    HW214970   2.343   0.201   9.155  0.2308 -0.7728  0.3244
 1170SOL     OW14971   1.206   4.559   6.414 -0.2101  0.0992 -0.4362
 1170SOL    HW114972   1.205   4.577   6.508 -0.6260 -1.7305 -0.0889
 1170SOL    HW214973   1.291   4.517   6.401 -0.6984 -0.7514 -0.9049
 1171SOL     OW14974   0.449   1.732   6.045  0.4606 -0.2500 -0.2180
 1171SOL    HW114975   0.465   1.788   5.969  0.6497  0.8726  0.6525
 1171SOL    HW214976   0.510   1.772   6.107  0.0978 -0.8365  0.5213
 1172SOL     OW14977   2.796   1.333   5.814  0.1706  0.1826  0.1340
 1172SOL    HW114978   2.750   1.270   5.758 -1.6046  0.7744  0.9520
 1172SOL    HW214979   2.860   1.277   5.858 -0.0190  0.3414  0.6118
 1173SOL     OW14980   0.754   1.048   0.173 -0.3456  0.5978  0.3748
 1173SOL    HW114981   0.715   1.104   0.240 -1.6183 -0.5476  0.5734
 1173SOL    HW214982   0.726   1.090   0.092 -1.0237  0.7830  0.7030
 1174SOL     OW14983   0.154   4.560  13.265 -0.3490 -0.3519  0.4701
 1174SOL    HW114984   0.232   4.513  13.234 -1.4280 -1.0023 -1.1950
 1174SOL    HW214985   0.190   4.620  13.331 -0.8311 -0.0486  0.4565
 1175SOL     OW14986   3.105   4.579  15.704 -0.3704 -0.4855 -0.1907
 1175SOL    HW114987   3.168   4.527  15.754 -1.7429 -0.6579  1.3775
 1175SOL    HW214988   3.023   4.541  15.737 -0.1638 -1.3393 -0.6540
 1176SOL     OW14989   2.198   3.773   6.807 -0.2335  0.3289 -0.7630
 1176SOL    HW114990   2.191   3.868   6.798  0.0116  0.4475  0.2784
 1176SOL    HW214991   2.137   3.743   6.740  0.3479  0.8696 -1.5249
 1177SOL     OW14992   4.055   1.079   8.723  0.2063  0.1928  0.2297
 1177SOL    HW114993   4.021   1.116   8.804  0.0936 -0.4536  0.4781
 1177SOL    HW214994   4.123   1.019   8.755  1.6581  1.6414 -0.1418
 1178SOL     OW14995   2.013   2.160   3.355  0.4273 -0.2201 -0.2548
 1178SOL    HW114996   1.923   2.132   3.339  0.7084 -1.2101 -0.1325
 1178SOL    HW214997   2.058   2.118   3.282  1.3765  0.0164  0.2026
 1179SOL     OW14998   3.986   0.499   3.816 -0.2975 -0.5817 -0.1639
 1179SOL    HW114999   3.968   0.577   3.764  0.9768  0.2143  0.5856
 1179SOL    HW215000   3.998   0.437   3.745 -0.3388  0.1642 -0.8167
 1180SOL     OW15001   4.640   2.574   4.361  0.0988 -0.4694 -0.4951
 1180SOL    HW115002   0.007   2.574   4.393 -0.2636  0.3127  0.5277
 1180SOL    HW215003   4.624   2.666   4.342  1.2883 -0.1366  0.1169
 1181SOL     OW15004   2.779   0.200  10.920  0.2824 -1.1048 -0.2357
 1181SOL    HW115005   2.716   0.197  10.992  0.3073 -1.5416 -0.2350
 1181SOL    HW215006   2.822   0.285  10.933  0.9919 -1.6617  1.0476
 1182SOL     OW15007   0.355   1.022   6.021  0.3396  0.4917  0.2496
 1182SOL    HW115008   0.354   0.930   5.993 -1.6985  0.9956 -1.3133
 1182SOL    HW215009   0.391   1.070   5.946 -0.3323 -0.4729 -0.6896
 1183SOL     OW15010   0.005   3.932   3.451 -0.1488 -0.7125 -0.5717
 1183SOL    HW115011   0.019   3.973   3.536 -0.3323 -2.9568  0.5344
 1183SOL    HW215012   0.059   3.994   3.402  0.1716  1.5233  2.6522
 1184SOL     OW15013   4.144   1.993  13.125 -0.6593  0.1990  0.0027
 1184SOL    HW115014   4.173   2.080  13.153 -1.6988  0.4939  0.1496
 1184SOL    HW215015   4.143   1.947  13.209 -0.9207 -0.5470 -0.4093
 1185SOL     OW15016   0.181   3.139   6.903 -0.4488  0.2302 -0.0143
 1185SOL    HW115017   0.173   3.045   6.923  0.5855 -0.3268 -2.2418
 1185SOL    HW215018   0.097   3.175   6.932 -0.9741 -1.5107  0.6597
 1186SOL     OW15019   0.989   2.310   9.102 -0.4584 -0.0212 -0.1526
 1186SOL    HW115020   0.919   2.309   9.037 -1.4079  0.3900  0.8470
 1186SOL    HW215021   0.969   2.387   9.156 -1.2057  0.6834 -1.4489
 1187SOL     OW15022   3.620   3.060   0.209 -0.3720  0.4090  0.4432
 1187SOL    HW115023   3.639   2.971   0.238  1.1777  0.4883 -0.3011
 1187SOL    HW215024   3.698   3.078   0.156 -0.3286  3.5523  1.5942
 1188SOL     OW15025   0.328   4.199   9.058  0.1983 -0.3463  0.3758
 1188SOL    HW115026   0.414   4.234   9.031 -0.7660  1.8199  0.1004
 1188SOL    HW215027   0.347   4.106   9.064 -2.6240 -0.9232  0.2955
 1189SOL     OW15028   3.994   2.671  11.349  0.1572 -0.5354  0.0326
 1189SOL    HW115029   4.068   2.694  11.293  0.6039  1.0328  1.2865
 1189SOL    HW215030   4.022   2.583  11.375  2.3321  0.0265 -0.4115
 1190SOL     OW15031   1.495   0.137  11.085  0.2870  0.1420 -0.0918
 1190SOL    HW115032   1.580   0.167  11.117  0.6948 -1.4131  0.2759
 1190SOL    HW215033   1.449   0.132  11.169  1.8052  1.0511  0.8022
 1191SOL     OW15034   3.158   0.533   4.785 -0.3280  0.0143  0.3898
 1191SOL    HW115035   3.122   0.578   4.861 -1.2625 -1.8455  1.0491
 1191SOL    HW215036   3.243   0.577   4.781 -0.9375  1.1883  0.3816
 1192SOL     OW15037   1.804   0.731   6.051 -0.1194  0.3940 -0.6154
 1192SOL    HW115038   1.819   0.732   5.956 -1.3385  0.4073 -0.8032
 1192SOL    HW215039   1.857   0.655   6.075 -1.1999 -0.3743 -0.6773
 1193SOL     OW15040   0.004   4.156  17.336  0.4933 -0.8722  0.7019
 1193SOL    HW115041   4.653   4.199  17.292  0.8552 -0.6928  0.2770
 1193SOL    HW215042   0.074   4.221  17.333  0.7131 -1.2558 -2.1906
 1194SOL     OW15043   1.446   2.352  15.834 -0.1363  0.0825 -0.1997
 1194SOL    HW115044   1.392   2.403  15.773  1.3132  2.2592  0.3425
 1194SOL    HW215045   1.398   2.377  15.913 -2.6151  0.9740 -2.0026
 1195SOL     OW15046   1.687   3.285   6.893  0.2384 -0.1694 -0.4176
 1195SOL    HW115047   1.611   3.338   6.871 -0.1316 -0.1322  0.9376
 1195SOL    HW215048   1.666   3.271   6.985  0.1430 -1.7453 -0.6714
 1196SOL     OW15049   0.453   1.749   8.405  0.4892 -0.0621 -0.3231
 1196SOL    HW115050   0.528   1.700   8.374  0.7493  0.1087  0.0377
 1196SOL    HW215051   0.378   1.692   8.387 -0.6082  1.1808  0.2207
 1197SOL     OW15052   1.710   0.009  10.236  0.1934 -0.2639 -0.2895
 1197SOL    HW115053   1.788   4.707  10.286  0.0575 -0.7792 -0.3304
 1197SOL    HW215054   1.745   0.096  10.216 -0.1656  0.0593  0.4538
 1198SOL     OW15055   4.064   3.391   4.312 -0.2599  0.1979 -0.0062
 1198SOL    HW115056   4.045   3.298   4.325  0.2016  0.1056  0.0285
 1198SOL    HW215057   4.141   3.406   4.368 -0.1371  1.2875 -0.4702
 1199SOL     OW15058   2.135   1.291   2.881 -0.2967 -0.3997  0.0005
 1199SOL    HW115059   2.150   1.384   2.894  1.2330 -0.7741  0.8645
 1199SOL    HW215060   2.050   1.275   2.923 -1.0689  0.6440 -1.1615
 1200SOL     OW15061   3.270   3.904   6.038 -0.3332 -0.2631 -0.4740
 1200SOL    HW115062   3.187   3.951   6.050 -0.3232 -1.0225  2.6616
 1200SOL    HW215063   3.307   3.948   5.961 -1.0347  0.2190 -0.5326
 1201SOL     OW15064   4.493   3.900   7.416 -0.1614 -0.5347  0.2484
 1201SOL    HW115065   4.570   3.843   7.405  1.5764  1.7664  0.4715
 1201SOL    HW215066   4.444   3.877   7.337  0.7979  0.5769 -0.6781
 1202SOL     OW15067   1.131   3.179   5.292 -0.2348  0.2769  0.3533
 1202SOL    HW115068   1.122   3.243   5.222 -3.4230  1.1041  1.4919
 1202SOL    HW215069   1.212   3.200   5.339  1.7652 -1.8190 -2.1717
 1203SOL     OW15070   1.718   1.951  12.920  0.1310 -0.6579 -0.5165
 1203SOL    HW115071   1.649   1.893  12.891  0.8736 -1.3387 -0.9184
 1203SOL    HW215072   1.706   1.951  13.015  1.5120  0.4859 -0.3341
 1204SOL     OW15073   2.042   4.572   0.487 -0.1192  0.0242 -0.7417
 1204SOL    HW115074   2.013   4.528   0.407 -0.6763  1.9205 -1.5946
 1204SOL    HW215075   2.073   4.497   0.537  1.2007  1.3012  0.3495
 1205SOL     OW15076   2.590   4.611   4.702 -0.3984  0.1879  0.1041
 1205SOL    HW115077   2.599   4.527   4.656  1.1172 -0.1430  1.0080
 1205SOL    HW215078   2.499   4.601   4.730 -0.6259  2.1997  0.0545
 1206SOL     OW15079   3.144   0.476   9.584  0.1326  0.0760 -0.3273
 1206SOL    HW115080   3.082   0.538   9.546  0.5983  0.7315 -0.0129
 1206SOL    HW215081   3.216   0.533   9.612 -0.7267  1.1271 -0.2879
 1207SOL     OW15082   2.011   2.077  11.079  0.1629  0.4463 -0.3049
 1207SOL    HW115083   1.924   2.108  11.057  0.3653  0.1280 -1.5424
 1207SOL    HW215084   2.026   2.015  11.008  0.5871 -0.1451  0.3009
 1208SOL     OW15085   1.105   0.544  11.958  0.1341 -0.3174  1.0088
 1208SOL    HW115086   1.104   0.501  12.044 -0.4320 -0.4904  0.9171
 1208SOL    HW215087   1.043   0.616  11.970  1.2358  0.8435 -0.3270
 1209SOL     OW15088   2.610   3.347   2.867  0.2217 -0.0494 -0.2048
 1209SOL    HW115089   2.672   3.305   2.927  0.5125  1.3564  0.4648
 1209SOL    HW215090   2.664   3.418   2.833 -2.1603  0.9390 -1.9152
 1210SOL     OW15091   4.578   4.669   4.045 -0.1350 -0.5370 -0.3217
 1210SOL    HW115092   4.638   0.015   4.016 -0.3150 -0.8782 -1.5201
 1210SOL    HW215093   4.510   4.676   3.978  0.8046 -2.0874 -1.4574
 1211SOL     OW15094   2.564   1.742   5.693  0.2636 -0.1592  0.1375
 1211SOL    HW115095   2.482   1.701   5.665  0.4700  0.1231 -0.8482
 1211SOL    HW215096   2.603   1.752   5.606  0.2219 -2.2256 -0.1324
 1212SOL     OW15097   4.107   0.890   9.619  0.1647  0.1853 -1.1127
 1212SOL    HW115098   4.087   0.952   9.548 -0.8710  0.5051 -0.5345
 1212SOL    HW215099   4.156   0.949   9.676 -0.9983 -1.8632  2.0001
 1213SOL     OW15100   4.179   0.779  11.262  0.4721  0.0929  0.6623
 1213SOL    HW115101   4.165   0.791  11.356 -1.3306 -0.0646  0.4178
 1213SOL    HW215102   4.267   0.814  11.253  1.7007 -2.5434  2.2563
 1214SOL     OW15103   1.474   0.661   3.168 -0.5541 -0.6105 -0.6559
 1214SOL    HW115104   1.489   0.604   3.244 -1.1115 -1.2679 -1.0438
 1214SOL    HW215105   1.512   0.746   3.191 -0.8745 -1.2682  2.3051
 1215SOL     OW15106   0.935   3.908   3.853  0.4666 -0.1012  0.2105
 1215SOL    HW115107   0.866   3.964   3.815  0.5005 -0.5336 -0.4859
 1215SOL    HW215108   0.988   3.888   3.777  0.6499 -0.2013  0.3663
 1216SOL     OW15109   4.317   0.326   5.371 -0.0951 -0.0040 -0.9442
 1216SOL    HW115110   4.312   0.372   5.288 -1.8895  2.9587  0.7807
 1216SOL    HW215111   4.260   0.252   5.352 -1.2942  0.0647  2.3856
 1217SOL     OW15112   2.981   3.525   1.907  0.3759 -0.0443 -0.3192
 1217SOL    HW115113   3.038   3.583   1.856 -0.2428  1.2056  0.4162
 1217SOL    HW215114   3.052   3.487   1.959 -1.1175  2.0227  3.1689
 1218SOL     OW15115   3.070   4.050  17.396  0.0544  0.3695 -0.1240
 1218SOL    HW115116   3.157   4.087  17.387  0.1409 -0.1325 -1.3255
 1218SOL    HW215117   3.058   4.037  17.302  0.9679 -0.5357 -0.1168
 1219SOL     OW15118   4.494   4.544  16.960  0.7978 -0.3928  0.5209
 1219SOL    HW115119   4.434   4.543  16.885 -0.6298  2.2993  1.5948
 1219SOL    HW215120   4.475   4.626  17.005 -1.0701 -0.5584  0.0490
 1220SOL     OW15121   4.534   1.066   6.412  0.3460 -0.3024 -0.2709
 1220SOL    HW115122   4.439   1.080   6.414  0.5664  1.1850 -0.2176
 1220SOL    HW215123   4.562   1.152   6.444 -1.8583  0.5203 -0.5749
 1221SOL     OW15124   2.178   0.613   8.288  0.2688 -0.1208 -0.5965
 1221SOL    HW115125   2.249   0.590   8.348 -2.2604 -1.1092  2.0285
 1221SOL    HW215126   2.114   0.656   8.344 -0.0391  0.3208 -1.2876
 1222SOL     OW15127   3.113   1.394   1.310  0.2050  0.9213  0.4603
 1222SOL    HW115128   3.193   1.446   1.308  1.3686 -0.9005 -0.4242
 1222SOL    HW215129   3.066   1.429   1.386 -2.6742  2.5956 -2.0436
 1223SOL     OW15130   3.176   4.365  13.168  0.1766  0.0018 -0.0393
 1223SOL    HW115131   3.213   4.422  13.100  0.9626 -1.2924 -0.7095
 1223SOL    HW215132   3.240   4.295  13.180 -2.5561 -2.2467  1.3742
 1224SOL     OW15133   1.593   0.341  11.543 -0.0259  0.3859  0.2421
 1224SOL    HW115134   1.556   0.257  11.572  1.9506 -0.7603 -0.5919
 1224SOL    HW215135   1.582   0.346  11.448  0.6366  0.5940  0.1815
 1225SOL     OW15136   4.419   3.855   5.287 -0.4612 -0.4413 -0.0225
 1225SOL    HW115137   4.357   3.795   5.327 -0.1965 -1.4157 -1.0753
 1225SOL    HW215138   4.487   3.788   5.282 -0.2254 -0.1055 -1.4998
 1226SOL     OW15139   1.524   2.418   3.364 -0.1658 -0.0837  0.1485
 1226SOL    HW115140   1.597   2.469   3.330 -0.4420 -1.1334 -2.0210
 1226SOL    HW215141   1.472   2.434   3.286  0.6664  0.0031 -0.3805
 1227SOL     OW15142   0.766   2.717   0.464  0.1231  0.4541 -0.1306
 1227SOL    HW115143   0.705   2.734   0.393 -1.1836  0.3300  0.9560
 1227SOL    HW215144   0.710   2.666   0.523 -0.1323  1.5594  0.5842
 1228SOL     OW15145   4.564   1.272   4.180  0.0375 -0.9290  0.3117
 1228SOL    HW115146   4.581   1.209   4.111  2.5928  1.3876 -1.1766
 1228SOL    HW215147   4.492   1.227   4.224  0.3167 -0.7688  0.9334
 1229SOL     OW15148   2.625   3.768   1.566 -0.5335  0.2019 -0.0805
 1229SOL    HW115149   2.594   3.841   1.620  0.1405 -0.9755  1.9197
 1229SOL    HW215150   2.639   3.692   1.623  0.0086  0.2433 -0.1566
 1230SOL     OW15151   0.268   0.674  14.173  0.2844  0.3850  0.3136
 1230SOL    HW115152   0.337   0.720  14.221 -0.3006 -0.0822  1.6125
 1230SOL    HW215153   0.207   0.742  14.147 -1.8462 -1.3396  0.8148
 1231SOL     OW15154   4.654   2.690  16.978  0.0153 -0.5524 -0.5031
 1231SOL    HW115155   4.651   2.785  16.972 -2.2991 -0.3930  2.6746
 1231SOL    HW215156   0.011   2.676  16.928  1.7128  0.1627  1.9774
 1232SOL     OW15157   3.448   0.315   4.021  0.4102 -0.8137  0.4322
 1232SOL    HW115158   3.430   0.232   4.063  0.9692 -1.6924 -1.0523
 1232SOL    HW215159   3.424   0.301   3.929  1.3301 -2.5044  0.4597
 1233SOL     OW15160   4.711   1.030   9.295  1.0281  0.2110  0.2529
 1233SOL    HW115161   0.075   0.994   9.278  1.4046  0.4429  1.7083
 1233SOL    HW215162   4.661   0.984   9.227 -0.1258 -1.6838  2.3974
 1234SOL     OW15163   4.179   1.797   4.612 -0.4726 -0.0382 -0.1848
 1234SOL    HW115164   4.099   1.750   4.588 -0.1143 -0.6350 -0.1965
 1234SOL    HW215165   4.225   1.731   4.664 -0.3873  0.2888  0.1533
 1235SOL     OW15166   2.888   0.132   6.780  0.0649  0.3303  0.8789
 1235SOL    HW115167   2.982   0.115   6.772 -0.4595 -1.6047 -0.9363
 1235SOL    HW215168   2.875   0.214   6.828 -2.3742  0.7989 -0.5707
 1236SOL     OW15169   1.149   0.540   8.201 -0.0254 -0.6838  0.0940
 1236SOL    HW115170   1.106   0.454   8.201 -0.5145 -0.4306  1.1455
 1236SOL    HW215171   1.121   0.565   8.113  0.1376  0.7861  0.4703
 1237SOL     OW15172   2.477   0.807  15.451  0.0819 -0.3432 -0.5202
 1237SOL    HW115173   2.479   0.712  15.438  1.4585 -0.3719 -0.1187
 1237SOL    HW215174   2.479   0.807  15.547  0.8242 -1.6194 -0.5400
 1238SOL     OW15175   3.412   2.239   9.323 -0.5813  0.7633 -0.3500
 1238SOL    HW115176   3.492   2.291   9.320  0.3846 -0.6910  0.5688
 1238SOL    HW215177   3.368   2.249   9.238 -0.9619 -2.6847 -0.5264
 1239SOL     OW15178   4.291   3.006  11.450  0.0077 -0.3082  0.2418
 1239SOL    HW115179   4.297   3.097  11.481 -1.3785  0.3156 -1.3082
 1239SOL    HW215180   4.198   3.009  11.429 -0.0133 -0.5002  0.3110
 1240SOL     OW15181   0.787   2.690   7.960  0.0903  0.5223 -0.3219
 1240SOL    HW115182   0.814   2.781   7.973 -0.0442  0.4350  0.5725
 1240SOL    HW215183   0.867   2.647   7.930  1.2177  1.6469  1.1169
 1241SOL     OW15184   4.044   3.212   1.365 -0.4036 -0.2748  0.7304
 1241SOL    HW115185   4.034   3.176   1.277 -2.9898  1.5038  0.3123
 1241SOL    HW215186   3.991   3.157   1.423 -1.4997 -0.3810 -0.3763
 1242SOL     OW15187   0.205   3.598   6.576  0.3105  0.0017 -0.6763
 1242SOL    HW115188   0.135   3.535   6.561  1.1939 -1.1001 -0.1643
 1242SOL    HW215189   0.230   3.574   6.665 -1.4712  2.2975  0.4600
 1243SOL     OW15190   1.767   0.262   4.218 -0.0637 -0.2299 -0.3060
 1243SOL    HW115191   1.685   0.218   4.192  0.1256 -1.3031  0.8859
 1243SOL    HW215192   1.779   0.232   4.308  0.7096 -0.7003 -0.5705
 1244SOL     OW15193   4.321   3.919  12.516  0.7878  0.7333 -0.5096
 1244SOL    HW115194   4.351   3.963  12.437  0.0129  0.4985 -0.9308
 1244SOL    HW215195   4.377   3.843  12.529 -0.6348 -0.1362  0.5677
 1245SOL     OW15196   4.203   2.017   1.849  0.2341 -0.2745  0.0730
 1245SOL    HW115197   4.210   2.063   1.933 -2.2574  0.3332 -0.0523
 1245SOL    HW215198   4.297   2.008   1.831  0.1522 -0.9790  0.0026
 1246SOL     OW15199   1.144   3.202   3.956 -0.1090 -0.3825  0.4182
 1246SOL    HW115200   1.070   3.147   3.983 -1.2461  1.0997  0.2974
 1246SOL    HW215201   1.168   3.235   4.042  0.1779  3.2591 -1.0675
 1247SOL     OW15202   0.772   1.614  16.410  0.1058 -0.0221 -0.1075
 1247SOL    HW115203   0.865   1.615  16.387  0.7152  0.3928  2.3958
 1247SOL    HW215204   0.769   1.667  16.490 -2.2573  0.8216 -0.7609
 1248SOL     OW15205   2.733   2.359   5.394  0.5557 -0.1772  0.0728
 1248SOL    HW115206   2.798   2.408   5.343  1.8286 -0.3459  1.5536
 1248SOL    HW215207   2.645   2.385   5.367  0.2888 -0.4889  0.6473
 1249SOL     OW15208   2.296   2.132  16.251 -0.0626 -0.5058  0.1283
 1249SOL    HW115209   2.369   2.082  16.215 -1.0025 -0.4437 -1.8895
 1249SOL    HW215210   2.266   2.071  16.318  0.0409 -0.3084  0.3544
 1250SOL     OW15211   1.735   3.865   6.342  0.2868  0.4002  0.1391
 1250SOL    HW115212   1.744   3.839   6.250  1.6627  2.1233 -0.1970
 1250SOL    HW215213   1.827   3.880   6.362  0.5373 -0.1873 -0.5844
 1251SOL     OW15214   1.503   2.808   5.768 -0.2617 -0.2105  0.4418
 1251SOL    HW115215   1.510   2.778   5.859  2.5671 -0.3275  0.1759
 1251SOL    HW215216   1.540   2.733   5.722 -3.1441 -1.2042 -0.2569
 1252SOL     OW15217   4.376   1.852   4.434 -0.2076  0.2992  0.1037
 1252SOL    HW115218   4.299   1.878   4.484 -1.1670 -0.1380 -1.1371
 1252SOL    HW215219   4.435   1.874   4.506  0.2015  3.3504 -1.1957
 1253SOL     OW15220   4.598   3.041   2.323 -0.6105  0.7924 -0.3284
 1253SOL    HW115221   4.642   3.048   2.408 -0.0813  2.7704 -0.7656
 1253SOL    HW215222   4.547   2.962   2.339  2.6580 -1.2316  0.2993
 1254SOL     OW15223   0.627   4.129   4.561 -0.2273  0.0080 -0.1070
 1254SOL    HW115224   0.581   4.049   4.589  1.6280 -2.2614 -3.4977
 1254SOL    HW215225   0.635   4.115   4.467  1.3818  1.4656 -0.1739
 1255SOL     OW15226   4.236   2.913  12.704  0.0494  0.4740 -0.2881
 1255SOL    HW115227   4.282   2.996  12.718  0.7161  0.3042 -1.4799
 1255SOL    HW215228   4.160   2.932  12.649 -1.2087 -2.7602  0.3728
 1256SOL     OW15229   4.090   3.985   3.774  0.1097 -0.5247  0.2500
 1256SOL    HW115230   4.166   3.936   3.744 -0.8004 -0.1853 -2.6328
 1256SOL    HW215231   4.138   4.067   3.785  0.9860 -0.9272 -0.5618
 1257SOL     OW15232   1.310   0.636  12.340  0.5759  0.4153 -0.9950
 1257SOL    HW115233   1.382   0.631  12.277  0.3651 -0.4961 -1.1691
 1257SOL    HW215234   1.271   0.554  12.310  1.2703 -0.7829  1.4205
 1258SOL     OW15235   2.152   2.031   9.190  0.4946  0.5425 -0.7796
 1258SOL    HW115236   2.183   2.122   9.193 -0.2520  0.7049  1.7770
 1258SOL    HW215237   2.172   2.000   9.278  1.4993  2.3027 -0.3728
 1259SOL     OW15238   1.382   3.251   5.387  0.7945 -0.0587 -0.6541
 1259SOL    HW115239   1.462   3.198   5.387  0.7664 -0.0899  3.1557
 1259SOL    HW215240   1.366   3.243   5.481  1.4774  0.1675 -0.5199
 1260SOL     OW15241   3.429   1.035  13.150 -0.0467 -0.0643 -0.0643
 1260SOL    HW115242   3.420   0.944  13.122  1.4648 -0.7985  1.7820
 1260SOL    HW215243   3.433   1.020  13.245  1.6002  0.8840  0.0173
 1261SOL     OW15244   0.351   2.199   5.623  0.2342 -0.4562  0.1154
 1261SOL    HW115245   0.259   2.223   5.613  1.0081  2.2471 -0.6625
 1261SOL    HW215246   0.374   2.172   5.534  0.2506  1.6845 -0.5460
 1262SOL     OW15247   1.330   3.201  14.346 -0.6500 -0.2553 -0.6671
 1262SOL    HW115248   1.273   3.128  14.372 -0.4309  0.6783  2.4392
 1262SOL    HW215249   1.355   3.241  14.430 -1.6042 -1.3694  0.1534
 1263SOL     OW15250   0.020   2.567   8.073  0.2902 -0.0234 -0.3802
 1263SOL    HW115251   4.708   2.496   8.126 -1.7314  2.6876  1.9294
 1263SOL    HW215252   0.102   2.523   8.049 -0.8216 -2.1223 -0.2980
 1264SOL     OW15253   3.102   2.277   9.678  0.0362  0.3877 -0.6456
 1264SOL    HW115254   3.143   2.363   9.670  1.1634 -0.1291 -0.5126
 1264SOL    HW215255   3.017   2.283   9.720  0.0958 -0.1123 -0.4550
 1265SOL     OW15256   2.125   3.149   3.249 -0.0196  0.0997  0.6050
 1265SOL    HW115257   2.073   3.147   3.168 -0.4298 -2.2416  0.9370
 1265SOL    HW215258   2.181   3.073   3.234 -0.9244 -0.9468  2.5528
 1266SOL     OW15259   2.771   2.208   6.339  0.2607 -0.2675 -0.1637
 1266SOL    HW115260   2.863   2.232   6.332 -0.0982  0.7991 -1.2945
 1266SOL    HW215261   2.779   2.123   6.381 -1.2860  0.9821  2.6763
 1267SOL     OW15262   4.278   1.332   1.699  0.0190  0.3758  0.1170
 1267SOL    HW115263   4.364   1.358   1.666  0.7302 -1.5630  0.4316
 1267SOL    HW215264   4.275   1.388   1.776  1.4915  0.6340 -0.0234
 1268SOL     OW15265   0.384   3.929  11.418  0.5330 -0.3281 -0.8338
 1268SOL    HW115266   0.384   4.004  11.359 -1.3293 -0.2893 -0.7735
 1268SOL    HW215267   0.458   3.882  11.380  1.2638 -0.5301  0.8451
 1269SOL     OW15268   2.528   0.340   6.580  0.2652  0.8199  0.1545
 1269SOL    HW115269   2.539   0.384   6.495  1.2572  1.1023  0.4262
 1269SOL    HW215270   2.566   0.256   6.551 -0.8156  1.4244 -3.0683
 1270SOL     OW15271   1.115   1.311  14.115  0.0636  0.0045 -0.4464
 1270SOL    HW115272   1.095   1.282  14.204 -0.9088 -1.8431 -1.2816
 1270SOL    HW215273   1.208   1.330  14.130 -0.3914  2.4534 -0.7477
 1271SOL     OW15274   0.229   2.910  17.492 -0.8124 -0.1439 -0.9476
 1271SOL    HW115275   0.212   2.815  17.494 -0.1018 -0.2312  0.9949
 1271SOL    HW215276   0.221   2.933  17.399  2.0947  0.7863 -0.9543
 1272SOL     OW15277   3.762   2.779  13.159  0.2936  0.1846 -0.0474
 1272SOL    HW115278   3.827   2.760  13.227  2.1765  1.3367 -1.5088
 1272SOL    HW215279   3.805   2.740  13.082  0.0356  1.2092 -0.7126
 1273SOL     OW15280   2.521   0.785   8.984  0.0707  0.4385 -0.2491
 1273SOL    HW115281   2.451   0.846   8.963  1.0263  1.2971 -0.9004
 1273SOL    HW215282   2.542   0.762   8.893  0.8768  0.6634 -0.1234
 1274SOL     OW15283   3.432   0.766   8.124  0.3228  0.4342 -0.1487
 1274SOL    HW115284   3.366   0.726   8.179 -0.3827  0.8094 -0.7237
 1274SOL    HW215285   3.438   0.712   8.046 -0.5359 -1.5189  1.1594
 1275SOL     OW15286   0.714   4.528  11.498 -0.2008 -0.2149 -0.6366
 1275SOL    HW115287   0.621   4.512  11.516 -0.2455  1.8730  1.0465
 1275SOL    HW215288   0.757   4.486  11.572  2.2002 -0.8090 -2.3760
 1276SOL     OW15289   0.203   2.112   7.277 -0.2294  0.7139 -0.6333
 1276SOL    HW115290   0.249   2.180   7.228  1.1539  0.6690  0.6132
 1276SOL    HW215291   0.254   2.096   7.356 -0.5718 -0.4319 -0.6397
 1277SOL     OW15292   1.347   2.038  13.447 -0.3289 -0.1794  0.1700
 1277SOL    HW115293   1.428   2.060  13.493 -0.7443  1.3829  0.1269
 1277SOL    HW215294   1.291   2.042  13.524  0.8166  1.9765  0.9021
 1278SOL     OW15295   1.633   3.010   4.308  0.3780  0.3719 -0.1465
 1278SOL    HW115296   1.593   3.005   4.395  0.7610 -0.3052 -0.0053
 1278SOL    HW215297   1.571   2.966   4.250 -0.7512  1.6721  0.0737
 1279SOL     OW15298   1.060   3.371  14.516  0.3557  0.4153  0.0403
 1279SOL    HW115299   1.008   3.349  14.594 -1.1711  1.2676 -0.7532
 1279SOL    HW215300   1.012   3.317  14.453  0.2198 -0.5730  0.9758
 1280SOL     OW15301   4.039   1.656  12.570  0.5606 -0.1206 -0.6172
 1280SOL    HW115302   4.020   1.592  12.502 -0.3405 -1.4635  0.9150
 1280SOL    HW215303   4.135   1.653  12.568  0.4720 -2.8150  0.0380
 1281SOL     OW15304   2.972   3.044   5.159 -0.3868 -0.0151 -0.5558
 1281SOL    HW115305   3.038   3.045   5.090 -0.9044  0.2882 -1.0483
 1281SOL    HW215306   2.953   3.137   5.168  3.3755  0.5611  1.0663
 1282SOL     OW15307   4.178   1.687   8.496 -0.1991  0.2871 -0.6506
 1282SOL    HW115308   4.088   1.670   8.525  0.2833  0.4417  0.9223
 1282SOL    HW215309   4.180   1.637   8.414 -1.1938 -0.7400 -0.0407
 1283SOL     OW15310   3.264   2.949   0.661  0.4269  0.8145 -0.6166
 1283SOL    HW115311   3.248   3.009   0.588  1.2383  1.1694 -0.5013
 1283SOL    HW215312   3.316   2.998   0.725  2.5595  1.1053 -2.6053
 1284SOL     OW15313   0.753   2.797   8.914  1.2145 -0.2180 -0.0507
 1284SOL    HW115314   0.677   2.804   8.856  0.5101  1.7189  1.1037
 1284SOL    HW215315   0.742   2.708   8.947 -1.2073  0.2217  0.3506
 1285SOL     OW15316   2.218   2.200   7.229 -0.1598  0.1266  0.6021
 1285SOL    HW115317   2.174   2.228   7.149 -1.0101 -1.0163  0.6587
 1285SOL    HW215318   2.151   2.212   7.296  0.8815  1.8689  1.3281
 1286SOL     OW15319   3.769   2.093   8.643  0.2265 -0.0921  0.5599
 1286SOL    HW115320   3.741   2.182   8.620 -3.2696 -0.9256  1.5321
 1286SOL    HW215321   3.776   2.093   8.739  1.5919  0.3571  0.4642
 1287SOL     OW15322   3.156   2.358   7.747  0.2179  0.1306  0.1336
 1287SOL    HW115323   3.136   2.387   7.836 -0.8749 -0.8926  0.2237
 1287SOL    HW215324   3.069   2.354   7.707 -0.4618  0.3519  1.6000
 1288SOL     OW15325   0.737   3.996   1.167  0.6854  0.1539 -0.0750
 1288SOL    HW115326   0.727   4.002   1.072  0.9661  0.0323 -0.1110
 1288SOL    HW215327   0.703   4.080   1.198  0.8857  0.7093 -1.3933
 1289SOL     OW15328   2.581   1.384  14.356 -0.4989 -0.5184  0.8181
 1289SOL    HW115329   2.588   1.478  14.375 -2.0446 -0.3126  0.4267
 1289SOL    HW215330   2.512   1.383  14.289  1.1789  1.0686 -0.9193
 1290SOL     OW15331   4.123   4.082   6.886  0.1612  0.0222 -0.5098
 1290SOL    HW115332   4.136   3.987   6.888  1.1339  0.1441 -1.3841
 1290SOL    HW215333   4.099   4.084   6.794 -0.7426  0.4865 -0.2665
 1291SOL     OW15334   2.483   2.501   6.317  0.0191 -0.3540  0.1471
 1291SOL    HW115335   2.466   2.535   6.229  1.1895  1.3207  0.5590
 1291SOL    HW215336   2.554   2.556   6.351  0.6029 -0.9259 -0.1342
 1292SOL     OW15337   1.771   2.133  11.693  0.3554  0.0275  0.4449
 1292SOL    HW115338   1.828   2.200  11.657  1.4676 -0.8937  0.4986
 1292SOL    HW215339   1.739   2.092  11.613  2.2228  0.5253 -0.5433
 1293SOL     OW15340   2.422   3.766   0.703 -1.0870  0.1064  0.1812
 1293SOL    HW115341   2.503   3.802   0.668 -0.0405 -1.3476  1.1442
 1293SOL    HW215342   2.361   3.789   0.632 -0.9772  1.5508  0.5419
 1294SOL     OW15343   0.147   3.875   6.798 -0.5349  0.3320 -0.3494
 1294SOL    HW115344   0.230   3.828   6.805  0.9946  2.7299 -2.5512
 1294SOL    HW215345   0.149   3.915   6.885 -1.1292 -1.7680  0.6229
 1295SOL     OW15346   4.261   1.975   0.353 -0.5450  0.1845  0.4028
 1295SOL    HW115347   4.318   2.047   0.378  1.5520 -1.2451 -0.2764
 1295SOL    HW215348   4.315   1.933   0.286  1.0948 -1.3180  2.6661
 1296SOL     OW15349   1.699   2.891   6.260 -0.1048  0.0340  0.1293
 1296SOL    HW115350   1.689   2.986   6.270  0.5996  0.0511  0.6528
 1296SOL    HW215351   1.720   2.879   6.353  1.4598 -0.5839 -0.2952
 1297SOL     OW15352   4.016   0.153  10.553  0.1194 -0.3760 -0.6624
 1297SOL    HW115353   3.974   0.135  10.469 -2.9771  0.7545  0.6397
 1297SOL    HW215354   3.938   0.155  10.609  0.4290 -0.1351 -0.2351
 1298SOL     OW15355   4.197   4.337   7.611 -0.6451  0.0756 -0.3543
 1298SOL    HW115356   4.214   4.357   7.703  0.4303  2.5956 -1.1005
 1298SOL    HW215357   4.272   4.278   7.602 -0.1153  0.5702  0.7054
 1299SOL     OW15358   1.968   3.976   6.456  0.2443 -0.0211  0.3079
 1299SOL    HW115359   1.940   4.063   6.487  3.4042  0.7462  0.9833
 1299SOL    HW215360   2.057   3.995   6.427 -0.2448  2.5982  0.4775
 1300SOL     OW15361   4.157   0.970   2.948  0.9173 -0.1674 -0.3945
 1300SOL    HW115362   4.151   0.998   2.857  0.6558  2.0305  0.2914
 1300SOL    HW215363   4.153   0.874   2.946  0.6789 -0.2222  2.2565
 1301SOL     OW15364   3.090   1.344   8.293  0.2956  0.0159 -0.5470
 1301SOL    HW115365   3.050   1.267   8.252 -1.3735 -0.5562  2.1471
 1301SOL    HW215366   3.055   1.344   8.382 -1.0227 -2.0024 -1.0489
 1302SOL     OW15367   3.577   4.235   5.214  0.5961  0.7399  0.0915
 1302SOL    HW115368   3.624   4.152   5.210  1.0510  0.9551  1.1106
 1302SOL    HW215369   3.560   4.258   5.122  0.2761 -0.8434 -0.2491
 1303SOL     OW15370   2.781   3.563   7.998 -1.1857 -0.4288  0.1251
 1303SOL    HW115371   2.712   3.628   8.012 -1.4767 -0.3640 -1.5008
 1303SOL    HW215372   2.831   3.593   7.922  1.3181 -0.1013  1.8980
 1304SOL     OW15373   3.913   4.239   8.439  0.1872  0.6560 -0.3619
 1304SOL    HW115374   3.818   4.224   8.438  0.4408 -0.9792  0.8992
 1304SOL    HW215375   3.910   4.321   8.487  0.5027  0.0250  0.7443
 1305SOL     OW15376   0.472   1.033   5.255 -0.5275 -0.0942 -0.3691
 1305SOL    HW115377   0.428   0.948   5.242 -0.3028 -0.3016  0.2333
 1305SOL    HW215378   0.536   1.025   5.184  2.7976  1.5099  2.5176
 1306SOL     OW15379   4.096   1.906   2.736 -0.0528 -0.5260 -0.3846
 1306SOL    HW115380   4.095   1.994   2.700  1.6101  0.4456  1.9517
 1306SOL    HW215381   4.104   1.853   2.657 -1.2337  0.2464 -1.0202
 1307SOL     OW15382   1.467   3.567  14.374 -0.7241 -0.3263  0.3282
 1307SOL    HW115383   1.407   3.516  14.429 -1.1194 -1.0515 -0.7864
 1307SOL    HW215384   1.524   3.610  14.438 -1.3934 -0.2762  0.8959
 1308SOL     OW15385   0.017   1.255  12.702  0.7024  0.8168  0.4388
 1308SOL    HW115386   0.047   1.298  12.622 -0.6002 -0.3655 -0.6726
 1308SOL    HW215387   0.070   1.309  12.761  0.4630 -1.2294  2.5331
 1309SOL     OW15388   2.150   0.786   7.937  0.1891  0.1992 -0.5921
 1309SOL    HW115389   2.151   0.744   8.022 -3.0532 -1.0316 -1.1753
 1309SOL    HW215390   2.194   0.720   7.884 -1.1991 -0.9360 -0.3122
 1310SOL     OW15391   2.157   3.226   5.101 -0.2002 -0.1674 -0.0060
 1310SOL    HW115392   2.139   3.270   5.017 -0.6812  1.4644  0.9595
 1310SOL    HW215393   2.072   3.184   5.109 -1.1267  1.8000  0.3786
 1311SOL     OW15394   0.279   0.879  11.597  0.0378  0.2377  0.7236
 1311SOL    HW115395   0.221   0.878  11.521 -0.2492 -1.4499  0.9578
 1311SOL    HW215396   0.219   0.919  11.658  0.3017  1.1823  0.3621
 1312SOL     OW15397   3.672   1.418   4.341  0.0135 -0.5829 -0.2751
 1312SOL    HW115398   3.654   1.328   4.316 -3.1808  0.2251 -0.8299
 1312SOL    HW215399   3.662   1.456   4.253 -0.1008 -2.4080 -1.0414
 1313SOL     OW15400   3.309   3.910   2.386 -0.3259  0.3265  0.5306
 1313SOL    HW115401   3.259   3.986   2.416  2.2668  2.4610 -0.5701
 1313SOL    HW215402   3.391   3.932   2.430 -0.7271  0.1710  1.3522
 1314SOL     OW15403   4.048   3.752   9.296 -0.2609 -0.4965 -0.1963
 1314SOL    HW115404   3.967   3.800   9.275 -0.3916 -0.1046  1.2035
 1314SOL    HW215405   4.035   3.750   9.391  0.9328 -1.2776 -0.0573
 1315SOL     OW15406   1.063   3.640   3.889 -0.2721 -0.5955 -0.1550
 1315SOL    HW115407   1.089   3.656   3.798 -0.6513  0.9392  0.0089
 1315SOL    HW215408   0.996   3.708   3.899 -0.1254 -0.3380 -0.9155
 1316SOL     OW15409   0.235   0.669   5.441 -0.4166  0.2207 -0.0610
 1316SOL    HW115410   0.205   0.621   5.518  0.1875 -0.1675 -0.0676
 1316SOL    HW215411   0.296   0.729   5.483 -0.0557  1.3631 -2.2565
 1317SOL     OW15412   3.962   1.062   3.123  0.0892 -0.1490 -0.4350
 1317SOL    HW115413   3.989   1.030   3.210  0.9994 -1.5976 -1.2515
 1317SOL    HW215414   4.034   1.046   3.062  0.4740  4.0062 -1.0602
 1318SOL     OW15415   1.814   0.273   7.276 -0.0175  0.0055  0.2310
 1318SOL    HW115416   1.875   0.202   7.256 -1.1068 -1.0986  0.8638
 1318SOL    HW215417   1.858   0.341   7.327  2.4133  0.9174 -2.9990
 1319SOL     OW15418   3.094   0.857   2.645  0.3174 -0.2716 -0.1663
 1319SOL    HW115419   3.009   0.815   2.631  1.0380 -1.9787  0.4847
 1319SOL    HW215420   3.067   0.948   2.656 -0.2622 -0.2096 -2.1560
 1320SOL     OW15421   4.366   3.865   6.899 -0.4335 -0.0087  0.6211
 1320SOL    HW115422   4.459   3.850   6.879 -0.7262 -0.5638 -0.3286
 1320SOL    HW215423   4.325   3.786   6.864  0.1156 -0.1797  0.3533
 1321SOL     OW15424   0.426   1.662   0.904  0.4257 -0.2372 -0.4884
 1321SOL    HW115425   0.407   1.701   0.819  2.3435 -0.6331 -1.1125
 1321SOL    HW215426   0.410   1.737   0.960  3.1714 -0.5368  0.7029
 1322SOL     OW15427   0.031   4.551   6.604 -0.1258  0.6508 -0.2641
 1322SOL    HW115428   0.048   4.457   6.604 -0.7909  0.5346 -0.2648
 1322SOL    HW215429   4.665   4.546   6.569  0.5208  0.4173 -1.8499
 1323SOL     OW15430   3.169   2.797   8.746 -0.0207  0.0870  0.4421
 1323SOL    HW115431   3.239   2.859   8.728 -1.7824  1.8846 -0.2341
 1323SOL    HW215432   3.199   2.761   8.829  3.4037 -1.8258 -1.6091
 1324SOL     OW15433   4.246   4.047   5.084  0.2592 -0.0354 -0.4647
 1324SOL    HW115434   4.289   4.088   5.008  2.6335 -0.3493  0.7101
 1324SOL    HW215435   4.321   4.022   5.138 -1.6807 -1.4946  1.5328
 1325SOL     OW15436   3.352   1.794   7.870  0.4079 -0.4346  0.3273
 1325SOL    HW115437   3.263   1.785   7.903  0.5611 -0.4832  0.7227
 1325SOL    HW215438   3.391   1.721   7.918 -1.3907 -0.7179  1.3401
 1326SOL     OW15439   1.635   3.732  14.843 -0.4347  0.7133 -0.0053
 1326SOL    HW115440   1.570   3.743  14.911  0.1753  1.5599  0.4438
 1326SOL    HW215441   1.702   3.799  14.857 -2.1476  2.9872 -2.6872
 1327SOL     OW15442   2.892   0.001   0.013 -0.3990 -0.1590  0.0513
 1327SOL    HW115443   2.948   0.070   0.050  1.2876 -1.0660 -0.8086
 1327SOL    HW215444   2.930   4.649   0.058  2.9230  2.3911  1.5177
 1328SOL     OW15445   2.508   1.983   4.864  0.2643  0.2916  0.0015
 1328SOL    HW115446   2.458   1.942   4.934  1.0534 -0.5220  0.1029
 1328SOL    HW215447   2.546   1.906   4.820 -1.7959 -0.6531 -0.1079
 1329SOL     OW15448   0.747   2.239  12.025 -0.4673 -0.2251 -0.1781
 1329SOL    HW115449   0.815   2.290  11.981  0.5485  0.1502  1.8171
 1329SOL    HW215450   0.676   2.238  11.961 -0.2331  0.7791 -0.4605
 1330SOL     OW15451   0.155   3.336   5.808 -0.5463  0.2427  0.0969
 1330SOL    HW115452   0.147   3.241   5.817 -0.3599  0.3368  1.2421
 1330SOL    HW215453   0.068   3.365   5.838 -2.6066 -2.5965 -3.1783
 1331SOL     OW15454   2.223   4.670  10.223 -0.0115  0.2658 -0.0801
 1331SOL    HW115455   2.307   4.682  10.267  0.9699 -3.1065 -1.0596
 1331SOL    HW215456   2.239   4.586  10.179  1.8627 -0.1507  1.3976
 1332SOL     OW15457   1.779   0.291   0.269  0.0324  0.2057 -0.1021
 1332SOL    HW115458   1.771   0.328   0.181 -0.0933  0.6914  0.1146
 1332SOL    HW215459   1.827   0.213   0.242 -0.4113  0.2600 -1.0595
 1333SOL     OW15460   3.394   3.591   3.756  0.2341  0.1958 -0.3544
 1333SOL    HW115461   3.487   3.594   3.779 -0.4169  1.0743  2.2060
 1333SOL    HW215462   3.373   3.684   3.745 -0.1619  0.2765  1.1017
 1334SOL     OW15463   3.918   4.554   7.004  0.1082  0.0204  0.3407
 1334SOL    HW115464   3.888   4.495   6.935  0.7187  0.5625 -0.3960
 1334SOL    HW215465   3.930   4.494   7.077  0.3475 -0.2888  0.0455
 1335SOL     OW15466   1.432   4.294   5.801 -0.2276  0.3094  0.2643
 1335SOL    HW115467   1.446   4.292   5.706 -3.1361 -0.2203 -0.1476
 1335SOL    HW215468   1.444   4.200   5.818 -0.4153  0.5957  1.9248
 1336SOL     OW15469   3.019   4.125   3.799 -0.0338 -0.4771  0.0492
 1336SOL    HW115470   2.937   4.086   3.829 -0.3385  0.2790  0.1952
 1336SOL    HW215471   3.009   4.197   3.861 -2.5459  0.2507 -1.1978
 1337SOL     OW15472   0.166   0.296   5.878 -0.7673 -0.2358  0.3167
 1337SOL    HW115473   0.091   0.348   5.849  0.3805 -0.1621 -2.5020
 1337SOL    HW215474   0.149   0.209   5.843  0.3063 -0.6108  0.7504
 1338SOL     OW15475   3.803   0.728   1.826 -0.2669 -0.2511 -0.2724
 1338SOL    HW115476   3.847   0.643   1.815 -1.6984 -0.9391 -0.7171
 1338SOL    HW215477   3.727   0.713   1.883  0.7715  1.9074  1.6720
 1339SOL     OW15478   0.691   2.979   7.608  0.4900  0.6208 -0.3487
 1339SOL    HW115479   0.626   3.049   7.611 -1.7449 -1.4820  0.1429
 1339SOL    HW215480   0.731   2.973   7.696 -2.6336 -2.7529  0.8116
 1340SOL     OW15481   0.482   2.410  14.272  0.5604  0.0275  0.6014
 1340SOL    HW115482   0.487   2.496  14.230 -1.9325  0.0441  0.3105
 1340SOL    HW215483   0.569   2.427  14.307 -0.4431  0.2873  2.9357
 1341SOL     OW15484   0.190   0.653   5.807 -0.1794  0.4090 -0.3454
 1341SOL    HW115485   0.150   0.567   5.801 -0.4429  0.3283  2.3330
 1341SOL    HW215486   0.205   0.675   5.900 -1.5859  0.6343 -0.1735
 1342SOL     OW15487   0.578   4.014   6.777 -0.7685  0.4016  0.1035
 1342SOL    HW115488   0.616   3.994   6.691 -1.3572  0.9686 -0.2916
 1342SOL    HW215489   0.593   4.107   6.792  0.8460  0.1520  0.0893
 1343SOL     OW15490   0.661   0.979  14.314  0.4261  0.3911 -0.0725
 1343SOL    HW115491   0.691   0.909  14.372  0.1957  1.5796  1.4745
 1343SOL    HW215492   0.725   1.049  14.328  2.2149 -0.7688 -2.5185
 1344SOL     OW15493   1.247   3.290   3.720 -0.1864 -0.3873 -0.1355
 1344SOL    HW115494   1.183   3.361   3.717  0.0052 -0.1125  2.6699
 1344SOL    HW215495   1.219   3.262   3.807  1.8694 -1.7424  0.0826
 1345SOL     OW15496   1.122   3.169   5.876 -0.1757 -0.5034  0.1712
 1345SOL    HW115497   1.143   3.087   5.830  1.4493  0.0107  0.0118
 1345SOL    HW215498   1.070   3.208   5.805  0.0432  1.3209  1.0207
 1346SOL     OW15499   2.521   4.423   5.923 -0.2665  0.4413 -0.7797
 1346SOL    HW115500   2.486   4.470   5.999  0.0290 -0.7722  0.1039
 1346SOL    HW215501   2.444   4.370   5.904 -1.0272  0.7902  1.3008
 1347SOL     OW15502   2.555   1.831   0.538 -0.1533  0.2145  0.1901
 1347SOL    HW115503   2.484   1.894   0.529 -0.6796 -0.4476 -0.3334
 1347SOL    HW215504   2.563   1.818   0.632 -0.8803 -0.6239  0.1366
 1348SOL     OW15505   2.856   1.575   2.370  0.7423 -0.5651 -0.5319
 1348SOL    HW115506   2.789   1.616   2.316  0.2120 -1.2064 -0.3655
 1348SOL    HW215507   2.832   1.610   2.456 -0.0024  0.3234 -1.1048
 1349SOL     OW15508   3.479   1.408   1.564 -0.6416  0.0032 -0.0063
 1349SOL    HW115509   3.479   1.320   1.526 -1.7281 -0.8614  2.0264
 1349SOL    HW215510   3.553   1.395   1.624 -1.9193  0.8327  1.7547
 1350SOL     OW15511   0.119   4.651   7.902  0.3770 -0.1645 -0.0730
 1350SOL    HW115512   0.188   4.601   7.945 -0.4172  0.9612  2.4973
 1350SOL    HW215513   0.048   4.613   7.953  0.4468 -0.7904 -0.4517
 1351SOL     OW15514   1.272   3.696   2.129  0.2136 -0.4287 -0.3380
 1351SOL    HW115515   1.359   3.736   2.126 -0.1713  0.4987  0.6338
 1351SOL    HW215516   1.279   3.629   2.061 -1.4803 -1.5406  0.5753
 1352SOL     OW15517   1.709   2.540   7.993 -0.6763 -0.9285  0.1130
 1352SOL    HW115518   1.622   2.578   7.991  0.5104  1.7155 -1.1273
 1352SOL    HW215519   1.758   2.604   7.942 -1.0700 -0.4841  0.2959
 1353SOL     OW15520   4.204   2.032   1.400  0.2936 -0.1316 -0.7904
 1353SOL    HW115521   4.170   1.984   1.475 -1.4696  1.5786 -0.4872
 1353SOL    HW215522   4.263   1.969   1.359 -0.7112 -1.0137 -0.8827
 1354SOL     OW15523   3.525   0.780  16.041 -0.1609 -0.3194  0.0112
 1354SOL    HW115524   3.488   0.692  16.039  0.4385 -0.5269 -2.6119
 1354SOL    HW215525   3.621   0.774  16.039 -0.1323 -0.7525  2.6540
 1355SOL     OW15526   4.665   2.359   1.381 -0.7190 -0.3051 -0.2262
 1355SOL    HW115527   4.589   2.411   1.407  0.0573  0.1353  1.1312
 1355SOL    HW215528   4.640   2.286   1.324  1.9117 -1.4067  0.0355
 1356SOL     OW15529   1.275   4.417  11.725 -0.8544 -0.3903 -0.3069
 1356SOL    HW115530   1.204   4.429  11.788  0.5579 -0.2017  1.2357
 1356SOL    HW215531   1.342   4.384  11.784 -0.7006 -1.3183 -1.0022
 1357SOL     OW15532   0.113   3.178   8.851  0.2895 -0.1363  0.0498
 1357SOL    HW115533   0.190   3.160   8.796  0.8438  0.2924  0.6940
 1357SOL    HW215534   0.101   3.089   8.883 -1.0739  0.1319  0.2926
 1358SOL     OW15535   1.273   3.534  13.853  0.1173 -0.4738 -0.3457
 1358SOL    HW115536   1.368   3.546  13.849  0.1436 -1.2623 -1.8335
 1358SOL    HW215537   1.248   3.625  13.873 -0.4478 -0.8663  0.7061
 1359SOL     OW15538   3.462   2.497   9.062 -0.5492 -0.0640  0.1321
 1359SOL    HW115539   3.549   2.536   9.059 -0.3461 -0.2943  2.7702
 1359SOL    HW215540   3.463   2.463   9.152  0.8273  0.0867  0.1754
 1360SOL     OW15541   0.852   3.513  14.332  0.5379  0.8709 -0.1792
 1360SOL    HW115542   0.936   3.489  14.293  0.8086 -0.0291  0.9740
 1360SOL    HW215543   0.795   3.493  14.258  1.3768 -0.6397 -0.4004
 1361SOL     OW15544   0.739   3.365   6.041 -0.3745  0.4141  0.1575
 1361SOL    HW115545   0.791   3.411   5.976 -0.9294  0.2313 -0.4241
 1361SOL    HW215546   0.662   3.417   6.066 -1.7228 -0.6818 -1.6732
 1362SOL     OW15547   0.696   3.444   6.578  0.7085 -0.1402  0.0015
 1362SOL    HW115548   0.778   3.494   6.582  0.0887  0.7190  2.0814
 1362SOL    HW215549   0.675   3.434   6.485 -0.6521  1.7379  0.1117
 1363SOL     OW15550   4.327   1.940   6.099  0.2908 -0.7078 -0.5436
 1363SOL    HW115551   4.302   1.881   6.171 -2.0858  1.5641  0.4968
 1363SOL    HW215552   4.414   1.961   6.133  0.2372  1.4682 -1.7556
 1364SOL     OW15553   1.576   2.619   2.513  0.2324 -0.0069 -0.0397
 1364SOL    HW115554   1.616   2.645   2.430 -0.2512  2.2441  0.4310
 1364SOL    HW215555   1.542   2.531   2.498  0.4282  0.1820 -1.6166
 1365SOL     OW15556   2.187   1.231  11.257 -0.0960  0.3399 -0.6065
 1365SOL    HW115557   2.153   1.314  11.292  1.9821  0.3233  1.4307
 1365SOL    HW215558   2.222   1.260  11.173  1.3300 -1.2324 -0.5523
 1366SOL     OW15559   3.717   1.190   4.524 -0.1522  0.3272  0.1347
 1366SOL    HW115560   3.705   1.176   4.431 -1.6208 -0.0657  0.3788
 1366SOL    HW215561   3.712   1.286   4.532 -0.5962  0.2907  0.3264
 1367SOL     OW15562   4.628   2.070   1.571  0.7569  0.1723 -0.3800
 1367SOL    HW115563   4.676   1.994   1.604 -1.3513 -1.7097 -1.6539
 1367SOL    HW215564   4.685   2.096   1.498  0.3101  1.8581 -0.1387
 1368SOL     OW15565   1.337   0.556   2.934 -0.1765  0.0794  0.0994
 1368SOL    HW115566   1.371   0.568   3.023  3.0697  0.6224 -1.1916
 1368SOL    HW215567   1.291   0.637   2.915 -1.1316 -1.3965 -4.0328
 1369SOL     OW15568   0.825   0.147   2.536 -0.0327  0.5576  0.4493
 1369SOL    HW115569   0.906   0.127   2.584  0.9125 -0.3872 -1.4937
 1369SOL    HW215570   0.858   0.223   2.488 -0.2945  0.3708 -0.0288
 1370SOL     OW15571   1.435   2.483   2.745 -0.3551  0.0587  0.3817
 1370SOL    HW115572   1.447   2.450   2.656 -0.8648  2.1293 -0.4530
 1370SOL    HW215573   1.349   2.446   2.762 -0.4860 -0.7536 -1.9817
 1371SOL     OW15574   3.093   2.500   6.326  0.0947 -0.3600  0.0782
 1371SOL    HW115575   3.162   2.531   6.384  0.6436 -0.7743 -0.3555
 1371SOL    HW215576   3.072   2.582   6.282  0.1143 -0.5672 -0.3230
 1372SOL     OW15577   3.918   2.570   0.759  0.4105  0.0067 -0.4207
 1372SOL    HW115578   3.942   2.528   0.842  2.1532  0.9761 -0.4308
 1372SOL    HW215579   3.829   2.601   0.773 -0.3350 -1.5825 -1.7616
 1373SOL     OW15580   1.867   2.914   0.319  0.5788 -0.7806 -0.4292
 1373SOL    HW115581   1.883   2.891   0.411  2.0885  1.0078 -0.2426
 1373SOL    HW215582   1.822   2.835   0.288 -2.2209  1.0423 -1.0775
 1374SOL     OW15583   1.129   4.420   3.046 -0.1509  0.0079 -0.5779
 1374SOL    HW115584   1.189   4.480   3.003 -0.5892  2.7081  2.6130
 1374SOL    HW215585   1.090   4.378   2.969 -1.0306 -1.2833  0.5654
 1375SOL     OW15586   3.485   3.202  12.524  0.0232  0.3396 -0.6829
 1375SOL    HW115587   3.428   3.229  12.596 -0.2301  1.0188 -1.1364
 1375SOL    HW215588   3.572   3.215  12.562 -0.7437  2.9572  0.1711
 1376SOL     OW15589   1.254   3.507   6.473  0.1716  0.8647  0.0580
 1376SOL    HW115590   1.206   3.434   6.435  3.2892 -1.3473  0.2841
 1376SOL    HW215591   1.234   3.499   6.566  1.4650  0.2459  0.2911
 1377SOL     OW15592   3.018   1.371  17.204 -0.1820  0.2623  0.1387
 1377SOL    HW115593   3.103   1.327  17.214 -0.3225 -0.4862 -1.9041
 1377SOL    HW215594   3.037   1.440  17.267 -2.8179  1.1623 -0.0607
 1378SOL     OW15595   1.765   1.141   4.275 -0.0071  0.9490  0.3758
 1378SOL    HW115596   1.755   1.161   4.368  2.6585  1.9552  0.4358
 1378SOL    HW215597   1.820   1.064   4.266  0.1475  1.2825 -1.5242
 1379SOL     OW15598   1.756   2.371  17.125  0.3084 -0.4567  0.8699
 1379SOL    HW115599   1.733   2.295  17.178 -0.1219 -1.4674 -0.7320
 1379SOL    HW215600   1.727   2.355  17.035  0.1264  3.8434  0.1590
 1380SOL     OW15601   0.979   4.495   3.592 -0.1473 -0.4676 -0.0980
 1380SOL    HW115602   1.024   4.494   3.507 -0.9575 -0.9104 -0.5304
 1380SOL    HW215603   0.902   4.446   3.563 -1.1418  0.5071  0.9098
 1381SOL     OW15604   1.440   2.517   5.443 -0.1417 -0.1561 -0.0378
 1381SOL    HW115605   1.521   2.539   5.397  0.5571 -2.5243  0.0678
 1381SOL    HW215606   1.384   2.490   5.371  0.9586 -3.2769  0.3131
 1382SOL     OW15607   2.739   4.382   5.420  0.2121  0.8247 -0.2889
 1382SOL    HW115608   2.758   4.337   5.338 -1.1065  0.0851 -0.1907
 1382SOL    HW215609   2.655   4.340   5.436  0.8622 -0.6616 -0.7186
 1383SOL     OW15610   2.503   3.082  15.705  0.5698 -0.2963  0.1960
 1383SOL    HW115611   2.488   3.170  15.670 -1.4422 -1.2769 -1.4280
 1383SOL    HW215612   2.598   3.073  15.698  1.0288  4.2986  0.0643
 1384SOL     OW15613   3.912   4.197   3.706  0.7252 -0.2143  0.2985
 1384SOL    HW115614   3.890   4.268   3.766 -2.7223 -0.3135 -0.8063
 1384SOL    HW215615   3.990   4.152   3.737  1.1507  1.3087  1.4570
 1385SOL     OW15616   1.103   3.105   7.290  0.3823  0.5379 -0.3778
 1385SOL    HW115617   1.043   3.044   7.334  0.2414  0.5896 -0.4981
 1385SOL    HW215618   1.045   3.180   7.277 -0.6521 -0.0340  0.8799
 1386SOL     OW15619   4.417   1.245  12.224 -0.5082  0.6719  0.3294
 1386SOL    HW115620   4.468   1.326  12.216  0.3349  0.2259  1.2722
 1386SOL    HW215621   4.476   1.190  12.275  0.2620  0.7891 -0.4298
 1387SOL     OW15622   1.670   0.244   9.069 -0.5378 -0.4218 -0.5271
 1387SOL    HW115623   1.665   0.154   9.101  3.3465 -0.2803  0.4385
 1387SOL    HW215624   1.747   0.282   9.112 -1.7067  2.4849 -0.9840
 1388SOL     OW15625   3.097   1.530   5.740  0.4923  0.5166 -0.3022
 1388SOL    HW115626   3.153   1.455   5.761 -0.3551 -0.0196  0.0687
 1388SOL    HW215627   3.068   1.511   5.650 -0.2398 -4.2580  0.9286
 1389SOL     OW15628   1.215   0.826   1.884  0.4263 -0.8635  0.2233
 1389SOL    HW115629   1.158   0.893   1.923  0.5192 -0.1483 -0.8689
 1389SOL    HW215630   1.198   0.844   1.792 -0.0883  0.6078  0.5965
 1390SOL     OW15631   2.604   0.855   9.870 -0.3177 -0.0287  0.4261
 1390SOL    HW115632   2.588   0.929   9.929 -0.5079 -1.3144  1.9851
 1390SOL    HW215633   2.660   0.797   9.922 -0.1254  0.4919  0.8077
 1391SOL     OW15634   0.248   1.171   2.410 -0.2461 -0.3746 -0.3033
 1391SOL    HW115635   0.306   1.103   2.375  0.9219 -0.0110  0.9418
 1391SOL    HW215636   0.184   1.170   2.339 -0.4564  0.7424 -0.1360
 1392SOL     OW15637   1.030   3.526  14.041  0.6607  0.2339 -0.9101
 1392SOL    HW115638   0.959   3.468  14.068 -1.3755  2.9717 -0.3437
 1392SOL    HW215639   0.976   3.588  13.992  0.1181  0.8089  0.3907
 1393SOL     OW15640   2.711   0.094   8.125  0.6650  0.2169 -0.2152
 1393SOL    HW115641   2.676   0.036   8.057  1.6971  0.1093 -0.6662
 1393SOL    HW215642   2.767   0.148   8.069  0.3399 -0.3099 -1.0529
 1394SOL     OW15643   2.703   4.717   1.313 -0.2695  0.0759 -0.1195
 1394SOL    HW115644   2.686   0.084   1.341 -0.1592  0.4715 -1.3284
 1394SOL    HW215645   2.690   4.669   1.394 -0.0120  0.9667  0.4532
 1395SOL     OW15646   3.123   1.984   2.022 -0.2118 -0.3325  0.2955
 1395SOL    HW115647   3.087   1.971   2.110  1.5928  0.8165  1.2092
 1395SOL    HW215648   3.209   1.941   2.030  0.2463  0.2525 -1.6524
 1396SOL     OW15649   1.201   3.500  13.153 -0.7104 -0.3345 -0.3562
 1396SOL    HW115650   1.277   3.442  13.152 -0.1830  0.3329  1.1457
 1396SOL    HW215651   1.170   3.491  13.063 -2.6499 -0.7554  0.3642
 1397SOL     OW15652   1.884   0.338   2.012 -0.6779  0.2393 -0.1672
 1397SOL    HW115653   1.791   0.339   2.036 -0.1641 -1.3986  1.8684
 1397SOL    HW215654   1.888   0.379   1.926  2.5988  3.0417  1.3360
 1398SOL     OW15655   1.405   0.072   0.725  0.4103 -0.4295  0.3303
 1398SOL    HW115656   1.452   0.037   0.650 -1.1308  1.9333 -1.7434
 1398SOL    HW215657   1.480   0.085   0.783 -1.1518 -1.0393  2.4771
 1399SOL     OW15658   4.584   3.972   4.161 -0.0295 -0.4380  0.1955
 1399SOL    HW115659   4.667   3.930   4.139  0.5155  1.7642 -1.9524
 1399SOL    HW215660   4.617   4.039   4.221  1.9671 -1.4455  0.2355
 1400SOL     OW15661   0.053   1.129   5.814  0.1414 -0.0367  0.1445
 1400SOL    HW115662   0.046   1.034   5.818  3.1241 -0.2839 -0.1601
 1400SOL    HW215663   0.031   1.146   5.722  0.3887 -1.1374 -0.1194
 1401SOL     OW15664   4.582   4.647   8.684 -0.4034 -0.0969  0.4090
 1401SOL    HW115665   4.580   4.551   8.689 -2.7200 -0.1209 -1.1369
 1401SOL    HW215666   4.675   4.665   8.692 -0.3162 -0.5962  0.5359
 1402SOL     OW15667   4.123   0.851   4.904 -0.4766 -0.0489  0.2945
 1402SOL    HW115668   4.052   0.833   4.965 -2.0745 -0.9560 -1.8343
 1402SOL    HW215669   4.190   0.890   4.960  0.7636  0.8805 -1.8211
 1403SOL     OW15670   0.693   3.650   4.815  0.0678  0.1444  0.2643
 1403SOL    HW115671   0.768   3.648   4.873  1.8746  1.2657 -2.0217
 1403SOL    HW215672   0.728   3.606   4.737 -0.4286 -1.0433  0.7131
 1404SOL     OW15673   3.154   4.118   2.459 -0.8400 -0.0297  0.6481
 1404SOL    HW115674   3.199   4.197   2.489 -1.3531 -0.0714  1.5312
 1404SOL    HW215675   3.076   4.154   2.418  0.0943  2.1514  0.8095
 1405SOL     OW15676   1.438   2.235  12.566  0.2217  0.5129  0.4329
 1405SOL    HW115677   1.473   2.298  12.628  2.3673 -0.1714 -0.0808
 1405SOL    HW215678   1.376   2.278  12.509  0.3195  0.0166 -0.0518
 1406SOL     OW15679   1.000   0.002   5.359  0.2790 -0.5893  0.8442
 1406SOL    HW115680   0.944   0.015   5.282 -0.1707 -2.4582  0.8374
 1406SOL    HW215681   0.996   0.081   5.413 -2.2914 -1.0611  1.3467
 1407SOL     OW15682   0.476   0.837  15.512  0.1350  0.2177  0.8989
 1407SOL    HW115683   0.544   0.772  15.494 -0.8406 -0.4079 -0.6309
 1407SOL    HW215684   0.518   0.883  15.584  1.1641 -2.3248  1.9279
 1408SOL     OW15685   0.419   0.761   5.979 -0.0586  0.2839 -0.1806
 1408SOL    HW115686   0.427   0.738   6.072 -0.8029 -2.2040 -0.7426
 1408SOL    HW215687   0.500   0.720   5.946 -0.3765  1.0855 -1.9632
 1409SOL     OW15688   3.550   1.075  14.610 -0.2994  0.2402 -0.0235
 1409SOL    HW115689   3.570   0.982  14.607 -0.0746  0.2380  1.2033
 1409SOL    HW215690   3.619   1.100  14.671  2.5883 -1.2327 -2.6995
 1410SOL     OW15691   0.457   3.154   9.177 -0.1572  0.3174 -0.0702
 1410SOL    HW115692   0.513   3.140   9.101 -0.3157 -0.4758 -0.0427
 1410SOL    HW215693   0.499   3.120   9.257 -0.7487  0.5346  0.3328
 1411SOL     OW15694   1.717   1.818  10.572 -0.1702 -0.1970 -0.5380
 1411SOL    HW115695   1.763   1.889  10.618 -1.3651  0.0240  0.3082
 1411SOL    HW215696   1.780   1.747  10.562  0.5500  0.5293 -1.1313
 1412SOL     OW15697   4.193   0.434   8.579 -0.3419 -0.3669 -0.1691
 1412SOL    HW115698   4.180   0.528   8.576  0.7623 -0.2183 -0.2804
 1412SOL    HW215699   4.104   0.407   8.603  0.3493 -1.2925  1.3702
 1413SOL     OW15700   2.282   1.863  17.047 -0.3175  0.0761  0.1574
 1413SOL    HW115701   2.356   1.897  17.098 -0.5015 -1.2817  1.3387
 1413SOL    HW215702   2.233   1.816  17.114  1.4573 -0.3047  1.2023
 1414SOL     OW15703   2.897   1.934   2.211  0.0093  0.2306 -0.1143
 1414SOL    HW115704   2.803   1.951   2.203 -0.1805 -0.8534 -0.1162
 1414SOL    HW215705   2.922   2.026   2.204  2.2647 -0.4255 -0.6783
 1415SOL     OW15706   2.089   3.610  12.291 -0.0848  0.1914  0.2051
 1415SOL    HW115707   2.119   3.526  12.255  0.3801  1.3457 -2.0596
 1415SOL    HW215708   1.997   3.603  12.267 -0.6467  0.3959  2.3238
 1416SOL     OW15709   0.625   1.114   3.077 -0.6801  0.7039 -0.2926
 1416SOL    HW115710   0.699   1.063   3.043 -0.4003  1.0580 -0.2071
 1416SOL    HW215711   0.664   1.201   3.072  1.6455 -0.3079  0.4912
 1417SOL     OW15712   0.232   1.902  12.999  0.5171  0.1944  0.0226
 1417SOL    HW115713   0.216   1.885  12.906 -0.3736 -2.4536  0.6775
 1417SOL    HW215714   0.183   1.827  13.032 -0.0815  0.1679 -0.9087
 1418SOL     OW15715   4.186   2.697   5.641  0.6586 -0.0898 -0.2559
 1418SOL    HW115716   4.217   2.771   5.589  1.1899  0.4968  0.8939
 1418SOL    HW215717   4.243   2.624   5.614  0.9194  0.6150 -1.6292
 1419SOL     OW15718   1.292   0.328  17.052  0.6380 -0.1922  0.8089
 1419SOL    HW115719   1.348   0.325  17.130  2.2842 -0.1877 -0.3563
 1419SOL    HW215720   1.351   0.298  16.982 -0.5169 -1.6899  0.4668
 1420SOL     OW15721   2.751   3.352   8.177 -0.0818  0.4029  0.1263
 1420SOL    HW115722   2.697   3.274   8.168  1.2647 -0.5298  0.1873
 1420SOL    HW215723   2.722   3.406   8.103  1.0518 -1.1555 -1.4579
 1421SOL     OW15724   1.255   3.991   8.221 -0.2253  0.1434 -0.4499
 1421SOL    HW115725   1.206   4.011   8.141  1.6331  1.7614 -1.1786
 1421SOL    HW215726   1.213   3.912   8.254  1.8848 -0.0946  1.6666
 1422SOL     OW15727   4.033   3.453   2.588 -0.4890  0.0401 -0.0265
 1422SOL    HW115728   4.024   3.371   2.540  0.1626  0.0130 -0.1039
 1422SOL    HW215729   4.112   3.491   2.549 -2.1552  0.8307 -2.6208
 1423SOL     OW15730   3.491   2.002   5.880  0.2928 -0.2031 -0.8028
 1423SOL    HW115731   3.542   2.081   5.896 -0.6254  0.3647 -0.6212
 1423SOL    HW215732   3.511   1.987   5.788 -2.1284 -2.6343 -0.9365
 1424SOL     OW15733   1.242   1.321   7.742  0.2134 -0.3493  0.1137
 1424SOL    HW115734   1.205   1.250   7.794  0.9715  0.1930  1.3843
 1424SOL    HW215735   1.161   1.369   7.724  0.1344 -0.6510 -0.3143
 1425SOL     OW15736   1.472   4.719  10.411  0.3471 -0.6988  0.0302
 1425SOL    HW115737   1.435   0.073  10.455 -0.7381  0.0151 -2.1139
 1425SOL    HW215738   1.536   0.023  10.345 -0.3905  0.7726 -0.1028
 1426SOL     OW15739   1.758   0.373  17.434 -0.0180  0.0412  0.2837
 1426SOL    HW115740   1.759   0.288  17.389  2.3729  0.6827 -0.8816
 1426SOL    HW215741   1.735   0.444  17.374  1.3545 -1.1986 -1.7329
 1427SOL     OW15742   4.251   3.115   2.285  0.1456  0.2066  0.3218
 1427SOL    HW115743   4.323   3.163   2.326 -1.1196  3.3404 -1.1476
 1427SOL    HW215744   4.275   3.024   2.305  1.0200  0.1746 -0.8446
 1428SOL     OW15745   0.050   0.271   7.251  0.1334 -0.2814  0.4261
 1428SOL    HW115746   0.029   0.186   7.289  1.4948 -1.1403 -0.7321
 1428SOL    HW215747   0.025   0.246   7.162 -0.1069  1.1078  0.1081
 1429SOL     OW15748   0.863   0.164   6.192 -0.3598  0.0680 -0.3402
 1429SOL    HW115749   0.837   0.244   6.238  2.2525  0.2400  0.7998
 1429SOL    HW215750   0.775   0.128   6.183  0.3046 -1.8454  0.8580
 1430SOL     OW15751   1.708   2.584   1.499 -0.7683  0.1052  0.2866
 1430SOL    HW115752   1.790   2.621   1.467 -0.4487 -1.9863 -1.3228
 1430SOL    HW215753   1.662   2.568   1.417  2.8375 -0.9587 -1.5369
 1431SOL     OW15754   4.605   0.276   2.217  0.3609  0.3324 -0.5463
 1431SOL    HW115755   4.620   0.343   2.284  1.1389  0.0248 -0.4154
 1431SOL    HW215756   4.681   0.221   2.235 -0.0112 -0.5853 -1.7675
 1432SOL     OW15757   3.790   3.901   4.226  0.1299 -0.3309  0.4658
 1432SOL    HW115758   3.873   3.853   4.222  0.9166  0.7235  4.4651
 1432SOL    HW215759   3.809   3.995   4.231 -1.1955 -0.0093 -0.7026
 1433SOL     OW15760   2.818   1.151   6.608  0.0412  0.0084 -0.0276
 1433SOL    HW115761   2.802   1.163   6.514  1.3344 -1.4917 -0.4359
 1433SOL    HW215762   2.762   1.222   6.640  0.7794  0.9450 -0.7995
 1434SOL     OW15763   2.491   4.331   2.841  0.3101 -0.0610  0.3954
 1434SOL    HW115764   2.529   4.416   2.861  2.7090 -0.7502 -1.2955
 1434SOL    HW215765   2.565   4.280   2.808 -1.0179 -0.5737 -1.7842
 1435SOL     OW15766   3.175   3.712   8.963 -0.4118  0.4295 -0.3944
 1435SOL    HW115767   3.145   3.792   8.919  0.8507  0.4675 -1.1897
 1435SOL    HW215768   3.232   3.746   9.032 -0.9923 -1.4280  0.9865
 1436SOL     OW15769   1.894   3.059   7.331 -0.1319 -0.9450  0.1050
 1436SOL    HW115770   1.865   3.150   7.341  0.1617 -0.6886 -1.3718
 1436SOL    HW215771   1.950   3.073   7.255 -1.7278 -0.4351 -0.9923
 1437SOL     OW15772   3.549   4.029   3.557 -0.3587 -0.5199 -0.1970
 1437SOL    HW115773   3.545   3.955   3.496 -0.1445 -0.6731 -0.0251
 1437SOL    HW215774   3.637   4.064   3.547 -0.1494 -0.1563  2.8002
 1438SOL     OW15775   3.892   0.104  10.318 -0.3410 -0.8794  0.2033
 1438SOL    HW115776   3.838   0.159  10.261  1.4517  0.5387 -0.1248
 1438SOL    HW215777   3.839   0.024  10.319  0.3182 -1.3057  1.2216
 1439SOL     OW15778   3.631   1.675   5.459 -0.2366  0.3529 -0.4967
 1439SOL    HW115779   3.720   1.657   5.429  0.4837  0.2251  1.7200
 1439SOL    HW215780   3.602   1.594   5.502  2.2804 -1.1044 -1.5731
 1440SOL     OW15781   1.905   1.523   9.142  0.0155  0.1724 -0.4095
 1440SOL    HW115782   1.920   1.439   9.186 -0.9672 -0.6474 -1.6546
 1440SOL    HW215783   1.956   1.579   9.202 -1.2602  1.4050 -0.4875
 1441SOL     OW15784   2.726   2.399   0.348  0.6640 -0.3289  0.0023
 1441SOL    HW115785   2.663   2.342   0.392  1.3535 -1.0453  0.0492
 1441SOL    HW215786   2.802   2.395   0.406  1.3764 -0.3154 -0.9363
 1442SOL     OW15787   3.908   3.937   0.046  0.0904 -0.2745 -0.2309
 1442SOL    HW115788   3.864   4.017   0.073  0.8171  0.0622 -0.0370
 1442SOL    HW215789   3.833   3.898   0.002 -0.5410  0.7217 -0.0369
 1443SOL     OW15790   1.760   1.529   8.480 -0.6574 -0.2174  0.1529
 1443SOL    HW115791   1.768   1.586   8.404 -0.8820 -0.2881  0.0768
 1443SOL    HW215792   1.677   1.493   8.451 -0.4750 -0.4919 -0.0361
 1444SOL     OW15793   2.828   0.084   2.242 -0.3498 -0.5723 -0.0962
 1444SOL    HW115794   2.897   0.026   2.275  1.0948  1.2732  0.0844
 1444SOL    HW215795   2.870   0.170   2.245  1.0961 -1.2838  0.2843
 1445SOL     OW15796   4.135   3.635   6.520 -0.1718  0.5720  0.1646
 1445SOL    HW115797   4.145   3.541   6.535  2.0923  0.5917 -1.1530
 1445SOL    HW215798   4.195   3.679   6.579 -0.0910  0.9294 -0.1871
 1446SOL     OW15799   3.769   2.266  11.277 -0.3896  0.6292  0.4335
 1446SOL    HW115800   3.674   2.263  11.290 -0.5311  1.6833 -0.3097
 1446SOL    HW215801   3.774   2.342  11.218  1.3138 -0.2132 -0.5152
 1447SOL     OW15802   2.871   4.026   3.463  0.3122  0.5323  0.0636
 1447SOL    HW115803   2.956   3.993   3.432  0.2995  1.4834 -0.9950
 1447SOL    HW215804   2.837   3.956   3.519  0.6332 -0.8533 -1.4775
 1448SOL     OW15805   3.153   4.647   1.500  0.4165  0.4739 -0.2433
 1448SOL    HW115806   3.232   4.614   1.541  0.9951  1.2487 -0.7288
 1448SOL    HW215807   3.105   4.676   1.578  2.0488  0.9738  0.5649
 1449SOL     OW15808   1.178   2.480   2.505  0.9457  0.6563  0.1437
 1449SOL    HW115809   1.192   2.574   2.489 -1.2490  1.1649  1.2574
 1449SOL    HW215810   1.265   2.440   2.501 -0.0633 -1.4318 -1.1120
 1450SOL     OW15811   1.668   1.801   5.072 -0.0131  0.5818 -0.2887
 1450SOL    HW115812   1.620   1.803   4.990  1.3546  1.8012 -1.0652
 1450SOL    HW215813   1.604   1.765   5.133  2.3247 -0.3179  1.6472
 1451SOL     OW15814   0.518   1.859   5.775  0.0789  0.0777  0.3100
 1451SOL    HW115815   0.483   1.785   5.725  2.2462  0.6644 -2.0450
 1451SOL    HW215816   0.613   1.847   5.775  0.3045  1.9734 -0.2544
 1452SOL     OW15817   0.227   1.320   5.565  0.3380  0.3055 -0.0900
 1452SOL    HW115818   0.312   1.299   5.525 -0.2065  1.2188 -1.7240
 1452SOL    HW215819   0.168   1.277   5.503 -1.7260  0.1932  1.9470
 1453SOL     OW15820   4.513   3.159   1.508  0.0873  0.2096  0.4474
 1453SOL    HW115821   4.590   3.158   1.451 -0.0012 -0.6331  0.3467
 1453SOL    HW215822   4.452   3.193   1.442  2.3178  0.2751 -1.6026
 1454SOL     OW15823   0.103   3.864   4.871 -0.0043  0.1683  0.3899
 1454SOL    HW115824   0.159   3.787   4.880 -0.6808 -0.2869  0.6743
 1454SOL    HW215825   0.021   3.817   4.852 -0.4738  0.3172  2.0981
 1455SOL     OW15826   3.963   0.289  16.801 -0.2376 -0.4374  0.2385
 1455SOL    HW115827   3.934   0.256  16.716  0.7844  3.5356 -1.6605
 1455SOL    HW215828   4.034   0.343  16.767 -0.1006 -0.4156  0.5545
 1456SOL     OW15829   3.753   1.736   8.443  0.0208  0.2222 -0.5165
 1456SOL    HW115830   3.689   1.665   8.441 -1.3441  1.4439  0.2735
 1456SOL    HW215831   3.707   1.790   8.506  0.2973 -0.3303  0.1569
 1457SOL     OW15832   3.702   3.533  11.644 -0.2383  0.3574 -0.1941
 1457SOL    HW115833   3.672   3.556  11.557 -1.1485  1.3769  0.3882
 1457SOL    HW215834   3.715   3.612  11.697 -2.3457 -0.0862  0.9795
 1458SOL     OW15835   3.429   0.113   4.766  0.2447 -0.1496 -0.1753
 1458SOL    HW115836   3.353   0.171   4.759  1.2909  1.3973  1.2381
 1458SOL    HW215837   3.463   0.125   4.855 -0.5509 -1.4270  0.2967
 1459SOL     OW15838   3.033   3.939   8.213  0.2703  0.2524  0.5518
 1459SOL    HW115839   3.119   3.971   8.242 -0.0273  0.7957  0.8354
 1459SOL    HW215840   3.031   3.860   8.268  3.7133  0.0235  0.3364
 1460SOL     OW15841   4.261   3.885   0.685  0.8942  0.9272  0.1355
 1460SOL    HW115842   4.187   3.848   0.637  1.6453  0.0831 -0.3842
 1460SOL    HW215843   4.318   3.888   0.607  1.6287 -2.2399  0.5351
 1461SOL     OW15844   1.760   1.759   8.657 -0.0795  0.6184 -0.2971
 1461SOL    HW115845   1.733   1.698   8.588  0.8259  1.3690 -1.3161
 1461SOL    HW215846   1.680   1.794   8.696 -1.0195  0.6341 -2.2614
 1462SOL     OW15847   2.682   0.802  16.021 -0.0287 -0.8564  0.3071
 1462SOL    HW115848   2.595   0.783  16.058 -0.4516 -1.7769 -1.1668
 1462SOL    HW215849   2.672   0.888  15.980  0.4695 -1.8469 -1.9099
 1463SOL     OW15850   4.207   1.042   8.003  0.2503 -0.3991  0.0526
 1463SOL    HW115851   4.151   0.999   7.938 -0.3480 -0.3214  0.5171
 1463SOL    HW215852   4.288   0.991   7.999  1.1218  0.9226  1.0078
 1464SOL     OW15853   3.203   1.229   6.417 -0.0643  0.0685  0.4002
 1464SOL    HW115854   3.181   1.237   6.510  0.4864  2.6402  0.2984
 1464SOL    HW215855   3.291   1.192   6.416  0.3266  1.0634 -2.5835
 1465SOL     OW15856   3.646   4.437   2.390  0.0764 -0.3597 -0.4237
 1465SOL    HW115857   3.738   4.417   2.409  0.0003 -0.7046 -0.4082
 1465SOL    HW215858   3.658   4.428   2.296 -0.3207 -0.3019 -0.4788
 1466SOL     OW15859   3.033   0.704  10.813  0.0842 -0.0566 -0.0178
 1466SOL    HW115860   3.080   0.623  10.796 -1.3222 -1.2619  1.8114
 1466SOL    HW215861   2.947   0.676  10.843 -0.0678 -1.3723 -1.6743
 1467SOL     OW15862   1.543   2.653   1.261 -0.6910  0.1792  0.0584
 1467SOL    HW115863   1.472   2.660   1.197  0.5597 -0.7233 -1.4111
 1467SOL    HW215864   1.529   2.740   1.299  1.9093  1.1045 -1.0949
 1468SOL     OW15865   0.639   1.881   2.819  0.0050 -0.0589  0.0112
 1468SOL    HW115866   0.668   1.893   2.728 -0.9846  0.0490 -0.2960
 1468SOL    HW215867   0.718   1.909   2.865 -0.1811  0.4230  0.0437
 1469SOL     OW15868   2.704   4.109   6.222 -0.3443  0.0240 -0.3126
 1469SOL    HW115869   2.628   4.166   6.221  1.0257  1.8778  1.3840
 1469SOL    HW215870   2.760   4.165   6.276 -1.1139 -0.5506  1.0702
 1470SOL     OW15871   3.765   0.861  10.681  0.0751 -0.4745 -0.0983
 1470SOL    HW115872   3.743   0.769  10.670 -0.7958 -0.2710 -0.0150
 1470SOL    HW215873   3.686   0.898  10.643 -1.0584  0.8937  3.6561
 1471SOL     OW15874   1.207   3.852   4.103  0.1227  0.5172 -0.7332
 1471SOL    HW115875   1.265   3.895   4.040  0.4244 -0.8404 -1.3611
 1471SOL    HW215876   1.121   3.877   4.070 -0.2433 -0.0107 -0.1715
 1472SOL     OW15877   4.639   0.297   3.467  0.0479 -0.1132 -0.1130
 1472SOL    HW115878   4.599   0.366   3.520  0.7718  1.0778 -1.1097
 1472SOL    HW215879   4.701   0.344   3.411 -1.2572  1.2437 -0.4437
 1473SOL     OW15880   1.350   2.725   3.303 -0.2018  0.3437 -0.2647
 1473SOL    HW115881   1.361   2.724   3.208 -2.6751  0.1122 -0.5609
 1473SOL    HW215882   1.438   2.701   3.333  0.1745  2.6956  0.5740
 1474SOL     OW15883   1.206   1.298   6.636 -0.0636  0.0427  0.1782
 1474SOL    HW115884   1.117   1.270   6.615 -0.6246  1.5786  0.4873
 1474SOL    HW215885   1.193   1.389   6.608 -0.7314 -0.2748 -0.5492
 1475SOL     OW15886   3.242   2.126   1.301  0.4019  0.2479  0.8684
 1475SOL    HW115887   3.251   2.215   1.268  2.8630 -0.0078  0.8529
 1475SOL    HW215888   3.265   2.144   1.392 -0.5333 -0.8299  1.3249
 1476SOL     OW15889   1.961   3.102   2.330 -0.4757  0.7456 -0.2190
 1476SOL    HW115890   2.050   3.135   2.326  0.1966 -1.2079 -1.4320
 1476SOL    HW215891   1.947   3.057   2.247  1.8394  0.5176 -0.4807
 1477SOL     OW15892   1.547   0.240  17.010 -0.0350  0.0622  0.1659
 1477SOL    HW115893   1.592   0.323  17.029 -0.1197  0.6627 -2.2461
 1477SOL    HW215894   1.574   0.180  17.079 -1.0943 -0.1327  0.4128
 1478SOL     OW15895   0.001   3.915   2.754 -0.4154 -0.3242  0.3608
 1478SOL    HW115896   0.056   3.928   2.677 -0.3344 -0.2726  0.4268
 1478SOL    HW215897   0.045   3.974   2.815  0.7272 -0.3158 -0.4694
 1479SOL     OW15898   0.047   4.212  13.119  0.2623 -0.3488  0.3945
 1479SOL    HW115899   0.132   4.201  13.075 -0.4512 -0.6511 -0.9135
 1479SOL    HW215900   0.026   4.121  13.136 -1.9992  0.1038  0.0295
 1480SOL     OW15901   3.070   1.458   1.616 -0.4172 -0.4871 -0.2200
 1480SOL    HW115902   3.006   1.440   1.685 -1.5438 -0.8780 -1.3718
 1480SOL    HW215903   3.147   1.436   1.668  0.7377  2.2282 -0.7722
 1481SOL     OW15904   1.656   3.088   5.998 -0.2640 -0.2310  0.0115
 1481SOL    HW115905   1.740   3.067   6.038  0.5956  2.2371 -0.4982
 1481SOL    HW215906   1.607   3.006   6.006  2.3027 -1.9665 -2.1304
 1482SOL     OW15907   4.675   1.678  14.931 -0.5119 -0.3118  0.3410
 1482SOL    HW115908   4.653   1.746  14.867  0.6051 -0.8078 -0.5579
 1482SOL    HW215909   4.681   1.595  14.884 -3.4084 -0.3631  0.0139
 1483SOL     OW15910   2.356   1.383  11.097 -0.0537 -0.4910 -0.5048
 1483SOL    HW115911   2.387   1.465  11.059 -1.8555  0.2610 -0.3802
 1483SOL    HW215912   2.428   1.338  11.140 -0.5072  0.2826  1.0611
 1484SOL     OW15913   4.399   2.197   3.919  0.5409 -0.7753  0.1628
 1484SOL    HW115914   4.445   2.269   3.961 -1.6248  0.7222  0.0092
 1484SOL    HW215915   4.316   2.187   3.966 -1.0058  0.1634 -2.3990
 1485SOL     OW15916   3.007   3.553   1.318  0.5321  0.2903  0.6149
 1485SOL    HW115917   2.937   3.539   1.382 -1.3202 -3.7244 -2.3079
 1485SOL    HW215918   2.966   3.622   1.267  3.6309  0.6158 -1.4598
 1486SOL     OW15919   4.406   3.713   3.898 -0.0061 -0.4005 -0.2728
 1486SOL    HW115920   4.468   3.674   3.960  2.5308  0.8632 -2.0240
 1486SOL    HW215921   4.455   3.691   3.819  0.1054 -0.9068 -0.0661
 1487SOL     OW15922   1.613   0.614   5.259 -0.5424  0.3609 -0.5664
 1487SOL    HW115923   1.663   0.551   5.208 -1.2386 -0.4524 -0.2357
 1487SOL    HW215924   1.525   0.601   5.223 -0.7746  0.8437 -0.1748
 1488SOL     OW15925   0.390   3.907   0.716 -0.2959 -0.2065  0.3702
 1488SOL    HW115926   0.482   3.935   0.714 -0.5296  0.6338  0.9974
 1488SOL    HW215927   0.387   3.856   0.636  0.2963 -0.4580  0.5081
 1489SOL     OW15928   2.400   3.056   1.939  0.1699  0.0017 -0.2726
 1489SOL    HW115929   2.454   3.129   1.907 -0.4522  0.9110  0.7415
 1489SOL    HW215930   2.447   2.978   1.911 -1.7621 -1.3841  0.3811
 1490SOL     OW15931   1.766   0.494   1.157 -0.9660  0.4715  0.0798
 1490SOL    HW115932   1.678   0.526   1.137 -0.7131  0.8013 -0.5094
 1490SOL    HW215933   1.814   0.490   1.074 -2.2183 -0.4308 -0.6030
 1491SOL     OW15934   2.880   0.149  10.637  0.2356  0.3025  0.9153
 1491SOL    HW115935   2.951   0.132  10.575 -0.3214 -0.5790  0.5324
 1491SOL    HW215936   2.862   0.241  10.616 -2.1135 -0.8920 -2.1781
 1492SOL     OW15937   3.330   3.403   0.471 -0.5288  0.4449  0.0660
 1492SOL    HW115938   3.339   3.491   0.509 -0.0558  1.0368 -1.4145
 1492SOL    HW215939   3.235   3.404   0.470 -0.5404 -0.0422  0.7585
 1493SOL     OW15940   4.129   1.886  10.122  0.1362 -0.5433  0.1583
 1493SOL    HW115941   4.214   1.847  10.142  0.9577  2.0935  1.6848
 1493SOL    HW215942   4.099   1.822  10.057 -0.6948 -1.4763  1.4582
 1494SOL     OW15943   3.121   2.881   2.305  0.4691  0.1550 -0.3813
 1494SOL    HW115944   3.138   2.966   2.346  1.8264  0.3486 -1.3589
 1494SOL    HW215945   3.170   2.825   2.365  0.0937  2.0714  1.7411
 1495SOL     OW15946   2.307   3.669   4.477  0.0338  0.0544  0.1100
 1495SOL    HW115947   2.378   3.627   4.524  0.2534  0.4247  0.1114
 1495SOL    HW215948   2.234   3.617   4.511  0.9903 -0.7695  0.8638
 1496SOL     OW15949   2.185   4.033  13.819 -0.1203 -0.1236  0.4194
 1496SOL    HW115950   2.093   4.026  13.797  0.0107  0.5836 -0.3177
 1496SOL    HW215951   2.231   4.040  13.736  0.8777 -1.2467  0.8745
 1497SOL     OW15952   1.748   3.546   0.646  0.8910  0.1558  0.0240
 1497SOL    HW115953   1.795   3.628   0.652  1.6630 -0.2517 -0.4644
 1497SOL    HW215954   1.789   3.498   0.718 -0.2874 -2.0670 -0.7548
 1498SOL     OW15955   4.071   0.655   9.419  0.3560  0.1932 -0.1674
 1498SOL    HW115956   4.077   0.737   9.467 -0.3433  2.0483 -3.2394
 1498SOL    HW215957   4.037   0.681   9.334  2.3980  4.1915  0.2449
 1499SOL     OW15958   4.177   2.200  17.421 -0.1290 -0.5609  0.1318
 1499SOL    HW115959   4.159   2.122  17.368  0.1326  1.1725 -2.4741
 1499SOL    HW215960   4.267   2.174  17.403  0.4813  0.0332  2.2993
 1500SOL     OW15961   3.287   0.826   9.635  0.7123  0.2253  0.0678
 1500SOL    HW115962   3.334   0.744   9.651  2.2609  0.8979 -1.0906
 1500SOL    HW215963   3.199   0.795   9.613  0.3906  0.0539  1.5503
 1501SOL     OW15964   2.875   4.454   9.247 -0.1922 -0.0539 -0.0036
 1501SOL    HW115965   2.940   4.386   9.229  1.0120  1.0419  0.2530
 1501SOL    HW215966   2.879   4.444   9.342  0.9512 -3.1195 -0.3903
 1502SOL     OW15967   3.493   1.482   8.942  0.4625  0.1636 -0.0877
 1502SOL    HW115968   3.546   1.531   9.005  0.2055  0.1644  0.1237
 1502SOL    HW215969   3.548   1.403   8.941  0.5904  0.2547 -0.3201
 1503SOL     OW15970   1.304   3.635   5.705  0.5244  0.2753 -0.5388
 1503SOL    HW115971   1.256   3.714   5.729 -0.9641 -0.5224 -0.8783
 1503SOL    HW215972   1.236   3.598   5.648  0.8323 -2.4307  0.8131
 1504SOL     OW15973   1.759   2.481  12.737  0.5277 -0.0964 -0.3142
 1504SOL    HW115974   1.793   2.565  12.769 -0.6883  0.0958  0.4759
 1504SOL    HW215975   1.837   2.434  12.766 -0.2539 -2.5258 -2.1748
 1505SOL     OW15976   0.818   3.656   8.384 -0.5661  0.7549 -0.0269
 1505SOL    HW115977   0.882   3.586   8.395  0.6939  1.9314  0.1973
 1505SOL    HW215978   0.837   3.683   8.294 -0.1875 -2.2164 -0.8159
 1506SOL     OW15979   2.970   4.629   9.721  0.3968  0.6094  0.3894
 1506SOL    HW115980   3.028   4.688   9.768  0.3920  2.2720 -1.6955
 1506SOL    HW215981   3.015   4.618   9.637 -0.1410  0.1231  0.1600
 1507SOL     OW15982   1.099   0.657   3.456  0.6041  0.4299 -0.2954
 1507SOL    HW115983   1.013   0.634   3.422 -0.2581  1.9778  0.8610
 1507SOL    HW215984   1.072   0.744   3.486 -0.9332 -0.8537  2.0808
 1508SOL     OW15985   1.319   1.731   4.670 -0.0352  0.0520 -0.1697
 1508SOL    HW115986   1.237   1.705   4.628  1.9444 -0.2313 -3.8376
 1508SOL    HW215987   1.334   1.817   4.632 -1.9198  1.0206  1.2980
 1509SOL     OW15988   1.281   3.365   8.013  0.2590  0.0715 -0.4421
 1509SOL    HW115989   1.232   3.381   7.932 -1.0802  0.9581  0.5319
 1509SOL    HW215990   1.351   3.431   8.004 -1.8306  2.2188 -1.0627
 1510SOL     OW15991   2.550   2.630   1.255  0.1469 -0.5293  0.3722
 1510SOL    HW115992   2.624   2.607   1.199 -0.6416  0.4029 -1.0578
 1510SOL    HW215993   2.564   2.725   1.258  1.4059 -0.6122 -2.3066
 1511SOL     OW15994   1.401   1.634   6.622  0.7276 -0.1062 -0.4196
 1511SOL    HW115995   1.367   1.711   6.667 -0.4147 -0.5672 -0.4961
 1511SOL    HW215996   1.485   1.621   6.666  0.4760  0.4303  0.2136
 1512SOL     OW15997   2.599   2.705   7.582  0.4019  0.1657  0.4530
 1512SOL    HW115998   2.672   2.745   7.535 -0.8345  2.5687  0.5800
 1512SOL    HW215999   2.619   2.612   7.573  1.4057  0.4476 -0.1648
 1513SOL     OW16000   2.211   4.692   1.869 -0.1044  0.3567 -0.3816
 1513SOL    HW116001   2.184   4.630   1.802 -0.9276  0.6087 -0.2843
 1513SOL    HW216002   2.301   4.716   1.848 -0.5137  3.4239  1.3114
 1514SOL     OW16003   3.624   1.360   0.448 -0.6408  0.2221 -0.4964
 1514SOL    HW116004   3.571   1.440   0.453 -1.3743 -0.3563  0.9508
 1514SOL    HW216005   3.621   1.338   0.355 -0.2777 -1.0279 -0.2083
 1515SOL     OW16006   3.730   3.110   3.970  0.3702 -0.4939 -0.0879
 1515SOL    HW116007   3.823   3.134   3.967  1.0617 -3.2295 -0.5643
 1515SOL    HW216008   3.694   3.192   3.937 -2.0496 -1.6545 -0.3130
 1516SOL     OW16009   0.213   3.267   1.217 -0.3635 -0.2444 -0.2262
 1516SOL    HW116010   0.214   3.190   1.275 -1.1181 -0.5109 -0.5799
 1516SOL    HW216011   0.121   3.288   1.230 -0.0376  0.0339  1.6797
 1517SOL     OW16012   0.478   3.223   6.004  0.4090  0.0225  0.8474
 1517SOL    HW116013   0.452   3.237   6.095  0.6084 -0.3078  0.9564
 1517SOL    HW216014   0.527   3.142   6.015  1.6463  0.3459 -2.3981
 1518SOL     OW16015   4.233   2.700   7.526  0.3910 -0.2691 -0.0004
 1518SOL    HW116016   4.206   2.760   7.595  0.6046 -0.7291  0.4869
 1518SOL    HW216017   4.206   2.614   7.560 -0.7697  0.4228  0.8198
 1519SOL     OW16018   0.577   2.312  11.816 -0.2092  0.0979 -0.1362
 1519SOL    HW116019   0.496   2.364  11.821  1.2452  2.4873 -1.7716
 1519SOL    HW216020   0.539   2.227  11.791 -2.1882  1.1795 -0.8084
 1520SOL     OW16021   0.907   3.227   9.504 -0.1840  0.1060 -0.6092
 1520SOL    HW116022   0.982   3.214   9.446  0.7307 -1.8705  1.0130
 1520SOL    HW216023   0.894   3.140   9.540  0.2444  0.2216 -0.1666
 1521SOL     OW16024   3.329   4.451   4.510  0.5152  0.5025 -0.0909
 1521SOL    HW116025   3.405   4.479   4.562  0.9835  0.2191 -0.6131
 1521SOL    HW216026   3.294   4.375   4.556 -3.3847  2.3556 -0.0712
 1522SOL     OW16027   1.333   0.246   5.101 -0.5453 -0.0490  0.0573
 1522SOL    HW116028   1.364   0.181   5.164  1.2390 -0.5876 -1.3661
 1522SOL    HW216029   1.358   0.202   5.020 -1.0567  2.1475 -1.2921
 1523SOL     OW16030   4.123   0.458   3.064 -0.4503  0.1354  0.1081
 1523SOL    HW116031   4.116   0.370   3.027  1.4643 -0.3742  0.9616
 1523SOL    HW216032   4.176   0.500   2.996 -0.6511  2.0751  1.1514
 1524SOL     OW16033   2.676   3.034   4.133  0.4591  0.3250 -0.6895
 1524SOL    HW116034   2.764   3.008   4.108  0.0029  0.6213 -2.5699
 1524SOL    HW216035   2.646   3.071   4.050  0.7087  1.3496 -0.3248
 1525SOL     OW16036   1.529   1.661  10.662 -0.6409  0.4563  0.4225
 1525SOL    HW116037   1.595   1.729  10.652 -0.3182 -0.0785 -1.1552
 1525SOL    HW216038   1.481   1.674  10.580  0.9400  0.2281 -0.5430
 1526SOL     OW16039   3.073   4.167   7.977 -0.1905  0.1896  0.3080
 1526SOL    HW116040   3.013   4.180   7.904  1.6737 -0.5095 -1.3635
 1526SOL    HW216041   3.042   4.085   8.014  0.7164  0.7207  2.2681
 1527SOL     OW16042   1.327   2.421   2.223 -0.3450 -0.2928  0.7003
 1527SOL    HW116043   1.406   2.426   2.278 -0.4428 -0.3722  0.8465
 1527SOL    HW216044   1.320   2.514   2.200  1.3699 -1.1154 -3.1258
 1528SOL     OW16045   3.091   4.106   0.665  0.3991  0.4440 -0.4553
 1528SOL    HW116046   3.098   4.133   0.756 -0.9640 -0.1506 -0.1769
 1528SOL    HW216047   3.093   4.010   0.672 -0.1017  0.6439  2.3886
 1529SOL     OW16048   3.380   2.274   7.234 -0.5662 -0.7292 -0.1990
 1529SOL    HW116049   3.321   2.201   7.215 -0.1405 -0.8503 -1.1103
 1529SOL    HW216050   3.452   2.242   7.289 -2.0897 -1.5006  1.3360
 1530SOL     OW16051   1.187   0.647   3.192  0.0525 -0.2965  0.7236
 1530SOL    HW116052   1.173   0.675   3.282  1.7037  1.7830  0.3212
 1530SOL    HW216053   1.278   0.670   3.172  0.3178 -4.0671 -2.6014
 1531SOL     OW16054   3.374   0.540   7.466 -0.1580 -0.3695 -0.9264
 1531SOL    HW116055   3.295   0.593   7.476  0.2767 -0.0789  1.0201
 1531SOL    HW216056   3.360   0.487   7.387  0.8014 -1.3571 -0.4295
 1532SOL     OW16057   0.673   0.632   5.181  0.0662 -0.1742 -0.1001
 1532SOL    HW116058   0.646   0.592   5.263  1.5965  0.6655  0.8105
 1532SOL    HW216059   0.670   0.551   5.130 -1.1424 -0.3903  0.3176
 1533SOL     OW16060   1.281   3.523   7.755 -0.0449  0.6401  0.1891
 1533SOL    HW116061   1.187   3.541   7.752  0.4968  3.3787 -0.3282
 1533SOL    HW216062   1.305   3.505   7.664 -1.0951  1.1826 -0.1978
 1534SOL     OW16063   3.315   4.190   5.287  0.2622  0.0971 -0.0933
 1534SOL    HW116064   3.273   4.273   5.311  0.6481  0.0328  0.8129
 1534SOL    HW216065   3.405   4.216   5.267  0.3282  0.3018  0.4674
 1535SOL     OW16066   0.281   2.941  15.778  0.2452 -0.0004  0.4552
 1535SOL    HW116067   0.240   2.893  15.851 -0.0687  0.5838  0.6594
 1535SOL    HW216068   0.205   2.942  15.721 -0.4423  0.1930  1.3778
 1536SOL     OW16069   3.995   0.160   7.645  0.5444  0.1407  0.0652
 1536SOL    HW116070   3.909   0.178   7.607  0.5690  1.5605  0.7055
 1536SOL    HW216071   4.057   0.215   7.598 -0.1462  0.7975 -0.0775
 1537SOL     OW16072   2.223   0.172   2.198  0.3763 -0.2395 -0.6183
 1537SOL    HW116073   2.144   0.219   2.226 -0.0748 -2.0453  1.1008
 1537SOL    HW216074   2.268   0.169   2.283 -0.1619  4.3669 -0.1557
 1538SOL     OW16075   4.645   1.465  10.146 -0.8608 -0.1698  0.1025
 1538SOL    HW116076   4.664   1.529  10.078 -0.7137 -0.5092 -0.1762
 1538SOL    HW216077   4.621   1.386  10.097  1.0069 -0.0808 -0.9313
 1539SOL     OW16078   3.543   1.575   8.490 -0.3435 -0.0035 -0.5987
 1539SOL    HW116079   3.511   1.546   8.405 -2.6863 -1.4044  0.7687
 1539SOL    HW216080   3.479   1.541   8.552 -0.9806  2.3796  0.0606
 1540SOL     OW16081   0.332   1.383  12.081 -0.7327  0.5723 -0.6992
 1540SOL    HW116082   0.338   1.309  12.142  0.4932  2.8510  1.9427
 1540SOL    HW216083   0.310   1.447  12.148  2.0745  1.0670 -0.2711
 1541SOL     OW16084   0.285   3.877   0.334  0.0371  0.3995  0.1641
 1541SOL    HW116085   0.298   3.848   0.424  0.4877 -0.9959 -0.3461
 1541SOL    HW216086   0.354   3.826   0.292  1.4970  0.8942  1.9964
 1542SOL     OW16087   2.606   3.926   7.547  0.7671  0.0755  0.1489
 1542SOL    HW116088   2.542   3.859   7.570  0.0228  0.7651  0.0921
 1542SOL    HW216089   2.611   3.902   7.454  1.6278  0.9928 -0.0385
 1543SOL     OW16090   4.522   3.612   1.125  0.5518 -0.6563  0.0046
 1543SOL    HW116091   4.521   3.691   1.180 -1.8135 -0.3868 -0.4257
 1543SOL    HW216092   4.430   3.588   1.133  0.5033 -0.1693  1.0095
 1544SOL     OW16093   3.698   1.531   7.829  0.9054 -0.3868  0.1749
 1544SOL    HW116094   3.689   1.623   7.803 -1.6363 -0.7680 -0.2376
 1544SOL    HW216095   3.723   1.487   7.748 -0.4783  2.6296 -1.9018
 1545SOL     OW16096   3.034   4.085  12.776 -0.8118 -0.3058  0.4389
 1545SOL    HW116097   3.023   4.048  12.864 -2.3715  1.5588  1.0290
 1545SOL    HW216098   2.949   4.128  12.762 -2.1359 -2.0917  2.8577
 1546SOL     OW16099   1.635   2.972   6.994  0.2362  0.8057  0.6466
 1546SOL    HW116100   1.694   3.046   7.001  1.3321  0.0614 -0.7137
 1546SOL    HW216101   1.556   3.007   6.952 -0.6967 -1.2353  0.6521
 1547SOL     OW16102   0.137   4.387  17.272  0.2882 -0.8032 -0.5256
 1547SOL    HW116103   0.087   4.437  17.336  2.5999 -1.2191  1.5934
 1547SOL    HW216104   0.077   4.375  17.199  0.3302 -1.2485 -0.4880
 1548SOL     OW16105   4.072   2.998   4.760 -0.2253 -0.2918 -0.2062
 1548SOL    HW116106   3.996   3.019   4.814  0.0858 -0.4944  0.3054
 1548SOL    HW216107   4.036   2.965   4.678  2.0746 -0.9384 -0.9433
 1549SOL     OW16108   4.073   3.753   0.546  0.0070 -0.3830 -0.5005
 1549SOL    HW116109   4.039   3.784   0.462 -1.0448 -1.3604 -0.4345
 1549SOL    HW216110   3.996   3.731   0.600  1.8145 -0.6707  1.9859
 1550SOL     OW16111   3.284   4.254   8.104 -0.8031  0.4582  0.1635
 1550SOL    HW116112   3.203   4.243   8.055  0.1109  1.0664 -1.4700
 1550SOL    HW216113   3.264   4.193   8.175 -0.0211  0.7757  0.6650
 1551SOL     OW16114   3.775   1.377   2.681  0.9737  0.0335  0.0717
 1551SOL    HW116115   3.693   1.388   2.632  0.8044 -0.0073  0.3476
 1551SOL    HW216116   3.755   1.287   2.708  1.0625 -0.5580 -1.7985
 1552SOL     OW16117   1.893   0.165  10.559 -0.2376  0.0351  0.0077
 1552SOL    HW116118   1.856   0.213  10.484  1.3350  0.0551 -0.7433
 1552SOL    HW216119   1.944   0.095  10.519 -0.6938 -0.0799 -0.3731
 1553SOL     OW16120   3.098   3.584   4.779  0.1856 -0.4261 -0.2779
 1553SOL    HW116121   3.017   3.533   4.787 -1.4466  2.0466 -0.9670
 1553SOL    HW216122   3.118   3.575   4.872 -1.8767 -0.0803  0.2042
 1554SOL     OW16123   1.132   0.026  10.930 -0.4153 -0.1706  0.0192
 1554SOL    HW116124   1.197   4.699  10.979  0.6243  1.8376  0.6637
 1554SOL    HW216125   1.056   4.692  10.941  0.2082 -0.7665  1.2677
 1555SOL     OW16126   4.498   1.942   9.903 -0.4749 -0.5238  0.4537
 1555SOL    HW116127   4.421   1.980   9.945 -2.8258 -2.5659 -2.0187
 1555SOL    HW216128   4.524   1.998   9.831 -1.9525  1.4812  1.4764
 1556SOL     OW16129   4.042   2.032   4.518  0.6491  0.4623  0.1746
 1556SOL    HW116130   4.076   1.954   4.562 -0.2940 -0.3572 -0.5584
 1556SOL    HW216131   4.058   2.014   4.426  0.6076 -1.3318  0.5085
 1557SOL     OW16132   4.190   1.629   7.416  0.4564  0.0350 -0.2610
 1557SOL    HW116133   4.276   1.670   7.407 -0.4088  2.1072  0.9670
 1557SOL    HW216134   4.144   1.669   7.342  0.9289  1.5391  0.2594
 1558SOL     OW16135   3.793   0.494  11.554 -0.2838  0.2455 -0.3496
 1558SOL    HW116136   3.727   0.483  11.486 -2.0890  2.5391  1.0200
 1558SOL    HW216137   3.809   0.405  11.583 -1.1908  0.8720  2.0845
 1559SOL     OW16138   2.077   2.171  14.918  0.4050 -0.4238  0.8572
 1559SOL    HW116139   2.158   2.220  14.929  1.7593 -2.2891 -0.7388
 1559SOL    HW216140   2.013   2.241  14.905 -0.4206 -1.5291 -0.9832
 1560SOL     OW16141   1.433   4.396  10.943  0.8407 -0.3838  0.3750
 1560SOL    HW116142   1.492   4.471  10.935 -1.3808  1.2379 -0.9776
 1560SOL    HW216143   1.432   4.398  11.039 -0.1208  0.1547  0.3572
 1561SOL     OW16144   2.764   3.996   3.853 -0.0814  0.2928  0.5455
 1561SOL    HW116145   2.672   4.023   3.848 -0.8188 -1.7600  3.3595
 1561SOL    HW216146   2.737   3.905   3.840 -0.2168  0.0385  2.7033
 1562SOL     OW16147   2.633   4.538   2.912 -0.1394 -0.0677  0.0917
 1562SOL    HW116148   2.595   4.614   2.869 -0.1695  0.2887  0.7484
 1562SOL    HW216149   2.728   4.539   2.902 -0.1424  0.6442  0.1649
 1563SOL     OW16150   4.199   1.677   5.920  0.1164 -0.2491 -0.5045
 1563SOL    HW116151   4.251   1.758   5.916 -2.2880  1.3329  0.3638
 1563SOL    HW216152   4.143   1.698   5.995  2.4963 -0.7647  1.4214
 1564SOL     OW16153   0.860   3.926   7.798 -0.6579  0.3897 -0.1382
 1564SOL    HW116154   0.824   3.894   7.714  0.5120 -0.4777 -0.3102
 1564SOL    HW216155   0.847   4.020   7.790 -0.0951  0.2495 -2.6822
 1565SOL     OW16156   1.722   3.515  16.179 -0.3903  0.2787  0.1920
 1565SOL    HW116157   1.795   3.547  16.127  0.4752  0.0421  1.2599
 1565SOL    HW216158   1.766   3.525  16.264 -0.8249 -1.5255  0.6217
 1566SOL     OW16159   3.259   2.534   5.771  0.4196  0.5590  0.0486
 1566SOL    HW116160   3.343   2.567   5.804  0.3769  0.0410  0.6846
 1566SOL    HW216161   3.206   2.612   5.789 -0.5803 -0.0182 -0.3689
 1567SOL     OW16162   3.939   2.408   7.758  0.3981  0.0080  0.0701
 1567SOL    HW116163   3.958   2.480   7.697 -0.2899  0.1319  0.0073
 1567SOL    HW216164   4.012   2.418   7.819  1.8306 -0.7348 -1.5112
 1568SOL     OW16165   0.790   4.387  15.753  0.8014  0.4511 -0.2304
 1568SOL    HW116166   0.723   4.452  15.774 -0.1152 -0.1696 -1.2503
 1568SOL    HW216167   0.799   4.405  15.660  1.4150  1.2228 -0.0246
 1569SOL     OW16168   2.244   1.986  13.267  0.4778  0.6877 -0.4212
 1569SOL    HW116169   2.275   1.903  13.230  2.0727  1.3712 -0.5772
 1569SOL    HW216170   2.325   2.024  13.301  0.7770 -0.4969  0.1745
 1570SOL     OW16171   4.487   0.004  11.070 -0.3973  0.3899 -0.8508
 1570SOL    HW116172   4.577   4.706  11.045  0.5756  1.4578  1.7310
 1570SOL    HW216173   4.474   4.677  11.150 -0.8544  2.3671  0.3020
 1571SOL     OW16174   0.501   0.473   3.676 -0.0116 -0.4620 -0.0920
 1571SOL    HW116175   0.445   0.452   3.750 -3.5362  1.5458 -2.1627
 1571SOL    HW216176   0.584   0.435   3.704 -0.0095 -0.5848 -0.2646
 1572SOL     OW16177   1.396   0.448   7.040 -0.0223  0.1650  0.2706
 1572SOL    HW116178   1.376   0.449   6.946 -1.6829 -2.5284  0.5689
 1572SOL    HW216179   1.465   0.514   7.041  0.7700 -0.7047  1.8199
 1573SOL     OW16180   0.214   2.406   2.288  0.2535  0.0770  0.2172
 1573SOL    HW116181   0.281   2.353   2.246  0.5097  1.6720 -1.4200
 1573SOL    HW216182   0.262   2.457   2.353 -0.6039  0.6948  0.3784
 1574SOL     OW16183   2.505   4.277   7.734  0.8411  0.2602 -0.2713
 1574SOL    HW116184   2.545   4.351   7.688 -1.4764  1.9387  0.3736
 1574SOL    HW216185   2.579   4.217   7.727 -0.0438 -0.7535 -0.9108
 1575SOL     OW16186   3.070   4.273   9.234 -1.0315  0.0698  0.1705
 1575SOL    HW116187   3.151   4.297   9.188 -0.9528  1.0194  0.7826
 1575SOL    HW216188   3.075   4.178   9.237 -0.6800  0.1038  0.8234
 1576SOL     OW16189   4.342   2.709   4.307 -0.4308 -0.5231 -0.3910
 1576SOL    HW116190   4.257   2.721   4.264 -2.5476 -3.2004  3.0297
 1576SOL    HW216191   4.401   2.708   4.231 -2.0013  0.4070 -1.6252
 1577SOL     OW16192   1.968   1.725   6.566  0.6880 -0.4722  0.3135
 1577SOL    HW116193   1.885   1.763   6.537  0.6893 -2.1598 -1.8156
 1577SOL    HW216194   1.955   1.728   6.661  0.4241  0.2540  0.2590
 1578SOL     OW16195   2.931   4.320   8.928 -0.0116 -0.2189 -0.0866
 1578SOL    HW116196   2.886   4.393   8.887 -0.4154 -0.8217 -0.7021
 1578SOL    HW216197   3.018   4.353   8.954  1.0309 -1.1697 -2.3388
 1579SOL     OW16198   0.563   3.297   4.059  0.0223 -0.1582  0.0481
 1579SOL    HW116199   0.552   3.241   4.136 -0.7479 -0.3946 -0.2290
 1579SOL    HW216200   0.508   3.365   4.098  0.2782 -0.4938  0.9923
 1580SOL     OW16201   2.954   0.029   8.202 -0.2048  0.4459 -0.0916
 1580SOL    HW116202   2.983   0.040   8.111 -2.1347 -0.5095 -0.8062
 1580SOL    HW216203   2.861   0.052   8.199 -0.2588  0.1317 -0.6974
 1581SOL     OW16204   2.610   4.483   6.682 -0.2905  0.1553  0.1612
 1581SOL    HW116205   2.636   4.507   6.594 -0.7294  2.4073  0.6588
 1581SOL    HW216206   2.638   4.563   6.726 -0.9426  1.6644 -2.2074
 1582SOL     OW16207   3.179   3.663   5.788  0.6176  0.0138  0.1258
 1582SOL    HW116208   3.146   3.665   5.699 -1.2866 -1.4794  0.8082
 1582SOL    HW216209   3.128   3.729   5.836 -1.8072  0.3681 -2.9407
 1583SOL     OW16210   0.446   2.690   3.113  0.5736 -0.2198 -0.3157
 1583SOL    HW116211   0.440   2.685   3.017 -1.1070 -0.0026 -0.2336
 1583SOL    HW216212   0.517   2.630   3.136  0.8757  0.4874  0.5910
 1584SOL     OW16213   0.572   2.124   8.583 -0.2672  0.1130  0.7955
 1584SOL    HW116214   0.504   2.185   8.557  1.8744  1.0050 -2.6474
 1584SOL    HW216215   0.606   2.091   8.500  0.8244  1.3288  0.7554
 1585SOL     OW16216   1.401   1.916   0.082  0.3484 -0.0962  1.2774
 1585SOL    HW116217   1.416   1.868   0.164  2.1623 -0.8680  0.4950
 1585SOL    HW216218   1.349   1.988   0.117 -0.3826 -0.2570  0.5208
 1586SOL     OW16219   2.807   4.708   6.291 -0.4373 -0.1476 -0.6173
 1586SOL    HW116220   2.887   4.655   6.293 -0.8612 -0.7473  0.5379
 1586SOL    HW216221   2.827   0.075   6.315 -0.4648 -0.5569  0.9438
 1587SOL     OW16222   2.127   3.112   0.570 -0.6069 -0.4782  0.1661
 1587SOL    HW116223   2.156   3.047   0.506 -1.2891  1.1996 -1.8236
 1587SOL    HW216224   2.039   3.074   0.581 -0.6685 -0.3295  0.1884
 1588SOL     OW16225   0.101   1.247  14.160 -0.0837 -0.2344  0.3665
 1588SOL    HW116226   0.164   1.175  14.152 -1.0314 -0.9714 -0.5072
 1588SOL    HW216227   0.070   1.231  14.248 -0.5939  1.3004  0.4714
 1589SOL     OW16228   4.382   1.676   1.588 -0.2794  0.7275 -0.5717
 1589SOL    HW116229   4.444   1.643   1.523  0.3410 -0.4450  0.6031
 1589SOL    HW216230   4.439   1.700   1.661 -0.1472 -1.6953  0.1186
 1590SOL     OW16231   4.321   2.077  13.781 -0.2127  0.0985 -0.0462
 1590SOL    HW116232   4.326   2.154  13.838 -2.1522  0.4923 -0.4026
 1590SOL    HW216233   4.229   2.081  13.753 -0.8670 -1.3890  1.8819
 1591SOL     OW16234   2.501   0.956   6.212 -0.3546  0.1549 -0.1768
 1591SOL    HW116235   2.438   1.012   6.258 -0.7883 -0.4515 -0.0398
 1591SOL    HW216236   2.558   1.020   6.169 -1.7267  1.5999  0.1149
 1592SOL     OW16237   1.034   2.352   0.087 -0.4131 -0.2479 -0.0115
 1592SOL    HW116238   1.003   2.313   0.169  0.2652  0.6364  0.6750
 1592SOL    HW216239   1.112   2.399   0.117 -0.3639 -0.0037 -0.5304
 1593SOL     OW16240   3.572   0.329   1.872 -0.0278  0.1876  0.5914
 1593SOL    HW116241   3.524   0.327   1.789 -0.4131 -0.8075  0.8393
 1593SOL    HW216242   3.566   0.425   1.879  1.8987  0.4130 -0.7872
 1594SOL     OW16243   1.786   2.689   7.442 -0.4048 -0.1856  0.3194
 1594SOL    HW116244   1.698   2.724   7.452 -0.5461 -0.7390  1.0403
 1594SOL    HW216245   1.821   2.735   7.366 -1.2772  0.1647  0.1338
 1595SOL     OW16246   4.271   3.555   2.471  0.2268  0.5398  0.5366
 1595SOL    HW116247   4.312   3.486   2.419 -1.3912 -0.2490  0.3219
 1595SOL    HW216248   4.345   3.615   2.462  0.2955  0.3888  0.0834
 1596SOL     OW16249   0.764   3.725   2.810 -0.5706 -0.6269 -0.3078
 1596SOL    HW116250   0.703   3.745   2.739  0.3083 -2.3652 -1.5460
 1596SOL    HW216251   0.800   3.646   2.770  0.5395 -1.0605  1.5173
 1597SOL     OW16252   1.245   4.321   7.147 -0.0680  0.3841  0.0086
 1597SOL    HW116253   1.300   4.309   7.224  0.9736  0.8100 -0.6734
 1597SOL    HW216254   1.312   4.321   7.078 -0.5000 -1.2289 -0.4207
 1598SOL     OW16255   0.004   2.960  10.231 -0.1825 -0.1725  0.1735
 1598SOL    HW116256   0.035   3.027  10.170  1.1327  0.1317  1.1606
 1598SOL    HW216257   0.019   2.883  10.176 -0.0659 -0.2855  0.3616
 1599SOL     OW16258   2.904   4.487   6.536 -0.9002 -0.1480 -0.2105
 1599SOL    HW116259   2.960   4.515   6.608 -2.0007  1.3646  0.0466
 1599SOL    HW216260   2.961   4.420   6.498  0.9708  0.3891  1.6632
 1600SOL     OW16261   2.194   2.997  14.845 -0.5946  0.2730 -0.4140
 1600SOL    HW116262   2.274   3.049  14.844  0.9521 -2.0618  0.9315
 1600SOL    HW216263   2.133   3.068  14.865 -0.2668 -0.1269  2.0197
 1601SOL     OW16264   3.455   3.511   4.292 -0.1505 -0.3896 -0.3141
 1601SOL    HW116265   3.543   3.549   4.290  0.4238 -1.6924 -0.3297
 1601SOL    HW216266   3.405   3.590   4.310  1.0376 -0.4364  3.1078
 1602SOL     OW16267   1.066   1.851  14.407  0.1364  0.4049  0.2270
 1602SOL    HW116268   1.070   1.789  14.481 -3.9585  0.8719  0.8118
 1602SOL    HW216269   1.057   1.800  14.326 -3.4173 -0.6746  1.3069
 1603SOL     OW16270   3.907   4.695  13.520 -0.4098  0.3117 -0.0366
 1603SOL    HW116271   3.984   4.675  13.573 -0.2809 -1.3528 -0.8765
 1603SOL    HW216272   3.848   4.624  13.545  0.7265 -0.5388  0.1819
 1604SOL     OW16273   1.350   0.901   7.543  0.3578  0.3516 -0.5903
 1604SOL    HW116274   1.266   0.936   7.572  0.8636 -1.2579  2.8066
 1604SOL    HW216275   1.325   0.846   7.468 -1.9358  1.0316 -0.3390
 1605SOL     OW16276   4.125   0.282  17.396 -0.0129 -0.7975  0.2759
 1605SOL    HW116277   4.195   0.303  17.334 -0.0296 -1.6597 -0.0411
 1605SOL    HW216278   4.166   0.213  17.448  2.7558  0.1031 -0.6627
 1606SOL     OW16279   0.449   0.506   0.434 -0.2052 -0.3659 -0.1802
 1606SOL    HW116280   0.388   0.579   0.422 -2.3742 -2.1669 -0.1089
 1606SOL    HW216281   0.517   0.552   0.483  2.0545 -0.0676 -3.5771
 1607SOL     OW16282   3.675   3.047  11.708 -0.4049  0.0197  0.1082
 1607SOL    HW116283   3.716   2.970  11.748  1.4651  0.8012 -0.3000
 1607SOL    HW216284   3.605   3.001  11.660 -1.1793  0.0227  1.2375
 1608SOL     OW16285   0.483   3.005  13.028 -0.9147  0.8324 -0.1811
 1608SOL    HW116286   0.410   3.026  13.087 -0.7648  1.0059 -0.0553
 1608SOL    HW216287   0.536   3.083  13.015  0.1863  0.5230  2.3567
 1609SOL     OW16288   1.534   1.681   8.040  0.2490  0.1020 -0.6107
 1609SOL    HW116289   1.590   1.659   7.965 -0.5636 -1.6956 -0.6690
 1609SOL    HW216290   1.478   1.604   8.037 -1.4788  1.2959  0.9216
 1610SOL     OW16291   4.654   2.791   3.083  0.1624 -0.3270 -0.1029
 1610SOL    HW116292   4.676   2.755   2.997 -0.8082 -2.1568  0.4204
 1610SOL    HW216293   0.008   2.778   3.139 -0.4515 -0.4214  0.7174
 1611SOL     OW16294   2.507   2.188   4.213 -0.6596  0.0600 -0.0198
 1611SOL    HW116295   2.584   2.240   4.190  0.3419 -1.3440  0.1458
 1611SOL    HW216296   2.439   2.252   4.192  0.0554  0.5705 -0.8047
 1612SOL     OW16297   4.447   3.794   2.403 -0.4368  0.0118 -0.1379
 1612SOL    HW116298   4.539   3.789   2.380 -0.3190  2.9577 -0.3572
 1612SOL    HW216299   4.417   3.852   2.332  1.6058  0.6660 -0.4737
 1613SOL     OW16300   1.840   1.513   3.919  0.3814 -0.1568  0.3852
 1613SOL    HW116301   1.749   1.513   3.950 -0.1795  1.6431 -1.1783
 1613SOL    HW216302   1.871   1.603   3.927  2.8541 -0.9000 -0.9653
 1614SOL     OW16303   2.966   1.281   4.646 -0.0414 -0.0970 -0.4399
 1614SOL    HW116304   3.059   1.295   4.663 -0.0360 -1.8274  0.8693
 1614SOL    HW216305   2.932   1.351   4.702  0.4719 -0.4302  0.2819
 1615SOL     OW16306   0.359   0.595  15.723 -0.0181  0.2040 -1.1615
 1615SOL    HW116307   0.340   0.689  15.730  1.1676  0.2343  1.4905
 1615SOL    HW216308   0.453   0.589  15.708 -0.0485 -2.3716 -0.2325
 1616SOL     OW16309   2.278   1.511   2.125  0.1619  0.3159 -0.1717
 1616SOL    HW116310   2.240   1.433   2.084  2.7230 -2.1035  2.0623
 1616SOL    HW216311   2.234   1.512   2.211  2.1690  0.3102  0.8451
 1617SOL     OW16312   3.916   0.025  16.950 -0.2943 -0.4870  0.7196
 1617SOL    HW116313   3.898   0.056  17.038 -0.3877 -1.0972  0.9123
 1617SOL    HW216314   3.957   0.103  16.913 -1.8168  0.9305  2.0210
 1618SOL     OW16315   3.486   2.182   4.832 -0.5276  0.3647 -0.1619
 1618SOL    HW116316   3.504   2.207   4.742  0.7935  1.8028  0.5190
 1618SOL    HW216317   3.559   2.124   4.854 -1.3361  0.5721  3.1306
 1619SOL     OW16318   2.522   1.646   7.169  0.0250 -0.1426  0.2756
 1619SOL    HW116319   2.522   1.741   7.160  2.2249 -0.1118  0.7868
 1619SOL    HW216320   2.479   1.646   7.255 -2.2020 -2.5245 -0.8446
 1620SOL     OW16321   0.363   4.137  14.269  0.1797  0.1775 -0.1782
 1620SOL    HW116322   0.321   4.103  14.189 -2.5579 -2.5173  2.4160
 1620SOL    HW216323   0.452   4.151  14.236 -0.5254 -0.7190 -2.4898
 1621SOL     OW16324   3.892   0.458   2.173  0.0306 -0.3126  0.1866
 1621SOL    HW116325   3.944   0.432   2.250  0.1743  0.3765  0.3243
 1621SOL    HW216326   3.861   0.375   2.137  1.0431  0.6854 -2.9432
 1622SOL     OW16327   2.033   4.129   7.420  0.4821  0.1180  0.3733
 1622SOL    HW116328   2.045   4.196   7.352  1.8616  2.6511  3.0825
 1622SOL    HW216329   2.113   4.140   7.472  0.4070  0.1416  0.4838
 1623SOL     OW16330   2.592   3.251   7.800 -0.1624 -0.2922 -0.1539
 1623SOL    HW116331   2.681   3.235   7.832 -1.2144 -1.7088  2.0297
 1623SOL    HW216332   2.558   3.162   7.802 -1.3258  0.1384 -0.6191
 1624SOL     OW16333   0.718   1.086   8.193 -0.1851  0.5183  0.5057
 1624SOL    HW116334   0.698   1.122   8.280 -2.6073  0.6659 -0.1055
 1624SOL    HW216335   0.798   1.135   8.174  0.1707  0.3687  1.6353
 1625SOL     OW16336   0.571   2.913  10.943  0.6862  1.2738  0.0953
 1625SOL    HW116337   0.546   2.948  11.028 -1.6976 -2.8146  1.1047
 1625SOL    HW216338   0.664   2.914  10.967  0.7615 -0.3955 -0.0665
 1626SOL     OW16339   1.289   3.154   6.664 -0.5272  0.3263  0.5539
 1626SOL    HW116340   1.349   3.119   6.598 -0.6593  0.6079  0.2839
 1626SOL    HW216341   1.201   3.133   6.633 -0.2840  1.8836 -1.1686
 1627SOL     OW16342   3.134   3.155   0.290 -0.3618 -0.0695 -0.0691
 1627SOL    HW116343   3.215   3.152   0.239 -1.4385 -3.9471 -1.5834
 1627SOL    HW216344   3.140   3.074   0.340 -1.7422 -0.0112  0.1804
 1628SOL     OW16345   4.240   3.816   9.816 -0.0345 -0.4632  0.2554
 1628SOL    HW116346   4.239   3.777   9.903  0.0114 -0.8332  0.0918
 1628SOL    HW216347   4.165   3.770   9.779  0.6069 -2.0000  0.8609
 1629SOL     OW16348   3.057   3.568   2.962  0.1773 -0.7298 -0.1483
 1629SOL    HW116349   3.062   3.605   3.050  1.2944 -0.7235 -0.2175
 1629SOL    HW216350   3.046   3.649   2.912  1.9079  0.1917  0.9408
 1630SOL     OW16351   3.634   4.393  12.822  0.2849 -0.0834  0.3427
 1630SOL    HW116352   3.596   4.405  12.735 -1.1596 -0.1554  0.9620
 1630SOL    HW216353   3.657   4.300  12.825 -3.6194 -1.0439 -0.0179
 1631SOL     OW16354   0.820   0.871   1.612  0.5211  0.9206  0.0292
 1631SOL    HW116355   0.782   0.798   1.563  1.8582  0.0936  0.2019
 1631SOL    HW216356   0.867   0.906   1.536  2.6540 -0.1679  0.8261
 1632SOL     OW16357   3.116   3.103   2.987  0.2834 -0.2545  0.2888
 1632SOL    HW116358   3.073   3.135   2.907 -1.7635 -0.8953  1.1533
 1632SOL    HW216359   3.186   3.168   2.989  0.4279 -0.3523 -1.3139
 1633SOL     OW16360   2.269   0.830  15.058  0.0916 -0.0848 -0.1649
 1633SOL    HW116361   2.347   0.871  15.096 -2.5415  1.0792  3.9659
 1633SOL    HW216362   2.226   0.911  15.030 -2.8694 -1.7782 -0.5643
 1634SOL     OW16363   3.108   3.768  17.169  0.3115 -0.0376 -0.0280
 1634SOL    HW116364   3.075   3.746  17.256  3.0095 -1.9526  0.5100
 1634SOL    HW216365   3.079   3.858  17.152 -0.8976 -0.1898  1.2205
 1635SOL     OW16366   2.172   0.492   4.332 -0.3430  0.3693 -0.2191
 1635SOL    HW116367   2.111   0.560   4.302  0.4656  1.0724 -0.2667
 1635SOL    HW216368   2.117   0.459   4.403 -0.1934  0.8053  0.0995
 1636SOL     OW16369   3.983   2.871  17.439  0.1018  0.5610  0.5680
 1636SOL    HW116370   3.960   2.962  17.460  0.0921  0.4120  1.2213
 1636SOL    HW216371   4.078   2.859  17.442 -0.1922 -2.2222 -1.5947
 1637SOL     OW16372   2.827   1.327  10.488 -0.0716 -0.5056  0.3958
 1637SOL    HW116373   2.742   1.366  10.464 -0.5164 -0.2911  2.3482
 1637SOL    HW216374   2.887   1.390  10.529 -0.5862  1.1579 -1.3712
 1638SOL     OW16375   3.680   3.100   0.505 -0.3073  0.2358 -0.4145
 1638SOL    HW116376   3.744   3.170   0.518  0.5371 -0.5954 -0.1198
 1638SOL    HW216377   3.725   3.029   0.459  1.8773  0.3350  1.5988
 1639SOL     OW16378   1.726   3.562   0.034  0.6501 -0.2684 -0.0229
 1639SOL    HW116379   1.675   3.515   0.100  0.5345 -0.2376 -0.0912
 1639SOL    HW216380   1.658   3.604  17.675  1.4683  1.6817  0.4753
 1640SOL     OW16381   2.762   0.715   0.927  0.0435 -0.1765 -0.4923
 1640SOL    HW116382   2.753   0.770   0.849  0.9985 -0.5843 -0.8844
 1640SOL    HW216383   2.716   0.640   0.891 -0.3330 -0.9366  1.5750
 1641SOL     OW16384   0.669   0.652   5.808  0.1261  0.0262  0.9732
 1641SOL    HW116385   0.761   0.680   5.807  0.2135 -0.2667  1.2163
 1641SOL    HW216386   0.624   0.682   5.728 -1.6102  0.7981  2.2258
 1642SOL     OW16387   1.217   0.034   0.486 -0.4468 -0.0899 -0.0663
 1642SOL    HW116388   1.303   0.075   0.474 -1.5051  1.7973 -1.1887
 1642SOL    HW216389   1.222   4.679   0.430 -0.6315  0.0904 -0.3311
 1643SOL     OW16390   0.632   0.369   5.786  0.1261  0.0890 -0.0891
 1643SOL    HW116391   0.664   0.457   5.808 -1.4587  0.6942 -0.2292
 1643SOL    HW216392   0.564   0.363   5.854  0.4223 -0.6386  0.1411
 1644SOL     OW16393   3.856   0.457   9.582  0.4542  0.4259  0.0255
 1644SOL    HW116394   3.875   0.422   9.670 -2.0655 -1.2304 -0.0778
 1644SOL    HW216395   3.859   0.551   9.594 -2.5917  0.2268  2.4728
 1645SOL     OW16396   3.307   0.889   6.004 -0.3504  0.3296  0.1697
 1645SOL    HW116397   3.324   0.876   5.911  0.9858  0.8581  0.3243
 1645SOL    HW216398   3.371   0.957   6.028  0.1225 -0.8773  2.2765
 1646SOL     OW16399   1.648   3.692   4.604  0.2072 -0.7219  0.5905
 1646SOL    HW116400   1.681   3.727   4.686 -2.2010 -0.1040  1.2926
 1646SOL    HW216401   1.725   3.650   4.565  1.6231  2.2290  0.2130
 1647SOL     OW16402   2.624   1.730  16.717  0.0627  0.2821 -0.2051
 1647SOL    HW116403   2.622   1.826  16.719  1.7769  0.3452 -0.7732
 1647SOL    HW216404   2.532   1.721  16.742 -0.8390  2.3103 -2.7186
 1648SOL     OW16405   1.723   1.152  11.227 -0.5022 -0.1713  0.2129
 1648SOL    HW116406   1.804   1.186  11.187 -1.9107  0.4620 -2.0626
 1648SOL    HW216407   1.674   1.131  11.148  0.0499  0.2516 -0.2546
 1649SOL     OW16408   2.295   2.735   3.919 -0.1315 -0.1272 -0.2699
 1649SOL    HW116409   2.205   2.725   3.888  0.4776 -0.1168 -2.0796
 1649SOL    HW216410   2.342   2.734   3.835 -2.5375  2.8887 -1.6561
 1650SOL     OW16411   1.144   3.883  16.253  0.6331  0.0583  0.2989
 1650SOL    HW116412   1.136   3.898  16.348 -0.9143 -0.4330  0.2527
 1650SOL    HW216413   1.066   3.938  16.241  0.7304 -0.2039 -1.5382
 1651SOL     OW16414   4.361   3.952   3.703 -0.4168 -0.0290 -0.8564
 1651SOL    HW116415   4.405   3.897   3.768  1.6866  1.5993 -0.8871
 1651SOL    HW216416   4.409   4.032   3.725 -1.3589  0.5173 -0.7830
 1652SOL     OW16417   0.304   0.218   2.679 -0.1928  0.1947 -0.6520
 1652SOL    HW116418   0.377   0.164   2.649  1.2459  2.0373 -0.5006
 1652SOL    HW216419   0.354   0.267   2.745  0.2877  0.3742 -1.1461
 1653SOL     OW16420   0.384   3.425   2.888  0.8295 -0.5666 -0.3318
 1653SOL    HW116421   0.402   3.445   2.796  1.0776 -0.0538 -0.1681
 1653SOL    HW216422   0.291   3.407   2.897  0.7350 -0.4707 -1.1271
 1654SOL     OW16423   0.857   3.766   3.299  0.1042  0.2250 -0.2460
 1654SOL    HW116424   0.943   3.798   3.271 -0.8688  2.2466 -0.9616
 1654SOL    HW216425   0.893   3.693   3.349  1.4279  1.3382  0.4355
 1655SOL     OW16426   1.613   3.382   6.050  1.0616 -0.3633  0.0970
 1655SOL    HW116427   1.550   3.408   5.983  0.4298  2.3036  1.6911
 1655SOL    HW216428   1.624   3.291   6.025 -0.9782 -0.3121 -0.9937
 1656SOL     OW16429   2.777   2.516   0.040 -0.6288 -0.2484 -0.0174
 1656SOL    HW116430   2.700   2.528   0.097 -0.2985 -1.8127  0.7466
 1656SOL    HW216431   2.748   2.571  17.661 -3.5199 -0.1101  1.2273
 1657SOL     OW16432   1.079   0.641  14.713  0.5555  0.1009  0.3163
 1657SOL    HW116433   1.117   0.664  14.629 -0.1190 -1.0393 -0.3021
 1657SOL    HW216434   1.096   0.726  14.753  0.5806  0.9068 -1.4035
 1658SOL     OW16435   0.092   3.017  11.935  0.0266 -0.0055  0.5822
 1658SOL    HW116436   0.172   2.965  11.939 -0.5247 -0.9364 -0.6805
 1658SOL    HW216437   0.029   2.946  11.951 -2.6544  2.7790  2.3562
 1659SOL     OW16438   3.886   0.274   3.236 -1.0346  0.4236  0.0720
 1659SOL    HW116439   3.942   0.349   3.257 -0.7371  0.1590  0.2304
 1659SOL    HW216440   3.825   0.311   3.173 -0.7845  0.7339  0.0085
 1660SOL     OW16441   4.646   4.375  12.569 -0.2758  0.3617  0.2942
 1660SOL    HW116442   4.675   4.436  12.637  0.1287 -0.4018  0.7946
 1660SOL    HW216443   4.569   4.333  12.606  1.9531 -0.0072  4.5598
 1661SOL     OW16444   2.870   2.029   2.751  0.0464 -0.3689  0.5061
 1661SOL    HW116445   2.853   1.986   2.835  0.7205 -0.2639  0.7028
 1661SOL    HW216446   2.965   2.016   2.741 -0.0062 -0.0472 -0.3763
 1662SOL     OW16447   0.280   2.164  11.900  0.3117 -0.4432  0.1235
 1662SOL    HW116448   0.350   2.124  11.848  1.3361  1.6767 -0.1513
 1662SOL    HW216449   0.203   2.124  11.859 -0.0881 -0.4126  0.8538
 1663SOL     OW16450   4.344   1.818  14.710  0.1049  0.2951  0.2844
 1663SOL    HW116451   4.279   1.819  14.640  0.9485 -3.2037 -0.5675
 1663SOL    HW216452   4.413   1.862  14.660  1.1545 -0.3739  1.1362
 1664SOL     OW16453   1.523   0.924   9.791  0.1210  0.6683 -0.5297
 1664SOL    HW116454   1.478   0.842   9.769  1.6833 -0.2925 -0.1317
 1664SOL    HW216455   1.609   0.889   9.768  0.3552  0.0723  1.2678
 1665SOL     OW16456   3.864   0.029   2.314  0.1920 -0.3482  0.6037
 1665SOL    HW116457   3.899   4.675   2.359 -2.7244 -0.3037  2.9906
 1665SOL    HW216458   3.810   4.711   2.247  1.1951 -1.0205  0.2100
 1666SOL     OW16459   0.745   2.341   4.814  0.3324  0.5235  0.8173
 1666SOL    HW116460   0.780   2.255   4.791  0.5201  0.6381  0.6690
 1666SOL    HW216461   0.807   2.366   4.883  1.6353  0.5498 -0.3678
 1667SOL     OW16462   0.190   2.628  17.434  0.7220  0.4532 -0.0009
 1667SOL    HW116463   0.124   2.560  17.422  0.1924  1.0362 -0.3779
 1667SOL    HW216464   0.225   2.603  17.520 -0.2831  1.1951  0.6406
 1668SOL     OW16465   0.547   4.496   1.228  0.5703 -0.1400  0.1685
 1668SOL    HW116466   0.459   4.472   1.255  1.1233 -0.8625  1.3367
 1668SOL    HW216467   0.537   4.541   1.144  2.9585 -0.9080 -0.5284
 1669SOL     OW16468   4.669   4.603  15.112  0.1149  0.9266  0.3606
 1669SOL    HW116469   0.020   4.545  15.131  2.1361  4.0245  2.0179
 1669SOL    HW216470   4.604   4.533  15.100  1.5092 -0.3278  0.0871
 1670SOL     OW16471   3.285   0.147   2.996  0.0949  0.7096  0.8096
 1670SOL    HW116472   3.341   0.221   2.971  0.1026  1.1903  2.2177
 1670SOL    HW216473   3.278   0.166   3.090  1.7243  1.9481  0.6869
 1671SOL     OW16474   1.921   0.485   0.934 -0.1963  0.1090  0.1067
 1671SOL    HW116475   1.909   0.395   0.906 -0.2795  0.7179 -1.7759
 1671SOL    HW216476   1.929   0.519   0.845  2.8954  2.3664  1.2312
 1672SOL     OW16477   1.636   3.916   0.247  0.1423  0.3789 -0.1488
 1672SOL    HW116478   1.690   3.845   0.280 -2.6934 -1.2098  0.9668
 1672SOL    HW216479   1.637   3.982   0.316  0.6441 -0.6420  0.8011
 1673SOL     OW16480   0.884   3.941   7.205  0.2097 -0.2954  0.2249
 1673SOL    HW116481   0.965   3.979   7.171  0.7340 -2.2852 -0.7554
 1673SOL    HW216482   0.818   3.978   7.147  0.6163 -0.2301 -0.1942
 1674SOL     OW16483   1.097   0.457   5.802  0.3488  0.0156 -0.4867
 1674SOL    HW116484   1.190   0.437   5.817 -0.6911 -3.3220  1.3100
 1674SOL    HW216485   1.072   0.385   5.860  1.0534 -0.3519 -0.6305
 1675SOL     OW16486   0.870   3.688   2.540 -0.2494 -0.1818 -0.0434
 1675SOL    HW116487   0.802   3.754   2.552  2.0120  1.9265  1.2117
 1675SOL    HW216488   0.871   3.677   2.445  0.3920  0.5054 -0.1100
 1676SOL     OW16489   1.399   0.985   5.769 -0.2769  0.3932 -0.5364
 1676SOL    HW116490   1.435   0.935   5.841  0.9350 -0.3732 -1.6893
 1676SOL    HW216491   1.417   0.927   5.695  0.2107  0.8412 -0.7669
 1677SOL     OW16492   0.015   3.183   4.395 -0.1828 -0.3648  0.5572
 1677SOL    HW116493   0.033   3.091   4.379 -1.3324 -0.6749  1.0311
 1677SOL    HW216494   0.080   3.229   4.343 -2.3523 -0.7213 -2.4517
 1678SOL     OW16495   1.896   0.730   5.775  0.0705  0.1475  0.4007
 1678SOL    HW116496   1.809   0.753   5.743 -0.7049 -3.4427 -0.1122
 1678SOL    HW216497   1.950   0.804   5.749  0.9804 -0.7173 -0.1605
 1679SOL     OW16498   0.171   0.049   2.861  0.0696  0.4268  0.2336
 1679SOL    HW116499   0.238   0.075   2.797  0.3489 -4.4600 -1.4667
 1679SOL    HW216500   0.207   4.688   2.888  0.6992  0.7457  0.3807
 1680SOL     OW16501   4.465   3.925  12.267  0.0113 -0.5723 -0.5745
 1680SOL    HW116502   4.428   3.839  12.245  0.7550 -0.9802 -0.2249
 1680SOL    HW216503   4.453   3.963  12.180  1.6254  1.4803  0.0971
 1681SOL     OW16504   1.803   2.695   4.739 -0.8724 -0.5937 -0.2163
 1681SOL    HW116505   1.810   2.604   4.767 -0.9843 -0.1126  1.3568
 1681SOL    HW216506   1.837   2.682   4.650 -1.5554 -3.4640 -0.0593
 1682SOL     OW16507   2.978   1.250   7.193 -0.1262  0.6910 -0.4390
 1682SOL    HW116508   2.986   1.289   7.280 -1.8398 -2.2397  1.0266
 1682SOL    HW216509   2.938   1.165   7.214 -0.7928  0.9053 -0.8217
 1683SOL     OW16510   3.813   1.650   2.819  0.3606  0.1286 -0.1281
 1683SOL    HW116511   3.848   1.592   2.751 -0.9871 -0.2574 -0.4917
 1683SOL    HW216512   3.726   1.613   2.832 -0.3052  1.2588 -1.3163
 1684SOL     OW16513   0.856   0.131   2.972  0.1336 -0.4213 -0.1274
 1684SOL    HW116514   0.865   0.036   2.980  0.0841 -0.4894 -0.8574
 1684SOL    HW216515   0.822   0.144   2.884 -0.9153  0.0157  0.3546
 1685SOL     OW16516   3.581   3.000   7.099  0.0688 -0.1966 -0.9716
 1685SOL    HW116517   3.552   3.075   7.047 -0.1187 -0.5692 -1.4020
 1685SOL    HW216518   3.610   3.038   7.182  1.0258 -1.3863 -0.7574
 1686SOL     OW16519   2.774   0.087   5.087 -0.1827 -0.6939 -0.3746
 1686SOL    HW116520   2.683   0.093   5.058  0.0436  1.6007 -0.5958
 1686SOL    HW216521   2.770   0.008   5.142  0.6081 -0.8407 -0.5364
 1687SOL     OW16522   3.768   1.277   5.765 -0.4325 -1.0794  0.1956
 1687SOL    HW116523   3.815   1.198   5.741  1.9386  0.7337 -1.1833
 1687SOL    HW216524   3.728   1.307   5.683 -0.7017 -0.4670  0.5483
 1688SOL     OW16525   0.750   3.496  17.348 -0.0596  0.1078 -0.3141
 1688SOL    HW116526   0.836   3.529  17.322  0.7044 -0.7508  1.1257
 1688SOL    HW216527   0.706   3.573  17.385 -0.4477  0.9070 -2.4388
 1689SOL     OW16528   3.582   3.354   4.006 -0.0688  0.0792  0.4217
 1689SOL    HW116529   3.641   3.428   4.022 -1.1860  1.4219 -1.5557
 1689SOL    HW216530   3.507   3.381   4.059 -0.5272 -1.0011  0.3101
 1690SOL     OW16531   2.643   4.540   2.484  0.0235 -0.3914 -0.2448
 1690SOL    HW116532   2.693   4.461   2.504  0.3207  0.3148  1.7905
 1690SOL    HW216533   2.581   4.512   2.417 -0.1984 -0.2736 -0.0867
 1691SOL     OW16534   4.513   0.955   8.024  0.3498 -0.0098 -0.3076
 1691SOL    HW116535   4.502   0.860   8.030  0.9817 -0.1021 -0.7131
 1691SOL    HW216536   4.490   0.969   7.932  0.1707 -1.8457 -0.5460
 1692SOL     OW16537   4.304   4.021  11.017  0.0262  0.1987 -0.4524
 1692SOL    HW116538   4.296   3.983  11.105  1.7099 -0.0322 -0.3910
 1692SOL    HW216539   4.381   3.973  10.986  0.0395 -0.1448  0.1156
 1693SOL     OW16540   4.384   1.621   3.554  0.1007  0.4160 -0.5047
 1693SOL    HW116541   4.384   1.538   3.506  0.2832 -0.1348  0.4647
 1693SOL    HW216542   4.290   1.627   3.575 -0.1432  0.1740 -1.5114
 1694SOL     OW16543   3.901   3.391   0.027  0.3135  0.0396 -0.0626
 1694SOL    HW116544   3.968   3.454   0.001  1.0078 -1.5698 -2.1688
 1694SOL    HW216545   3.960   3.319   0.006  0.1402 -0.2062  0.2917
 1695SOL     OW16546   0.186   3.268   2.061 -0.0756 -0.3195 -0.5571
 1695SOL    HW116547   0.094   3.253   2.037 -0.9991  1.6891  1.6668
 1695SOL    HW216548   0.235   3.238   1.985 -0.0497 -0.8580 -0.3266
 1696SOL     OW16549   0.214   0.723  13.117  0.1596  0.6986 -0.4288
 1696SOL    HW116550   0.290   0.778  13.137  0.7730  0.0762 -1.0652
 1696SOL    HW216551   0.240   0.670  13.042 -0.2599 -0.9969  0.6355
 1697SOL     OW16552   2.933   1.855   3.584 -0.6842  0.3636  0.2853
 1697SOL    HW116553   3.010   1.870   3.531 -0.7739 -1.8570 -0.4646
 1697SOL    HW216554   2.948   1.770   3.625  1.0904  0.6914  0.3079
 1698SOL     OW16555   3.123   0.111  10.496 -0.9971  0.0367  0.0418
 1698SOL    HW116556   3.097   0.095  10.406 -0.4232  0.4518 -0.2009
 1698SOL    HW216557   3.145   0.022  10.521 -0.8128  0.4453  1.3582
 1699SOL     OW16558   3.097   4.128   7.578 -0.2349 -0.2919 -0.0818
 1699SOL    HW116559   3.135   4.045   7.550 -1.1802 -1.4763  2.0930
 1699SOL    HW216560   3.179   4.172   7.599 -0.5038 -0.8485  2.2406
 1700SOL     OW16561   1.502   3.659  16.142 -0.0898  0.4045  0.2099
 1700SOL    HW116562   1.497   3.664  16.046 -0.3815 -3.3184  0.0270
 1700SOL    HW216563   1.582   3.606  16.140 -1.2243 -1.2338 -2.8727
 1701SOL     OW16564   4.568   0.449  16.369  0.2252  1.0013  0.5698
 1701SOL    HW116565   4.646   0.395  16.358 -0.2341  0.7333 -1.4370
 1701SOL    HW216566   4.597   0.533  16.333 -1.6622  0.8587 -1.2787
 1702SOL     OW16567   0.785   3.298   0.774  0.2274 -0.3187 -0.2677
 1702SOL    HW116568   0.855   3.285   0.711  2.6955  4.5828  1.4372
 1702SOL    HW216569   0.723   3.357   0.730  0.3266 -0.1345 -0.1625
 1703SOL     OW16570   2.503   0.097   8.836 -0.3759  0.2779 -0.3597
 1703SOL    HW116571   2.417   0.109   8.795 -1.4060 -2.0282  1.0979
 1703SOL    HW216572   2.479   0.067   8.924  0.8484  0.2073 -0.0472
 1704SOL     OW16573   1.832   2.662   1.919 -0.4388 -0.1426  0.4328
 1704SOL    HW116574   1.799   2.751   1.930  1.0250  0.6072 -1.1964
 1704SOL    HW216575   1.884   2.666   1.838  0.2576  1.2019  0.9416
 1705SOL     OW16576   4.163   4.054  17.560 -0.5763 -0.5714  0.1748
 1705SOL    HW116577   4.221   4.006  17.501  0.5013  0.9928 -0.0433
 1705SOL    HW216578   4.128   3.974  17.599 -1.4032  0.2160  1.0557
 1706SOL     OW16579   2.513   4.094   3.838  0.0592  0.5815  0.8429
 1706SOL    HW116580   2.442   4.051   3.885  0.6710 -2.0369 -0.6040
 1706SOL    HW216581   2.497   4.187   3.851 -0.2997  0.7039 -0.4258
 1707SOL     OW16582   0.442   2.903   3.286 -0.2673 -0.3139  0.3053
 1707SOL    HW116583   0.513   2.953   3.244  2.6781 -2.4734  2.7205
 1707SOL    HW216584   0.429   2.830   3.225 -1.5766  1.6863 -1.8020
 1708SOL     OW16585   1.345   2.652  14.965  0.0675 -0.0017 -0.0738
 1708SOL    HW116586   1.296   2.579  15.003 -1.7282  0.9769 -0.5319
 1708SOL    HW216587   1.280   2.693  14.909  0.2243 -0.0365 -0.2821
 1709SOL     OW16588   3.002   2.030   7.406  0.2416  0.4133 -0.6178
 1709SOL    HW116589   3.065   1.979   7.457 -0.3335  0.2071 -0.1208
 1709SOL    HW216590   2.977   1.968   7.338  1.4297 -0.7866  0.0441
 1710SOL     OW16591   0.186   2.892   6.266  0.2021 -0.3624 -0.0739
 1710SOL    HW116592   0.164   2.901   6.358  0.8557  1.0105 -0.0550
 1710SOL    HW216593   0.250   2.821   6.275  0.7255  0.0846 -0.2777
 1711SOL     OW16594   1.902   0.659   8.853  0.0868 -0.1806  0.2771
 1711SOL    HW116595   1.829   0.660   8.791  2.1366 -1.8130 -2.1702
 1711SOL    HW216596   1.918   0.752   8.868 -2.8267  0.3382  0.1557
 1712SOL     OW16597   0.330   4.677   5.412  0.3908 -0.1556  0.0102
 1712SOL    HW116598   0.422   4.675   5.437  0.7047  2.4838 -1.0034
 1712SOL    HW216599   0.334   4.645   5.321 -0.9503  1.3036 -0.5603
 1713SOL     OW16600   3.288   4.717   0.240 -0.1348 -0.4657  0.4216
 1713SOL    HW116601   3.290   4.630   0.281  0.0980  0.3969  2.2545
 1713SOL    HW216602   3.358   4.713   0.175  1.3527 -0.3310  2.0120
 1714SOL     OW16603   0.686   3.892  10.194 -0.3273  0.5012  0.1657
 1714SOL    HW116604   0.678   3.840  10.114 -0.4395  1.7252 -0.6161
 1714SOL    HW216605   0.757   3.954  10.180  0.6969 -0.4742  0.9557
 1715SOL     OW16606   0.788   2.218  13.646  0.2585 -0.2273  0.1616
 1715SOL    HW116607   0.735   2.229  13.724  0.8784 -1.7023  0.8036
 1715SOL    HW216608   0.726   2.246  13.579  0.1962 -0.7990 -0.0267
 1716SOL     OW16609   0.446   3.473   9.406  0.5100 -0.2425 -0.7819
 1716SOL    HW116610   0.433   3.452   9.313 -1.7484  0.1889 -0.5660
 1716SOL    HW216611   0.515   3.409   9.424  1.1097  0.6297 -0.0321
 1717SOL     OW16612   4.056   3.498   2.850 -0.5107 -0.0004 -0.0327
 1717SOL    HW116613   4.138   3.547   2.843 -0.5540  0.2464  1.2866
 1717SOL    HW216614   4.041   3.476   2.758  1.1266 -2.5706  0.3017
 1718SOL     OW16615   1.225   1.585   5.419 -0.0889  0.6175 -0.8520
 1718SOL    HW116616   1.288   1.523   5.382  0.8206  0.3249  1.2008
 1718SOL    HW216617   1.194   1.520   5.483  1.8500  0.0142 -0.5292
 1719SOL     OW16618   1.881   4.020  16.354  0.3654  0.6498 -0.1559
 1719SOL    HW116619   1.864   3.928  16.331  2.3461 -0.1632  1.6703
 1719SOL    HW216620   1.924   4.008  16.438  2.4725  0.2896 -1.2935
 1720SOL     OW16621   3.109   1.212  12.884  0.5103 -0.0902  0.4930
 1720SOL    HW116622   3.020   1.203  12.852  1.5921 -0.8006 -2.2957
 1720SOL    HW216623   3.096   1.296  12.929 -0.2870  1.2533 -2.2905
 1721SOL     OW16624   0.385   1.132   0.519  0.0182  0.2260  0.2470
 1721SOL    HW116625   0.356   1.222   0.503  1.5842  0.7932  0.5954
 1721SOL    HW216626   0.315   1.093   0.572  1.0675 -2.7979 -0.5606
 1722SOL     OW16627   3.309   0.698   7.132 -0.0190 -0.1011 -0.4870
 1722SOL    HW116628   3.271   0.731   7.051  1.9429  0.9786 -0.9872
 1722SOL    HW216629   3.390   0.651   7.109  0.9807  0.9449  0.8565
 1723SOL     OW16630   2.258   0.585  13.070  0.0921  0.1843 -0.0144
 1723SOL    HW116631   2.337   0.559  13.118  1.5663  2.7697 -1.0835
 1723SOL    HW216632   2.275   0.554  12.981 -1.4877 -1.8904  0.3843
 1724SOL     OW16633   1.659   0.132   6.919 -0.1764 -0.3204 -0.2673
 1724SOL    HW116634   1.675   0.171   6.833  4.5237 -0.1138  0.7147
 1724SOL    HW216635   1.714   0.181   6.980  0.6477  0.9347 -2.0157
 1725SOL     OW16636   4.528   0.483   1.790  0.3292 -0.2371  0.1156
 1725SOL    HW116637   4.581   0.414   1.828  0.1074 -1.7978 -2.4237
 1725SOL    HW216638   4.443   0.439   1.795 -0.8843  2.0037 -0.4104
 1726SOL     OW16639   0.224   0.189   9.533  0.4667  0.5181  0.8380
 1726SOL    HW116640   0.186   0.277   9.542 -0.3274  0.1079  1.4942
 1726SOL    HW216641   0.242   0.173   9.440  0.7021  0.5424  0.8798
 1727SOL     OW16642   0.133   4.466   2.733 -0.3809 -0.0983 -0.1222
 1727SOL    HW116643   0.137   4.466   2.829 -0.2329 -0.7517 -0.1296
 1727SOL    HW216644   0.216   4.422   2.716 -0.3341 -0.1654  0.2790
 1728SOL     OW16645   3.540   0.599   5.224 -0.4939  0.2418  0.5538
 1728SOL    HW116646   3.532   0.691   5.198  0.2103  0.2847  0.4833
 1728SOL    HW216647   3.501   0.556   5.148  0.9892  0.2048 -0.1895
 1729SOL     OW16648   3.600   0.796   6.778 -0.5025 -0.3848  0.1596
 1729SOL    HW116649   3.581   0.823   6.868  0.0077 -1.4250  0.5727
 1729SOL    HW216650   3.617   0.702   6.789 -0.2892 -0.3219  0.3641
 1730SOL     OW16651   1.723   2.376  12.118  0.3000 -0.6174  0.2224
 1730SOL    HW116652   1.644   2.397  12.067  0.7621  0.5873  0.0055
 1730SOL    HW216653   1.746   2.292  12.079  0.4723 -0.6893  0.4809
 1731SOL     OW16654   1.604   1.702   6.321 -0.3168  0.3498  0.6214
 1731SOL    HW116655   1.584   1.622   6.369 -2.1493 -0.6921 -1.8585
 1731SOL    HW216656   1.521   1.748   6.310 -1.1616 -1.9213 -2.3637
 1732SOL     OW16657   3.044   0.539   9.177 -0.0336  0.4368 -0.3137
 1732SOL    HW116658   2.979   0.518   9.111  0.0863 -2.7922  0.5992
 1732SOL    HW216659   2.993   0.533   9.258  2.2760  0.1612  1.1338
 1733SOL     OW16660   2.444   2.147   8.224  0.0337  0.0977 -0.2687
 1733SOL    HW116661   2.393   2.107   8.295  0.9385 -1.6807 -0.6529
 1733SOL    HW216662   2.475   2.229   8.263 -0.4684  0.1253  0.0799
 1734SOL     OW16663   2.490   0.382  12.894 -0.3962  0.2990  0.1967
 1734SOL    HW116664   2.473   0.418  12.807 -1.4402 -0.7143 -0.0143
 1734SOL    HW216665   2.492   0.290  12.870  2.3725  0.3521  0.1938
 1735SOL     OW16666   2.551   2.401   7.902 -0.2724  0.6868  0.0343
 1735SOL    HW116667   2.553   2.308   7.924 -2.7877  0.3385 -1.2399
 1735SOL    HW216668   2.571   2.448   7.982 -0.5409  0.6961  0.0960
 1736SOL     OW16669   2.807   4.327  12.481  0.2520  0.4270 -0.7688
 1736SOL    HW116670   2.848   4.382  12.415  1.5986 -1.4040 -1.4725
 1736SOL    HW216671   2.826   4.374  12.562  1.1286 -1.7350  0.2785
 1737SOL     OW16672   2.222   4.575   7.694 -0.1508 -0.0423 -0.2212
 1737SOL    HW116673   2.246   4.483   7.701  1.8663  0.4315 -0.9289
 1737SOL    HW216674   2.147   4.582   7.635 -0.9667 -0.1257  0.8056
 1738SOL     OW16675   1.951   4.396   9.149  0.2774  0.3289  0.4588
 1738SOL    HW116676   1.930   4.483   9.183 -0.6580 -0.0715  0.9179
 1738SOL    HW216677   1.899   4.344   9.211 -1.5337  0.9458 -0.5407
 1739SOL     OW16678   3.648   3.340   0.209  0.2517 -0.4901  0.1587
 1739SOL    HW116679   3.682   3.388   0.285 -3.1974  0.2398  1.2750
 1739SOL    HW216680   3.645   3.251   0.245  1.4417 -0.5129  0.1813
 1740SOL     OW16681   0.597   0.549   3.934  0.2874 -0.0351  0.0949
 1740SOL    HW116682   0.623   0.500   4.012 -0.9838 -1.3934 -0.3119
 1740SOL    HW216683   0.639   0.635   3.936 -0.4464  0.2855  1.9439
 1741SOL     OW16684   0.931   3.156  14.378 -0.6447 -0.2825 -0.4249
 1741SOL    HW116685   0.854   3.140  14.323  0.1843  0.0938 -1.6975
 1741SOL    HW216686   0.937   3.072  14.424 -0.4756  0.6020  1.1898
 1742SOL     OW16687   3.109   4.033   3.351 -0.3940 -0.1235  0.1113
 1742SOL    HW116688   3.160   3.956   3.378 -1.0670 -0.6800 -0.1999
 1742SOL    HW216689   3.156   4.041   3.268 -0.0073 -2.3199  0.1150
 1743SOL     OW16690   2.161   2.359   5.351 -0.7321 -0.0593  0.1548
 1743SOL    HW116691   2.121   2.447   5.352  0.1485  0.3418 -0.0364
 1743SOL    HW216692   2.095   2.312   5.402  0.4501 -3.6031 -1.6293
 1744SOL     OW16693   3.350   4.479   3.215 -0.3997  0.5779 -0.2601
 1744SOL    HW116694   3.264   4.458   3.178 -0.7057 -2.0814  1.9540
 1744SOL    HW216695   3.357   4.413   3.284 -2.2984  0.6616  0.0072
 1745SOL     OW16696   2.560   1.487   5.193 -0.0556  0.1016 -0.3077
 1745SOL    HW116697   2.513   1.431   5.131  2.0765 -0.8179 -1.1185
 1745SOL    HW216698   2.643   1.439   5.185  0.5692  1.6105 -2.8763
 1746SOL     OW16699   4.400   1.190   7.423 -0.5444 -0.0199 -0.7958
 1746SOL    HW116700   4.488   1.157   7.407 -1.4823 -1.5947 -2.8412
 1746SOL    HW216701   4.413   1.223   7.511  0.5926  1.4683 -1.5160
 1747SOL     OW16702   1.513   3.409   3.589 -0.4668 -0.8846  0.1416
 1747SOL    HW116703   1.512   3.382   3.680 -1.5894 -1.2382  0.0289
 1747SOL    HW216704   1.508   3.333   3.531 -1.3232 -1.3201  0.7993
 1748SOL     OW16705   3.570   2.196   8.924  0.1497 -0.1795 -0.1818
 1748SOL    HW116706   3.623   2.117   8.926 -0.1070 -0.3466  0.0815
 1748SOL    HW216707   3.631   2.249   8.976  1.6458 -2.2314  0.1636
 1749SOL     OW16708   3.658   1.090   3.344  0.2458 -0.0592  0.1140
 1749SOL    HW116709   3.715   1.156   3.305 -0.6335  1.1993  0.9922
 1749SOL    HW216710   3.581   1.077   3.289  0.1151  1.2629 -0.0093
 1750SOL     OW16711   4.264   3.139   7.405  0.1154 -0.6777  0.5779
 1750SOL    HW116712   4.180   3.131   7.452 -0.4333  2.1416  0.0757
 1750SOL    HW216713   4.284   3.047   7.389 -2.7585 -0.8979 -1.7534
 1751SOL     OW16714   2.417   4.227   4.954  0.6071  0.2101  0.0469
 1751SOL    HW116715   2.499   4.277   4.955  1.1837 -0.6752 -1.6856
 1751SOL    HW216716   2.378   4.283   4.886 -2.1086  0.4405  1.8408
 1752SOL     OW16717   4.069   4.212  15.232  0.0083  0.0970 -0.3857
 1752SOL    HW116718   4.154   4.202  15.190  0.1159  0.4906 -0.2591
 1752SOL    HW216719   4.028   4.126  15.225  1.3535 -0.5567 -0.2632
 1753SOL     OW16720   1.334   0.335   4.611 -0.0712 -0.1239 -0.5796
 1753SOL    HW116721   1.378   0.344   4.695  0.6361 -2.2827 -0.7118
 1753SOL    HW216722   1.411   0.301   4.564  0.8780  0.8691  0.2390
 1754SOL     OW16723   3.272   4.141  14.333  0.3265 -0.4068 -0.2639
 1754SOL    HW116724   3.363   4.171  14.327 -0.3878  2.2838  2.4122
 1754SOL    HW216725   3.234   4.210  14.279  1.5288  0.9822  0.6653
 1755SOL     OW16726   2.403   1.674  13.336  0.3294  0.3235 -0.3829
 1755SOL    HW116727   2.329   1.703  13.389  0.3076 -1.1766  0.4221
 1755SOL    HW216728   2.472   1.735  13.363 -0.8182  1.7515 -0.6685
 1756SOL     OW16729   2.567   3.395   9.493  0.1517  0.2382  0.4831
 1756SOL    HW116730   2.481   3.433   9.472 -0.1106 -0.9261 -0.5349
 1756SOL    HW216731   2.621   3.438   9.426  1.8699  1.5894  2.7382
 1757SOL     OW16732   1.838   0.412   7.035  0.1495  0.2209 -0.0122
 1757SOL    HW116733   1.826   0.353   7.109  0.0657 -0.6989 -0.7644
 1757SOL    HW216734   1.757   0.464   7.039 -1.5685 -2.4158 -1.1036
 1758SOL     OW16735   2.182   0.503   1.002  0.0538 -0.3782  0.0466
 1758SOL    HW116736   2.092   0.472   0.992  0.0935 -1.0816  1.8221
 1758SOL    HW216737   2.239   0.432   0.972  0.4235 -0.0862  0.0550
 1759SOL     OW16738   1.820   2.397   8.962  1.0572  0.2792  0.6184
 1759SOL    HW116739   1.804   2.470   8.902  0.6005 -1.5407 -1.4778
 1759SOL    HW216740   1.751   2.427   9.022 -1.7025  1.5405 -3.1402
 1760SOL     OW16741   2.580   1.828   1.744  0.1323  0.6977  0.6496
 1760SOL    HW116742   2.547   1.752   1.696  0.0093  0.2453  1.4468
 1760SOL    HW216743   2.506   1.863   1.792  0.5875  0.5636  1.4562
 1761SOL     OW16744   0.429   4.166   2.413 -0.1221 -0.2635 -0.2462
 1761SOL    HW116745   0.487   4.105   2.458  0.8984  0.5952 -0.3838
 1761SOL    HW216746   0.480   4.247   2.404 -0.8508  0.0811 -1.2605
 1762SOL     OW16747   2.165   1.861   2.351  0.1951 -0.3071 -0.2159
 1762SOL    HW116748   2.204   1.786   2.395  2.3447  0.4473 -0.8207
 1762SOL    HW216749   2.073   1.834   2.346 -1.0468  3.8425 -0.0627
 1763SOL     OW16750   0.202   0.171  16.743  0.0670  0.2581 -0.0563
 1763SOL    HW116751   0.191   0.264  16.720  3.5426  0.2590 -1.6521
 1763SOL    HW216752   0.225   0.176  16.835  0.9748 -0.5225 -0.2432
 1764SOL     OW16753   3.729   2.452   7.041 -0.8274  0.0504  0.0523
 1764SOL    HW116754   3.710   2.372   6.992  2.1907 -0.5724 -0.0934
 1764SOL    HW216755   3.738   2.522   6.976  1.2497  0.5044  0.8321
 1765SOL     OW16756   1.007   3.774   2.077  0.2377  0.2859  0.3088
 1765SOL    HW116757   1.016   3.850   2.021  0.8748 -1.4937 -2.0185
 1765SOL    HW216758   1.097   3.742   2.090  0.0603  0.2024  1.3685
 1766SOL     OW16759   2.515   4.595   1.937 -0.2302  0.3248 -0.4672
 1766SOL    HW116760   2.448   4.587   2.005 -0.6900  2.8413 -0.6115
 1766SOL    HW216761   2.533   4.689   1.931 -0.6394  0.3214 -1.5965
 1767SOL     OW16762   2.605   0.168   9.332 -0.1251 -0.0885 -0.0777
 1767SOL    HW116763   2.604   0.192   9.425  2.7509  0.7431 -0.2622
 1767SOL    HW216764   2.638   0.079   9.339  1.6784  0.5770 -0.2239
 1768SOL     OW16765   2.950   1.130   2.638 -0.4360  0.1766 -0.5455
 1768SOL    HW116766   2.975   1.136   2.546 -0.1107 -0.7624 -0.5244
 1768SOL    HW216767   2.862   1.097   2.617 -0.8049  1.1955 -0.5943
 1769SOL     OW16768   1.577   3.583   7.025  0.2770  0.2193  0.6690
 1769SOL    HW116769   1.517   3.529   7.077 -0.3594  0.4438  0.1686
 1769SOL    HW216770   1.534   3.668   7.032 -1.2241 -0.7802  3.6087
 1770SOL     OW16771   0.519   2.168   4.482 -0.0253 -0.2293  0.4446
 1770SOL    HW116772   0.533   2.113   4.559 -0.0779  0.9476  1.2825
 1770SOL    HW216773   0.438   2.214   4.505 -0.5370 -1.1390  0.4753
 1771SOL     OW16774   0.451   3.083  16.852 -0.0414  0.1512  0.2509
 1771SOL    HW116775   0.528   3.115  16.805  2.0835 -3.3350  1.3253
 1771SOL    HW216776   0.485   3.098  16.941  0.6480 -0.2349  0.0546
 1772SOL     OW16777   1.758   2.874   8.270  0.1417  0.1824 -0.1425
 1772SOL    HW116778   1.691   2.928   8.230 -1.1887 -1.2144  0.2084
 1772SOL    HW216779   1.774   2.828   8.188 -3.3446 -2.5401  0.7368
 1773SOL     OW16780   4.534   4.589  15.406  0.2251 -0.0034 -0.1821
 1773SOL    HW116781   4.606   4.583  15.344  1.6936 -0.9361  1.6279
 1773SOL    HW216782   4.569   4.533  15.475  0.1500 -0.8735 -0.8616
 1774SOL     OW16783   2.172   4.363   4.857 -0.3858  0.1339  0.2682
 1774SOL    HW116784   2.180   4.295   4.925 -0.4308  1.7798  1.9261
 1774SOL    HW216785   2.085   4.350   4.820  1.0099  2.5576 -3.7855
 1775SOL     OW16786   1.876   2.313   4.763 -0.2054  0.5856  0.6290
 1775SOL    HW116787   1.845   2.270   4.683 -2.5624  2.0549  0.7805
 1775SOL    HW216788   1.808   2.282   4.822  1.8827 -1.3550  1.9952
 1776SOL     OW16789   2.138   1.734  14.886 -0.2134 -0.1344  0.4011
 1776SOL    HW116790   2.222   1.703  14.852 -0.2942  0.2936 -0.1707
 1776SOL    HW216791   2.069   1.681  14.846 -1.3712  2.1042 -0.5078
 1777SOL     OW16792   0.303   1.426   8.142  0.8465 -0.3184 -0.0960
 1777SOL    HW116793   0.324   1.490   8.209  0.5598 -0.2621 -0.0592
 1777SOL    HW216794   0.262   1.360   8.198 -1.1623  0.4387 -0.6495
 1778SOL     OW16795   0.483   0.951   8.385 -0.1441  0.4247  0.4295
 1778SOL    HW116796   0.407   0.894   8.393  0.8300 -0.9063  0.2651
 1778SOL    HW216797   0.548   0.899   8.434  2.6931  1.3341 -2.3705
 1779SOL     OW16798   2.342   3.924  14.310 -0.2716 -0.4613 -0.3945
 1779SOL    HW116799   2.322   3.922  14.217 -2.2378  3.1307 -0.0204
 1779SOL    HW216800   2.422   3.977  14.314 -1.1694  0.8790 -0.6558
 1780SOL     OW16801   3.661   3.911   7.229  0.1192  0.5406 -0.5572
 1780SOL    HW116802   3.667   3.822   7.193 -2.0464  0.6295 -1.1825
 1780SOL    HW216803   3.695   3.964   7.157  1.2173  0.5326 -0.0351
 1781SOL     OW16804   3.370   3.743  17.241 -0.2916 -0.1763 -0.0761
 1781SOL    HW116805   3.380   3.667  17.299  0.3539  0.8273  1.1130
 1781SOL    HW216806   3.282   3.729  17.206 -0.6423  2.3028 -0.1593
 1782SOL     OW16807   3.984   0.974   5.534 -0.0857  0.3487 -0.9187
 1782SOL    HW116808   3.941   1.051   5.497 -1.5348  0.1302  0.2990
 1782SOL    HW216809   4.046   0.961   5.462 -0.6931  1.7285 -1.6820
 1783SOL     OW16810   1.833   3.961   4.220 -0.2044  0.3529 -0.0184
 1783SOL    HW116811   1.844   3.880   4.170  0.0430 -0.4345  1.3199
 1783SOL    HW216812   1.750   3.943   4.264  1.0769 -2.6835  1.1138
 1784SOL     OW16813   3.962   2.979   4.496 -0.0406 -0.2249  0.0289
 1784SOL    HW116814   3.994   3.037   4.427  1.3417  2.3358  2.8578
 1784SOL    HW216815   3.868   2.972   4.477  0.2251 -0.1890 -1.3024
 1785SOL     OW16816   4.062   1.785   1.884  0.6152  0.1378 -0.1863
 1785SOL    HW116817   3.986   1.775   1.827  0.6922  2.8842 -0.7422
 1785SOL    HW216818   4.089   1.877   1.884 -1.2583  0.6897 -1.2901
 1786SOL     OW16819   1.080   0.852   6.370  0.5414  0.4749 -0.0630
 1786SOL    HW116820   1.157   0.812   6.330 -0.1781  1.9390 -2.9034
 1786SOL    HW216821   1.109   0.865   6.460 -0.8138  4.0211 -0.1501
 1787SOL     OW16822   3.490   4.112   3.075 -0.8565  0.1007  0.0244
 1787SOL    HW116823   3.506   4.197   3.034 -0.7978  0.7384  1.3693
 1787SOL    HW216824   3.546   4.115   3.152  0.1470 -0.1213 -0.7027
 1788SOL     OW16825   4.297   4.377   7.346  0.3619  0.5876 -0.0087
 1788SOL    HW116826   4.364   4.310   7.348 -0.8304 -0.6342 -0.7388
 1788SOL    HW216827   4.225   4.318   7.370  3.3760 -2.8908  0.4580
 1789SOL     OW16828   3.660   0.499   1.442  0.1967 -0.2236 -0.3295
 1789SOL    HW116829   3.725   0.464   1.504  1.0633  0.5401 -0.8160
 1789SOL    HW216830   3.620   0.557   1.507 -0.7250  0.6920 -1.7310
 1790SOL     OW16831   2.880   3.519   2.467 -0.2544  0.2816 -0.1420
 1790SOL    HW116832   2.843   3.561   2.390 -2.3800  0.8604  1.2001
 1790SOL    HW216833   2.965   3.563   2.468 -0.4604  0.6710  1.7417
 1791SOL     OW16834   2.834   3.509  11.492  0.1744 -0.1888 -0.4930
 1791SOL    HW116835   2.783   3.571  11.440  0.5817 -1.5140 -2.4662
 1791SOL    HW216836   2.922   3.540  11.469 -0.3644  1.2352 -0.6495
 1792SOL     OW16837   2.704   1.875   8.892 -0.1571 -0.6776 -0.8224
 1792SOL    HW116838   2.708   1.959   8.845  1.5028  0.1263  0.7695
 1792SOL    HW216839   2.694   1.909   8.981 -1.6787 -3.1206 -0.0579
 1793SOL     OW16840   3.532   4.364  16.017 -0.0206  0.1185 -0.2187
 1793SOL    HW116841   3.497   4.279  15.990  0.7817  0.3502 -1.9519
 1793SOL    HW216842   3.620   4.339  16.047 -0.6620 -2.1388 -0.1723
 1794SOL     OW16843   4.223   1.003   7.233  0.0967  0.2989  0.7355
 1794SOL    HW116844   4.305   0.980   7.189 -0.0265  0.5471  0.3691
 1794SOL    HW216845   4.246   1.008   7.326 -0.9929  0.0211  1.0172
 1795SOL     OW16846   0.979   4.311   3.930 -0.6083 -0.0882  0.4570
 1795SOL    HW116847   0.994   4.333   3.838 -0.4918  0.1649  0.5385
 1795SOL    HW216848   1.065   4.295   3.969 -0.5173 -1.4929 -0.3188
 1796SOL     OW16849   0.662   2.555  11.862  0.1588 -0.2685 -0.1481
 1796SOL    HW116850   0.753   2.579  11.875  0.6057 -1.6541 -0.7617
 1796SOL    HW216851   0.666   2.460  11.855  3.6003 -0.2018  1.1794
 1797SOL     OW16852   0.165   2.771  16.830  0.0173  0.1571 -0.7370
 1797SOL    HW116853   0.210   2.804  16.753 -0.9140  0.3279 -1.2102
 1797SOL    HW216854   0.193   2.681  16.819 -1.2257 -0.3297  0.0967
 1798SOL     OW16855   2.008   0.147  12.847  0.0107 -0.0266  0.5170
 1798SOL    HW116856   2.059   0.105  12.917 -1.5189 -1.9110  0.4798
 1798SOL    HW216857   1.925   0.164  12.892 -0.4504  2.4418 -1.2867
 1799SOL     OW16858   2.014   4.036   4.842 -0.2101  0.1762  0.8095
 1799SOL    HW116859   1.957   3.980   4.789 -0.6133  3.1268 -1.8135
 1799SOL    HW216860   2.074   3.968   4.875  1.2298  1.4157  0.7515
 1800SOL     OW16861   4.073   1.897  11.741  0.1721  0.2845 -0.3845
 1800SOL    HW116862   4.068   1.812  11.787 -1.6327  1.2467  1.2048
 1800SOL    HW216863   4.042   1.881  11.652 -0.0124  0.2405 -0.3122
 1801SOL     OW16864   3.584   1.946   5.623  0.0598  0.1431 -0.6010
 1801SOL    HW116865   3.670   1.962   5.583 -0.8709  0.6288 -2.4293
 1801SOL    HW216866   3.554   1.881   5.559  1.4024 -1.3279  0.2646
 1802SOL     OW16867   4.010   3.797   1.802  0.1251  0.2133 -0.0161
 1802SOL    HW116868   3.990   3.778   1.894  2.3731 -0.6572  0.3125
 1802SOL    HW216869   4.036   3.888   1.818  3.3424 -0.7628  0.3463
 1803SOL     OW16870   4.549   1.062  15.526  0.1098  0.3013 -0.0092
 1803SOL    HW116871   4.542   1.064  15.431 -1.3525 -1.0872  0.0790
 1803SOL    HW216872   4.583   1.151  15.540 -0.0001  0.2805  0.3953
 1804SOL     OW16873   0.176   2.093  10.658 -0.0372 -0.0393  0.3629
 1804SOL    HW116874   0.262   2.051  10.652  0.3754  0.8441 -0.0265
 1804SOL    HW216875   0.179   2.163  10.592  1.7043 -0.1380  0.3205
 1805SOL     OW16876   2.897   2.295  17.516 -0.1259  0.3845  0.2097
 1805SOL    HW116877   2.872   2.288  17.423  0.5165 -3.2889  0.2973
 1805SOL    HW216878   2.966   2.360  17.509  1.8218 -1.4114  3.0763
 1806SOL     OW16879   1.903   0.155   1.400 -0.4922  0.0484  0.0341
 1806SOL    HW116880   1.971   0.218   1.424 -1.6657  1.1374  0.4831
 1806SOL    HW216881   1.927   0.069   1.433 -0.8836 -0.0094  0.1725
 1807SOL     OW16882   4.062   0.707  11.016 -0.0903  0.1393 -0.7176
 1807SOL    HW116883   4.109   0.627  10.992  1.9264  1.5923 -1.6191
 1807SOL    HW216884   4.091   0.697  11.107 -0.8986 -0.5781 -0.5407
 1808SOL     OW16885   3.770   4.509   0.494  0.4562 -0.0992  0.1533
 1808SOL    HW116886   3.831   4.539   0.561 -0.2149  1.5592  0.0300
 1808SOL    HW216887   3.720   4.445   0.544 -0.0499  0.4032  0.2890
 1809SOL     OW16888   4.364   3.234   3.858 -0.7778 -0.3871  0.0141
 1809SOL    HW116889   4.285   3.191   3.825 -0.8944  0.7376 -1.1496
 1809SOL    HW216890   4.417   3.239   3.779  0.2539  0.5478  0.7708
 1810SOL     OW16891   1.737   1.127  17.306 -0.3795 -0.0230 -0.0890
 1810SOL    HW116892   1.754   1.127  17.211  2.6868 -1.7869  0.4615
 1810SOL    HW216893   1.823   1.108  17.342  0.7287  1.9229 -1.6752
 1811SOL     OW16894   3.260   3.855   7.473 -0.3871 -0.5708 -0.0859
 1811SOL    HW116895   3.341   3.906   7.472  0.5611 -2.0901 -0.9971
 1811SOL    HW216896   3.247   3.836   7.380  0.0775  0.9957 -0.4662
 1812SOL     OW16897   4.318   4.520   6.156  0.2957 -0.3059  0.1189
 1812SOL    HW116898   4.307   4.614   6.148 -0.7837 -0.4675 -0.4364
 1812SOL    HW216899   4.412   4.516   6.171  0.4880  2.3525 -0.4783
 1813SOL     OW16900   1.315   1.094   2.640 -0.4695 -0.4966  0.3673
 1813SOL    HW116901   1.313   1.093   2.736 -0.8960 -1.8759  0.3389
 1813SOL    HW216902   1.348   1.004   2.633 -0.1143 -0.2042 -1.5578
 1814SOL     OW16903   1.197   2.883   5.254  0.0170  0.1580 -0.1232
 1814SOL    HW116904   1.197   2.974   5.283  0.3386 -0.2043  0.9863
 1814SOL    HW216905   1.109   2.858   5.282  0.2716 -0.4670  0.1175
 1815SOL     OW16906   0.425   1.407   2.344 -0.1626  0.9481  0.4132
 1815SOL    HW116907   0.362   1.365   2.402 -1.2497  0.3561 -1.2058
 1815SOL    HW216908   0.424   1.350   2.268  1.2409 -0.0400  1.1227
 1816SOL     OW16909   2.311   2.289   9.656  0.0701  0.0397  0.5176
 1816SOL    HW116910   2.314   2.382   9.636 -0.1470  0.1911  1.1959
 1816SOL    HW216911   2.310   2.287   9.751  0.0278  3.4680  0.5769
 1817SOL     OW16912   2.269   2.196  11.427  0.6126  0.7947  0.3941
 1817SOL    HW116913   2.318   2.153  11.497  1.4469 -2.0742 -1.9571
 1817SOL    HW216914   2.262   2.284  11.465 -0.8689  0.7340  0.2559
 1818SOL     OW16915   0.896   1.505  14.004 -0.3546  0.5841 -0.1243
 1818SOL    HW116916   0.965   1.461  13.953 -0.0462  1.8868 -0.8228
 1818SOL    HW216917   0.828   1.453  13.962 -0.9550  1.3701 -0.1301
 1819SOL     OW16918   2.100   1.929   0.297  0.4215  0.1379  0.2911
 1819SOL    HW116919   2.096   2.025   0.289 -0.9000  0.0955  0.4028
 1819SOL    HW216920   2.167   1.910   0.231  0.7433  1.9651  0.0898
 1820SOL     OW16921   2.162   3.301   3.475  0.4245  0.4146  0.0976
 1820SOL    HW116922   2.120   3.255   3.402 -0.5003 -0.0919  0.9393
 1820SOL    HW216923   2.252   3.318   3.448  0.5774  0.8827  0.9194
 1821SOL     OW16924   2.523   1.099   6.760 -0.1142  0.5113  0.0458
 1821SOL    HW116925   2.569   1.170   6.804 -0.7240  1.2381 -0.4966
 1821SOL    HW216926   2.553   1.024   6.811 -0.0903  0.9926  0.7313
 1822SOL     OW16927   1.371   1.462   5.203 -0.1347  0.2911 -0.5274
 1822SOL    HW116928   1.435   1.426   5.141  0.8205  1.3363 -0.1434
 1822SOL    HW216929   1.288   1.440   5.162 -0.0113  0.1553 -0.7034
 1823SOL     OW16930   0.124   1.588   7.730 -0.2117  0.4090  0.1389
 1823SOL    HW116931   0.168   1.516   7.686  0.8460  0.9815  0.2713
 1823SOL    HW216932   0.100   1.549   7.814 -1.2117 -0.9914 -0.7935
 1824SOL     OW16933   3.147   3.966  13.593 -0.5408  0.4392 -0.1493
 1824SOL    HW116934   3.124   3.887  13.641 -0.6676  1.4288  1.4184
 1824SOL    HW216935   3.096   3.950  13.514  1.0099 -1.5121 -0.7396
 1825SOL     OW16936   1.038   2.442   4.135  0.3333 -0.3499  0.6400
 1825SOL    HW116937   0.992   2.432   4.219 -0.8119 -1.2192 -0.0833
 1825SOL    HW216938   0.962   2.485   4.095  1.3738  0.6298 -0.2630
 1826SOL     OW16939   2.689   1.521   1.573 -0.0215 -0.0519 -0.4067
 1826SOL    HW116940   2.610   1.562   1.538  0.3031  1.2171  0.3276
 1826SOL    HW216941   2.689   1.442   1.520  0.7696 -0.0256 -0.4468
 1827SOL     OW16942   2.806   3.152   9.101  0.2598 -0.1685 -0.0052
 1827SOL    HW116943   2.826   3.191   9.016  1.4432  0.1565  0.4239
 1827SOL    HW216944   2.832   3.063   9.080  2.0244  0.4765 -0.5401
 1828SOL     OW16945   1.512   2.873   1.434 -0.7093 -0.2594 -0.0040
 1828SOL    HW116946   1.587   2.927   1.458  0.0942 -1.8404  1.0130
 1828SOL    HW216947   1.472   2.879   1.520  1.7245  1.0184  1.0307
 1829SOL     OW16948   2.998   1.272   8.538  0.0367  0.3895 -0.1562
 1829SOL    HW116949   2.940   1.199   8.556  2.0902 -1.4121 -0.8662
 1829SOL    HW216950   3.019   1.306   8.625 -1.6258 -2.1500  1.2341
 1830SOL     OW16951   1.828   3.468   4.594 -0.0289 -0.2848  0.2474
 1830SOL    HW116952   1.743   3.434   4.564  0.6129 -1.6597 -0.0090
 1830SOL    HW216953   1.873   3.394   4.634 -1.4656 -1.2982 -0.0001
 1831SOL     OW16954   2.868   1.903   5.815 -0.1270  0.0303 -0.3124
 1831SOL    HW116955   2.932   1.964   5.777  1.4366 -0.5390  1.3915
 1831SOL    HW216956   2.839   1.860   5.735 -2.0856 -0.0568  0.4520
 1832SOL     OW16957   0.321   1.704  15.548 -0.9535 -0.2185 -0.3220
 1832SOL    HW116958   0.338   1.665  15.634 -0.5798  1.8115  0.5484
 1832SOL    HW216959   0.390   1.663  15.496 -0.5534 -1.3290  1.0839
 1833SOL     OW16960   1.927   0.207   0.935 -0.1343 -0.5040  0.2596
 1833SOL    HW116961   1.919   0.166   1.021 -2.2073  2.4702  1.4573
 1833SOL    HW216962   1.981   0.141   0.890  2.9132  2.2454 -0.1394
 1834SOL     OW16963   1.381   2.553   6.591 -0.0417  0.3431 -0.3131
 1834SOL    HW116964   1.387   2.622   6.524 -0.3581 -0.9138 -1.6216
 1834SOL    HW216965   1.469   2.557   6.629  0.2864 -0.8172 -0.9826
 1835SOL     OW16966   2.450   0.798   8.148  0.1961  0.0874 -0.3981
 1835SOL    HW116967   2.367   0.753   8.161  0.8221 -1.6779 -2.4065
 1835SOL    HW216968   2.453   0.843   8.232 -0.4657 -0.3828 -0.1247
 1836SOL     OW16969   2.109   0.824   4.758  0.0207 -0.2573 -0.0126
 1836SOL    HW116970   2.157   0.845   4.678 -1.1187 -0.3817 -0.7363
 1836SOL    HW216971   2.164   0.760   4.805 -1.6329 -1.7017 -0.0277
 1837SOL     OW16972   4.632   0.545  16.652  0.1694  0.6048  0.6479
 1837SOL    HW116973   4.701   0.599  16.691  0.5094  1.4727 -1.1965
 1837SOL    HW216974   4.669   0.535  16.564  0.3439  1.6643  0.6097
 1838SOL     OW16975   3.795   0.440   8.228  0.1288  0.4263  0.0557
 1838SOL    HW116976   3.730   0.428   8.159 -1.3186 -0.6468  1.5883
 1838SOL    HW216977   3.853   0.371   8.195  0.0959  0.1429  0.5865
 1839SOL     OW16978   1.622   0.583   8.724 -0.1195 -0.1666  0.0144
 1839SOL    HW116979   1.556   0.588   8.793  2.2427 -0.5767  2.3198
 1839SOL    HW216980   1.638   0.489   8.713  1.4616  0.0991  0.0265
 1840SOL     OW16981   2.519   4.313  12.456 -0.0637  0.1779 -0.3365
 1840SOL    HW116982   2.528   4.217  12.453 -2.0274 -0.1337  4.2006
 1840SOL    HW216983   2.558   4.338  12.372  0.3020 -1.0774 -0.5523
 1841SOL     OW16984   0.073   3.910  16.655  0.1590 -0.6565 -0.0340
 1841SOL    HW116985   0.024   3.917  16.737  0.2963 -0.3350  0.0231
 1841SOL    HW216986   0.082   3.816  16.645 -0.5885 -0.5986 -1.3565
 1842SOL     OW16987   2.745   4.715   8.426  0.1967  0.1054 -0.4323
 1842SOL    HW116988   2.745   0.043   8.345  1.7900  1.9223  0.7143
 1842SOL    HW216989   2.682   0.036   8.483  0.7966 -0.9738  1.0671
 1843SOL     OW16990   2.931   0.912   8.300 -0.5026  0.0797 -0.3789
 1843SOL    HW116991   2.987   0.913   8.378 -0.7195 -0.2620 -0.2177
 1843SOL    HW216992   2.850   0.873   8.334 -0.8069 -0.4822 -1.7343
 1844SOL     OW16993   4.677   4.432   4.420  0.5714  1.2856  0.1402
 1844SOL    HW116994   4.668   4.449   4.326  0.4715  0.3222 -0.0167
 1844SOL    HW216995   4.683   4.337   4.417  1.8062  1.3067  1.6297
 1845SOL     OW16996   3.246   3.562   1.478 -0.0879  0.3769  0.4344
 1845SOL    HW116997   3.305   3.637   1.471  1.2302 -0.6034  1.1471
 1845SOL    HW216998   3.162   3.576   1.434  0.0481  0.3373  0.1643
 1846SOL     OW16999   0.711   0.209   4.178 -0.6588 -0.3245 -0.1778
 1846SOL    HW117000   0.805   0.191   4.181 -0.5568  0.5069  2.0751
 1846SOL    HW217001   0.697   0.202   4.084 -1.2115 -1.5323  0.0010
 1847SOL     OW17002   4.107   3.600   6.151 -0.1398 -0.9405  0.4834
 1847SOL    HW117003   4.197   3.632   6.163 -0.3927  0.8295 -2.4109
 1847SOL    HW217004   4.085   3.583   6.243 -0.2646 -0.4751  0.5386
 1848SOL     OW17005   3.551   0.264   0.239  0.6601  0.0448  0.0010
 1848SOL    HW117006   3.642   0.292   0.228  0.2098  0.2909 -3.1897
 1848SOL    HW217007   3.553   0.179   0.196 -0.0294  0.1632 -0.2657
 1849SOL     OW17008   0.397   3.587   6.387  0.2029  0.2121  0.2356
 1849SOL    HW117009   0.355   3.598   6.472 -0.4817 -1.4210  0.0973
 1849SOL    HW217010   0.340   3.525   6.343  0.8564  0.8148 -1.4928
 1850SOL     OW17011   4.662   3.311   3.649  0.0771 -0.5933  0.1243
 1850SOL    HW117012   4.689   3.365   3.723 -0.5924  0.7116 -0.5844
 1850SOL    HW217013   0.026   3.286   3.620 -1.7216 -3.0477 -3.2189
 1851SOL     OW17014   3.485   2.994   6.690 -0.1230 -0.0300  0.2441
 1851SOL    HW117015   3.411   2.974   6.632  0.1554 -0.0102 -0.1191
 1851SOL    HW217016   3.452   2.970   6.777 -0.7795 -0.1341 -0.0281
 1852SOL     OW17017   3.608   0.155   5.010 -0.5423  0.3078 -0.3743
 1852SOL    HW117018   3.657   0.156   5.092 -0.6674  0.2898 -0.3004
 1852SOL    HW217019   3.641   0.239   4.978 -1.5000  0.3809 -1.1661
 1853SOL     OW17020   4.116   0.777   4.455 -0.4446  0.0912  0.4636
 1853SOL    HW117021   4.092   0.855   4.405  0.5628  1.5478  2.2798
 1853SOL    HW217022   4.178   0.732   4.396 -1.0543  1.0184 -0.8766
 1854SOL     OW17023   0.224   4.283   5.392 -0.5129 -0.0778 -0.4419
 1854SOL    HW117024   0.218   4.271   5.297 -0.1729 -0.5709 -0.3986
 1854SOL    HW217025   0.311   4.309   5.420 -1.1496  0.3268  1.1421
 1855SOL     OW17026   4.405   3.261   1.742 -0.3142  0.4051  1.0888
 1855SOL    HW117027   4.440   3.349   1.734  0.1448  0.0739 -0.6148
 1855SOL    HW217028   4.444   3.220   1.665  0.2063  1.3952  0.8304
 1856SOL     OW17029   4.638   1.368   0.781  0.0559  0.1509 -0.1014
 1856SOL    HW117030   4.553   1.412   0.773 -0.8038 -1.2900  0.9397
 1856SOL    HW217031   4.616   1.327   0.865  3.2176 -0.8084  0.2385
 1857SOL     OW17032   0.287   3.214  14.397  0.4647 -0.2340 -0.0000
 1857SOL    HW117033   0.221   3.157  14.357 -1.0814  2.2029 -0.9392
 1857SOL    HW217034   0.361   3.172  14.355 -0.6859 -0.6001 -1.6659
 1858SOL     OW17035   2.900   3.090   1.585  0.2228  0.5818  0.0417
 1858SOL    HW117036   2.985   3.075   1.543  1.2223  0.8825  1.9723
 1858SOL    HW217037   2.910   3.181   1.615  3.5998 -0.2393  1.4516
 1859SOL     OW17038   4.498   4.197   4.745 -0.3856  0.3723  0.5214
 1859SOL    HW117039   4.562   4.175   4.813  1.2674  0.1336 -1.1310
 1859SOL    HW217040   4.422   4.209   4.802 -0.1459  1.8933  0.5064
 1860SOL     OW17041   0.329   1.236   6.468  0.0257  0.1680 -0.2023
 1860SOL    HW117042   0.288   1.173   6.408  0.2364 -0.0131 -0.1538
 1860SOL    HW217043   0.275   1.242   6.547 -1.4668 -0.8153 -1.1323
 1861SOL     OW17044   1.090   4.075   5.669  0.0172  0.2566  0.7420
 1861SOL    HW117045   1.046   4.131   5.733  1.2324  1.2793  0.6885
 1861SOL    HW217046   1.167   4.124   5.638 -1.0432 -0.9477 -3.8088
 1862SOL     OW17047   3.349   1.037   8.387  0.5895 -0.2384  0.1930
 1862SOL    HW117048   3.370   1.112   8.443 -0.9971 -0.1450  0.6772
 1862SOL    HW217049   3.438   1.010   8.364  1.1235  1.4973  0.2175
 1863SOL     OW17050   1.798   2.804   6.511  0.0723 -0.5933 -0.8943
 1863SOL    HW117051   1.816   2.727   6.456  1.9974 -1.7623  1.3980
 1863SOL    HW217052   1.884   2.815   6.552 -1.7537  6.3106  0.9786
 1864SOL     OW17053   1.846   0.156   8.422 -0.2263  0.3376 -0.2096
 1864SOL    HW117054   1.825   0.156   8.515 -2.2802 -0.3584 -0.6843
 1864SOL    HW217055   1.766   0.190   8.381 -0.9603 -2.0587 -0.7616
 1865SOL     OW17056   3.770   3.532   4.090  0.8245  0.0599 -0.1164
 1865SOL    HW117057   3.774   3.509   4.183  0.9467  0.2034 -0.0863
 1865SOL    HW217058   3.864   3.546   4.076  0.6350 -0.2698 -1.7617
 1866SOL     OW17059   2.690   3.373   8.698  0.7902  0.1318 -0.1692
 1866SOL    HW117060   2.721   3.414   8.617 -0.1592  0.8260 -0.1915
 1866SOL    HW217061   2.684   3.457   8.744  0.6042 -0.9426  1.7484
 1867SOL     OW17062   3.684   4.122   7.043  0.0294 -0.1113  0.1857
 1867SOL    HW117063   3.618   4.145   7.107 -0.1062 -1.2169  0.4368
 1867SOL    HW217064   3.637   4.096   6.964 -1.5904 -2.0560  1.7973
 1868SOL     OW17065   4.694   3.156   8.616 -0.0788  0.0552  0.2952
 1868SOL    HW117066   0.019   3.219   8.669  3.5546 -3.7456  1.6013
 1868SOL    HW217067   4.604   3.158   8.649 -0.0169  0.2115  0.4519
 1869SOL     OW17068   4.260   0.089   2.724 -0.1471 -0.3265  0.3355
 1869SOL    HW117069   4.291   0.016   2.777  1.8663  1.3452  1.4902
 1869SOL    HW217070   4.347   0.117   2.694 -0.2632  0.4475  0.7135
 1870SOL     OW17071   4.432   1.427  10.520 -0.4249  0.0939 -0.3904
 1870SOL    HW117072   4.412   1.496  10.456 -2.8023  0.8771  1.2096
 1870SOL    HW217073   4.393   1.465  10.599 -1.7023 -1.5830 -0.2341
 1871SOL     OW17074   0.399   2.106   3.012 -0.1945  0.1151  0.0990
 1871SOL    HW117075   0.379   2.012   3.018  0.3602 -0.0092 -0.0435
 1871SOL    HW217076   0.312   2.146   3.012  0.0082  0.5718  1.1970
 1872SOL     OW17077   0.711   1.659   7.534  0.3020  0.4681  0.2726
 1872SOL    HW117078   0.671   1.576   7.563  1.3547 -0.1390 -0.0440
 1872SOL    HW217079   0.736   1.639   7.444 -0.6108 -0.4476  0.2167
 1873SOL     OW17080   3.135   3.638  13.959 -0.0860  0.2442 -0.7596
 1873SOL    HW117081   3.153   3.639  14.054 -1.5386  0.3754 -0.4865
 1873SOL    HW217082   3.120   3.548  13.932  0.1186 -0.2866  0.8514
 1874SOL     OW17083   4.609   3.290  15.625 -0.0907 -0.4008 -0.0673
 1874SOL    HW117084   4.532   3.252  15.667  0.8503 -2.9610 -0.6329
 1874SOL    HW217085   4.679   3.250  15.677 -0.4792 -0.6624  0.2460
 1875SOL     OW17086   0.536   4.065   5.711 -0.5576  0.5676 -0.3392
 1875SOL    HW117087   0.614   4.047   5.658 -0.1171  1.5640 -0.0304
 1875SOL    HW217088   0.465   4.078   5.648  0.0806  2.1586 -0.7471
 1876SOL     OW17089   2.084   3.967   3.397  0.0243 -0.4497 -0.6766
 1876SOL    HW117090   2.129   4.022   3.462 -0.9417  0.7512 -1.0392
 1876SOL    HW217091   2.014   4.029   3.381  1.6613  1.7595  0.6110
 1877SOL     OW17092   3.750   0.783   8.995  0.1026 -0.5259 -0.5756
 1877SOL    HW117093   3.825   0.777   8.935  1.5967 -0.0746  1.2288
 1877SOL    HW217094   3.679   0.769   8.932 -0.1517  0.8802 -0.6126
 1878SOL     OW17095   3.677   1.467   4.081 -0.7561  0.4008  0.0546
 1878SOL    HW117096   3.765   1.435   4.060 -0.4075  1.4249 -0.0472
 1878SOL    HW217097   3.679   1.547   4.030 -1.9955  0.7659  0.5689
 1879SOL     OW17098   0.014   0.855  15.318 -0.6589  0.5099  0.0081
 1879SOL    HW117099   0.065   0.829  15.395  0.6587  0.6100 -0.8251
 1879SOL    HW217100   4.661   0.804  15.344 -0.9847  1.5283  1.0616
 1880SOL     OW17101   0.104   4.305   7.174  0.2896  0.2480  0.1455
 1880SOL    HW117102   0.096   4.400   7.179 -0.8288  0.0562  1.9026
 1880SOL    HW217103   0.123   4.283   7.266 -2.2628 -0.3922  0.5069
 1881SOL     OW17104   3.924   2.390   6.288  0.1822  0.4882  0.3978
 1881SOL    HW117105   3.955   2.430   6.206 -1.1307  1.9062  0.5955
 1881SOL    HW217106   3.973   2.309   6.299  0.3704  0.7326  1.3110
 1882SOL     OW17107   2.745   1.868   6.266  0.6222 -0.0902 -0.4905
 1882SOL    HW117108   2.765   1.932   6.198 -0.4826 -2.7952 -3.3315
 1882SOL    HW217109   2.812   1.890   6.331 -0.4267 -1.1026  0.9500
 1883SOL     OW17110   2.977   1.598   3.734  0.1128 -0.0339 -0.2542
 1883SOL    HW117111   2.915   1.582   3.805  1.8642  1.8835  1.6783
 1883SOL    HW217112   2.980   1.509   3.699 -3.5504  0.4357 -1.7417
 1884SOL     OW17113   3.249   0.349  10.556  0.1660 -0.1424 -0.3965
 1884SOL    HW117114   3.233   0.259  10.528  1.7089 -1.2215  2.2758
 1884SOL    HW217115   3.192   0.400  10.498  0.9942 -0.7438 -1.7572
 1885SOL     OW17116   2.869   1.980   6.477 -0.4724 -0.1030  0.6169
 1885SOL    HW117117   2.863   2.033   6.556 -0.5282 -0.1888  0.6692
 1885SOL    HW217118   2.925   1.911   6.512 -0.3493 -0.2441  0.1482
 1886SOL     OW17119   3.171   3.762   3.482 -0.0059  0.0846  0.2325
 1886SOL    HW117120   3.237   3.713   3.432  0.2622  0.4630  0.2111
 1886SOL    HW217121   3.128   3.686   3.521 -0.3044  0.0634 -0.1370
 1887SOL     OW17122   4.400   4.175   2.571 -0.2650 -1.1933  0.0915
 1887SOL    HW117123   4.413   4.178   2.666  0.0225 -2.0339  0.0807
 1887SOL    HW217124   4.468   4.118   2.536 -1.1830 -1.4520 -1.2740
 1888SOL     OW17125   2.918   4.194  10.339 -0.0017 -0.1801  0.2302
 1888SOL    HW117126   2.910   4.143  10.420 -3.0614 -0.5911 -0.3461
 1888SOL    HW217127   2.992   4.249  10.366  0.7554  0.0883 -2.4039
 1889SOL     OW17128   3.980   4.499   7.544  0.3786 -0.3239 -0.5122
 1889SOL    HW117129   3.939   4.517   7.629 -1.5545 -0.0524 -1.5098
 1889SOL    HW217130   4.043   4.432   7.571  0.1211  0.6601  2.5317
 1890SOL     OW17131   0.852   0.429   6.343  0.1457  0.3587 -0.2716
 1890SOL    HW117132   0.925   0.418   6.404 -0.7911  0.9388  0.9644
 1890SOL    HW217133   0.882   0.500   6.287  0.7804  0.5635  0.3250
 1891SOL     OW17134   3.220   4.171   3.108  0.2823 -0.1312  0.0400
 1891SOL    HW117135   3.221   4.081   3.076  0.8709  0.3390 -1.2367
 1891SOL    HW217136   3.312   4.191   3.091 -0.7458  2.5506 -2.1995
 1892SOL     OW17137   1.225   3.266   7.602 -0.2932 -0.2321 -0.1784
 1892SOL    HW117138   1.238   3.299   7.691 -3.2790  1.6911 -0.4789
 1892SOL    HW217139   1.313   3.236   7.577  0.8732  0.0282  3.6566
 1893SOL     OW17140   2.524   2.115   0.645 -1.3826 -0.4066  0.1583
 1893SOL    HW117141   2.431   2.116   0.622 -1.3797 -2.2610  0.0109
 1893SOL    HW217142   2.555   2.134   0.556 -0.9955 -1.0656  0.1482
 1894SOL     OW17143   1.266   4.680  11.270  0.3393 -0.5970 -0.7393
 1894SOL    HW117144   1.252   4.592  11.303 -0.8989 -0.8644 -1.9766
 1894SOL    HW217145   1.342   4.711  11.320 -1.4899  0.3557  1.4516
 1895SOL     OW17146   3.373   4.308  11.018  0.6505 -0.5842  0.5442
 1895SOL    HW117147   3.335   4.290  11.104  1.7502 -1.5712  0.8266
 1895SOL    HW217148   3.442   4.372  11.033  0.2018 -0.2143  1.0270
 1896SOL     OW17149   3.580   4.088   6.209  0.1476  0.4120  0.1359
 1896SOL    HW117150   3.561   4.001   6.244  0.0723  0.2612 -0.2871
 1896SOL    HW217151   3.648   4.065   6.146 -2.2128  0.2488 -2.3169
 1897SOL     OW17152   0.864   1.081   2.935 -0.5393  0.3315  0.0387
 1897SOL    HW117153   0.922   1.014   2.970 -0.5301 -0.0214 -0.6623
 1897SOL    HW217154   0.861   1.054   2.844  0.1507  1.2834 -0.2651
 1898SOL     OW17155   4.524   2.846   1.600 -0.0669 -0.4055 -0.0792
 1898SOL    HW117156   4.455   2.901   1.563  1.1065 -0.1003 -1.8231
 1898SOL    HW217157   4.596   2.908   1.615 -0.7002  0.5472 -0.9428
 1899SOL     OW17158   3.908   3.781  13.389  0.3734  0.5648  0.3375
 1899SOL    HW117159   3.908   3.805  13.482  1.7494  1.1956  0.1766
 1899SOL    HW217160   3.911   3.869  13.352  2.2311  0.6223  0.6256
 1900SOL     OW17161   2.430   0.628  14.972  0.3977  0.2323 -0.4652
 1900SOL    HW117162   2.514   0.654  15.011  0.8557  0.7462 -1.7721
 1900SOL    HW217163   2.375   0.705  14.989 -0.8527 -0.8697  0.4025
 1901SOL     OW17164   2.775   0.973   1.070 -0.0574 -0.2690  0.1244
 1901SOL    HW117165   2.864   0.957   1.040  0.3166  1.3340  0.3807
 1901SOL    HW217166   2.778   1.068   1.078  2.6529 -0.2676 -1.0407
 1902SOL     OW17167   0.265   3.686   8.607 -0.4307  0.1585  0.8342
 1902SOL    HW117168   0.199   3.657   8.670  0.4144 -2.0999  0.6649
 1902SOL    HW217169   0.329   3.722   8.669  0.9818  0.0243 -0.5442
 1903SOL     OW17170   4.223   3.344  13.755 -0.5144 -0.0976 -0.2298
 1903SOL    HW117171   4.248   3.337  13.847  0.2182 -1.1324 -0.4991
 1903SOL    HW217172   4.303   3.387  13.724 -0.7118  1.3580  1.3267
 1904SOL     OW17173   1.390   2.791   7.200  0.4207 -0.0356  0.2205
 1904SOL    HW117174   1.438   2.714   7.169  0.1235 -0.3389  0.5072
 1904SOL    HW217175   1.403   2.856   7.131 -1.1400  0.1945  0.1433
 1905SOL     OW17176   3.089   0.374   7.464 -0.0921 -0.3126 -0.3155
 1905SOL    HW117177   3.121   0.381   7.374  1.9086 -1.3351  0.3079
 1905SOL    HW217178   3.079   0.466   7.490  0.4068 -0.5288  0.6570
 1906SOL     OW17179   2.131   3.758  15.979 -0.3486 -0.4727 -0.0073
 1906SOL    HW117180   2.222   3.756  15.950 -0.2148 -0.3672  0.4093
 1906SOL    HW217181   2.095   3.832  15.929  2.5102  2.2881  1.9877
 1907SOL     OW17182   3.420   4.715   7.107  0.6637  0.3772 -0.6629
 1907SOL    HW117183   3.377   4.630   7.107  2.1247 -0.3504  0.9263
 1907SOL    HW217184   3.464   4.705   7.022  0.0601  3.4869 -1.3561
 1908SOL     OW17185   2.003   0.253   7.632 -0.1346 -0.3854 -0.0545
 1908SOL    HW117186   2.072   0.302   7.678  0.3333 -0.0065 -1.1664
 1908SOL    HW217187   1.960   0.328   7.590 -0.4904 -0.8963 -0.5982
 1909SOL     OW17188   3.602   0.913   2.498 -0.6537 -0.0208  0.7912
 1909SOL    HW117189   3.668   0.949   2.438  0.3279 -2.0491  0.6885
 1909SOL    HW217190   3.646   0.828   2.497 -3.5049 -1.4878  0.2335
 1910SOL     OW17191   4.481   2.781   0.139 -0.0865 -0.1573 -0.3494
 1910SOL    HW117192   4.476   2.710   0.074 -1.2695  0.9706 -1.4970
 1910SOL    HW217193   4.556   2.826   0.100 -1.5669  4.4068  2.0955
 1911SOL     OW17194   2.291   0.031   0.167  0.3323 -0.1720  0.1405
 1911SOL    HW117195   2.278   0.058   0.258  0.6606 -0.7434  0.3585
 1911SOL    HW217196   2.369   0.079   0.143 -0.2526  0.5773 -0.2495
 1912SOL     OW17197   1.414   1.253   4.779  0.5229  0.6752  0.3205
 1912SOL    HW117198   1.359   1.219   4.708  1.1639 -1.2827  0.7596
 1912SOL    HW217199   1.498   1.211   4.761  0.0938 -0.2308  0.4127
 1913SOL     OW17200   2.283   3.865   2.576  0.2568 -0.3174  0.3769
 1913SOL    HW117201   2.262   3.811   2.501 -0.3271  1.7414 -0.9597
 1913SOL    HW217202   2.208   3.865   2.636  0.8369 -0.2774  1.1094
 1914SOL     OW17203   3.284   2.217  12.048 -0.1711 -0.7096  0.5631
 1914SOL    HW117204   3.311   2.126  12.043 -0.4945 -0.7822  0.1487
 1914SOL    HW217205   3.281   2.203  12.143  2.7937 -0.8744  0.6358
 1915SOL     OW17206   2.341   2.083   2.561  0.0068 -0.0415  0.3990
 1915SOL    HW117207   2.431   2.050   2.563 -0.1701 -0.3782  2.2633
 1915SOL    HW217208   2.347   2.135   2.641  0.8105  0.4113  0.0464
 1916SOL     OW17209   3.950   4.124   1.412  0.0429  0.3416 -0.0419
 1916SOL    HW117210   4.017   4.094   1.350 -1.2498 -0.6669 -0.9356
 1916SOL    HW217211   4.012   4.178   1.462  1.3129 -1.0004 -0.1745
 1917SOL     OW17212   3.527   4.043   5.516  0.8346 -0.0441  0.4488
 1917SOL    HW117213   3.543   4.135   5.493  0.5857 -0.5672 -1.8058
 1917SOL    HW217214   3.452   4.034   5.458  0.0259 -0.1854  1.5315
 1918SOL     OW17215   1.604   0.501   7.544  0.1772  0.2458  0.1825
 1918SOL    HW117216   1.612   0.591   7.575 -1.1587 -0.0203  1.3294
 1918SOL    HW217217   1.608   0.458   7.630 -2.0434 -0.4527 -0.0791
 1919SOL     OW17218   1.753   1.065   5.451 -0.1433 -0.1629  0.0903
 1919SOL    HW117219   1.818   1.132   5.428 -1.5104 -0.1277 -3.5946
 1919SOL    HW217220   1.670   1.103   5.425 -0.1695 -0.7445 -0.6602
 1920SOL     OW17221   3.958   1.608  12.290 -0.4125 -0.2598 -0.0836
 1920SOL    HW117222   3.905   1.684  12.265  1.4611  1.6087  1.6481
 1920SOL    HW217223   3.894   1.538  12.306  0.8771 -1.3419  0.3452
 1921SOL     OW17224   0.074   3.978   6.562  0.1129  0.0055  0.0421
 1921SOL    HW117225   0.125   3.944   6.635 -1.5090 -1.0215  0.6811
 1921SOL    HW217226   0.098   3.916   6.493 -1.5194 -2.3901  1.6156
 1922SOL     OW17227   2.119   0.960   1.344  0.3532 -0.2089 -0.1028
 1922SOL    HW117228   2.066   0.981   1.421 -0.3849 -1.2158 -0.3493
 1922SOL    HW217229   2.144   0.869   1.358  0.7176 -0.0226  0.5069
 1923SOL     OW17230   4.525   1.064  13.030  0.2088 -0.1746  0.1880
 1923SOL    HW117231   4.609   1.019  13.023  1.3124  1.8349  0.5027
 1923SOL    HW217232   4.480   1.033  12.950 -0.0775 -2.2019  1.1391
 1924SOL     OW17233   3.191   2.482   4.400 -0.1565  0.9119 -0.3509
 1924SOL    HW117234   3.159   2.539   4.470  0.2739  0.9797 -0.2106
 1924SOL    HW217235   3.213   2.406   4.454 -0.7305 -0.2669 -1.7766
 1925SOL     OW17236   2.842   0.784   5.161  0.1305 -0.6093  0.6249
 1925SOL    HW117237   2.903   0.768   5.234  0.1744  0.5971  0.8557
 1925SOL    HW217238   2.789   0.860   5.186 -0.5907 -1.9786  3.2793
 1926SOL     OW17239   3.952   2.463   9.348 -0.4018  0.3765 -0.2663
 1926SOL    HW117240   3.935   2.506   9.264  0.2027 -1.7253 -1.4567
 1926SOL    HW217241   3.892   2.505   9.409  0.1840 -0.1479  0.6695
 1927SOL     OW17242   3.034   0.576   5.876  0.4701 -0.3143 -0.4461
 1927SOL    HW117243   3.005   0.555   5.964 -1.3808  1.4199 -0.6384
 1927SOL    HW217244   3.002   0.506   5.818  0.7095 -1.3424  0.6790
 1928SOL     OW17245   0.017   4.520  12.783  0.0701  0.3150 -0.3734
 1928SOL    HW117246   0.112   4.518  12.771  0.1377  1.4165 -0.0545
 1928SOL    HW217247   0.014   4.501  12.877 -0.6217 -0.0828 -0.4771
 1929SOL     OW17248   4.643   4.164   7.031 -0.6110  0.0890 -1.0578
 1929SOL    HW117249   4.667   4.240   7.083  0.2749  0.1622 -1.5773
 1929SOL    HW217250   4.641   4.203   6.944  1.5764  3.4507  0.4298
 1930SOL     OW17251   4.052   3.056   1.116 -0.5142  0.2356  0.1218
 1930SOL    HW117252   4.142   3.025   1.108 -0.7136 -0.4955  0.7764
 1930SOL    HW217253   4.001   2.982   1.148 -1.1923  0.4762 -0.4085
 1931SOL     OW17254   1.964   1.814   3.930  0.1359 -0.1377 -0.2562
 1931SOL    HW117255   2.046   1.834   3.886  0.1086 -0.6161 -0.5266
 1931SOL    HW217256   1.999   1.803   4.018 -1.0450  1.2081  0.3942
 1932SOL     OW17257   0.383   2.788  10.702 -0.3503 -0.6650  0.2132
 1932SOL    HW117258   0.458   2.729  10.703  0.7838  0.7636 -1.2470
 1932SOL    HW217259   0.327   2.738  10.642 -0.6458 -0.5571  0.4008
 1933SOL     OW17260   2.011   1.168   6.425  0.2859 -0.1988  0.1389
 1933SOL    HW117261   2.083   1.229   6.416 -0.6168  0.6161 -1.4752
 1933SOL    HW217262   1.969   1.178   6.340  0.9056  0.3855 -0.0927
 1934SOL     OW17263   0.731   4.538   7.738 -0.1274  0.5451  0.6673
 1934SOL    HW117264   0.795   4.578   7.679 -1.4118 -0.2240 -1.2530
 1934SOL    HW217265   0.778   4.519   7.819 -1.7342 -1.5690  1.1098
 1935SOL     OW17266   4.382   4.419  10.377  0.9619 -0.2324 -0.1471
 1935SOL    HW117267   4.469   4.440  10.410 -0.3683  1.6344  2.1762
 1935SOL    HW217268   4.322   4.448  10.447  2.1139 -1.2859  1.2816
 1936SOL     OW17269   1.557   4.541   3.841 -0.1894  0.5615  0.3238
 1936SOL    HW117270   1.562   4.468   3.903 -0.7159 -0.1497 -0.4624
 1936SOL    HW217271   1.585   4.606   3.905  1.1285  0.3252 -0.0259
 1937SOL     OW17272   4.483   4.433   4.618 -0.0175 -0.2489  0.4943
 1937SOL    HW117273   4.558   4.426   4.559  1.7662  2.1486  2.4567
 1937SOL    HW217274   4.479   4.343   4.650 -1.8394 -0.1644  0.4754
 1938SOL     OW17275   0.868   4.300  13.987 -0.6816 -0.3059 -0.4354
 1938SOL    HW117276   0.941   4.349  13.950 -0.0055 -0.7809  0.2569
 1938SOL    HW217277   0.898   4.214  13.957  1.1785  0.4715 -0.8251
 1939SOL     OW17278   3.124   3.691   2.406  1.2355 -0.2711 -0.0680
 1939SOL    HW117279   3.183   3.630   2.361  0.5327 -2.4304  1.9933
 1939SOL    HW217280   3.185   3.765   2.407  0.1729  0.6658 -3.1247
 1940SOL     OW17281   3.123   2.428  10.354  0.1312  0.1511  0.3236
 1940SOL    HW117282   3.034   2.455  10.332 -1.0263 -1.7179  2.5986
 1940SOL    HW217283   3.168   2.511  10.343 -0.0674  0.0082 -1.5725
 1941SOL     OW17284   2.903   3.471   8.533 -0.2574  0.2864  0.6116
 1941SOL    HW117285   2.954   3.524   8.594 -1.0286 -0.0027  1.5155
 1941SOL    HW217286   2.934   3.495   8.446 -1.8391 -0.2959 -0.1064
 1942SOL     OW17287   4.369   2.622   5.291  0.0319  0.2307  0.0566
 1942SOL    HW117288   4.401   2.711   5.277  0.5609 -0.6670 -4.5597
 1942SOL    HW217289   4.440   2.570   5.329 -0.7609 -0.9077 -0.0286
 1943SOL     OW17290   1.031   1.963  12.711 -0.0977 -0.1016 -0.1179
 1943SOL    HW117291   1.114   1.968  12.664 -0.6998 -1.1381 -1.2709
 1943SOL    HW217292   1.067   1.957  12.800  3.3995  0.9794 -1.4830
 1944SOL     OW17293   2.758   4.302   5.914 -0.5801 -0.2366  0.3012
 1944SOL    HW117294   2.677   4.352   5.926  0.1283  0.9894 -0.0126
 1944SOL    HW217295   2.725   4.233   5.856 -0.9075 -1.3484  1.8093
 1945SOL     OW17296   1.743   1.877   7.000 -0.4062 -0.2689  0.6976
 1945SOL    HW117297   1.655   1.906   6.977 -0.9813 -2.1844  0.5103
 1945SOL    HW217298   1.721   1.808   7.063  0.5541 -1.9553 -0.7986
 1946SOL     OW17299   0.271   2.621   0.018  0.1478 -0.0859 -0.3685
 1946SOL    HW117300   0.213   2.565   0.071 -0.7772  0.1702 -1.1047
 1946SOL    HW217301   0.343   2.560   0.003  0.5033  0.6539 -1.5873
 1947SOL     OW17302   3.723   0.608  15.381 -0.5582  0.3829 -0.6003
 1947SOL    HW117303   3.690   0.614  15.292  1.2446  1.8750 -1.1480
 1947SOL    HW217304   3.754   0.698  15.385  0.0312  0.1214  1.0138
 1948SOL     OW17305   2.026   4.144   5.871 -0.6561  0.1361 -0.1828
 1948SOL    HW117306   2.114   4.159   5.837 -0.4865 -1.1294 -0.2957
 1948SOL    HW217307   2.033   4.193   5.953 -0.8121  0.2093 -0.2123
 1949SOL     OW17308   2.702   2.159  17.322  0.0764  0.2598 -0.6712
 1949SOL    HW117309   2.666   2.243  17.349  1.2587  0.9045 -1.1317
 1949SOL    HW217310   2.669   2.107  17.396  2.9613 -1.0663 -0.3091
 1950SOL     OW17311   2.688   4.689   6.897 -0.5122 -0.3993 -0.5682
 1950SOL    HW117312   2.651   4.717   6.980 -0.7751 -0.7945 -0.5566
 1950SOL    HW217313   2.745   0.039   6.870  1.8575 -1.7836  0.7437
 1951SOL     OW17314   0.626   0.864  15.737 -0.1536 -0.0257  0.2241
 1951SOL    HW117315   0.700   0.822  15.782  0.1391 -0.9613 -1.1387
 1951SOL    HW217316   0.660   0.953  15.742  1.9586 -0.8389  0.4743
 1952SOL     OW17317   3.228   0.369   8.591  0.1455  0.3142  0.6723
 1952SOL    HW117318   3.241   0.393   8.499 -2.0442  1.3606  0.6224
 1952SOL    HW217319   3.279   0.289   8.600 -1.1280 -0.4090  1.3756
 1953SOL     OW17320   1.592   1.655  17.334 -0.2234 -0.6447 -0.3683
 1953SOL    HW117321   1.599   1.584  17.398 -1.5082  0.0957  0.5820
 1953SOL    HW217322   1.544   1.619  17.260 -1.5386 -0.3340  0.3390
 1954SOL     OW17323   4.440   1.625   0.517 -1.2089 -0.2330 -1.1282
 1954SOL    HW117324   4.360   1.654   0.473 -1.8201  1.3695  1.0474
 1954SOL    HW217325   4.514   1.670   0.476  0.6797 -0.2861  2.2031
 1955SOL     OW17326   3.942   1.248   1.802 -0.0437 -0.1235 -1.0641
 1955SOL    HW117327   3.967   1.252   1.710 -2.7453  0.2809 -1.7828
 1955SOL    HW217328   3.924   1.154   1.806 -0.0300 -0.1285 -1.1322
 1956SOL     OW17329   4.615   2.777  11.564 -0.0919 -0.1277 -0.6769
 1956SOL    HW117330   4.708   2.799  11.556 -0.5072  1.6406 -0.6395
 1956SOL    HW217331   4.611   2.732  11.648  1.1355 -0.2583 -0.6771
 1957SOL     OW17332   1.541   4.413   6.057  0.2946 -0.5830 -0.1811
 1957SOL    HW117333   1.524   4.336   6.004 -1.4969 -0.1642 -0.2060
 1957SOL    HW217334   1.454   4.452   6.055 -0.1039 -1.3658  2.1908
 1958SOL     OW17335   2.055   3.104   3.649 -0.1092 -0.1804  0.4921
 1958SOL    HW117336   1.993   3.065   3.588 -1.8718  0.4945  1.8862
 1958SOL    HW217337   2.072   3.184   3.600 -1.0694  1.0079  2.1009
 1959SOL     OW17338   4.357   2.479   0.896 -0.2746 -0.8435  0.0737
 1959SOL    HW117339   4.423   2.416   0.922  2.0893  0.5415 -2.5317
 1959SOL    HW217340   4.279   2.424   0.890 -0.3993 -0.5486 -1.1820
 1960SOL     OW17341   0.698   0.515  15.713  0.1120  0.3425  0.5761
 1960SOL    HW117342   0.748   0.579  15.765  0.8898 -1.8138  2.4838
 1960SOL    HW217343   0.687   0.566  15.633  0.3003 -2.1771 -1.0355
 1961SOL     OW17344   3.900   3.537   0.661  0.2395 -0.8420  0.2525
 1961SOL    HW117345   3.978   3.482   0.654  0.2275 -0.9739  1.2303
 1961SOL    HW217346   3.902   3.565   0.752 -1.9366 -1.7816  0.5638
 1962SOL     OW17347   1.770   4.641   4.329 -0.5352 -0.3672 -0.0574
 1962SOL    HW117348   1.729   4.647   4.415  0.9755  1.5533  0.5173
 1962SOL    HW217349   1.744   4.552   4.303  0.2285 -0.5541 -0.1583
 1963SOL     OW17350   1.156   2.391   8.359 -0.1511  0.2305  0.0897
 1963SOL    HW117351   1.164   2.376   8.453 -2.6146 -0.9740  0.0950
 1963SOL    HW217352   1.136   2.301   8.332 -1.4256  0.2856  0.8573
 1964SOL     OW17353   2.202   0.709   1.424  0.2112 -0.1482  0.3801
 1964SOL    HW117354   2.185   0.710   1.518 -0.1436  0.1038  0.3146
 1964SOL    HW217355   2.124   0.669   1.385 -0.3350  2.5588 -1.3298
 1965SOL     OW17356   0.993   3.066   0.616  0.6083 -0.0822 -0.2477
 1965SOL    HW117357   1.016   2.973   0.622  1.6194  0.3053  1.8946
 1965SOL    HW217358   0.938   3.064   0.538  0.9958  0.0810 -0.5271
 1966SOL     OW17359   3.704   0.385   5.304 -0.3231  0.2577  0.2594
 1966SOL    HW117360   3.652   0.465   5.295  2.3760  1.9763  0.0771
 1966SOL    HW217361   3.665   0.354   5.386 -1.8575  0.3596 -0.4273
 1967SOL     OW17362   3.607   3.514   6.275  0.2652 -0.0791 -0.1494
 1967SOL    HW117363   3.586   3.453   6.205 -2.3429  1.7728 -0.9904
 1967SOL    HW217364   3.695   3.547   6.255  0.4912 -1.5481 -1.5080
 1968SOL     OW17365   0.090   2.737  15.830  0.1082 -1.1889 -0.2209
 1968SOL    HW117366   0.046   2.808  15.877  2.0244 -0.5663  0.6577
 1968SOL    HW217367   0.089   2.767  15.739 -0.7316  1.6613  0.7221
 1969SOL     OW17368   1.551   3.797   8.071  0.0792 -0.0988  0.5489
 1969SOL    HW117369   1.503   3.877   8.048  1.2322  0.8991  1.6159
 1969SOL    HW217370   1.639   3.817   8.040 -1.2632  0.6684 -2.7214
 1970SOL     OW17371   1.397   3.953   0.125 -0.4067 -0.2562  0.1986
 1970SOL    HW117372   1.455   3.928   0.053  0.8262 -0.8781  1.3927
 1970SOL    HW217373   1.455   3.945   0.201 -1.9507 -0.8620  1.3042
 1971SOL     OW17374   2.780   3.095   2.422  0.5694  0.4811 -0.0878
 1971SOL    HW117375   2.847   3.134   2.366 -0.3335  1.7167 -0.3018
 1971SOL    HW217376   2.699   3.115   2.374  1.1862  2.4321 -0.2894
 1972SOL     OW17377   3.530   1.025  14.240 -0.4738 -0.7756  0.2072
 1972SOL    HW117378   3.512   1.071  14.322 -0.4692  1.3744 -1.0197
 1972SOL    HW217379   3.514   1.094  14.176  1.0550 -0.9210 -0.3315
 1973SOL     OW17380   3.179   0.472   7.231 -0.0463 -0.0889 -0.2756
 1973SOL    HW117381   3.202   0.552   7.184  3.2103 -0.8350  0.0651
 1973SOL    HW217382   3.224   0.404   7.181 -0.0794  1.5082 -2.4989
 1974SOL     OW17383   2.123   1.895  16.264 -0.3711  0.4983  0.3004
 1974SOL    HW117384   2.212   1.892  16.230 -0.2718  1.7392  0.4726
 1974SOL    HW217385   2.145   1.851  16.346  0.9282 -0.4986 -0.5808
 1975SOL     OW17386   1.084   4.523  11.877 -0.0509 -0.1514  0.2089
 1975SOL    HW117387   1.026   4.586  11.920 -1.4022  0.2150 -2.1207
 1975SOL    HW217388   1.024   4.449  11.871 -0.7415  0.5921 -2.0831
 1976SOL     OW17389   3.272   0.956   7.854 -0.7479  0.1074  0.5302
 1976SOL    HW117390   3.315   1.021   7.909 -1.3746  1.2409 -0.3179
 1976SOL    HW217391   3.239   1.014   7.785 -1.1587  0.3299  0.9179
 1977SOL     OW17392   1.600   0.542   1.673 -0.1177 -0.5281 -0.0584
 1977SOL    HW117393   1.618   0.572   1.763  1.8159 -2.5546  0.2175
 1977SOL    HW217394   1.687   0.545   1.635  0.1115  0.1185  0.5093
 1978SOL     OW17395   1.707   3.857   6.937  0.1657 -0.3293 -0.0537
 1978SOL    HW117396   1.612   3.861   6.945  0.2750  2.0156  0.0035
 1978SOL    HW217397   1.713   3.828   6.846 -0.5389 -2.1132  0.4621
 1979SOL     OW17398   3.677   3.001   6.076 -0.0785 -0.2816  0.0400
 1979SOL    HW117399   3.652   3.008   5.983  0.3087 -0.8305 -0.1081
 1979SOL    HW217400   3.635   2.919   6.104 -0.7087  0.4829  1.3177
 1980SOL     OW17401   2.266   4.472   3.453 -0.6239 -0.0290  0.4037
 1980SOL    HW117402   2.351   4.434   3.474 -1.3329 -1.8116  0.1085
 1980SOL    HW217403   2.241   4.434   3.369  0.7628 -2.0094  0.8725
 1981SOL     OW17404   2.834   3.943   7.332 -0.8370  0.8176 -0.2179
 1981SOL    HW117405   2.787   4.022   7.304  0.2322  1.4463 -0.2737
 1981SOL    HW217406   2.769   3.875   7.317 -1.3326  0.9438  1.3904
 1982SOL     OW17407   1.851   3.629   6.972 -0.0401  0.1264  0.1537
 1982SOL    HW117408   1.834   3.723   6.977  1.6686  0.4367 -0.0945
 1982SOL    HW217409   1.761   3.600   6.985 -1.0529  2.0836 -2.5212
 1983SOL     OW17410   1.149   0.144  11.503 -0.8143  0.1071  0.6627
 1983SOL    HW117411   1.083   0.075  11.497  1.3630 -1.9260  0.1937
 1983SOL    HW217412   1.200   0.099  11.570 -0.9857 -0.0794  0.6686
 1984SOL     OW17413   4.171   4.429   7.874  0.2542 -0.6872  0.0590
 1984SOL    HW117414   4.132   4.512   7.849  0.8370  0.0527  1.5762
 1984SOL    HW217415   4.229   4.457   7.945 -0.4165  0.9266 -0.0431
 1985SOL     OW17416   4.130   1.040  11.211  0.1715 -0.1025 -0.0716
 1985SOL    HW117417   4.112   0.947  11.198  3.1248 -0.1645 -3.7598
 1985SOL    HW217418   4.188   1.055  11.136  0.1041 -2.6176 -0.6367
 1986SOL     OW17419   1.474   2.660   8.090 -0.1527  0.3733  0.1158
 1986SOL    HW117420   1.427   2.743   8.100  0.2158  0.4331  1.4298
 1986SOL    HW217421   1.437   2.595   8.151 -0.1052 -0.5037 -0.7916
 1987SOL     OW17422   0.124   2.485   7.803 -0.0188 -0.5371  0.1368
 1987SOL    HW117423   0.071   2.562   7.782  0.3305 -0.2998  0.1188
 1987SOL    HW217424   0.209   2.530   7.799  0.8601 -1.8920  3.2537
 1988SOL     OW17425   0.945   1.028   5.979 -0.1374  0.0258  0.2528
 1988SOL    HW117426   0.987   0.987   5.904  1.7162  1.4783  0.4975
 1988SOL    HW217427   0.852   1.033   5.956  0.2701  0.5603 -1.2944
 1989SOL     OW17428   1.899   4.155   3.097  0.3746  0.0911  0.2761
 1989SOL    HW117429   1.904   4.175   3.191 -2.1416 -1.8979  0.8034
 1989SOL    HW217430   1.893   4.060   3.101  0.6362  0.0770  0.3405
 1990SOL     OW17431   4.103   2.588   3.463 -0.1961 -0.0969 -0.2250
 1990SOL    HW117432   4.198   2.601   3.464  0.2461 -3.0548 -2.7518
 1990SOL    HW217433   4.077   2.556   3.549  0.4418  1.8295  0.6898
 1991SOL     OW17434   2.810   0.965   1.393  0.9008 -0.1404 -0.0071
 1991SOL    HW117435   2.785   0.881   1.354  0.5097  0.2101 -0.5192
 1991SOL    HW217436   2.838   0.997   1.307 -0.0146 -0.1014 -0.2828
 1992SOL     OW17437   2.894   3.496   5.977  0.5117 -0.5367  0.0708
 1992SOL    HW117438   2.958   3.460   5.916  0.1059  1.3390 -1.4766
 1992SOL    HW217439   2.910   3.431   6.045  1.9593 -1.5725 -1.2654
 1993SOL     OW17440   2.527   1.473   2.047 -0.0778 -0.2229  0.0750
 1993SOL    HW117441   2.438   1.491   2.078  0.5952  2.5329  0.3786
 1993SOL    HW217442   2.506   1.407   1.981 -0.3081  0.0643 -0.1367
 1994SOL     OW17443   1.546   1.521   3.985 -0.1224 -0.0248 -0.7614
 1994SOL    HW117444   1.455   1.523   4.014 -0.6830  0.1044 -2.5282
 1994SOL    HW217445   1.564   1.431   4.012  1.2986  0.3013 -0.6258
 1995SOL     OW17446   2.568   4.629  12.430  0.0849  0.4117 -0.1028
 1995SOL    HW117447   2.495   4.606  12.487 -2.3218  0.2682 -3.2288
 1995SOL    HW217448   2.557   4.565  12.359 -0.3579  0.4728 -0.0886
 1996SOL     OW17449   1.361   2.275   7.283  0.6659  0.0042  0.1717
 1996SOL    HW117450   1.396   2.329   7.354 -1.1950  1.5317 -0.0807
 1996SOL    HW217451   1.296   2.333   7.244  1.0772 -0.4574 -1.2186
 1997SOL     OW17452   0.596   1.508   2.026  0.0941  0.3010 -0.0202
 1997SOL    HW117453   0.532   1.452   2.069  0.5576 -0.0435  0.2175
 1997SOL    HW217454   0.657   1.543   2.091 -0.7671 -0.8650  1.4386
 1998SOL     OW17455   4.659   2.903   4.850 -0.0085 -0.1804 -0.0116
 1998SOL    HW117456   4.649   2.863   4.763  0.8552 -3.9701  1.6912
 1998SOL    HW217457   4.629   2.828   4.900 -2.1139  1.6248  1.4426
 1999SOL     OW17458   0.602   2.372   6.838 -0.0381  0.3763  0.5860
 1999SOL    HW117459   0.591   2.350   6.931  3.2413  3.0419  1.6224
 1999SOL    HW217460   0.600   2.467   6.850 -1.0291  0.5307 -0.8428
 2000SOL     OW17461   0.052   3.175  15.825  0.2531 -0.0762  0.3268
 2000SOL    HW117462   0.067   3.122  15.747 -1.9692  0.0453 -0.1969
 2000SOL    HW217463   4.721   3.105  15.860 -1.3136  0.5635 -0.7903
 2001SOL     OW17464   2.691   1.150   8.427 -0.1018  0.2185  0.4649
 2001SOL    HW117465   2.612   1.125   8.476 -1.1036  1.7067 -0.3952
 2001SOL    HW217466   2.683   1.245   8.421  1.6773  0.4227  1.4386
 2002SOL     OW17467   4.035   2.473  12.892 -0.4883  0.2783  0.0711
 2002SOL    HW117468   4.003   2.544  12.948  3.4295  1.7557  0.3954
 2002SOL    HW217469   3.952   2.429  12.871  2.1360 -2.8757 -3.6429
 2003SOL     OW17470   1.242   0.341  11.347  0.7102 -0.2719  0.0206
 2003SOL    HW117471   1.204   0.323  11.261 -0.6963  1.3469  0.2957
 2003SOL    HW217472   1.200   0.270  11.396 -0.8471  0.2375 -0.5871
 2004SOL     OW17473   3.905   2.579   4.025 -0.4013  0.7104 -1.0204
 2004SOL    HW117474   3.926   2.672   4.024 -2.5015  1.2005  0.6396
 2004SOL    HW217475   3.957   2.536   4.093  0.5677 -0.5079 -2.5122
 2005SOL     OW17476   2.628   4.156  10.231 -0.0675  0.4928 -0.2970
 2005SOL    HW117477   2.555   4.104  10.265 -0.3580  1.0965  0.0011
 2005SOL    HW217478   2.607   4.239  10.274 -3.0374 -0.5805  0.3479
 2006SOL     OW17479   2.445   4.456  11.941  0.1811  0.2628  0.0219
 2006SOL    HW117480   2.479   4.545  11.942 -0.3696  0.4601  1.1732
 2006SOL    HW217481   2.375   4.479  12.002 -0.0303  0.7508 -0.4052
 2007SOL     OW17482   2.023   1.891   4.792  0.6246 -0.4217  0.0682
 2007SOL    HW117483   2.078   1.945   4.849 -3.4389  1.2789  2.3865
 2007SOL    HW217484   1.953   1.877   4.856  0.6345 -1.1181 -0.0766
 2008SOL     OW17485   3.694   1.254   2.079 -0.2292  0.1603  0.1445
 2008SOL    HW117486   3.777   1.299   2.063 -0.3420  0.3882  0.2039
 2008SOL    HW217487   3.726   1.165   2.096 -1.0559  0.2894  2.2807
 2009SOL     OW17488   1.061   1.957   8.039  0.4359  0.5854  0.0475
 2009SOL    HW117489   1.099   2.004   7.965  1.6832 -0.0103  0.3021
 2009SOL    HW217490   1.139   1.921   8.081 -0.2000 -1.0293 -0.1430
 2010SOL     OW17491   4.366   1.571   6.940 -0.0405  0.2481  0.2087
 2010SOL    HW117492   4.273   1.549   6.939 -0.0352  0.2697 -0.5154
 2010SOL    HW217493   4.398   1.481   6.946 -0.4232 -0.1074 -2.9890
 2011SOL     OW17494   1.594   2.603   8.444  0.1807 -0.4348  0.2491
 2011SOL    HW117495   1.518   2.573   8.394  0.5926 -1.4964  0.2629
 2011SOL    HW217496   1.669   2.603   8.385 -0.7420  2.2038 -0.9332
 2012SOL     OW17497   3.979   3.163   3.933 -0.4399 -0.7748  0.4341
 2012SOL    HW117498   4.051   3.198   3.987 -0.7343  1.8216 -0.8687
 2012SOL    HW217499   4.028   3.135   3.855  0.3280 -2.0156  1.3588
 2013SOL     OW17500   2.807   2.898   3.005  0.0632  0.0103 -0.2512
 2013SOL    HW117501   2.720   2.870   2.978 -1.1276  1.9605  1.5988
 2013SOL    HW217502   2.860   2.866   2.932  1.2944 -0.0350  0.6473
 2014SOL     OW17503   0.237   1.918   7.509  0.5229  0.3741  0.1740
 2014SOL    HW117504   0.253   1.923   7.603  0.5103 -0.3464  0.2173
 2014SOL    HW217505   0.145   1.945   7.502  0.0285 -1.3354 -0.2081
 2015SOL     OW17506   3.595   4.168   4.460  0.8093  0.3838 -0.2436
 2015SOL    HW117507   3.605   4.263   4.449  3.0198  0.2798  1.0259
 2015SOL    HW217508   3.506   4.168   4.494  0.3703 -1.4913 -1.4086
 2016SOL     OW17509   0.679   4.239   1.280  0.5192  0.2399  0.2698
 2016SOL    HW117510   0.626   4.308   1.240 -0.5288 -0.6127  0.1838
 2016SOL    HW217511   0.701   4.280   1.363 -1.5876 -0.5762  1.2046
 2017SOL     OW17512   1.213   3.678   7.008 -0.4046 -0.0443  0.4857
 2017SOL    HW117513   1.248   3.594   7.037 -1.0242 -0.3397  0.3781
 2017SOL    HW217514   1.129   3.649   6.972 -0.0038  2.0287 -2.1229
 2018SOL     OW17515   3.681   1.069  16.269  0.4907 -0.0168  0.3164
 2018SOL    HW117516   3.624   1.117  16.208 -0.0416 -1.0647 -0.0102
 2018SOL    HW217517   3.617   1.057  16.339  0.3959  1.7900  0.5405
 2019SOL     OW17518   2.317   0.890  11.910  0.1928 -0.6197  0.3796
 2019SOL    HW117519   2.303   0.796  11.899 -0.9984 -0.6551  2.0478
 2019SOL    HW217520   2.275   0.933  11.836 -1.1050  0.7416  1.9133
 2020SOL     OW17521   4.561   3.525  13.988 -0.1424  0.0709 -0.3839
 2020SOL    HW117522   4.592   3.571  14.066 -0.5005  1.3618 -0.9933
 2020SOL    HW217523   4.590   3.438  14.014 -0.4865  0.6116  1.7971
 2021SOL     OW17524   0.529   0.923  11.684  0.2481  0.1068  0.0530
 2021SOL    HW117525   0.443   0.901  11.648  0.5750  0.1319 -0.7426
 2021SOL    HW217526   0.516   1.016  11.702  0.5781  0.4587 -1.4749
 2022SOL     OW17527   0.328   0.440   3.887 -0.2996  0.5347  0.1594
 2022SOL    HW117528   0.309   0.364   3.943 -0.6848 -0.7203 -1.6718
 2022SOL    HW217529   0.365   0.503   3.949  0.6466 -0.3783  0.5423
 2023SOL     OW17530   1.198   1.317   5.930  0.2602  0.0217 -0.1956
 2023SOL    HW117531   1.181   1.235   5.883  1.6692 -0.0050 -0.6393
 2023SOL    HW217532   1.264   1.364   5.880 -0.8343  1.2523 -0.4946
 2024SOL     OW17533   0.268   2.750   2.550 -0.3101 -0.4880 -0.4159
 2024SOL    HW117534   0.327   2.779   2.620 -2.4251 -0.7206  1.4519
 2024SOL    HW217535   0.295   2.663   2.522  3.0418  1.3783 -3.0583
 2025SOL     OW17536   4.055   2.727   4.433  0.4015  0.1299 -0.5100
 2025SOL    HW117537   4.133   2.747   4.383 -0.9868 -0.1362 -2.7850
 2025SOL    HW217538   4.024   2.805   4.479  0.4230  0.3879 -0.9420
 2026SOL     OW17539   2.898   0.261   4.760 -0.0754 -0.4134 -0.0123
 2026SOL    HW117540   2.970   0.255   4.824  0.2199  0.1953 -0.2814
 2026SOL    HW217541   2.845   0.184   4.778 -0.3595  0.0606  1.1836
 2027SOL     OW17542   4.595   1.477  16.270  0.3295 -0.1418  0.3416
 2027SOL    HW117543   4.637   1.563  16.275 -1.1087  0.5337  0.6763
 2027SOL    HW217544   4.657   1.428  16.324  0.9391  0.2541  0.0109
 2028SOL     OW17545   0.602   2.164   7.397  0.2774 -0.2454 -0.2470
 2028SOL    HW117546   0.605   2.078   7.439 -0.2689  1.1506  2.6455
 2028SOL    HW217547   0.551   2.218   7.458 -0.5054 -1.8068  0.4950
 2029SOL     OW17548   2.642   3.328   6.665 -0.4211 -0.1023  0.1056
 2029SOL    HW117549   2.729   3.318   6.705 -1.2100 -3.7323  0.9355
 2029SOL    HW217550   2.626   3.414   6.704 -0.2064 -0.8020  1.7334
 2030SOL     OW17551   1.188   2.015   6.573 -0.4240  0.1112 -0.5027
 2030SOL    HW117552   1.109   2.025   6.520 -0.5080  1.2134 -0.1732
 2030SOL    HW217553   1.256   2.016   6.507  0.4497 -2.6746  0.3398
 2031SOL     OW17554   4.054   1.456   3.649  0.2831  0.4626  0.0921
 2031SOL    HW117555   4.026   1.548   3.646  0.7504  0.6611  1.5868
 2031SOL    HW217556   4.064   1.435   3.556 -2.3638 -0.0859 -0.0747
 2032SOL     OW17557   1.949   0.645   1.301 -0.4201 -0.3575  0.5824
 2032SOL    HW117558   1.898   0.592   1.239 -0.3218  0.1669  0.0517
 2032SOL    HW217559   2.011   0.678   1.236 -2.0176  1.2826 -0.1153
 2033SOL     OW17560   0.461   3.556   7.972 -0.0118 -0.0401  0.1315
 2033SOL    HW117561   0.414   3.473   7.967 -0.9732  0.3802  2.1483
 2033SOL    HW217562   0.507   3.527   8.050 -1.1197 -1.3426  0.2952
 2034SOL     OW17563   1.584   4.316   6.596  0.0824 -0.1525 -0.1551
 2034SOL    HW117564   1.574   4.222   6.577  1.4491 -0.1673 -0.8498
 2034SOL    HW217565   1.614   4.310   6.686 -0.1252  1.2156 -0.0037
 2035SOL     OW17566   0.555   2.375  12.681 -0.0875 -0.0869 -0.5073
 2035SOL    HW117567   0.613   2.340  12.614  0.8281 -0.4828  0.4873
 2035SOL    HW217568   0.598   2.451  12.720  0.6765 -0.3767 -0.7934
 2036SOL     OW17569   3.189   2.199   8.688  0.1433 -0.0430  0.1626
 2036SOL    HW117570   3.144   2.161   8.763 -0.2231  0.8802  0.4185
 2036SOL    HW217571   3.281   2.180   8.704  0.2415  0.3443  0.0525
 2037SOL     OW17572   2.367   2.891   4.668 -0.2288  0.4168 -0.4961
 2037SOL    HW117573   2.458   2.914   4.647  0.2056  0.7963  1.7831
 2037SOL    HW217574   2.350   2.950   4.741 -0.6930 -1.8731  1.2556
 2038SOL     OW17575   0.313   2.655  12.019  0.1525  0.2952 -0.2109
 2038SOL    HW117576   0.393   2.705  12.034 -2.1632  4.0924 -0.4058
 2038SOL    HW217577   0.332   2.565  12.042 -0.5732  0.1855 -0.0381
 2039SOL     OW17578   3.106   3.055   7.673 -0.2364  0.0188  0.4470
 2039SOL    HW117579   3.110   3.150   7.667 -1.5737 -0.0566 -1.6857
 2039SOL    HW217580   3.116   3.048   7.768 -0.1089 -0.3212  0.4106
 2040SOL     OW17581   3.306   0.080   5.843 -0.0183 -0.1211 -0.6457
 2040SOL    HW117582   3.397   0.051   5.853 -0.0814  0.3567  1.1507
 2040SOL    HW217583   3.251   0.002   5.845  1.5591 -1.3069 -2.4196
 2041SOL     OW17584   3.569   2.208   2.448  0.5960  0.6594  0.0361
 2041SOL    HW117585   3.608   2.260   2.518 -3.1180  2.1637  1.0268
 2041SOL    HW217586   3.623   2.130   2.440  0.3536  0.3886  0.9707
 2042SOL     OW17587   3.266   1.818   8.585  0.8358 -0.3887 -0.2826
 2042SOL    HW117588   3.282   1.724   8.598 -0.4414 -0.7303 -1.1935
 2042SOL    HW217589   3.171   1.811   8.595  0.8727  0.6075  0.7021
 2043SOL     OW17590   1.717   2.445  11.798 -0.0658  0.1798 -0.7037
 2043SOL    HW117591   1.651   2.435  11.867  0.2968 -0.4493 -0.4526
 2043SOL    HW217592   1.679   2.432  11.711 -2.4099 -0.9712  0.5197
 2044SOL     OW17593   1.576   3.896   2.480 -0.5898  0.1921 -0.5591
 2044SOL    HW117594   1.614   3.818   2.440  0.8086  0.4365  0.3158
 2044SOL    HW217595   1.518   3.851   2.542 -0.4620  1.4399  0.4730
 2045SOL     OW17596   3.254   4.390  11.996 -0.3137  0.4267  0.2538
 2045SOL    HW117597   3.264   4.386  12.091 -0.2504 -1.0908  0.1855
 2045SOL    HW217598   3.311   4.318  11.969  2.0256  1.3536  2.7150
 2046SOL     OW17599   0.839   3.287   7.676  0.4113 -0.0933  0.1410
 2046SOL    HW117600   0.770   3.316   7.616  0.5760 -2.3764 -1.1447
 2046SOL    HW217601   0.875   3.209   7.634 -1.2319 -0.7126 -0.1210
 2047SOL     OW17602   0.857   0.980  11.717 -0.2013  0.0678  0.1893
 2047SOL    HW117603   0.822   0.998  11.804 -0.4180  0.8339 -0.0532
 2047SOL    HW217604   0.828   1.045  11.653 -1.1268  1.8484  2.4131
 2048SOL     OW17605   2.034   4.701   8.647  0.3925 -0.0784 -0.1486
 2048SOL    HW117606   1.946   0.011   8.628  0.7974  1.1851  0.1637
 2048SOL    HW217607   2.048   4.661   8.561 -1.5002 -1.0534  0.0043
 2049SOL     OW17608   3.933   1.236  16.792 -0.1652 -0.1426 -0.1462
 2049SOL    HW117609   3.864   1.301  16.809  2.1415  2.5685 -1.1709
 2049SOL    HW217610   3.962   1.222  16.883 -1.4279  2.0942  0.6142
 2050SOL     OW17611   3.259   2.038   1.636 -0.0932  0.4771  0.2965
 2050SOL    HW117612   3.206   1.975   1.685  0.8937  0.0343  0.7980
 2050SOL    HW217613   3.270   2.100   1.709  0.9853 -0.0095  0.5495
 2051SOL     OW17614   0.041   2.541   6.019 -0.2980  0.2341 -0.2966
 2051SOL    HW117615   4.677   2.542   6.059 -0.5723 -1.5761 -0.8355
 2051SOL    HW217616   0.053   2.636   6.010 -1.4243  0.7181  3.2529
 2052SOL     OW17617   3.377   2.394  11.838  1.0122  0.2093 -0.1534
 2052SOL    HW117618   3.336   2.337  11.773  0.9258  2.0129 -1.7123
 2052SOL    HW217619   3.316   2.392  11.912  0.7944 -1.1092 -0.3784
 2053SOL     OW17620   1.147   4.119  11.021 -0.5461 -0.4869  0.7096
 2053SOL    HW117621   1.118   4.069  10.946 -1.2530  3.7025 -1.8226
 2053SOL    HW217622   1.189   4.049  11.070 -0.3698 -1.1050 -0.3371
 2054SOL     OW17623   3.408   2.145   2.092 -0.1219 -0.2168  0.4359
 2054SOL    HW117624   3.464   2.092   2.034 -1.2730 -0.5984 -0.3254
 2054SOL    HW217625   3.331   2.088   2.091 -1.0767  1.0798  1.2866
 2055SOL     OW17626   4.634   3.861   8.191 -0.1763 -0.3458  0.1150
 2055SOL    HW117627   4.540   3.876   8.185 -0.1635  0.0164  0.8843
 2055SOL    HW217628   4.669   3.919   8.258 -0.7127 -1.2308  1.1624
 2056SOL     OW17629   0.039   2.723  10.054  0.0493  0.1460  0.0340
 2056SOL    HW117630   0.058   2.730   9.960 -0.5959 -2.8024 -0.2941
 2056SOL    HW217631   0.019   2.630  10.056  0.3371  0.1144  1.2422
 2057SOL     OW17632   1.711   2.457  16.599  0.4228  0.0214 -0.0084
 2057SOL    HW117633   1.683   2.548  16.608  1.9969  0.2326  2.8793
 2057SOL    HW217634   1.715   2.452  16.504 -3.1863 -0.9987 -0.1049
 2058SOL     OW17635   1.873   0.392   8.121  0.1265 -0.5294  0.2065
 2058SOL    HW117636   1.846   0.450   8.051  0.4330 -0.6684 -0.0283
 2058SOL    HW217637   1.958   0.363   8.088 -1.3792 -5.4290  0.6544
 2059SOL     OW17638   0.409   3.802  10.289  0.3340  0.1211 -0.0990
 2059SOL    HW117639   0.406   3.896  10.272 -1.8964  0.2427  0.9895
 2059SOL    HW217640   0.400   3.768  10.200 -0.7792 -0.2018  0.1325
 2060SOL     OW17641   1.914   2.389  16.379  0.0702 -0.2515 -0.0345
 2060SOL    HW117642   2.002   2.397  16.340 -0.2223  1.2025 -0.3733
 2060SOL    HW217643   1.930   2.426  16.466  0.7245 -0.8457  0.1005
 2061SOL     OW17644   3.531   4.709  15.237  0.1399  0.0067 -0.0427
 2061SOL    HW117645   3.553   0.067  15.189 -0.6661 -0.9976 -2.1088
 2061SOL    HW217646   3.621   4.690  15.265 -0.4081  0.9633  2.3489
 2062SOL     OW17647   2.246   4.666  15.891 -0.0368 -0.6468 -0.2459
 2062SOL    HW117648   2.308   4.681  15.820 -1.5342 -0.1708 -1.4496
 2062SOL    HW217649   2.199   0.026  15.895 -3.6319 -2.7398  1.7382
 2063SOL     OW17650   2.746   0.314   1.286  0.1435  0.0967  0.1586
 2063SOL    HW117651   2.705   0.390   1.327 -0.2085 -1.5012  2.7628
 2063SOL    HW217652   2.783   0.359   1.210 -0.1101  2.4362  1.4267
 2064SOL     OW17653   0.398   3.042  14.187 -0.5358  0.0813 -0.0543
 2064SOL    HW117654   0.329   2.983  14.217 -0.4747 -0.0984 -0.2652
 2064SOL    HW217655   0.395   3.036  14.091 -1.4295 -0.5965  0.0261
 2065SOL     OW17656   2.990   3.330  16.893  0.1066  0.0063  0.2626
 2065SOL    HW117657   2.937   3.377  16.828  1.6543  0.3289 -0.7916
 2065SOL    HW217658   2.998   3.382  16.973 -0.5311  3.3476 -1.8024
 2066SOL     OW17659   0.751   2.003   9.764  0.1501 -0.6114 -0.4994
 2066SOL    HW117660   0.676   1.968   9.812  0.4782 -1.5371 -0.6507
 2066SOL    HW217661   0.734   1.953   9.684  0.1583  0.7242 -1.3369
 2067SOL     OW17662   0.201   0.773  15.516  0.1763  0.6757 -0.8639
 2067SOL    HW117663   0.249   0.694  15.492 -0.3361 -0.0551  0.5190
 2067SOL    HW217664   0.276   0.827  15.542  1.0114 -2.6805  3.5617
 2068SOL     OW17665   1.566   3.323   3.146  0.4016 -0.5186 -0.5163
 2068SOL    HW117666   1.598   3.280   3.226 -2.4662 -1.3061  0.2075
 2068SOL    HW217667   1.644   3.357   3.102 -0.5240  2.1782 -0.0913
 2069SOL     OW17668   0.255   0.749   7.691  0.5995  0.3392 -0.1076
 2069SOL    HW117669   0.302   0.812   7.745 -0.1874 -0.5316  1.6200
 2069SOL    HW217670   0.319   0.735   7.621  1.7650  1.6189  0.7205
 2070SOL     OW17671   3.236   1.304  14.279 -0.1709 -0.7023 -0.1671
 2070SOL    HW117672   3.238   1.295  14.184 -1.0568  0.0161 -0.2619
 2070SOL    HW217673   3.323   1.273  14.303 -1.3891 -2.0969  2.4459
 2071SOL     OW17674   2.899   1.388  12.424 -0.8234  0.1212  0.6874
 2071SOL    HW117675   2.919   1.328  12.352 -0.9885 -0.4543  1.1266
 2071SOL    HW217676   2.954   1.353  12.493 -0.7151  2.7174  1.9184
 2072SOL     OW17677   3.794   2.164   8.168  0.0965  0.3250  0.1121
 2072SOL    HW117678   3.757   2.141   8.253 -0.3854 -2.6811 -0.9027
 2072SOL    HW217679   3.859   2.229   8.197  0.6402 -0.6843  1.1887
 2073SOL     OW17680   0.121   0.073   1.985  0.1462  0.6552  0.5153
 2073SOL    HW117681   0.209   0.088   1.951 -0.5971  1.4685 -1.0383
 2073SOL    HW217682   0.143   0.083   2.078 -1.2897 -0.0197  0.9176
 2074SOL     OW17683   2.360   1.067   2.260 -0.1276  0.2553  0.2324
 2074SOL    HW117684   2.452   1.089   2.269 -0.9444  3.1900  1.5414
 2074SOL    HW217685   2.357   1.075   2.165  0.7043 -1.6307  0.0540
 2075SOL     OW17686   1.163   3.347  15.857 -0.4085 -0.4382  0.4395
 2075SOL    HW117687   1.137   3.427  15.811 -3.4299 -1.1746  0.8756
 2075SOL    HW217688   1.223   3.320  15.786  0.2236  2.6366 -0.2067
 2076SOL     OW17689   1.387   3.553   4.649 -0.5230  0.0549 -0.1203
 2076SOL    HW117690   1.454   3.584   4.587 -0.4722  0.0472 -0.0691
 2076SOL    HW217691   1.387   3.621   4.716 -0.4367 -1.1716  1.1438
 2077SOL     OW17692   0.387   0.838  10.935 -0.0855 -0.3156  0.1582
 2077SOL    HW117693   0.469   0.815  10.893 -0.1433  2.1228 -1.2935
 2077SOL    HW217694   0.334   0.768  10.897 -0.5386 -0.1146  0.4128
 2078SOL     OW17695   1.204   2.874   4.940  0.9714 -0.1392 -0.2059
 2078SOL    HW117696   1.216   2.912   5.027  0.1048  0.5074 -0.3613
 2078SOL    HW217697   1.111   2.890   4.921  0.9691 -0.6423 -0.6194
 2079SOL     OW17698   2.409   1.952   1.144 -0.1890 -0.1944 -0.4923
 2079SOL    HW117699   2.350   1.877   1.155 -0.3488 -0.2197 -1.5668
 2079SOL    HW217700   2.362   2.022   1.098  1.1307  1.7038  1.0884
 2080SOL     OW17701   3.335   1.812  12.789 -0.1980  0.0900 -0.7272
 2080SOL    HW117702   3.360   1.748  12.856 -1.4939 -1.1494 -1.4259
 2080SOL    HW217703   3.251   1.773  12.765 -1.2152  0.9598  1.4275
 2081SOL     OW17704   4.152   2.434   7.924 -0.1033 -0.1518 -0.1374
 2081SOL    HW117705   4.155   2.522   7.961 -0.4226  0.3687 -1.3363
 2081SOL    HW217706   4.217   2.383   7.972  1.2301  1.7699  0.1028
 2082SOL     OW17707   4.220   3.477   0.735  0.3188 -0.1239  0.2121
 2082SOL    HW117708   4.169   3.512   0.808 -1.1819  2.2901 -2.0089
 2082SOL    HW217709   4.158   3.416   0.697 -0.3886  0.5685  0.2548
 2083SOL     OW17710   0.790   1.419   5.956  0.1087  0.5230  0.0794
 2083SOL    HW117711   0.798   1.514   5.947 -0.9449  0.6389  0.3846
 2083SOL    HW217712   0.860   1.399   6.017  1.1629 -1.0739 -1.6448
 2084SOL     OW17713   2.903   0.024   1.614  0.5968 -0.1274  0.3198
 2084SOL    HW117714   2.874   4.720   1.701  0.8768 -0.1328  0.4089
 2084SOL    HW217715   2.920   0.118   1.621  0.6283 -0.1046 -0.0626
 2085SOL     OW17716   0.947   0.823   4.484 -0.2481 -0.1066 -0.7102
 2085SOL    HW117717   0.968   0.908   4.523 -1.7648 -0.3696  0.6369
 2085SOL    HW217718   0.984   0.837   4.396  1.1840 -0.1974 -0.1157
 2086SOL     OW17719   2.482   1.518  13.064 -0.0334 -0.2440 -0.1025
 2086SOL    HW117720   2.402   1.466  13.075  0.4764 -0.4532  2.4899
 2086SOL    HW217721   2.493   1.550  13.153  1.8080 -0.3110 -0.3058
 2087SOL     OW17722   3.270   2.753   3.549  0.4343 -0.9278  0.0507
 2087SOL    HW117723   3.244   2.816   3.482  0.7509 -0.8718 -0.0207
 2087SOL    HW217724   3.273   2.808   3.627 -1.7983  0.4462 -0.8661
 2088SOL     OW17725   1.471   2.357   3.799  0.4260  0.1665  0.4180
 2088SOL    HW117726   1.566   2.362   3.806  0.4672 -0.6734  0.3972
 2088SOL    HW217727   1.458   2.362   3.894  0.6497 -1.1440  0.5176
 2089SOL     OW17728   0.828   1.507  10.114  0.2331 -0.0135 -0.2884
 2089SOL    HW117729   0.809   1.422  10.076 -0.3550 -1.0898  2.3896
 2089SOL    HW217730   0.923   1.502  10.118  0.2087 -0.8935 -0.9266
 2090SOL     OW17731   0.273   2.180  15.256  0.2091 -0.1412 -0.0566
 2090SOL    HW117732   0.192   2.221  15.286  0.3297  0.6924 -0.8896
 2090SOL    HW217733   0.246   2.133  15.177  0.1996  2.1828 -1.4310
 2091SOL     OW17734   4.220   0.410   5.127 -0.1492 -0.8693  0.8086
 2091SOL    HW117735   4.244   0.329   5.082 -0.5372 -1.2096  1.1972
 2091SOL    HW217736   4.232   0.470   5.054 -1.9127 -0.5454  0.7753
 2092SOL     OW17737   4.478   4.019   3.305 -0.1223  0.1380  0.1567
 2092SOL    HW117738   4.475   3.931   3.266  0.3335  0.4932 -0.6902
 2092SOL    HW217739   4.532   4.010   3.384  0.4274 -0.3459 -0.2753
 2093SOL     OW17740   4.488   1.885  11.231 -0.0954  0.0377 -0.7472
 2093SOL    HW117741   4.431   1.872  11.156 -0.8061  1.9078 -0.5304
 2093SOL    HW217742   4.525   1.971  11.210 -1.7533  0.7302 -0.8794
 2094SOL     OW17743   2.675   0.938   3.649  0.8738  0.0493 -0.2215
 2094SOL    HW117744   2.607   1.005   3.654  1.9656  1.0739  0.8054
 2094SOL    HW217745   2.753   0.994   3.639  0.4294  0.5006 -1.1529
 2095SOL     OW17746   3.428   1.963   7.616  0.0441 -1.0012 -0.3850
 2095SOL    HW117747   3.358   1.911   7.654  2.2576 -2.5545  1.5730
 2095SOL    HW217748   3.414   2.048   7.657  1.0194 -1.9345  1.8536
 2096SOL     OW17749   1.808   4.193   9.831 -0.4367 -0.3096  0.2582
 2096SOL    HW117750   1.732   4.164   9.782  0.2492 -1.3394 -0.1980
 2096SOL    HW217751   1.795   4.156   9.918 -1.5622 -0.0246  0.2057
 2097SOL     OW17752   2.118   3.001  10.784  0.4503  0.0913 -0.8959
 2097SOL    HW117753   2.058   3.006  10.858 -1.0850  1.3466 -2.2328
 2097SOL    HW217754   2.169   3.081  10.793 -0.9999  0.9252 -0.1493
 2098SOL     OW17755   3.574   2.762   5.307  0.3070 -0.0244  0.0743
 2098SOL    HW117756   3.546   2.773   5.217  0.3853 -1.2286 -0.0985
 2098SOL    HW217757   3.495   2.729   5.351 -0.4010  1.1688 -0.2877
 2099SOL     OW17758   2.547   3.903   6.281 -0.4040  0.4301  0.3371
 2099SOL    HW117759   2.614   3.971   6.271  0.8382 -1.0762 -1.5101
 2099SOL    HW217760   2.595   3.839   6.334  0.6453 -0.4010 -1.6114
 2100SOL     OW17761   0.136   1.206   7.000 -0.3332  0.3788 -0.0453
 2100SOL    HW117762   0.057   1.172   7.042 -0.7864  1.7724  0.2220
 2100SOL    HW217763   0.122   1.294   7.035  0.2844  0.6031 -0.3638
 2101SOL     OW17764   0.804   0.805   8.074  0.2171 -0.2925  0.0224
 2101SOL    HW117765   0.747   0.733   8.102 -1.7028  1.9280  1.8868
 2101SOL    HW217766   0.756   0.882   8.106  0.7070  0.6537 -1.5090
 2102SOL     OW17767   0.343   2.479  15.198 -0.6355 -0.4206  0.0368
 2102SOL    HW117768   0.248   2.473  15.208 -0.7818  2.2663  0.2254
 2102SOL    HW217769   0.358   2.536  15.123  1.2083 -0.9093  0.0155
 2103SOL     OW17770   0.828   2.076   4.853  0.2030 -0.0413 -0.3795
 2103SOL    HW117771   0.902   2.016   4.861  0.2473 -0.0666 -1.0588
 2103SOL    HW217772   0.767   2.023   4.802  1.4116 -1.4477 -0.3826
 2104SOL     OW17773   4.129   0.979   4.250  0.1705 -0.1465  0.0941
 2104SOL    HW117774   4.100   1.070   4.254 -0.4630 -0.4385  2.0252
 2104SOL    HW217775   4.048   0.945   4.211  0.0050  0.0888  0.2321
 2105SOL     OW17776   1.616   4.108  16.293 -0.0961 -0.3659  0.2443
 2105SOL    HW117777   1.604   4.013  16.297  0.5526 -0.4222  0.6733
 2105SOL    HW217778   1.697   4.114  16.342 -0.2962 -0.2437  0.5617
 2106SOL     OW17779   1.914   0.351   0.508 -0.0219  0.1506 -0.2634
 2106SOL    HW117780   1.862   0.359   0.428 -3.3854  1.4940  2.0658
 2106SOL    HW217781   1.854   0.297   0.559  0.1602  0.5216  0.3354
 2107SOL     OW17782   4.269   0.709   6.350 -0.1924 -0.2277  0.4371
 2107SOL    HW117783   4.350   0.725   6.398 -0.3051  2.6384 -0.3295
 2107SOL    HW217784   4.206   0.678   6.415  0.2765  0.8785  1.4033
 2108SOL     OW17785   3.410   2.805   8.253 -0.0898 -0.1826  0.1624
 2108SOL    HW117786   3.406   2.876   8.316  1.9247 -0.6180  0.7809
 2108SOL    HW217787   3.470   2.749   8.303  1.0026  1.2835  0.4969
 2109SOL     OW17788   0.358   1.159  12.256  0.2836 -0.8876  0.3657
 2109SOL    HW117789   0.310   1.132  12.334 -1.7392 -0.3228 -0.6920
 2109SOL    HW217790   0.328   1.098  12.190 -0.4179  1.2624 -1.3048
 2110SOL     OW17791   4.539   1.864   4.700 -0.3334 -0.5047 -0.1610
 2110SOL    HW117792   4.505   1.953   4.712 -0.9987 -0.5426 -1.7611
 2110SOL    HW217793   4.487   1.823   4.770  0.8485  0.3236  1.2028
 2111SOL     OW17794   2.374   2.759   7.174  0.0910  0.1329 -0.3290
 2111SOL    HW117795   2.423   2.681   7.149  2.2903  1.9193 -1.5915
 2111SOL    HW217796   2.294   2.721   7.210  2.4669 -2.3168  2.3756
 2112SOL     OW17797   1.514   3.574   6.384 -0.2067  0.3231 -0.1982
 2112SOL    HW117798   1.493   3.668   6.383 -0.4874  0.2616  0.0825
 2112SOL    HW217799   1.428   3.538   6.404 -0.1870 -0.2497 -1.1358
 2113SOL     OW17800   3.457   0.497   7.714  0.5948  0.9276 -0.2593
 2113SOL    HW117801   3.434   0.523   7.624 -0.1480  0.3693 -0.2321
 2113SOL    HW217802   3.375   0.518   7.758  0.1464  0.5199 -0.8914
 2114SOL     OW17803   0.662   4.194   3.697 -0.3104  0.4488  0.0346
 2114SOL    HW117804   0.716   4.224   3.770  0.9108  1.1157 -1.1422
 2114SOL    HW217805   0.728   4.159   3.637  1.1968 -2.5764  3.4454
 2115SOL     OW17806   0.504   1.156  15.341 -0.4392  1.1621  0.0530
 2115SOL    HW117807   0.453   1.230  15.310 -0.8464 -0.0720 -2.2298
 2115SOL    HW217808   0.444   1.081  15.335  0.3266  0.6994 -1.9457
 2116SOL     OW17809   3.356   0.441   2.558 -0.6997 -0.1773 -0.2829
 2116SOL    HW117810   3.333   0.527   2.594 -0.1057  0.6424 -1.8747
 2116SOL    HW217811   3.269   0.418   2.527 -1.3887 -1.0443  2.2722
 2117SOL     OW17812   2.698   3.560   5.742  0.3518 -0.3108 -0.0076
 2117SOL    HW117813   2.765   3.526   5.801  0.2378 -1.7430 -0.7237
 2117SOL    HW217814   2.632   3.491   5.742 -0.0741  0.0976 -0.6437
 2118SOL     OW17815   1.863   4.680   3.416 -0.2881  0.3907  0.0587
 2118SOL    HW117816   1.845   0.005   3.497 -0.5171 -0.9794  0.8330
 2118SOL    HW217817   1.786   4.623   3.416  0.8902 -1.2222  0.4160
 2119SOL     OW17818   2.074   2.298  15.609 -0.5470  0.3050 -0.0548
 2119SOL    HW117819   2.067   2.378  15.660 -4.3432 -0.8446  1.2942
 2119SOL    HW217820   2.041   2.337  15.528  0.7191  0.6660 -0.3943
 2120SOL     OW17821   2.137   0.294   1.448 -0.9616  0.1230  0.4827
 2120SOL    HW117822   2.178   0.317   1.532  0.1184 -0.1235  0.0285
 2120SOL    HW217823   2.208   0.243   1.409 -1.3778  0.0071 -0.1110
 2121SOL     OW17824   3.364   0.698   3.099  0.2770  0.1531 -0.3580
 2121SOL    HW117825   3.343   0.780   3.055 -1.5793 -0.5299 -0.7727
 2121SOL    HW217826   3.416   0.659   3.028  0.2650  1.0015 -0.8301
 2122SOL     OW17827   1.192   3.465   5.507  0.1549 -0.0243  0.3180
 2122SOL    HW117828   1.229   3.495   5.424  1.0907 -0.4340  0.5860
 2122SOL    HW217829   1.262   3.413   5.544  1.0471  0.4417 -0.7161
 2123SOL     OW17830   1.060   0.561   4.311  0.0044  0.8594  0.4547
 2123SOL    HW117831   1.118   0.524   4.245  0.1598  4.0440 -1.1450
 2123SOL    HW217832   1.113   0.560   4.390  1.0719 -0.4842 -0.2841
 2124SOL     OW17833   1.239   4.659   2.859 -0.4979  0.2388  0.1742
 2124SOL    HW117834   1.312   4.708   2.821 -0.1926 -1.1750 -1.0562
 2124SOL    HW217835   1.229   0.000   2.929  0.2806  1.8890 -1.2318
 2125SOL     OW17836   0.733   3.470   8.578 -0.3206 -0.3549 -0.4341
 2125SOL    HW117837   0.640   3.471   8.603  0.4535 -1.6306  2.4411
 2125SOL    HW217838   0.734   3.537   8.510 -1.8586  0.5192  0.4052
 2126SOL     OW17839   0.510   4.629   1.715 -0.4789 -0.8741  0.0772
 2126SOL    HW117840   0.534   4.711   1.758  1.9994 -2.0684  1.0207
 2126SOL    HW217841   0.585   4.614   1.657 -0.6886 -2.1873  0.1477
 2127SOL     OW17842   0.641   1.549   7.274  0.0365  0.3191  0.0554
 2127SOL    HW117843   0.631   1.626   7.218  0.3568  0.3916  0.0989
 2127SOL    HW217844   0.586   1.483   7.231 -0.1287  0.6170 -0.1886
 2128SOL     OW17845   1.564   2.088  12.318  0.3523  0.1484 -0.3096
 2128SOL    HW117846   1.477   2.128  12.325 -0.4807 -2.0141  1.6559
 2128SOL    HW217847   1.546   2.018  12.255 -0.1901  2.3622 -2.6398
 2129SOL     OW17848   2.757   4.538   3.745 -0.0500  0.0136 -0.5534
 2129SOL    HW117849   2.843   4.538   3.787 -0.1579  1.7240 -0.3307
 2129SOL    HW217850   2.783   4.488   3.667  1.1247 -1.5857  0.8773
 2130SOL     OW17851   2.995   2.788   4.130  0.0437 -1.0165  0.0174
 2130SOL    HW117852   3.077   2.757   4.170 -0.0674 -1.8374 -0.3757
 2130SOL    HW217853   2.939   2.813   4.203 -0.1431  0.7363 -0.7234
 2131SOL     OW17854   3.116   2.458   8.935 -0.4892 -0.4460 -0.3733
 2131SOL    HW117855   3.172   2.525   8.976  1.3375 -2.8416  1.0259
 2131SOL    HW217856   3.154   2.460   8.847  2.7484  0.4650  1.0491
 2132SOL     OW17857   4.109   4.517  12.616  0.2333 -0.2933 -0.3555
 2132SOL    HW117858   4.049   4.449  12.587  0.1499 -0.4960  0.2961
 2132SOL    HW217859   4.109   4.500  12.710  1.3041  0.2541 -0.2554
 2133SOL     OW17860   3.286   3.025   8.683  0.2422  0.1028 -0.8085
 2133SOL    HW117861   3.357   3.078   8.720 -0.3401  2.6117 -3.2527
 2133SOL    HW217862   3.272   3.077   8.604  0.4552  3.6917  1.5182
 2134SOL     OW17863   4.561   0.455   3.062 -0.6370  0.2778  0.1176
 2134SOL    HW117864   4.556   0.521   2.993 -0.7923  0.0713 -0.0673
 2134SOL    HW217865   4.495   0.390   3.038 -0.3965  1.0199 -2.5652
 2135SOL     OW17866   3.033   1.721   9.076 -0.2098  0.4062 -0.6816
 2135SOL    HW117867   3.100   1.739   9.011  0.2827 -3.1427 -1.0988
 2135SOL    HW217868   3.093   1.669   9.129 -1.6203 -0.1480  0.3845
 2136SOL     OW17869   4.498   1.428   8.611 -0.2389  0.4833  0.4689
 2136SOL    HW117870   4.503   1.355   8.672  2.6729  0.9360  0.7834
 2136SOL    HW217871   4.540   1.496   8.664  1.4722  0.4559 -0.8375
 2137SOL     OW17872   3.824   1.890   3.868 -0.0604 -0.0995  0.5415
 2137SOL    HW117873   3.851   1.953   3.935 -1.3136  1.4870 -0.4622
 2137SOL    HW217874   3.744   1.856   3.907 -1.5214 -0.2714 -2.5898
 2138SOL     OW17875   2.018   0.114   4.055 -0.0224  0.0555  0.1531
 2138SOL    HW117876   2.012   0.085   4.146 -0.7670  1.4446  0.5414
 2138SOL    HW217877   2.112   0.115   4.039 -0.1241  0.8603 -0.3711
 2139SOL     OW17878   0.588   2.720   5.998  0.2948  0.2431  0.3095
 2139SOL    HW117879   0.562   2.631   6.021  0.4361  0.6875  2.2470
 2139SOL    HW217880   0.646   2.739   6.072  0.3647  0.5294  0.1806
 2140SOL     OW17881   0.648   3.078   0.889 -0.1687 -0.1552  0.1256
 2140SOL    HW117882   0.706   3.140   0.845 -0.5114 -0.6920 -1.1014
 2140SOL    HW217883   0.688   3.073   0.976  0.8479  1.8937 -0.2363
 2141SOL     OW17884   2.662   1.021   7.205  0.5033  0.3634  0.1878
 2141SOL    HW117885   2.743   1.008   7.255  1.5027 -1.0275 -1.7714
 2141SOL    HW217886   2.610   1.060   7.275  3.3996 -1.0708  3.1303
 2142SOL     OW17887   0.391   2.502   3.724  0.0141  0.1983 -0.7275
 2142SOL    HW117888   0.451   2.446   3.675 -0.8981 -0.5561 -0.9812
 2142SOL    HW217889   0.450   2.529   3.794  0.5370 -1.0227 -0.7121
 2143SOL     OW17890   4.661   1.360  12.259 -0.3705  0.3225  0.1318
 2143SOL    HW117891   0.017   1.340  12.309 -0.2382  0.7301  0.0851
 2143SOL    HW217892   4.696   1.427  12.200 -1.1191  3.0529  2.8191
 2144SOL     OW17893   1.530   0.465   4.330  0.1253  0.1862  0.1304
 2144SOL    HW117894   1.572   0.418   4.402 -0.1176 -1.6825 -0.9397
 2144SOL    HW217895   1.495   0.540   4.377 -1.2978  0.5851 -1.5887
 2145SOL     OW17896   1.504   0.270   4.844  0.1182  0.8019  0.1866
 2145SOL    HW117897   1.588   0.224   4.841 -0.4607 -0.2907  0.7201
 2145SOL    HW217898   1.535   0.355   4.874 -1.0853  1.1056  0.5854
 2146SOL     OW17899   3.547   3.251   3.350  0.4760  0.6762  0.2904
 2146SOL    HW117900   3.576   3.220   3.264  0.7290 -1.3781  1.0999
 2146SOL    HW217901   3.600   3.191   3.403  0.5001 -0.3460 -0.8769
 2147SOL     OW17902   0.337   1.993   5.213  0.0379 -0.8419  0.4924
 2147SOL    HW117903   0.327   1.916   5.157 -1.7684 -0.2038 -0.0521
 2147SOL    HW217904   0.254   1.986   5.260 -0.0468  1.6254  0.7122
 2148SOL     OW17905   0.926   0.747   5.239 -0.1128  0.6640  0.4492
 2148SOL    HW117906   0.886   0.808   5.300 -0.1094  0.7893  0.3273
 2148SOL    HW217907   0.843   0.705   5.219 -0.5414  1.7893 -0.1511
 2149SOL     OW17908   1.289   2.067   3.296 -0.3648  0.4854 -0.1226
 2149SOL    HW117909   1.354   2.048   3.364  0.2887  3.1559 -0.0041
 2149SOL    HW217910   1.209   2.078   3.348 -1.0558  0.3072 -1.1514
 2150SOL     OW17911   1.259   1.737   8.427 -0.7011 -0.8853  0.0497
 2150SOL    HW117912   1.208   1.764   8.504  2.6690  1.8300  1.3171
 2150SOL    HW217913   1.220   1.653   8.402  2.7256 -2.7702  1.0136
 2151SOL     OW17914   4.638   1.049   3.998 -0.0472  0.4253 -0.0433
 2151SOL    HW117915   4.657   0.987   3.927  0.4693 -0.0553  0.5126
 2151SOL    HW217916   4.599   0.998   4.069 -2.0440  0.7100 -0.9354
 2152SOL     OW17917   1.037   0.126   5.759 -0.2076 -0.1087 -0.2278
 2152SOL    HW117918   1.003   0.041   5.787 -0.8852  0.5911  1.1022
 2152SOL    HW217919   1.003   0.186   5.826 -2.0403 -1.9558  0.5049
 2153SOL     OW17920   1.063   2.938   4.356 -0.9146 -0.3337 -0.6591
 2153SOL    HW117921   1.091   2.970   4.271  3.2311 -0.1029  0.7755
 2153SOL    HW217922   1.057   3.019   4.406 -0.7776 -0.5342 -0.3123
 2154SOL     OW17923   1.802   4.428   5.094 -0.3919  0.2320 -0.7724
 2154SOL    HW117924   1.713   4.410   5.063 -1.9478  2.8312  2.1904
 2154SOL    HW217925   1.857   4.388   5.027  1.2218 -1.1947  1.3868
 2155SOL     OW17926   4.135   4.237   3.885  0.5669  0.3156 -0.2720
 2155SOL    HW117927   4.066   4.302   3.897  0.6085  0.2239  0.4843
 2155SOL    HW217928   4.149   4.206   3.974  0.6166  0.6204 -0.1743
 2156SOL     OW17929   0.681   4.000   5.263 -0.0478  0.0813  0.0916
 2156SOL    HW117930   0.632   3.956   5.332 -0.1784  0.2228  0.0892
 2156SOL    HW217931   0.690   4.083   5.310 -2.0857 -0.9223  2.2867
 2157SOL     OW17932   0.004   2.183  17.377 -0.2260 -0.2868 -0.0400
 2157SOL    HW117933   4.696   2.184  17.286 -1.8027 -1.8688  0.4780
 2157SOL    HW217934   0.033   2.093  17.389  2.8637  0.7880  0.4809
 2158SOL     OW17935   4.417   0.729   5.243  0.1266 -0.8224  0.1692
 2158SOL    HW117936   4.336   0.686   5.269 -0.5902  0.8193  0.6108
 2158SOL    HW217937   4.480   0.657   5.251 -0.0588 -1.1684 -1.4230
 2159SOL     OW17938   3.266   3.232   4.583  0.0285 -0.6891 -0.6214
 2159SOL    HW117939   3.306   3.230   4.496  0.4845 -0.4064 -0.4216
 2159SOL    HW217940   3.321   3.186   4.646 -1.0592 -0.4991  0.4729
 2160SOL     OW17941   2.305   0.008   9.339 -0.0378 -0.2370  0.3764
 2160SOL    HW117942   2.317   0.010   9.434 -0.5175 -0.3646  0.4398
 2160SOL    HW217943   2.244   0.082   9.334 -1.7445 -1.5393  2.0255
 2161SOL     OW17944   1.860   0.932  10.991 -0.4464  0.5870  0.0912
 2161SOL    HW117945   1.885   0.854  11.040 -0.9782  0.6948  0.5316
 2161SOL    HW217946   1.841   0.902  10.902  1.5630 -0.2841 -0.0417
 2162SOL     OW17947   3.846   1.246  10.943  0.3342 -0.0191 -0.2265
 2162SOL    HW117948   3.795   1.178  10.987  1.2837 -0.0300  0.8349
 2162SOL    HW217949   3.848   1.209  10.854  1.4767  0.1514 -0.2643
 2163SOL     OW17950   4.094   4.666   5.165  0.0108  0.0354  0.0844
 2163SOL    HW117951   4.087   4.692   5.257 -0.9466 -1.5609  0.4643
 2163SOL    HW217952   4.148   4.587   5.173  0.8106  0.6147  0.3438
 2164SOL     OW17953   4.141   1.570   2.037 -0.3231 -0.3740 -0.0791
 2164SOL    HW117954   4.193   1.536   1.964 -1.2057 -2.3741  0.2426
 2164SOL    HW217955   4.109   1.649   1.993 -0.0474  0.6574  1.5714
 2165SOL     OW17956   0.872   0.883  14.917 -0.5570  0.0374  0.3115
 2165SOL    HW117957   0.839   0.888  15.006  0.8911  1.7563  0.7327
 2165SOL    HW217958   0.922   0.964  14.917 -1.6633  0.7250 -1.2692
 2166SOL     OW17959   1.984   2.926  13.590 -0.3605  0.1331 -0.0280
 2166SOL    HW117960   2.009   3.016  13.569 -1.1532  0.4911  0.5465
 2166SOL    HW217961   1.934   2.925  13.671 -0.8206 -0.5366 -0.3245
 2167SOL     OW17962   3.472   4.347  14.117 -0.3016 -0.2847 -0.2498
 2167SOL    HW117963   3.539   4.350  14.048 -0.8601 -1.2107 -0.8380
 2167SOL    HW217964   3.394   4.374  14.069 -0.3692 -0.7590 -0.4120
 2168SOL     OW17965   2.171   2.713   5.828  0.0135 -0.3175  0.5499
 2168SOL    HW117966   2.091   2.668   5.855 -1.5714 -0.9315 -5.2437
 2168SOL    HW217967   2.231   2.642   5.805  0.9970  0.3654  1.0127
 2169SOL     OW17968   2.280   4.247  16.891 -0.0385  0.8753 -0.3771
 2169SOL    HW117969   2.261   4.286  16.806 -0.1827 -1.0209 -1.2267
 2169SOL    HW217970   2.368   4.284  16.900  0.2536 -0.5300  2.5226
 2170SOL     OW17971   2.889   4.088  10.584  0.3259  0.4854 -0.2309
 2170SOL    HW117972   2.850   4.017  10.635  0.8161  0.8943  0.7164
 2170SOL    HW217973   2.832   4.163  10.601  0.6215  0.0856  2.5072
 2171SOL     OW17974   0.201   1.670   2.481 -0.2385  0.3316 -0.0740
 2171SOL    HW117975   0.296   1.678   2.474 -0.2597  0.8384  0.1670
 2171SOL    HW217976   0.178   1.721   2.558 -2.1267  1.8477 -1.6411
 2172SOL     OW17977   3.947   3.750   1.534  0.7775 -0.7019 -0.2928
 2172SOL    HW117978   3.975   3.772   1.623 -1.3737 -1.3618  0.5230
 2172SOL    HW217979   4.032   3.766   1.492  0.1818 -0.1653 -1.3071
 2173SOL     OW17980   2.567   2.889  12.505 -0.3212  0.1619  0.1490
 2173SOL    HW117981   2.590   2.801  12.535  1.2939  0.3043 -0.6484
 2173SOL    HW217982   2.644   2.934  12.541 -0.0635 -1.7122  1.9428
 2174SOL     OW17983   2.340   1.935   4.536  0.8595 -0.1028 -0.2508
 2174SOL    HW117984   2.317   1.898   4.621  0.3759  1.9459  0.5063
 2174SOL    HW217985   2.261   1.909   4.489 -0.4780  0.8634  1.4790
 2175SOL     OW17986   4.522   3.939  10.665  0.1129 -0.3448 -0.0793
 2175SOL    HW117987   4.506   3.867  10.726  3.6251  0.5150  1.8345
 2175SOL    HW217988   4.507   4.015  10.721  2.2326  1.2700 -1.7384
 2176SOL     OW17989   4.194   4.680   1.400 -0.3214  0.1910 -0.4798
 2176SOL    HW117990   4.164   4.600   1.357 -1.1542  0.1295  0.2208
 2176SOL    HW217991   4.148   0.021   1.344 -1.5841  0.1717  0.5303
 2177SOL     OW17992   3.380   1.481   3.711 -0.2704 -0.0962 -0.1880
 2177SOL    HW117993   3.463   1.506   3.753 -0.7644  0.6805  0.3202
 2177SOL    HW217994   3.324   1.551   3.744  0.0226  0.9368 -1.8918
 2178SOL     OW17995   4.650   2.409  11.007 -0.0141 -0.2689  0.2882
 2178SOL    HW117996   4.649   2.340  10.941  1.2419  0.5357 -0.5769
 2178SOL    HW217997   4.686   2.483  10.959  0.3810 -0.2519  0.6098
 2179SOL     OW17998   2.617   2.414   2.680  0.1207  0.3433 -0.5392
 2179SOL    HW117999   2.677   2.385   2.612 -0.6934 -0.2251 -1.0221
 2179SOL    HW218000   2.647   2.505   2.683  0.0638  0.3944 -1.5678
 2180SOL     OW18001   0.830   3.763  15.329 -0.4801 -0.2102  0.0235
 2180SOL    HW118002   0.766   3.699  15.299  0.0350 -0.9426  0.4892
 2180SOL    HW218003   0.768   3.834  15.345 -0.5167 -0.8794  2.8633
 2181SOL     OW18004   0.645   4.633  15.785 -0.4750 -0.2711  0.8335
 2181SOL    HW118005   0.737   4.658  15.783  0.2247 -2.7239  2.3781
 2181SOL    HW218006   0.604   4.712  15.749  3.2646  0.8932 -0.7589
 2182SOL     OW18007   3.545   4.129   8.291  0.4968 -0.3255  0.0824
 2182SOL    HW118008   3.593   4.174   8.360 -0.1956 -2.2790  1.8092
 2182SOL    HW218009   3.613   4.120   8.224  1.5946 -1.0338  1.2936
 2183SOL     OW18010   1.208   1.643   7.189  0.0859  0.0679 -0.6377
 2183SOL    HW118011   1.136   1.586   7.216 -0.1023  1.4031  1.7622
 2183SOL    HW218012   1.268   1.645   7.264 -1.3937  2.0171  0.5275
 2184SOL     OW18013   2.218   1.101   4.917  0.3077 -0.2899 -0.0570
 2184SOL    HW118014   2.255   1.043   4.850 -0.0717  0.5577 -1.0090
 2184SOL    HW218015   2.228   1.048   4.995 -1.7242  0.6957  0.8569
 2185SOL     OW18016   0.115   4.156   8.195  0.8852  0.2437 -0.3923
 2185SOL    HW118017   0.051   4.224   8.218 -0.6576 -1.0345 -0.8527
 2185SOL    HW218018   0.190   4.194   8.239  2.4395 -2.4973 -0.6618
 2186SOL     OW18019   3.095   4.531  10.506 -0.2401  0.4881  0.0532
 2186SOL    HW118020   3.129   4.537  10.417 -1.7252  0.1010 -0.5335
 2186SOL    HW218021   3.132   4.454  10.550 -0.2118  0.9136  0.7851
 2187SOL     OW18022   3.546   3.750   1.647 -0.1365  0.0676  0.7309
 2187SOL    HW118023   3.526   3.770   1.739  0.3398 -0.4649  0.9508
 2187SOL    HW218024   3.632   3.708   1.647  1.3286  3.1036  0.0938
 2188SOL     OW18025   4.275   0.292   3.559  0.6410  0.2449  0.1204
 2188SOL    HW118026   4.324   0.277   3.478  1.6314 -0.4525  0.8561
 2188SOL    HW218027   4.189   0.317   3.523  0.1353  1.9184  2.5143
 2189SOL     OW18028   4.448   3.347   7.327 -0.0504 -0.6050  0.1359
 2189SOL    HW118029   4.384   3.418   7.321  0.5178  0.0307  1.4392
 2189SOL    HW218030   4.405   3.263   7.338 -2.0414  0.2740 -1.0207
 2190SOL     OW18031   0.782   0.507  17.054  0.2008  0.4370  0.2401
 2190SOL    HW118032   0.805   0.431  17.106  0.3145  0.3955  0.1281
 2190SOL    HW218033   0.782   0.574  17.123 -2.4005  0.9804 -0.2720
 2191SOL     OW18034   3.803   2.511  17.240 -0.5444 -0.1392  0.0638
 2191SOL    HW118035   3.890   2.495  17.204 -1.2671 -1.1385 -1.2215
 2191SOL    HW218036   3.833   2.568  17.312 -0.4162 -0.1217 -0.0042
 2192SOL     OW18037   3.920   0.645   0.178  0.1476  1.0966  0.0878
 2192SOL    HW118038   3.969   0.621   0.100 -2.7529  0.1956 -1.4637
 2192SOL    HW218039   3.979   0.627   0.251  0.3863 -0.3427 -0.4701
 2193SOL     OW18040   0.046   1.170   2.224  0.2655  0.0057  0.1471
 2193SOL    HW118041   0.023   1.169   2.131  0.8527  0.8821 -0.0047
 2193SOL    HW218042   4.690   1.202   2.268  0.9642 -1.0165  2.1022
 2194SOL     OW18043   2.399   3.303   2.217  0.0943 -0.1329 -0.5292
 2194SOL    HW118044   2.474   3.291   2.159  0.5972 -0.9784  0.3018
 2194SOL    HW218045   2.325   3.317   2.157 -1.5454 -0.3664  1.4549
 2195SOL     OW18046   4.239   1.607   2.293 -0.5018 -0.1119 -0.6354
 2195SOL    HW118047   4.199   1.598   2.207 -2.1532  1.6012 -0.0463
 2195SOL    HW218048   4.216   1.526   2.338 -0.1910  1.0940  1.7490
 2196SOL     OW18049   1.558   0.598   5.820 -0.4592 -0.4130 -0.0287
 2196SOL    HW118050   1.634   0.617   5.764 -1.1359  0.0640 -0.7827
 2196SOL    HW218051   1.601   0.545   5.888 -1.2501 -1.6353 -0.4975
 2197SOL     OW18052   0.860   1.125  13.977  0.4320  0.0869 -0.3771
 2197SOL    HW118053   0.900   1.156  14.058  0.3821  0.7679 -0.6109
 2197SOL    HW218054   0.836   1.207  13.933 -0.6208 -0.5564 -1.0036
 2198SOL     OW18055   3.903   2.401   0.220  0.5311  0.2173 -0.3341
 2198SOL    HW118056   3.955   2.321   0.230 -0.5671 -0.3173  1.0408
 2198SOL    HW218057   3.815   2.377   0.248  0.3511  1.7683  0.4234
 2199SOL     OW18058   1.740   0.444   2.410  0.8660 -0.3242 -0.1013
 2199SOL    HW118059   1.688   0.382   2.359 -0.0512 -1.3118  2.0533
 2199SOL    HW218060   1.712   0.427   2.500  1.0763 -0.6721 -0.1017
 2200SOL     OW18061   0.972   1.675   5.359 -0.1177 -0.0096 -0.2200
 2200SOL    HW118062   0.914   1.608   5.324 -0.0986  0.3183 -0.8730
 2200SOL    HW218063   1.041   1.615   5.390  1.6449  0.6003 -2.9458
 2201SOL     OW18064   4.084   1.230   4.302 -0.2965  0.3454  0.6922
 2201SOL    HW118065   4.069   1.241   4.396 -0.1884 -0.3331  0.7907
 2201SOL    HW218066   4.173   1.265   4.301  0.5074 -1.7363 -0.1236
 2202SOL     OW18067   2.725   4.284   5.142  0.4196  0.1649  0.0405
 2202SOL    HW118068   2.718   4.312   5.051  0.2820 -1.8143 -0.5643
 2202SOL    HW218069   2.699   4.192   5.131 -2.0719  0.7830  0.8042
 2203SOL     OW18070   4.398   1.795  10.115  0.1500  0.4038 -0.5967
 2203SOL    HW118071   4.422   1.784  10.024  0.3499 -0.1270 -0.4810
 2203SOL    HW218072   4.464   1.742  10.160 -0.8158 -2.5213 -2.6663
 2204SOL     OW18073   1.639   2.566   6.670 -0.3949  0.2170  0.3118
 2204SOL    HW118074   1.706   2.520   6.720  1.7002  1.1620 -1.6349
 2204SOL    HW218075   1.698   2.622   6.619  0.9504  0.3312  1.9750
 2205SOL     OW18076   2.125   1.951  10.440 -0.3206  0.2021  0.2962
 2205SOL    HW118077   2.165   1.874  10.481 -1.8004 -0.7132  0.0286
 2205SOL    HW218078   2.052   1.958  10.503 -0.3342  1.2596  0.1624
 2206SOL     OW18079   3.290   3.233   6.827  0.1506  0.4247  0.5098
 2206SOL    HW118080   3.365   3.219   6.770 -1.4826 -1.2184 -1.2264
 2206SOL    HW218081   3.327   3.213   6.913 -0.4768  0.2521  0.7384
 2207SOL     OW18082   3.771   0.110  11.338  0.1759 -0.3661 -0.1621
 2207SOL    HW118083   3.746   0.177  11.275 -1.0131  1.1380  1.9247
 2207SOL    HW218084   3.713   0.042  11.303  0.1305 -1.8341  2.7696
 2208SOL     OW18085   0.265   0.313   9.277  0.2922 -0.2594 -0.0118
 2208SOL    HW118086   0.257   0.223   9.246  0.1694  0.6468 -2.6435
 2208SOL    HW218087   0.358   0.325   9.297  0.5146 -0.2551 -1.0351
 2209SOL     OW18088   1.158   4.063  12.530 -0.7156 -0.1054  0.0999
 2209SOL    HW118089   1.089   4.092  12.469 -0.7172 -0.4593 -0.0652
 2209SOL    HW218090   1.102   4.011  12.587 -2.5700  0.5532 -1.1044
 2210SOL     OW18091   4.219   3.168  15.147  0.4341  0.5094  0.0633
 2210SOL    HW118092   4.181   3.198  15.065  2.5344 -1.2319 -1.5291
 2210SOL    HW218093   4.304   3.129  15.127 -0.0265  0.9121 -2.6518
 2211SOL     OW18094   4.086   4.677   3.147  0.0292 -0.5578  0.2716
 2211SOL    HW118095   4.056   4.708   3.232  0.8040 -1.2363  0.7873
 2211SOL    HW218096   4.063   0.031   3.093 -0.4054 -0.4843  0.5625
 2212SOL     OW18097   0.688   1.798   5.446  0.9458 -0.5301 -0.2981
 2212SOL    HW118098   0.774   1.805   5.487 -0.0459  2.4734  1.1589
 2212SOL    HW218099   0.702   1.827   5.356 -3.6635 -0.7134 -1.0612
 2213SOL     OW18100   2.777   3.832  12.897  0.3568  0.8309 -0.4564
 2213SOL    HW118101   2.787   3.883  12.817 -0.9170 -0.6114 -1.5260
 2213SOL    HW218102   2.765   3.746  12.857  1.1920  0.1287  0.7779
 2214SOL     OW18103   0.418   4.336   4.291 -0.3439 -0.2688  0.3018
 2214SOL    HW118104   0.377   4.423   4.288  3.5659  1.5193 -1.5311
 2214SOL    HW218105   0.351   4.287   4.244  1.2726 -2.2549  0.0430
 2215SOL     OW18106   3.374   0.748  12.418 -0.3327  0.3025  0.1717
 2215SOL    HW118107   3.374   0.819  12.483 -1.1390 -0.8109  1.3970
 2215SOL    HW218108   3.446   0.693  12.450  0.0640  0.3677 -0.6144
 2216SOL     OW18109   4.198   1.223  11.642  0.3576 -0.1021  0.2611
 2216SOL    HW118110   4.279   1.275  11.645  0.6528 -0.5434  0.0686
 2216SOL    HW218111   4.187   1.218  11.547 -1.3160  0.0970  0.4472
 2217SOL     OW18112   3.756   0.978   2.971 -0.5847  0.2367 -0.4809
 2217SOL    HW118113   3.727   0.897   3.014  3.8372 -0.8199  0.5568
 2217SOL    HW218114   3.829   1.005   3.026 -1.8198  0.2401  1.1445
 2218SOL     OW18115   3.390   0.054   8.233 -0.1244  0.3621  0.2206
 2218SOL    HW118116   3.395   4.685   8.207  0.6334  0.2714  0.7108
 2218SOL    HW218117   3.396   0.090   8.144  1.2921  1.1115  0.6161
 2219SOL     OW18118   2.711   2.273   6.075 -0.3133  0.4082  0.7203
 2219SOL    HW118119   2.691   2.182   6.094 -2.3616  0.7938  0.3792
 2219SOL    HW218120   2.737   2.298   6.164 -1.1666  1.0846  0.7779
 2220SOL     OW18121   1.381   3.940   3.928 -0.1717 -1.3137 -0.6661
 2220SOL    HW118122   1.468   3.926   3.966  1.1266  0.3160 -3.0502
 2220SOL    HW218123   1.403   4.014   3.871  4.6018 -0.9101  1.6984
 2221SOL     OW18124   4.319   0.964   5.619 -0.2612  0.1084 -0.3610
 2221SOL    HW118125   4.244   0.942   5.675  0.2023 -1.4197 -0.3460
 2221SOL    HW218126   4.351   0.882   5.583  1.4591 -0.0626  1.5300
 2222SOL     OW18127   4.004   1.271   8.313  0.1899 -0.0926  0.1480
 2222SOL    HW118128   4.057   1.321   8.376 -1.8643 -0.2028  1.9882
 2222SOL    HW218129   3.921   1.302   8.350  1.4112  3.3495  0.0545
 2223SOL     OW18130   4.205   2.414   6.742 -0.0060 -0.2371  0.3060
 2223SOL    HW118131   4.275   2.447   6.798 -0.3044  0.2757  0.3728
 2223SOL    HW218132   4.242   2.326   6.732 -3.2078 -1.5364 -0.4276
 2224SOL     OW18133   0.113   0.791   4.676 -0.0885  0.2117 -0.0605
 2224SOL    HW118134   0.088   0.867   4.624  0.8614  0.2290 -0.4932
 2224SOL    HW218135   0.209   0.793   4.668 -0.1243  2.5523  0.0301
 2225SOL     OW18136   4.072   4.288  11.513 -0.0992 -0.3705 -0.1291
 2225SOL    HW118137   4.030   4.220  11.461  0.9654 -1.2231  0.1215
 2225SOL    HW218138   4.152   4.302  11.462 -0.5181  4.2562  0.4546
 2226SOL     OW18139   1.093   3.971   2.831 -0.0092 -0.2808 -0.2237
 2226SOL    HW118140   1.097   3.889   2.880  1.3872 -0.2027 -0.1909
 2226SOL    HW218141   1.058   3.945   2.746 -0.3428 -1.1327  0.1813
 2227SOL     OW18142   1.354   0.037   1.090 -0.0021  0.1148 -0.2242
 2227SOL    HW118143   1.263   0.065   1.095 -0.2730 -0.6576 -1.0723
 2227SOL    HW218144   1.392   0.124   1.079  0.7062  0.1716  2.6108
 2228SOL     OW18145   2.910   3.913   2.105  0.2954  0.0261 -0.1958
 2228SOL    HW118146   2.848   3.952   2.167  0.4387  1.1307 -0.7504
 2228SOL    HW218147   2.990   3.962   2.126  0.0930 -0.3549  1.4855
 2229SOL     OW18148   3.295   4.042   9.558 -0.3784  0.3014  0.3399
 2229SOL    HW118149   3.224   3.984   9.585 -1.4159  0.9637 -0.9351
 2229SOL    HW218150   3.262   4.073   9.473  0.9614 -1.5259 -0.8426
 2230SOL     OW18151   3.734   1.148  13.246 -0.6805  0.0447 -0.3170
 2230SOL    HW118152   3.756   1.063  13.284 -3.6310 -0.2687  0.6488
 2230SOL    HW218153   3.741   1.205  13.322  2.0405 -1.8555  0.8800
 2231SOL     OW18154   4.058   1.549   7.643  0.2586  0.3691  0.2856
 2231SOL    HW118155   4.109   1.600   7.581  3.7363 -1.9753  1.2223
 2231SOL    HW218156   4.127   1.516   7.701  1.3234  0.8231 -0.7211
 2232SOL     OW18157   3.745   0.698   2.536 -0.6242  0.0672  0.0403
 2232SOL    HW118158   3.760   0.703   2.630 -1.6643 -1.7319  0.3039
 2232SOL    HW218159   3.729   0.604   2.521 -0.3241  0.1474 -0.7822
 2233SOL     OW18160   0.489   3.615   6.727 -0.1312  0.4643 -0.1294
 2233SOL    HW118161   0.546   3.557   6.677 -1.3794  0.7390 -1.8527
 2233SOL    HW218162   0.417   3.554   6.741 -1.0336  1.9737  1.8826
 2234SOL     OW18163   4.630   0.804   2.180  0.4133  0.1058  0.5303
 2234SOL    HW118164   4.564   0.748   2.140  0.2716  0.7227 -0.0955
 2234SOL    HW218165   4.709   0.755   2.157  0.5695 -0.3746  2.1007
 2235SOL     OW18166   3.074   2.875   5.727 -0.6530  0.2506  0.3572
 2235SOL    HW118167   3.001   2.924   5.764 -2.2126 -0.0703 -2.3580
 2235SOL    HW218168   3.063   2.897   5.635  1.6356  0.1172  0.0400
 2236SOL     OW18169   4.683   3.173   1.880 -0.8091  0.3046 -0.1393
 2236SOL    HW118170   4.652   3.097   1.931 -0.3489 -0.4371 -0.9592
 2236SOL    HW218171   0.001   3.131   1.804 -1.8388  1.3039 -1.2265
 2237SOL     OW18172   0.398   1.477   7.108 -0.4746 -0.8354  0.0578
 2237SOL    HW118173   0.381   1.397   7.159  1.3847  0.0221  2.0285
 2237SOL    HW218174   0.423   1.442   7.023  0.5039 -1.4709  0.5997
 2238SOL     OW18175   4.392   2.527   2.659  0.2530  0.7471 -0.3493
 2238SOL    HW118176   4.480   2.506   2.628  0.0652 -1.8808  0.9229
 2238SOL    HW218177   4.401   2.619   2.685 -0.9230  1.3003 -1.8852
 2239SOL     OW18178   3.053   2.153   5.247 -0.3436 -0.0348 -0.0147
 2239SOL    HW118179   3.021   2.154   5.338 -0.4757 -0.1997 -0.0594
 2239SOL    HW218180   3.113   2.079   5.245  0.0962  0.2473  2.3313
 2240SOL     OW18181   3.186   2.218  10.152  0.1096 -0.1678  0.4339
 2240SOL    HW118182   3.179   2.299  10.202  0.2147  0.6765 -0.9317
 2240SOL    HW218183   3.097   2.219  10.115 -0.4459  3.0127  1.8266
 2241SOL     OW18184   2.318   3.012   0.750  0.6927 -0.0447 -0.0914
 2241SOL    HW118185   2.331   3.083   0.813  0.8932 -0.3791  0.2353
 2241SOL    HW218186   2.277   3.068   0.684 -0.8150  0.8985  1.6335
 2242SOL     OW18187   3.836   3.447  15.353 -0.5935 -0.1556  0.0679
 2242SOL    HW118188   3.768   3.389  15.387 -0.4833  2.5834  4.9795
 2242SOL    HW218189   3.916   3.406  15.386  0.2709  0.7156 -0.9066
 2243SOL     OW18190   0.925   2.991   3.998 -0.2066  1.0899  0.2366
 2243SOL    HW118191   0.885   3.070   4.035 -1.0633  0.4675  0.6244
 2243SOL    HW218192   0.919   2.994   3.903 -0.0541 -0.1647  0.1892
 2244SOL     OW18193   1.801   0.030   5.578 -0.3686  0.2261 -0.3088
 2244SOL    HW118194   1.834   0.080   5.503 -0.7108  0.2178 -0.4628
 2244SOL    HW218195   1.707   0.048   5.579 -0.9651 -2.8278  0.4147
 2245SOL     OW18196   1.075   4.588   4.009  0.5994  0.5320  0.0322
 2245SOL    HW118197   1.155   4.593   3.957  0.3788  0.2670 -0.3409
 2245SOL    HW218198   1.015   4.532   3.959 -0.1610  0.1858  1.3513
 2246SOL     OW18199   0.477   2.053   0.648 -0.0938  0.9950 -0.0188
 2246SOL    HW118200   0.518   2.122   0.701  2.0635  1.7298 -2.6268
 2246SOL    HW218201   0.533   2.071   0.573 -1.3255  1.6638 -0.7844
 2247SOL     OW18202   2.709   1.420   9.969  0.3575  0.1760  0.0783
 2247SOL    HW118203   2.677   1.385  10.052  0.0855 -2.3274 -1.1013
 2247SOL    HW218204   2.754   1.349   9.924  0.0945  0.6303 -0.9077
 2248SOL     OW18205   1.290   4.382  10.244 -0.7995  0.0163  0.0742
 2248SOL    HW118206   1.258   4.432  10.319  1.6484  1.9775 -0.1855
 2248SOL    HW218207   1.380   4.386  10.274 -0.8704  1.6444  0.0731
 2249SOL     OW18208   4.196   1.795   9.592  0.1150  0.3392 -0.4006
 2249SOL    HW118209   4.117   1.786   9.539  0.1356 -1.8272 -0.0494
 2249SOL    HW218210   4.157   1.828   9.673  1.7888  0.8947  0.1831
 2250SOL     OW18211   0.369   0.546   8.316 -0.4736  0.1271  0.2684
 2250SOL    HW118212   0.277   0.539   8.343 -0.3064  2.3217  1.3456
 2250SOL    HW218213   0.375   0.640   8.330 -1.2638 -0.1572  2.4569
 2251SOL     OW18214   4.700   2.692   2.040 -0.2667 -0.7405 -0.7866
 2251SOL    HW118215   4.702   2.697   1.944 -1.8704  2.0472 -0.6745
 2251SOL    HW218216   4.605   2.695   2.050 -0.3453 -0.0710 -1.7625
 2252SOL     OW18217   2.112   3.668  17.343  0.5965 -0.3264  0.5869
 2252SOL    HW118218   2.102   3.751  17.296 -2.6400 -1.8853 -1.4297
 2252SOL    HW218219   2.028   3.626  17.326  2.3712 -1.9153 -4.1281
 2253SOL     OW18220   4.380   4.545   8.233  0.3275  0.2434 -0.0130
 2253SOL    HW118221   4.413   4.602   8.303  0.8816  2.1450 -1.8248
 2253SOL    HW218222   4.307   4.495   8.269  0.8097 -0.7297 -0.3884
 2254SOL     OW18223   3.862   2.577   2.237 -0.1092  0.5086  0.4012
 2254SOL    HW118224   3.777   2.552   2.202 -0.3604  0.6436  0.9299
 2254SOL    HW218225   3.859   2.517   2.311  1.1890  0.2280  0.2351
 2255SOL     OW18226   3.157   2.827   8.453  0.4433 -0.3636 -0.1396
 2255SOL    HW118227   3.169   2.838   8.547 -2.4533  1.0640  0.0559
 2255SOL    HW218228   3.130   2.735   8.454  0.0255 -0.2602 -2.7405
 2256SOL     OW18229   3.900   1.093  16.422  0.0221 -0.3438 -0.5220
 2256SOL    HW118230   3.951   1.131  16.351  1.9107 -3.8903 -1.0719
 2256SOL    HW218231   3.815   1.100  16.379 -0.1404  1.2092  0.0524
 2257SOL     OW18232   2.333   3.013   4.312  0.2817  0.1726 -0.3995
 2257SOL    HW118233   2.243   3.018   4.279  0.4541  2.1407 -0.6215
 2257SOL    HW218234   2.322   3.002   4.406 -2.6516 -1.9855 -1.0008
 2258SOL     OW18235   2.422   1.889  16.165  0.2451  0.3895 -0.2897
 2258SOL    HW118236   2.468   1.809  16.194 -2.6699 -1.1535  0.0477
 2258SOL    HW218237   2.405   1.853  16.078  2.6530  1.0249 -1.0255
 2259SOL     OW18238   0.882   2.186   3.989 -0.4527  0.4303 -0.2008
 2259SOL    HW118239   0.856   2.276   3.971 -1.3898  0.2087  0.0440
 2259SOL    HW218240   0.804   2.141   3.956  1.4991 -0.5818 -3.4638
 2260SOL     OW18241   1.246   3.202  11.850 -0.3397  0.3862  0.1254
 2260SOL    HW118242   1.335   3.167  11.848 -0.3988  0.1664  1.1701
 2260SOL    HW218243   1.240   3.237  11.939 -1.1354 -1.0513  0.6425
 2261SOL     OW18244   3.884   2.050  15.158  0.3395  0.5374  0.8510
 2261SOL    HW118245   3.828   2.038  15.234  0.8700 -3.2082  0.6427
 2261SOL    HW218246   3.841   2.001  15.087 -1.8620  2.7497  0.6699
 2262SOL     OW18247   2.672   2.999   7.279 -0.4942 -0.1600 -0.1970
 2262SOL    HW118248   2.755   2.979   7.321 -0.3015  0.2563 -0.3757
 2262SOL    HW218249   2.665   2.926   7.218  2.8472 -1.4310  0.9893
 2263SOL     OW18250   2.677   4.149   7.252  0.0919  0.4227  0.5832
 2263SOL    HW118251   2.619   4.223   7.265 -0.5821 -0.2243  1.2478
 2263SOL    HW218252   2.616   4.091   7.205  0.7002  0.5305 -0.3456
 2264SOL     OW18253   2.465   0.156   5.592  0.2022 -0.0236 -0.2513
 2264SOL    HW118254   2.519   0.137   5.515 -2.2314  0.7576 -2.1332
 2264SOL    HW218255   2.401   0.217   5.556  1.6346  0.0413 -2.6973
 2265SOL     OW18256   2.547   3.385   1.479  0.0768  0.5020  0.4141
 2265SOL    HW118257   2.495   3.319   1.526 -1.2097  0.9247 -0.4176
 2265SOL    HW218258   2.478   3.435   1.436  0.6226  0.7057 -0.2149
 2266SOL     OW18259   0.981   1.274  11.034  0.4917  0.1206  0.3624
 2266SOL    HW118260   1.074   1.253  11.034  0.2374 -1.0252 -0.3506
 2266SOL    HW218261   0.964   1.284  10.940  0.6760 -0.0196  0.3153
 2267SOL     OW18262   1.107   2.726  12.784  0.1258  0.2595  0.1565
 2267SOL    HW118263   1.076   2.638  12.765  1.1283 -0.2696  0.9598
 2267SOL    HW218264   1.165   2.735  12.708  0.2957  1.1199  0.3864
 2268SOL     OW18265   3.148   4.591   5.896  0.2720 -0.1554 -0.2654
 2268SOL    HW118266   3.090   4.533   5.847 -0.2493 -2.2549  2.8286
 2268SOL    HW218267   3.145   4.550   5.983 -2.6933  0.4868 -0.0536
 2269SOL     OW18268   1.837   3.708   3.763  0.4827  0.0108 -0.1267
 2269SOL    HW118269   1.815   3.798   3.784  0.0111 -0.5192  1.6497
 2269SOL    HW218270   1.912   3.714   3.703 -0.5323  2.7252 -1.1232
 2270SOL     OW18271   0.297   0.912   4.355 -0.1571  0.4871 -0.3948
 2270SOL    HW118272   0.259   0.998   4.369 -0.4463  0.5705 -1.6820
 2270SOL    HW218273   0.380   0.936   4.313  0.0565  0.5398  0.0622
 2271SOL     OW18274   4.042   2.659   2.019  0.4746  0.8533 -0.1394
 2271SOL    HW118275   4.072   2.749   2.032  2.5853 -0.2539  2.4236
 2271SOL    HW218276   3.993   2.638   2.098 -1.1289 -1.1305 -1.6584
 2272SOL     OW18277   4.340   2.706   9.045  0.6829  0.1197  0.1225
 2272SOL    HW118278   4.377   2.747   9.123 -0.4755 -0.9228  1.2131
 2272SOL    HW218279   4.257   2.672   9.078 -0.1492  2.6945  0.7124
 2273SOL     OW18280   4.569   1.434   5.341  0.1778 -0.5050 -0.0447
 2273SOL    HW118281   4.481   1.446   5.376  0.0210 -2.4165  0.1976
 2273SOL    HW218282   4.548   1.455   5.250 -1.8948 -0.2403  0.4961
 2274SOL     OW18283   2.301   1.776  10.572 -0.0700  0.2108  0.1889
 2274SOL    HW118284   2.332   1.700  10.522  3.3225  1.3295  0.6041
 2274SOL    HW218285   2.369   1.842  10.558 -1.1682  0.8140 -2.4151
 2275SOL     OW18286   0.133   2.108   6.469 -0.6751  0.0585  0.4948
 2275SOL    HW118287   0.082   2.039   6.427  1.8652 -1.6872  0.2820
 2275SOL    HW218288   0.185   2.059   6.534  0.3653  0.9779  0.3551
 2276SOL     OW18289   2.818   4.662   5.443 -0.1235 -0.2430 -0.0317
 2276SOL    HW118290   2.911   4.651   5.464 -0.2393  0.5523  0.9425
 2276SOL    HW218291   2.792   4.571   5.455  0.3297  0.0516  3.4024
 2277SOL     OW18292   3.314   2.324   3.789 -0.2725  0.2589 -0.0206
 2277SOL    HW118293   3.374   2.316   3.715  2.2412  0.4964  2.0199
 2277SOL    HW218294   3.343   2.408   3.824 -1.6963  0.6862  0.1401
 2278SOL     OW18295   3.749   1.571   4.892 -0.0647 -0.3188  0.4762
 2278SOL    HW118296   3.720   1.588   4.802  2.6495 -0.3503 -0.3931
 2278SOL    HW218297   3.843   1.588   4.893  0.5228 -3.4459 -1.7083
 2279SOL     OW18298   3.584   4.037   3.839  0.6281  0.0684  0.5250
 2279SOL    HW118299   3.672   4.007   3.820  0.1852  1.4760 -3.7003
 2279SOL    HW218300   3.551   4.057   3.751  1.5126 -0.9229 -0.0249
 2280SOL     OW18301   4.712   1.366  10.854  0.2885 -0.7604  0.1047
 2280SOL    HW118302   0.028   1.409  10.778  0.4930 -0.5864  0.3089
 2280SOL    HW218303   0.069   1.343  10.902 -0.6142 -2.7012  0.7021
 2281SOL     OW18304   3.189   2.996   3.776 -0.1324 -0.7501  0.5518
 2281SOL    HW118305   3.181   3.091   3.776  1.7602 -0.5651 -1.4374
 2281SOL    HW218306   3.271   2.986   3.824  1.3838  1.1225 -1.6256
 2282SOL     OW18307   0.062   2.405  17.548  0.2719  0.8498 -0.0504
 2282SOL    HW118308   0.053   2.318  17.511  0.3956  0.5952  0.5267
 2282SOL    HW218309   0.023   2.391  17.634  0.8988 -0.8274 -0.0557
 2283SOL     OW18310   2.764   2.927   6.683  0.4164 -0.7190 -0.1802
 2283SOL    HW118311   2.704   2.990   6.642 -0.5477 -0.1502  2.1389
 2283SOL    HW218312   2.824   2.985   6.729  1.3439 -0.4709 -1.7025
 2284SOL     OW18313   2.927   2.781   8.662  0.3022  0.6419  0.1036
 2284SOL    HW118314   3.016   2.771   8.696 -0.0582 -1.1146  0.5707
 2284SOL    HW218315   2.886   2.698   8.688  2.6146 -0.0161  1.6304
 2285SOL     OW18316   1.894   3.424  15.816 -0.2321  0.0045 -0.3070
 2285SOL    HW118317   1.859   3.485  15.751  0.4411  1.0649  0.3173
 2285SOL    HW218318   1.903   3.490  15.885  2.3529 -2.1101  1.3611
 2286SOL     OW18319   3.668   2.361  13.592 -0.2251 -0.1649  0.2040
 2286SOL    HW118320   3.618   2.351  13.673 -0.9236  0.3410 -0.1665
 2286SOL    HW218321   3.732   2.290  13.595 -0.5999 -0.4398  2.1815
 2287SOL     OW18322   2.450   4.341   3.901  0.1581 -0.3272  0.3540
 2287SOL    HW118323   2.376   4.396   3.875  0.0521 -0.8347 -0.4165
 2287SOL    HW218324   2.495   4.401   3.961 -0.9899 -0.2851  1.1781
 2288SOL     OW18325   0.662   4.420  12.172 -0.1424  0.4940 -0.0924
 2288SOL    HW118326   0.701   4.470  12.101 -2.6271  1.9802 -0.3948
 2288SOL    HW218327   0.732   4.424  12.238 -0.9460 -1.4572  0.8626
 2289SOL     OW18328   3.336   1.788   4.912 -0.3468 -0.4934  0.1383
 2289SOL    HW118329   3.412   1.768   4.966 -1.8643 -1.6845  1.8021
 2289SOL    HW218330   3.327   1.715   4.851 -0.1842 -1.1035  0.8623
 2290SOL     OW18331   0.044   3.338   9.150 -0.1159  0.1546 -0.2968
 2290SOL    HW118332   0.055   3.392   9.229 -1.0033 -1.0684  0.6633
 2290SOL    HW218333   0.134   3.314   9.130 -0.6881 -1.4398 -0.9565
 2291SOL     OW18334   1.683   0.077   2.611 -0.1586 -0.1853  0.1713
 2291SOL    HW118335   1.677   0.118   2.525  1.9576 -0.7836 -0.2546
 2291SOL    HW218336   1.740   0.003   2.589  0.7779  0.5595  0.0822
 2292SOL     OW18337   2.126   4.075   5.307  0.3981 -0.5092  0.0344
 2292SOL    HW118338   2.170   4.047   5.227 -2.8088 -3.6347 -0.6673
 2292SOL    HW218339   2.134   4.170   5.301  0.1126 -0.5525 -1.0538
 2293SOL     OW18340   3.180   2.713   9.410 -0.2751 -0.0650  0.1283
 2293SOL    HW118341   3.110   2.777   9.393  0.5552  1.0158  0.7585
 2293SOL    HW218342   3.252   2.763   9.371 -0.8054  1.2222  0.8033
 2294SOL     OW18343   3.587   4.634  11.286 -0.6578  0.2291 -0.0543
 2294SOL    HW118344   3.632   4.555  11.316  2.0528  1.2965 -1.3549
 2294SOL    HW218345   3.521   4.663  11.349 -0.5556 -2.5378  1.3131
 2295SOL     OW18346   0.820   1.981   3.042 -0.4300  0.1123 -0.2605
 2295SOL    HW118347   0.899   2.018   3.083 -0.9204  1.3017 -0.3904
 2295SOL    HW218348   0.850   1.892   3.024 -0.4199 -0.3942  2.2062
 2296SOL     OW18349   3.480   0.911   4.471 -0.5801  0.4891  0.3355
 2296SOL    HW118350   3.517   0.912   4.383 -1.5525  1.3693 -0.0624
 2296SOL    HW218351   3.554   0.921   4.531 -0.0250  1.9459 -0.5832
 2297SOL     OW18352   3.593   0.035  10.062  0.6872 -0.0334 -0.2768
 2297SOL    HW118353   3.621   4.670  10.087 -2.1565 -0.9901 -0.5257
 2297SOL    HW218354   3.498   0.031  10.064  0.6598  0.0352 -1.7214
 2298SOL     OW18355   3.305   2.101   2.473  0.4809  0.7444  0.3314
 2298SOL    HW118356   3.347   2.016   2.456 -0.4170  0.1839  0.9295
 2298SOL    HW218357   3.380   2.159   2.463  0.4359  0.7632  0.0982
 2299SOL     OW18358   4.272   1.802   3.760  0.6418 -0.5331  0.4496
 2299SOL    HW118359   4.182   1.831   3.748  0.8887 -0.3007 -0.8411
 2299SOL    HW218360   4.301   1.753   3.683 -3.4926 -2.2135 -0.0411
 2300SOL     OW18361   4.046   3.225   2.430 -0.4808  0.7766 -0.5816
 2300SOL    HW118362   4.103   3.175   2.372 -1.8643  0.4235 -1.6384
 2300SOL    HW218363   4.038   3.159   2.499  0.1436  2.9824  1.5944
 2301SOL     OW18364   0.363   0.093   6.121 -0.2227  0.2558  0.0797
 2301SOL    HW118365   0.345   0.015   6.069 -0.5873 -0.3539  1.1196
 2301SOL    HW218366   0.310   0.076   6.199  0.2867  3.1280  1.0612
 2302SOL     OW18367   4.326   3.894   4.083  0.4364 -0.7794  0.2584
 2302SOL    HW118368   4.405   3.893   4.137 -0.7226 -0.5567  1.9350
 2302SOL    HW218369   4.361   3.840   4.012 -0.8996  0.6014 -1.4823
 2303SOL     OW18370   2.663   1.205  17.438 -0.2820 -0.1663  0.3633
 2303SOL    HW118371   2.602   1.212  17.512 -0.2544  2.8784  0.0872
 2303SOL    HW218372   2.668   1.110  17.436 -2.2585 -0.3133  1.8371
 2304SOL     OW18373   2.697   2.084   6.771 -0.8267 -0.3418 -0.1602
 2304SOL    HW118374   2.683   1.993   6.799 -0.6513  0.3960  2.3044
 2304SOL    HW218375   2.606   2.111   6.787 -0.8789  0.1813 -1.3198
 2305SOL     OW18376   2.527   3.735  13.549  0.0407  0.0023  0.2015
 2305SOL    HW118377   2.610   3.771  13.581  0.0979 -0.6234  0.7540
 2305SOL    HW218378   2.492   3.819  13.517  0.3833  0.4414  0.9803
 2306SOL     OW18379   4.454   2.838  12.521 -0.2281 -0.1915 -0.1822
 2306SOL    HW118380   4.394   2.836  12.446 -1.7572  0.1255  1.0475
 2306SOL    HW218381   4.399   2.835  12.599 -0.1337  1.4426 -0.0643
 2307SOL     OW18382   2.352   1.167   6.334 -0.0089 -0.2013 -0.2669
 2307SOL    HW118383   2.295   1.234   6.297 -2.3392 -0.7817  2.2991
 2307SOL    HW218384   2.340   1.180   6.428  1.2119 -0.6451 -0.0598
 2308SOL     OW18385   1.403   4.721   3.401  0.1777  0.8414  0.4273
 2308SOL    HW118386   1.440   0.067   3.346  1.4686 -0.0549  0.1765
 2308SOL    HW218387   1.312   0.009   3.375 -0.2034  1.6926  2.1366
 2309SOL     OW18388   1.483   2.145   4.039  0.7330 -0.1852 -0.6176
 2309SOL    HW118389   1.412   2.138   4.103 -0.3938 -0.3348 -1.8903
 2309SOL    HW218390   1.502   2.239   4.039 -1.2227  0.2225  1.9570
 2310SOL     OW18391   0.867   3.570   1.347  0.4255  0.1328  0.1151
 2310SOL    HW118392   0.932   3.504   1.372  1.1837  0.6708 -0.4310
 2310SOL    HW218393   0.796   3.532   1.397  2.0317  0.6333  2.7974
 2311SOL     OW18394   3.982   0.385   9.349  0.3683  0.1628  0.4890
 2311SOL    HW118395   4.025   0.471   9.351 -0.4915  0.6459 -1.3685
 2311SOL    HW218396   3.934   0.386   9.432 -0.4762  0.3884 -0.0010
 2312SOL     OW18397   1.010   1.380   6.106 -0.0615  0.3718 -0.0090
 2312SOL    HW118398   1.053   1.334   6.178 -2.4792 -2.4046 -0.3097
 2312SOL    HW218399   1.076   1.378   6.036  0.7974  2.1888  0.7460
 2313SOL     OW18400   1.686   1.959   3.087  0.2428 -0.0023 -0.1732
 2313SOL    HW118401   1.656   1.917   3.007  2.4545  3.7165 -2.8991
 2313SOL    HW218402   1.668   1.885   3.145 -0.3655 -1.9611 -2.8797
 2314SOL     OW18403   0.657   1.831   6.197 -0.4060  0.0362 -0.6187
 2314SOL    HW118404   0.729   1.855   6.139  0.7806 -2.9664 -0.4116
 2314SOL    HW218405   0.683   1.748   6.236  2.6889  1.0619 -0.4891
 2315SOL     OW18406   1.657   0.273   8.274 -0.6790 -0.2461  0.3658
 2315SOL    HW118407   1.595   0.345   8.274  0.8417  1.0621 -1.1430
 2315SOL    HW218408   1.734   0.302   8.225  0.2487 -1.9323  0.8129
 2316SOL     OW18409   1.688   2.142  17.309 -0.0305  0.4137  0.2899
 2316SOL    HW118410   1.671   2.186  17.391 -4.2885 -0.8161  0.0394
 2316SOL    HW218411   1.674   2.052  17.339 -0.5030  1.0835  2.0799
 2317SOL     OW18412   3.759   4.167   2.602 -0.7564  0.1338 -0.2201
 2317SOL    HW118413   3.796   4.079   2.612  1.6307  1.1029 -0.4200
 2317SOL    HW218414   3.830   4.217   2.642 -1.8719 -1.0409  3.2084
 2318SOL     OW18415   0.184   3.150   6.165 -0.5042  0.2153  0.1920
 2318SOL    HW118416   0.187   3.146   6.070  0.2464  0.2408  0.2175
 2318SOL    HW218417   0.211   3.063   6.193  0.6125  0.1843 -1.0139
 2319SOL     OW18418   0.258   0.404  15.883  0.6998  0.3815 -0.1102
 2319SOL    HW118419   0.228   0.456  15.958  2.1710  1.2331 -0.1075
 2319SOL    HW218420   0.325   0.458  15.840  0.9349  0.7196  0.6771
 2320SOL     OW18421   4.215   2.336  17.681 -0.0539  0.0348  0.2789
 2320SOL    HW118422   4.193   2.424  17.649  1.7787 -0.1054 -1.4167
 2320SOL    HW218423   4.196   2.290  17.599 -0.3534 -0.4571  0.6282
 2321SOL     OW18424   1.924   3.068   5.166 -0.3282  0.1741  0.7701
 2321SOL    HW118425   1.894   2.984   5.201 -1.5831  1.4392  2.7020
 2321SOL    HW218426   1.909   3.048   5.073 -0.7447 -0.8819  1.0634
 2322SOL     OW18427   1.744   4.060   2.305  0.0012  0.4840 -0.1111
 2322SOL    HW118428   1.663   4.049   2.356  0.0618 -0.4990 -0.2174
 2322SOL    HW218429   1.752   3.964   2.301 -3.9493  0.0198  2.1046
 2323SOL     OW18430   2.897   0.817   6.359 -0.1447  0.6598 -0.4578
 2323SOL    HW118431   2.883   0.822   6.454 -0.3659 -0.8458 -0.4145
 2323SOL    HW218432   2.863   0.903   6.334  1.7663  0.9873 -1.9443
 2324SOL     OW18433   4.314   1.310   0.569  0.0967  0.2292  0.0102
 2324SOL    HW118434   4.359   1.229   0.594 -0.6158 -0.2889 -0.3745
 2324SOL    HW218435   4.371   1.377   0.606  0.4858  0.3543 -0.8088
 2325SOL     OW18436   3.542   4.236  17.312 -0.4602  0.2647  0.0542
 2325SOL    HW118437   3.565   4.328  17.298 -0.7156 -0.1190 -3.0881
 2325SOL    HW218438   3.612   4.227  17.376 -0.1010  0.0367 -0.3704
 2326SOL     OW18439   2.004   0.884   5.605 -0.1023  0.6069 -0.2897
 2326SOL    HW118440   1.996   0.876   5.510 -0.1992  1.1357 -0.3273
 2326SOL    HW218441   1.996   0.980   5.604  0.1103  0.6158 -1.2071
 2327SOL     OW18442   2.269   3.350   4.282  0.4058 -0.3437  0.2560
 2327SOL    HW118443   2.353   3.313   4.253  1.5146  1.8561  0.6189
 2327SOL    HW218444   2.246   3.388   4.198 -0.0418  0.3309  0.6876
 2328SOL     OW18445   3.994   3.933   8.020  0.8511  0.8027  0.3384
 2328SOL    HW118446   4.050   3.899   7.950  0.2185  1.0934 -0.3173
 2328SOL    HW218447   4.048   4.008   8.045 -0.5039  2.3108 -1.1748
 2329SOL     OW18448   2.342   1.109   2.635  0.2389 -0.8386 -0.2126
 2329SOL    HW118449   2.326   1.203   2.626  1.3786 -0.4680  1.7895
 2329SOL    HW218450   2.362   1.096   2.542  0.5061 -0.9144 -0.1458
 2330SOL     OW18451   4.289   3.722  12.184 -0.0185 -0.3048 -0.1302
 2330SOL    HW118452   4.196   3.744  12.185  0.0009 -0.2308  0.0435
 2330SOL    HW218453   4.287   3.639  12.232 -0.5698 -0.7430 -0.9063
 2331SOL     OW18454   2.421   0.283  10.908 -0.4245  0.0674  0.0825
 2331SOL    HW118455   2.338   0.256  10.947 -1.8339  3.8384 -0.2719
 2331SOL    HW218456   2.486   0.262  10.975  0.2615 -4.2403 -1.9553
 2332SOL     OW18457   2.964   4.392  12.692 -0.3842  0.3477  0.9387
 2332SOL    HW118458   2.921   4.377  12.776 -0.0368  1.2456  1.2718
 2332SOL    HW218459   3.037   4.448  12.718 -0.9858  1.1307  0.9433
 2333SOL     OW18460   4.170   4.253   2.415  0.1856 -0.2332 -0.4268
 2333SOL    HW118461   4.230   4.224   2.484 -0.6011 -2.3322 -0.6307
 2333SOL    HW218462   4.134   4.167   2.396 -0.1856 -0.3804  0.9542
 2334SOL     OW18463   2.677   4.263   6.823 -0.0885 -0.1042  0.2592
 2334SOL    HW118464   2.652   4.322   6.752 -1.2161 -0.2793  0.5070
 2334SOL    HW218465   2.716   4.329   6.881  0.0981  0.8818 -0.9981
 2335SOL     OW18466   4.025   3.147   3.257  0.3858  0.0283 -0.5384
 2335SOL    HW118467   4.011   3.135   3.163  2.6506 -1.0669 -0.7368
 2335SOL    HW218468   4.020   3.243   3.251 -1.3101 -0.0105  0.3036
 2336SOL     OW18469   3.986   1.217   8.021  0.6527  0.0494  0.6926
 2336SOL    HW118470   4.051   1.154   7.990  0.0763  0.9039 -2.2778
 2336SOL    HW218471   4.025   1.245   8.103  0.5182  0.4872  0.6029
 2337SOL     OW18472   3.335   1.515   4.687 -0.1804  0.2482 -0.0265
 2337SOL    HW118473   3.381   1.576   4.630 -2.2261  0.4899 -1.4446
 2337SOL    HW218474   3.325   1.437   4.632  0.3202 -0.0914  0.3670
 2338SOL     OW18475   3.039   4.403   4.934 -0.2634  0.0120  0.2119
 2338SOL    HW118476   3.061   4.310   4.941  1.8320  0.6627  2.2512
 2338SOL    HW218477   2.998   4.430   5.016  1.4699 -0.5914  1.2917
 2339SOL     OW18478   2.827   2.007   4.873 -0.1944  0.2845 -0.3966
 2339SOL    HW118479   2.916   2.000   4.908 -0.7425 -0.0517  0.9238
 2339SOL    HW218480   2.827   2.102   4.860 -1.7467  0.6728  2.4636
 2340SOL     OW18481   3.900   1.082   2.545 -0.0338  0.1038 -0.1247
 2340SOL    HW118482   3.856   1.052   2.466 -0.8688  0.4694  0.2070
 2340SOL    HW218483   3.829   1.097   2.607  0.7442  1.3842  0.4768
 2341SOL     OW18484   4.602   3.139   8.187 -0.9264 -0.3894 -0.0192
 2341SOL    HW118485   4.672   3.091   8.230 -1.3466  0.4167  1.5422
 2341SOL    HW218486   4.569   3.181   8.266  0.3853  0.9572 -0.1990
 2342SOL     OW18487   3.609   4.596   4.909  0.1081  0.2380  0.1044
 2342SOL    HW118488   3.682   4.575   4.968 -1.4875  1.5878  2.5480
 2342SOL    HW218489   3.610   4.691   4.909 -1.2201  0.2491  1.4716
 2343SOL     OW18490   3.194   1.828  15.344  0.3933  0.1849  0.7017
 2343SOL    HW118491   3.162   1.743  15.374 -1.8875  0.7411 -0.1933
 2343SOL    HW218492   3.115   1.869  15.308  0.4279 -0.7501 -0.4319
 2344SOL     OW18493   4.004   2.048   4.005 -0.1059 -0.1562  0.1748
 2344SOL    HW118494   4.083   1.995   4.002  0.4454  0.6413  0.7273
 2344SOL    HW218495   4.044   2.123   4.048 -0.8404  0.5548 -0.3761
 2345SOL     OW18496   2.563   4.207   9.257  0.0892  0.2940 -0.4461
 2345SOL    HW118497   2.484   4.251   9.287 -0.9205 -1.5405 -0.3582
 2345SOL    HW218498   2.522   4.152   9.190 -0.1191  0.9110 -0.8168
 2346SOL     OW18499   2.784   2.742   9.807  0.2600 -0.4735  0.3969
 2346SOL    HW118500   2.829   2.811   9.856 -0.1629 -1.5100  2.2652
 2346SOL    HW218501   2.731   2.797   9.750 -0.2099 -1.0675  0.2555
 2347SOL     OW18502   1.097   3.400   8.637 -0.1153 -0.6135 -0.1256
 2347SOL    HW118503   1.166   3.346   8.677  0.5350  0.1266 -0.2524
 2347SOL    HW218504   1.027   3.413   8.700  0.6051 -0.7182  0.6909
 2348SOL     OW18505   2.784   0.595   2.108  0.1112 -0.5689 -0.0697
 2348SOL    HW118506   2.866   0.644   2.102  0.6624 -1.2042  2.1602
 2348SOL    HW218507   2.747   0.642   2.183 -0.6592  0.9937 -1.4228
 2349SOL     OW18508   3.329   3.977   7.114  0.8709  0.3849 -0.0012
 2349SOL    HW118509   3.302   4.028   7.037  2.8475 -0.6619 -1.3958
 2349SOL    HW218510   3.252   3.973   7.170  0.4977 -1.7533 -0.6922
 2350SOL     OW18511   2.405   3.433   3.413 -0.0034  0.2739 -0.4553
 2350SOL    HW118512   2.455   3.370   3.465  1.2389 -0.9428 -3.1186
 2350SOL    HW218513   2.460   3.431   3.335 -0.7027  0.7459 -0.9660
 2351SOL     OW18514   2.795   2.231   0.078  0.1758 -0.4995 -0.4242
 2351SOL    HW118515   2.774   2.312   0.124  1.1387 -0.5693  0.1223
 2351SOL    HW218516   2.805   2.262  17.681  3.4639  2.4300  0.9342
 2352SOL     OW18517   1.807   2.490   8.242 -0.5959  0.4547  0.0358
 2352SOL    HW118518   1.892   2.529   8.222  0.3162 -1.3138  0.4865
 2352SOL    HW218519   1.759   2.498   8.159 -2.6654 -3.3865  0.8258
 2353SOL     OW18520   0.519   4.627   4.426 -0.4824 -0.0309 -0.5984
 2353SOL    HW118521   0.534   4.721   4.429  2.0665 -0.4543  0.0790
 2353SOL    HW218522   0.440   4.614   4.372  0.8318 -1.3305 -2.2264
 2354SOL     OW18523   0.315   3.594   2.562 -0.1287  0.6044 -0.3898
 2354SOL    HW118524   0.351   3.663   2.507  1.6307  0.1972  0.2207
 2354SOL    HW218525   0.224   3.606   2.538 -0.4988  1.0599  1.2184
 2355SOL     OW18526   2.018   2.515   5.099  0.4533  0.5969  0.0143
 2355SOL    HW118527   1.930   2.479   5.085  0.1162  1.5210 -0.2087
 2355SOL    HW218528   2.070   2.471   5.031 -1.7112 -0.6632 -0.8195
 2356SOL     OW18529   0.437   1.201   2.886 -0.3941 -0.5230 -0.2338
 2356SOL    HW118530   0.440   1.142   2.811 -0.6842 -0.7125 -0.0986
 2356SOL    HW218531   0.497   1.154   2.944  0.5116 -2.5975 -2.8387
 2357SOL     OW18532   1.535   4.345   7.544  0.0429 -0.0880  0.3928
 2357SOL    HW118533   1.551   4.436   7.569  1.4420 -0.0006 -0.8202
 2357SOL    HW218534   1.622   4.306   7.548 -0.3337 -1.0552 -0.6526
 2358SOL     OW18535   3.265   1.270  14.010  0.3535  0.3048  0.1909
 2358SOL    HW118536   3.236   1.181  13.993  1.2326  0.3776 -1.6208
 2358SOL    HW218537   3.220   1.313  13.937 -0.2740 -0.7448 -0.0260
 2359SOL     OW18538   4.247   4.608   9.150 -0.1145  0.3182 -0.0916
 2359SOL    HW118539   4.235   4.701   9.128 -1.2474  0.1444 -0.2002
 2359SOL    HW218540   4.338   4.599   9.122 -0.0979  2.4695 -0.8091
 2360SOL     OW18541   2.534   3.192   4.300  0.0053  0.4655  0.1926
 2360SOL    HW118542   2.474   3.118   4.311 -0.0511  0.7227  1.7270
 2360SOL    HW218543   2.609   3.139   4.275 -1.0149 -1.3040  0.9130
 2361SOL     OW18544   0.861   2.253  15.469  0.6041  0.0691 -0.1075
 2361SOL    HW118545   0.872   2.193  15.543 -1.1846  0.3232  0.3613
 2361SOL    HW218546   0.768   2.264  15.483  1.1950  1.6893  2.4192
 2362SOL     OW18547   2.887   1.925   7.152 -0.3319 -0.1625 -0.0266
 2362SOL    HW118548   2.926   1.997   7.103 -1.0628 -0.8696 -1.6530
 2362SOL    HW218549   2.810   1.973   7.182 -0.2265  0.6712 -1.1097
 2363SOL     OW18550   2.502   0.808   2.633 -0.2078  0.2036 -0.0170
 2363SOL    HW118551   2.538   0.775   2.550  1.8083  0.2763  0.8427
 2363SOL    HW218552   2.571   0.871   2.652  1.0560 -0.8195 -1.1969
 2364SOL     OW18553   3.264   2.639   7.994 -0.0689 -0.5149  0.2626
 2364SOL    HW118554   3.265   2.674   8.083  0.2526  0.9684 -0.3198
 2364SOL    HW218555   3.318   2.560   7.999  1.3462  0.4687  0.6185
 2365SOL     OW18556   1.357   1.768  11.737  0.9049 -0.1332 -0.3100
 2365SOL    HW118557   1.390   1.756  11.648 -0.0598  0.5444 -0.7554
 2365SOL    HW218558   1.319   1.681  11.745 -0.5872  0.4124 -1.4384
 2366SOL     OW18559   1.750   2.488   4.498 -0.6501  0.1216 -0.7454
 2366SOL    HW118560   1.761   2.475   4.404 -3.2451  0.3352 -1.0660
 2366SOL    HW218561   1.842   2.481   4.526 -0.9565  1.1072  0.5231
 2367SOL     OW18562   3.005   4.620   7.213  0.1556  0.3694 -0.6030
 2367SOL    HW118563   3.039   4.670   7.139  1.3806 -0.1433 -0.3914
 2367SOL    HW218564   3.062   4.543   7.213 -1.3364 -0.7383  1.3026
 2368SOL     OW18565   3.682   0.507   3.115 -0.6107  0.1165  0.7473
 2368SOL    HW118566   3.751   0.551   3.065 -1.7998  1.7704  0.5381
 2368SOL    HW218567   3.643   0.454   3.046 -1.1755 -0.0863  1.2232
 2369SOL     OW18568   1.294   1.593   4.048  0.1248 -0.1018  0.3850
 2369SOL    HW118569   1.223   1.634   4.098  0.2659 -0.3506  0.7912
 2369SOL    HW218570   1.235   1.537   3.997 -1.7747  0.3436  2.1003
 2370SOL     OW18571   4.363   1.896   1.209 -0.3073  0.5040  0.0285
 2370SOL    HW118572   4.441   1.950   1.201 -1.9345  2.7593 -0.7711
 2370SOL    HW218573   4.387   1.828   1.146 -1.3875 -0.1126  0.2813
 2371SOL     OW18574   1.894   2.373  14.865 -0.6647 -0.4659 -0.1973
 2371SOL    HW118575   1.917   2.403  14.777  0.6706 -0.4188  0.1656
 2371SOL    HW218576   1.874   2.457  14.908 -0.3715 -0.9303  0.8359
 2372SOL     OW18577   2.749   0.317   3.758  0.1679 -0.3015  0.3065
 2372SOL    HW118578   2.776   0.360   3.676  0.7975 -1.9451 -0.3492
 2372SOL    HW218579   2.654   0.311   3.753 -0.0490  3.0737  0.5122
 2373SOL     OW18580   0.540   3.496   3.751  0.5973  0.1431  0.8254
 2373SOL    HW118581   0.495   3.510   3.668  3.1044  0.0423 -0.5475
 2373SOL    HW218582   0.581   3.411   3.738  3.7867  1.8092 -0.0563
 2374SOL     OW18583   3.836   2.849   8.839 -0.0567 -0.4533 -0.0259
 2374SOL    HW118584   3.863   2.861   8.748  0.7482 -0.1457  0.2527
 2374SOL    HW218585   3.834   2.939   8.872  1.0375 -0.9105  1.2934
 2375SOL     OW18586   3.969   0.895   4.665 -0.2447 -0.5449  0.0903
 2375SOL    HW118587   4.006   0.863   4.748  0.7793  0.8688  0.1780
 2375SOL    HW218588   4.014   0.839   4.602 -0.1123 -0.3832  0.0419
 2376SOL     OW18589   1.620   3.874   4.391  0.0907  0.3945  0.5300
 2376SOL    HW118590   1.648   3.826   4.469 -1.3342 -1.2778  0.0297
 2376SOL    HW218591   1.569   3.804   4.350 -0.1670  0.7180  0.2924
 2377SOL     OW18592   4.572   1.877  15.545 -0.5170 -0.2299  0.3434
 2377SOL    HW118593   4.634   1.814  15.582 -1.3737 -0.3446  1.5894
 2377SOL    HW218594   4.631   1.951  15.529 -1.0376  0.1845  0.3385
 2378SOL     OW18595   1.421   1.129   6.498  0.3291  0.5069  0.4744
 2378SOL    HW118596   1.346   1.186   6.516 -0.2736 -0.1017 -0.1359
 2378SOL    HW218597   1.413   1.107   6.406  0.9059  0.8054  0.3527
 2379SOL     OW18598   2.010   2.385  13.377 -0.7652 -0.1390  0.2055
 2379SOL    HW118599   2.041   2.448  13.313 -1.0518 -0.8980 -0.6928
 2379SOL    HW218600   1.926   2.420  13.406 -0.2069  1.7470 -0.4761
 2380SOL     OW18601   2.536   1.663  16.120 -0.3370  0.1972 -0.0598
 2380SOL    HW118602   2.441   1.657  16.114 -0.3144 -1.5691  1.6388
 2380SOL    HW218603   2.549   1.597  16.188 -1.7610 -0.0856 -0.0781
 2381SOL     OW18604   2.638   2.982   4.640  0.3085  0.3480  0.1998
 2381SOL    HW118605   2.661   2.905   4.691  1.1041  0.2270 -0.3339
 2381SOL    HW218606   2.685   2.964   4.559 -2.2291 -0.7156 -1.0532
 2382SOL     OW18607   1.076   2.048   3.130 -0.2557 -0.1242  0.0053
 2382SOL    HW118608   1.109   2.071   3.217  1.0500  1.2763 -0.8718
 2382SOL    HW218609   1.156   2.010   3.093 -1.2478 -1.8862 -0.3241
 2383SOL     OW18610   1.152   0.854  17.136 -0.0938 -0.2332 -0.4974
 2383SOL    HW118611   1.078   0.914  17.128  0.4290  0.7439  1.9652
 2383SOL    HW218612   1.113   0.771  17.108  0.5144 -0.7941  0.3265
 2384SOL     OW18613   1.627   2.768  16.172 -0.1988 -0.0790 -0.5627
 2384SOL    HW118614   1.593   2.722  16.095 -1.8017  1.9666 -1.0844
 2384SOL    HW218615   1.544   2.802  16.206 -0.3878  0.9056 -2.0138
 2385SOL     OW18616   1.648   1.568   1.519  0.0457 -0.1543 -0.7062
 2385SOL    HW118617   1.718   1.621   1.479  0.4574  1.7670  2.5798
 2385SOL    HW218618   1.565   1.608   1.494  0.1812  0.6255  0.0952
 2386SOL     OW18619   2.767   1.420   0.304  0.9022 -0.4166  0.3897
 2386SOL    HW118620   2.691   1.462   0.343  0.0274 -0.9440 -0.7358
 2386SOL    HW218621   2.757   1.332   0.338 -1.0025  0.1341  1.2189
 2387SOL     OW18622   2.440   2.006   3.976 -0.3962 -0.0086  0.2462
 2387SOL    HW118623   2.510   1.989   4.039  0.1223 -0.4979 -0.4694
 2387SOL    HW218624   2.449   1.925   3.926 -0.5062  1.7910 -2.6888
 2388SOL     OW18625   3.283   2.051  16.280  0.4333  0.5829 -0.1648
 2388SOL    HW118626   3.264   1.964  16.315  1.6889  0.6828  0.7595
 2388SOL    HW218627   3.372   2.044  16.247 -0.1049 -2.3349 -1.0354
 2389SOL     OW18628   2.462   3.593   0.442  0.4170  0.1156 -0.5731
 2389SOL    HW118629   2.507   3.635   0.516  0.4935  0.5488 -0.8651
 2389SOL    HW218630   2.402   3.663   0.418 -1.9878 -0.7702  2.8897
 2390SOL     OW18631   4.233   0.540  12.951  0.2918 -0.1876 -0.3717
 2390SOL    HW118632   4.269   0.613  13.001  0.8213 -2.4923  2.6175
 2390SOL    HW218633   4.249   0.558  12.859 -0.1180  2.9096  0.1879
 2391SOL     OW18634   0.104   3.140   8.344  0.1974 -0.2548 -0.4903
 2391SOL    HW118635   0.123   3.234   8.335  1.4632 -0.6661 -2.0674
 2391SOL    HW218636   0.081   3.139   8.437 -0.4205  2.2865 -0.6240
 2392SOL     OW18637   0.032   4.373   3.754 -0.5116  0.2833  0.0807
 2392SOL    HW118638   4.722   4.459   3.726 -0.0136  1.1990  2.2943
 2392SOL    HW218639   0.118   4.396   3.789 -1.2175  0.7458  1.5219
 2393SOL     OW18640   0.685   0.485   4.187  0.3164 -0.5373  0.4991
 2393SOL    HW118641   0.707   0.392   4.181 -0.1857 -0.6202 -0.0463
 2393SOL    HW218642   0.733   0.505   4.267 -0.5903  0.3093  0.8204
 2394SOL     OW18643   2.864   2.237  14.239  0.7259  0.1603  0.1620
 2394SOL    HW118644   2.937   2.184  14.208  0.3565 -1.4546  2.0433
 2394SOL    HW218645   2.911   2.311  14.278 -0.3161  0.2965  1.1850
 2395SOL     OW18646   1.970   0.077   3.208 -0.3804 -0.3984 -0.0688
 2395SOL    HW118647   2.059   0.088   3.243 -1.0899  2.3536  0.8365
 2395SOL    HW218648   1.935   0.042   3.290 -1.9693 -3.2617 -1.9820
 2396SOL     OW18649   0.044   1.070   7.932 -0.0763  0.1549 -0.5844
 2396SOL    HW118650   0.055   1.124   8.010  1.7931 -0.0863 -0.6956
 2396SOL    HW218651   4.687   1.021   7.956  0.9790 -1.1704  0.2200
 2397SOL     OW18652   0.048   3.878   6.105  0.0316 -0.3371  0.0797
 2397SOL    HW118653   0.012   3.966   6.103  0.7852 -0.0814 -2.0531
 2397SOL    HW218654   0.077   3.873   6.196 -2.8922 -1.4877  0.9697
 2398SOL     OW18655   1.778   2.803   3.576 -0.2844 -0.0285  0.1610
 2398SOL    HW118656   1.802   2.885   3.533 -4.2892  1.6326  1.0349
 2398SOL    HW218657   1.855   2.777   3.627  1.0569  1.1606 -1.2774
 2399SOL     OW18658   4.107   3.398   8.725 -0.0662 -0.3054 -0.1492
 2399SOL    HW118659   4.057   3.457   8.781  0.2076 -0.9107  0.7288
 2399SOL    HW218660   4.191   3.437   8.747 -0.0266  0.5081 -1.7294
 2400SOL     OW18661   0.956   1.280   3.721  0.0478 -0.1333  0.1506
 2400SOL    HW118662   0.892   1.351   3.713  4.2401  3.5323 -0.8433
 2400SOL    HW218663   0.898   1.213   3.756 -0.7687 -0.3926 -1.6483
 2401SOL     OW18664   1.157   2.103   5.237 -0.1796 -0.7985  0.1938
 2401SOL    HW118665   1.232   2.138   5.284  0.7539  0.0077 -1.8899
 2401SOL    HW218666   1.180   2.010   5.248 -1.1272 -1.0697 -0.1030
 2402SOL     OW18667   0.827   2.331   6.669 -0.0346 -0.0069  0.5240
 2402SOL    HW118668   0.810   2.237   6.678 -1.1814  0.0845 -0.7627
 2402SOL    HW218669   0.772   2.369   6.738 -1.3828  1.2136 -1.2094
 2403SOL     OW18670   2.808   0.420   8.449  0.4832 -0.2215 -0.0091
 2403SOL    HW118671   2.845   0.382   8.528  0.0418 -1.9642 -0.6539
 2403SOL    HW218672   2.724   0.375   8.436  0.3632  0.7293 -2.5513
 2404SOL     OW18673   4.327   3.283   2.997  0.6911 -0.3495 -0.8230
 2404SOL    HW118674   4.395   3.218   3.013 -1.0178 -1.8340  0.3346
 2404SOL    HW218675   4.327   3.323   3.084  0.9718  1.9682 -1.8574
 2405SOL     OW18676   0.406   3.808   6.881  0.1589  0.6810 -0.1433
 2405SOL    HW118677   0.446   3.889   6.849 -1.6728  2.3521  1.7465
 2405SOL    HW218678   0.450   3.744   6.826 -1.0600  1.0577 -1.5357
 2406SOL     OW18679   3.314   3.917  10.771  0.3277 -0.1724  0.0651
 2406SOL    HW118680   3.312   3.845  10.834 -3.2862  0.1975  0.3776
 2406SOL    HW218681   3.278   3.887  10.687 -3.6641  2.1940  0.9363
 2407SOL     OW18682   1.496   4.450   7.819  0.2317  0.3060 -0.2854
 2407SOL    HW118683   1.490   4.355   7.803  2.2998  0.1565 -0.1831
 2407SOL    HW218684   1.583   4.464   7.855  1.0096 -1.0473 -1.6228
 2408SOL     OW18685   0.090   3.023   1.684  0.0079  0.4594  0.1401
 2408SOL    HW118686   0.112   3.063   1.599 -1.3508  0.7007 -0.1067
 2408SOL    HW218687   0.135   2.939   1.675 -0.9561 -0.1550  1.0978
 2409SOL     OW18688   0.378   4.051   4.669  0.1565  0.3400  0.2794
 2409SOL    HW118689   0.448   3.987   4.679 -0.3145 -0.2907 -0.4759
 2409SOL    HW218690   0.426   4.134   4.662  0.1713  0.4565  1.6622
 2410SOL     OW18691   3.288   4.161  17.277  0.0164  0.7177 -0.0401
 2410SOL    HW118692   3.282   4.253  17.250  0.9847  1.0952  1.0569
 2410SOL    HW218693   3.382   4.169  17.290 -0.5714  2.8725  2.8432
 2411SOL     OW18694   2.449   1.405   6.644  0.1056  0.1109 -0.0239
 2411SOL    HW118695   2.540   1.406   6.615  0.2081 -3.7499  0.2157
 2411SOL    HW218696   2.420   1.480   6.591  0.4009  0.5506  0.4375
 2412SOL     OW18697   1.381   2.737   3.021 -0.2629  0.1842  0.0538
 2412SOL    HW118698   1.465   2.694   3.007 -0.3558 -0.6030  1.9435
 2412SOL    HW218699   1.348   2.765   2.935  1.2672  2.0653  0.0934
 2413SOL     OW18700   2.690   2.327   4.513  0.1195  0.1758  0.3504
 2413SOL    HW118701   2.621   2.369   4.461 -1.0952 -2.0547  0.1513
 2413SOL    HW218702   2.642   2.256   4.557  0.5446  0.8360  1.8963
 2414SOL     OW18703   2.668   1.409   8.754  0.0567  0.3654  0.3992
 2414SOL    HW118704   2.747   1.449   8.789  0.4858  0.6281 -0.8676
 2414SOL    HW218705   2.597   1.455   8.798  1.0255  0.4926  1.8124
 2415SOL     OW18706   0.404   4.147  12.339  0.3236  0.3634  0.0568
 2415SOL    HW118707   0.411   4.077  12.405  1.9046 -2.3203 -2.9326
 2415SOL    HW218708   0.326   4.115  12.293  1.2319 -0.2525 -1.0766
 2416SOL     OW18709   3.279   4.024   6.321  0.3591  0.4224  0.5290
 2416SOL    HW118710   3.308   3.978   6.242 -0.9847  0.0911  0.2390
 2416SOL    HW218711   3.185   4.033   6.310  0.4106 -0.6286 -0.8119
 2417SOL     OW18712   0.277   2.893   2.309  0.4698 -0.1530 -0.2941
 2417SOL    HW118713   0.349   2.937   2.354  1.0872  0.6652 -2.0935
 2417SOL    HW218714   0.266   2.813   2.359  0.4963 -0.1722 -0.3193
 2418SOL     OW18715   2.527   1.197   4.720  0.3165  0.3351 -0.3335
 2418SOL    HW118716   2.586   1.272   4.725  2.0797 -1.1245  0.7383
 2418SOL    HW218717   2.519   1.180   4.814  0.9481 -0.0846 -0.3565
 2419SOL     OW18718   2.191   4.465   1.682  0.4965 -0.9545  0.3063
 2419SOL    HW118719   2.286   4.473   1.678  0.4025  1.2202  2.5761
 2419SOL    HW218720   2.160   4.415   1.606 -1.0218  2.4463 -1.3456
 2420SOL     OW18721   1.555   4.705   9.738  0.5111 -0.4410  0.1691
 2420SOL    HW118722   1.571   4.682   9.829 -0.7696  0.6865  0.6938
 2420SOL    HW218723   1.615   4.640   9.701  0.2348 -0.2373 -0.6437
 2421SOL     OW18724   2.282   4.534   2.852 -0.9171  0.0853 -0.3827
 2421SOL    HW118725   2.208   4.511   2.908  0.2126  1.2025  1.5499
 2421SOL    HW218726   2.346   4.466   2.875  0.0480  1.1201 -0.0125
 2422SOL     OW18727   2.645   4.371   4.547  0.5254 -0.5671  0.2898
 2422SOL    HW118728   2.725   4.318   4.551  1.9705  1.7182  2.0441
 2422SOL    HW218729   2.596   4.299   4.507 -2.1378  1.3360  0.1522
 2423SOL     OW18730   0.790   3.692   7.597  0.1838  0.0691 -0.4164
 2423SOL    HW118731   0.754   3.638   7.668  0.5573 -1.7395 -1.6052
 2423SOL    HW218732   0.716   3.693   7.536 -0.2050  1.2882  0.0780
 2424SOL     OW18733   0.180   0.105   4.344  0.4182 -0.0992 -0.1322
 2424SOL    HW118734   0.120   0.058   4.402 -0.6427  1.3442 -0.0411
 2424SOL    HW218735   0.223   0.161   4.409 -0.2286  0.8480 -0.5137
 2425SOL     OW18736   0.142   3.670   9.057  0.3623  0.0796  0.1603
 2425SOL    HW118737   0.100   3.742   9.105 -2.0418 -0.9469 -0.3815
 2425SOL    HW218738   0.142   3.606   9.128  3.1638  1.5736  1.5118
 2426SOL     OW18739   1.689   1.314   4.526 -0.2139  0.3539 -0.4068
 2426SOL    HW118740   1.749   1.317   4.600 -0.7142  1.8783 -0.0636
 2426SOL    HW218741   1.673   1.406   4.508  1.0935  0.6926  0.1443
 2427SOL     OW18742   1.377   1.083   4.007 -0.0052  0.0911 -0.0466
 2427SOL    HW118743   1.348   1.104   3.918  0.6718 -1.3550 -0.6079
 2427SOL    HW218744   1.404   0.991   4.006 -0.0067  0.0874  0.4592
 2428SOL     OW18745   4.497   3.452   1.488  0.3282  0.2212 -0.1370
 2428SOL    HW118746   4.438   3.516   1.449 -1.0014 -1.0128 -0.1341
 2428SOL    HW218747   4.494   3.475   1.581  1.7799  1.9918 -0.5249
 2429SOL     OW18748   2.460   2.643   6.880 -0.2272 -0.4351 -0.1264
 2429SOL    HW118749   2.487   2.617   6.968  0.1418  1.5576  0.3360
 2429SOL    HW218750   2.533   2.696   6.849 -1.7575  1.9018  0.3134
 2430SOL     OW18751   1.737   2.583  15.470  0.2632  0.5265  0.2595
 2430SOL    HW118752   1.746   2.522  15.397 -0.9417  2.1370 -1.2338
 2430SOL    HW218753   1.723   2.525  15.545 -0.4163  0.0148 -0.2687
 2431SOL     OW18754   2.351   0.719   6.869  0.4628 -0.0437 -0.1016
 2431SOL    HW118755   2.361   0.756   6.782  1.4132 -0.4153 -0.1503
 2431SOL    HW218756   2.357   0.625   6.855  1.9787 -0.0881  0.8607
 2432SOL     OW18757   3.757   4.307   3.485 -0.8648  0.0127  0.3080
 2432SOL    HW118758   3.838   4.298   3.535 -0.6709 -0.6610 -0.1175
 2432SOL    HW218759   3.707   4.352   3.552  1.4798  1.2758  1.1991
 2433SOL     OW18760   4.252   2.558   6.245 -0.0937  0.0803 -0.5394
 2433SOL    HW118761   4.317   2.527   6.309 -0.2496  1.7704  0.4167
 2433SOL    HW218762   4.263   2.495   6.174  1.1175  0.9039 -1.0800
 2434SOL     OW18763   4.137   1.284   9.170 -0.0319  0.3273  1.0958
 2434SOL    HW118764   4.224   1.247   9.186 -0.1329  0.1600  1.2474
 2434SOL    HW218765   4.154   1.373   9.201 -1.5541  1.1392 -0.4258
 2435SOL     OW18766   2.284   1.565  12.375  0.1816 -0.0244 -0.5731
 2435SOL    HW118767   2.255   1.510  12.301 -0.0109  0.6332 -0.9832
 2435SOL    HW218768   2.212   1.558  12.438 -0.5821  2.1976 -1.2024
 2436SOL     OW18769   2.771   2.836   5.159  0.3287  0.4683  0.0778
 2436SOL    HW118770   2.783   2.825   5.253 -0.4441 -1.9232 -0.1088
 2436SOL    HW218771   2.849   2.884   5.131 -0.9724  2.0491 -0.8928
 2437SOL     OW18772   3.973   4.692   7.293  0.7879  0.1860 -0.3633
 2437SOL    HW118773   3.987   4.600   7.270  1.6561  0.1049  0.4904
 2437SOL    HW218774   4.047   4.703   7.353  0.4649 -2.3918  0.5373
 2438SOL     OW18775   0.159   0.835   9.199 -0.6067 -0.8198  0.4352
 2438SOL    HW118776   0.197   0.752   9.227  0.0403 -1.1239 -1.3540
 2438SOL    HW218777   0.237   0.882   9.170  0.2061 -1.9757  0.7428
 2439SOL     OW18778   1.877   1.558   3.383 -0.1815  0.2266 -0.3332
 2439SOL    HW118779   1.790   1.568   3.421  0.1714  0.8262  0.3235
 2439SOL    HW218780   1.930   1.612   3.442  2.6829 -0.2366 -2.4376
 2440SOL     OW18781   1.223   3.824  13.832 -0.3739 -0.7312  0.1016
 2440SOL    HW118782   1.224   3.872  13.750  1.5066 -2.0063 -0.6185
 2440SOL    HW218783   1.287   3.879  13.877  0.2980 -0.0947 -1.6285
 2441SOL     OW18784   0.327   3.444   4.733  0.2245  0.5883 -0.5165
 2441SOL    HW118785   0.423   3.438   4.737  0.2534 -0.7959 -3.3519
 2441SOL    HW218786   0.308   3.350   4.740  1.5134  0.3803  0.2184
 2442SOL     OW18787   2.765   1.660   4.998  0.0870  0.3216  0.3695
 2442SOL    HW118788   2.744   1.718   5.071  0.9528  3.3245 -1.7980
 2442SOL    HW218789   2.739   1.576   5.035 -1.0945  0.7783  0.5571
 2443SOL     OW18790   3.547   2.958   3.528 -0.0361  0.5099 -0.1482
 2443SOL    HW118791   3.490   2.958   3.451  0.5000  4.0471 -0.5212
 2443SOL    HW218792   3.633   2.986   3.496  0.5451 -0.2132  0.7695
 2444SOL     OW18793   0.883   3.442   2.609  0.0352 -0.5698 -0.1849
 2444SOL    HW118794   0.817   3.406   2.550  2.2328 -2.5651 -1.4721
 2444SOL    HW218795   0.870   3.533   2.583 -0.0527 -0.2599  0.9689
 2445SOL     OW18796   1.403   1.493   9.880  0.3543  0.3749 -0.0931
 2445SOL    HW118797   1.431   1.578   9.845  0.9069 -0.3081 -1.2823
 2445SOL    HW218798   1.444   1.430   9.822 -2.0553 -0.1827 -1.1857
 2446SOL     OW18799   1.368   3.267   5.639  0.0564 -0.0931  0.0121
 2446SOL    HW118800   1.417   3.320   5.702  1.0184  0.6695 -1.3661
 2446SOL    HW218801   1.394   3.182   5.674  3.3953  1.2769  0.8742
 2447SOL     OW18802   2.647   2.066   2.569  0.3605  0.3030 -0.0508
 2447SOL    HW118803   2.671   2.016   2.491  1.1189  0.5901  0.0084
 2447SOL    HW218804   2.720   2.050   2.629 -0.5436 -3.5735  0.0409
 2448SOL     OW18805   0.720   4.008   6.531  0.3098 -0.5892 -0.0490
 2448SOL    HW118806   0.691   3.922   6.502 -1.0344 -0.1223 -0.0626
 2448SOL    HW218807   0.647   4.067   6.514  0.6159  0.5356  2.4731
 2449SOL     OW18808   3.347   4.290  12.260 -0.8480 -0.7014  0.1841
 2449SOL    HW118809   3.378   4.202  12.239  0.2353 -0.8266  2.3476
 2449SOL    HW218810   3.418   4.332  12.309 -0.6960  3.0811 -3.2090
 2450SOL     OW18811   0.938   2.368   9.410  0.8735 -0.3390 -0.1319
 2450SOL    HW118812   0.919   2.353   9.503  0.3043  2.2862  0.1768
 2450SOL    HW218813   0.885   2.441   9.379  0.4894 -0.6724 -0.2542
 2451SOL     OW18814   3.759   1.983   6.877  0.0376  0.0574 -0.4408
 2451SOL    HW118815   3.821   1.942   6.818 -1.5199 -1.7057 -0.8448
 2451SOL    HW218816   3.679   1.965   6.828  0.6170  0.7312 -1.6272
 2452SOL     OW18817   3.615   0.513   3.376  0.6246 -0.2608 -0.0024
 2452SOL    HW118818   3.551   0.584   3.381 -0.5386 -1.2863 -0.3559
 2452SOL    HW218819   3.625   0.491   3.283 -0.9021 -3.0497  0.4760
 2453SOL     OW18820   0.976   4.193   0.141  0.4660 -0.1605  0.2530
 2453SOL    HW118821   0.922   4.165   0.066 -1.2513  0.9097  1.0978
 2453SOL    HW218822   1.061   4.221   0.108  1.0612 -1.8591  0.2997
 2454SOL     OW18823   1.377   4.521   0.971 -0.2469 -0.0396 -0.8441
 2454SOL    HW118824   1.466   4.486   0.984  0.0963  0.6208 -1.4590
 2454SOL    HW218825   1.375   4.605   1.017 -0.8721  0.5985 -2.0661
 2455SOL     OW18826   0.316   0.415  12.317  0.1498  0.4037 -0.0533
 2455SOL    HW118827   0.303   0.476  12.389  1.3765  1.7020 -0.9380
 2455SOL    HW218828   0.280   0.332  12.350 -0.8834  0.6805 -0.4714
 2456SOL     OW18829   1.032   0.521   5.540 -0.3169 -0.3393 -0.1300
 2456SOL    HW118830   1.024   0.616   5.549  1.5843 -0.0219 -1.6365
 2456SOL    HW218831   1.068   0.497   5.625  1.4473  1.5023 -0.3544
 2457SOL     OW18832   0.655   0.432   3.310 -0.2284 -0.0677  0.2144
 2457SOL    HW118833   0.562   0.454   3.311 -0.7262 -2.0630 -0.7875
 2457SOL    HW218834   0.650   0.346   3.267 -1.3167 -0.2870  0.7810
 2458SOL     OW18835   0.848   0.959  12.941 -0.2581  0.5286 -0.0539
 2458SOL    HW118836   0.814   1.047  12.959  0.6686  0.3984  2.2746
 2458SOL    HW218837   0.776   0.897  12.954  2.5555 -1.9953  3.3818
 2459SOL     OW18838   2.019   2.336  11.901  0.2684  0.0392 -0.7870
 2459SOL    HW118839   2.005   2.308  11.992  1.1915 -1.4580 -1.0925
 2459SOL    HW218840   2.022   2.255  11.850 -1.9019 -1.3885  1.3217
 2460SOL     OW18841   4.087   4.508  12.944 -0.2761  0.2161  0.1417
 2460SOL    HW118842   4.124   4.503  13.033 -0.4558  2.3934  0.3402
 2460SOL    HW218843   4.099   4.602  12.934  1.0910  0.0522  0.2429
 2461SOL     OW18844   1.094   4.256   2.835  0.2881 -0.3381 -0.8491
 2461SOL    HW118845   1.086   4.161   2.831 -4.8073  0.0882 -0.8165
 2461SOL    HW218846   1.187   4.264   2.813  0.0955 -0.1971 -1.6048
 2462SOL     OW18847   0.644   2.452  15.378 -0.3813 -0.0403  0.0181
 2462SOL    HW118848   0.697   2.483  15.451 -1.4352 -0.3018  0.9072
 2462SOL    HW218849   0.559   2.457  15.421  0.3028  0.6479  1.2696
 2463SOL     OW18850   3.555   0.287  13.817 -0.0457 -0.8609 -0.5245
 2463SOL    HW118851   3.514   0.241  13.744 -2.3454  2.1458 -1.1241
 2463SOL    HW218852   3.523   0.373  13.790  0.7190 -1.2481 -2.6693
 2464SOL     OW18853   4.365   4.245   5.696  0.6650  0.4747 -0.6820
 2464SOL    HW118854   4.443   4.192   5.678  1.6030  1.0212  1.6466
 2464SOL    HW218855   4.362   4.234   5.791 -0.5847  1.9452 -0.5501
 2465SOL     OW18856   3.890   2.417  15.276 -0.5176  0.1406 -0.2849
 2465SOL    HW118857   3.968   2.432  15.330  1.0332 -1.6584 -2.0267
 2465SOL    HW218858   3.880   2.501  15.232  2.3309  2.3238  3.2549
 2466SOL     OW18859   2.382   1.078  15.541 -0.3727  0.0233 -0.4343
 2466SOL    HW118860   2.326   1.034  15.605  0.0811 -1.7255 -1.2292
 2466SOL    HW218861   2.413   1.000  15.495  0.2290  0.2611 -0.4280
 2467SOL     OW18862   0.308   1.963   1.925  0.3560 -0.0309  0.1193
 2467SOL    HW118863   0.283   1.951   2.017  0.4508 -0.1575  0.1303
 2467SOL    HW218864   0.404   1.962   1.933  0.2332 -2.2193  1.4145
 2468SOL     OW18865   3.731   0.632   9.337 -0.4806  0.8086  0.1170
 2468SOL    HW118866   3.648   0.616   9.381  0.8904  0.2445  2.4908
 2468SOL    HW218867   3.770   0.545   9.342 -0.0509  1.1194  2.1357
 2469SOL     OW18868   2.403   0.313  16.266 -0.1447  0.4249 -0.3571
 2469SOL    HW118869   2.489   0.313  16.307  0.8814 -0.5370 -2.5066
 2469SOL    HW218870   2.343   0.266  16.324 -2.0154  0.1428 -2.4913
 2470SOL     OW18871   1.817   3.823   0.702  0.2790  0.4865 -0.2957
 2470SOL    HW118872   1.732   3.812   0.659  0.9719 -0.1400 -1.5462
 2470SOL    HW218873   1.800   3.870   0.783  1.8818 -0.3611  0.5287
 2471SOL     OW18874   4.236   1.712  11.383 -0.0355  0.3291  0.2900
 2471SOL    HW118875   4.237   1.651  11.309 -2.8264 -0.6197  1.0494
 2471SOL    HW218876   4.144   1.713  11.408 -0.3693  0.5909 -0.9255
 2472SOL     OW18877   4.674   4.291   3.477 -0.0921  0.1299 -0.1680
 2472SOL    HW118878   4.689   4.383   3.500  0.5991  0.2824 -1.2015
 2472SOL    HW218879   0.036   4.257   3.507 -0.8270 -0.0816  1.6861
 2473SOL     OW18880   3.489   0.651   2.294  0.3325  0.0006 -0.0205
 2473SOL    HW118881   3.560   0.598   2.331 -1.4269 -1.7720  0.7901
 2473SOL    HW218882   3.438   0.643   2.374  1.9234  0.5241  1.0569
 2474SOL     OW18883   2.203   1.118   7.320 -0.0785  0.0846 -0.7799
 2474SOL    HW118884   2.266   1.185   7.292  2.4735 -1.8281  0.4215
 2474SOL    HW218885   2.213   1.054   7.250  0.4603 -0.3731 -0.2907
 2475SOL     OW18886   2.032   2.865  13.324 -0.2983  0.4769 -0.6055
 2475SOL    HW118887   2.008   2.887  13.414 -1.5221 -2.7494 -0.1582
 2475SOL    HW218888   2.045   2.770  13.328  0.0440  0.6321  1.9042
 2476SOL     OW18889   1.426   2.440   9.026 -0.6011 -0.5611 -0.7311
 2476SOL    HW118890   1.482   2.440   9.104  0.0510  2.8942 -1.1812
 2476SOL    HW218891   1.428   2.532   8.998 -1.5526 -0.5649 -0.7967
 2477SOL     OW18892   3.234   0.291   4.729 -0.4645 -0.2498 -0.4410
 2477SOL    HW118893   3.201   0.381   4.723  0.9387  0.1706 -1.9430
 2477SOL    HW218894   3.193   0.253   4.806 -2.2660  1.4435 -0.5497
 2478SOL     OW18895   0.394   4.515  13.517  0.7339  0.3800 -0.1733
 2478SOL    HW118896   0.339   4.593  13.506  0.8441  0.3715 -0.7673
 2478SOL    HW218897   0.330   4.449  13.494  1.1404 -0.0985  0.0723
 2479SOL     OW18898   2.265   3.653   3.439 -0.1319  0.1595 -1.0040
 2479SOL    HW118899   2.213   3.610   3.508 -0.2531 -0.5688 -1.5489
 2479SOL    HW218900   2.337   3.591   3.436  1.2041  1.5768  2.1024
 2480SOL     OW18901   0.230   2.893   2.038  0.3726  0.2992 -0.0891
 2480SOL    HW118902   0.230   2.909   2.132  0.4477  0.6878 -0.1547
 2480SOL    HW218903   0.169   2.820   2.026  1.2930 -0.2651 -1.3515
 2481SOL     OW18904   2.981   0.189   5.227  0.4052  0.5877 -0.5650
 2481SOL    HW118905   3.033   0.228   5.156  2.5451 -1.1526  0.0498
 2481SOL    HW218906   2.915   0.139   5.180  0.3755  1.0032 -0.9692
 2482SOL     OW18907   3.341   2.354   6.045  0.7678 -0.1047 -0.6699
 2482SOL    HW118908   3.275   2.285   6.051  0.9112 -0.2908 -1.2581
 2482SOL    HW218909   3.299   2.401   5.973  0.0918  0.6822  0.2374
 2483SOL     OW18910   3.073   3.309   1.352  0.2434 -0.0731  0.0852
 2483SOL    HW118911   3.054   3.402   1.336  0.3730  0.0188  0.4537
 2483SOL    HW218912   2.997   3.259   1.323 -0.4894  1.4563 -0.6814
 2484SOL     OW18913   1.953   2.914   6.732  0.3487 -0.1976 -0.6510
 2484SOL    HW118914   1.981   2.998   6.697 -0.6364  0.1038 -0.7083
 2484SOL    HW218915   1.858   2.919   6.732  0.3282 -0.5965 -0.7533
 2485SOL     OW18916   3.794   0.638  13.123  0.3110 -0.0217  0.4685
 2485SOL    HW118917   3.742   0.646  13.203 -1.2343  1.1666 -0.6305
 2485SOL    HW218918   3.786   0.728  13.089  0.9315 -0.5256 -0.9928
 2486SOL     OW18919   0.196   2.486  16.790 -0.3654 -0.1309 -0.3267
 2486SOL    HW118920   0.233   2.421  16.730  1.2906  0.2227  0.2995
 2486SOL    HW218921   0.107   2.493  16.756  0.2527  1.5221 -1.6164
 2487SOL     OW18922   0.921   3.128   8.038 -0.7006  0.5590 -0.0210
 2487SOL    HW118923   0.892   3.205   8.088  0.0968  2.3020 -2.2436
 2487SOL    HW218924   0.897   3.055   8.095 -1.1753  1.1165  0.4954
 2488SOL     OW18925   0.297   1.809   8.049 -0.7667 -0.3928  0.2482
 2488SOL    HW118926   0.331   1.741   7.990  1.5948  0.5289  0.5344
 2488SOL    HW218927   0.256   1.759   8.120 -0.1384 -2.1207 -0.6034
 2489SOL     OW18928   2.077   3.010   7.536  0.6052 -0.3780 -0.8599
 2489SOL    HW118929   2.023   3.004   7.458 -1.3679  0.9685  0.3867
 2489SOL    HW218930   2.165   2.999   7.500 -0.0465 -0.3455 -2.4587
 2490SOL     OW18931   0.521   1.643   2.414  0.0526 -0.6029  0.0174
 2490SOL    HW118932   0.481   1.560   2.390 -2.0890 -0.0017  1.4336
 2490SOL    HW218933   0.556   1.669   2.329 -0.3086 -1.5768 -0.4234
 2491SOL     OW18934   1.289   1.637   2.204 -0.2611 -0.3280 -0.3115
 2491SOL    HW118935   1.366   1.583   2.185  0.5396  0.4698  0.7298
 2491SOL    HW218936   1.230   1.620   2.130  0.6649 -0.5949 -0.9929
 2492SOL     OW18937   0.274   4.261   0.179 -0.2211 -0.4885 -0.4602
 2492SOL    HW118938   0.360   4.238   0.213 -0.1174 -0.7817 -0.9186
 2492SOL    HW218939   0.244   4.325   0.243  2.1228  0.7721 -0.6329
 2493SOL     OW18940   2.667   0.680   8.776 -0.2744 -0.4929  0.4505
 2493SOL    HW118941   2.708   0.594   8.769  0.8692  0.0092  1.0075
 2493SOL    HW218942   2.740   0.740   8.760 -0.8990  0.4600  1.2006
 2494SOL     OW18943   1.300   3.074   6.346 -0.0268 -0.4523  0.0371
 2494SOL    HW118944   1.214   3.051   6.382  0.1003  0.9878  1.2628
 2494SOL    HW218945   1.370   3.050   6.406  0.8756  0.1479 -0.7752
 2495SOL     OW18946   1.680   2.384   8.578 -0.5075 -0.6667  0.2860
 2495SOL    HW118947   1.636   2.463   8.547 -0.3536  0.2561  2.4426
 2495SOL    HW218948   1.623   2.359   8.651 -0.5890  0.9530  0.7659
 2496SOL     OW18949   2.759   4.475   9.737  0.3407  0.3094  0.5864
 2496SOL    HW118950   2.847   4.512   9.740 -0.0280  1.1461  0.9840
 2496SOL    HW218951   2.771   4.382   9.714 -1.4609  0.6345 -1.7608
 2497SOL     OW18952   3.764   2.774   6.371 -0.1860 -0.3853 -0.9577
 2497SOL    HW118953   3.752   2.735   6.457 -0.6864 -1.0648 -1.3375
 2497SOL    HW218954   3.842   2.732   6.336 -0.3631 -0.8867 -0.7390
 2498SOL     OW18955   1.912   1.539   5.605 -0.0844 -0.2323  0.1451
 2498SOL    HW118956   1.850   1.476   5.567  0.3985 -1.7663  1.9110
 2498SOL    HW218957   1.925   1.577   5.518 -1.0621  2.0873  0.9988
 2499SOL     OW18958   1.674   2.906   4.604 -0.1359 -0.4593  0.3407
 2499SOL    HW118959   1.688   2.825   4.653  0.8892  0.1362  1.0624
 2499SOL    HW218960   1.691   2.968   4.675  1.3567  1.7521 -1.9648
 2500SOL     OW18961   0.473   2.736   7.177  0.0900 -0.6002 -0.3404
 2500SOL    HW118962   0.519   2.674   7.234 -0.8043  0.1606  1.1960
 2500SOL    HW218963   0.448   2.680   7.104 -0.5770  1.8818 -2.0022
 2501SOL     OW18964   4.687   0.396   7.893 -0.4089 -0.1562 -0.0583
 2501SOL    HW118965   0.029   0.343   7.846 -0.7296 -2.0614  1.6865
 2501SOL    HW218966   4.635   0.333   7.941  4.0468 -2.6319  1.5060
 2502SOL     OW18967   3.712   4.582   8.873 -0.5380  0.9501 -0.1210
 2502SOL    HW118968   3.700   4.668   8.834  1.0771  0.7255 -1.1283
 2502SOL    HW218969   3.739   4.598   8.963  0.1133  2.3506 -0.5726
 2503SOL     OW18970   3.727   0.864  14.150  0.0528  0.3530  0.5153
 2503SOL    HW118971   3.741   0.932  14.083  0.4772 -0.4959 -0.2669
 2503SOL    HW218972   3.646   0.893  14.192 -1.5583 -0.6359 -1.9174
 2504SOL     OW18973   0.757   0.206   7.352  0.0018  0.1942 -0.4220
 2504SOL    HW118974   0.830   0.144   7.351  1.6029  2.0672 -1.1014
 2504SOL    HW218975   0.681   0.151   7.372 -1.0552  1.1863 -1.6918
 2505SOL     OW18976   4.146   4.078   6.574 -0.4719  0.0388  0.1355
 2505SOL    HW118977   4.139   4.173   6.574 -1.0626  0.0030 -1.7412
 2505SOL    HW218978   4.093   4.065   6.495 -0.3430 -0.0646  0.0665
 2506SOL     OW18979   0.044   1.103   8.222  0.2986  0.1151 -0.3967
 2506SOL    HW118980   0.137   1.121   8.237  0.7317 -2.3772 -0.1596
 2506SOL    HW218981   0.035   1.015   8.258  0.5365  0.8118  1.3666
 2507SOL     OW18982   1.526   3.350  16.308  0.1442 -0.6221  0.5884
 2507SOL    HW118983   1.458   3.338  16.242 -0.8175  1.7958  1.1481
 2507SOL    HW218984   1.590   3.390  16.248  2.3360 -2.4574  1.6800
 2508SOL     OW18985   3.010   0.201   8.885 -0.4702  0.1569 -0.0411
 2508SOL    HW118986   3.015   0.108   8.907 -1.5574  0.3020  0.8087
 2508SOL    HW218987   2.939   0.225   8.945  0.5195 -0.3367  1.3458
 2509SOL     OW18988   4.135   2.383   2.071 -0.0327  0.6910 -0.1084
 2509SOL    HW118989   4.186   2.346   1.998 -0.1469 -2.2671  1.3385
 2509SOL    HW218990   4.103   2.469   2.041  0.9168  1.3885  0.8726
 2510SOL     OW18991   3.839   2.339   0.515 -0.0654  0.3632  0.3236
 2510SOL    HW118992   3.916   2.361   0.463 -1.6262  1.6023 -1.4425
 2510SOL    HW218993   3.873   2.284   0.586  1.7072  2.5157  1.1537
 2511SOL     OW18994   1.514   3.720  13.126 -0.0205  0.5639  0.0172
 2511SOL    HW118995   1.435   3.697  13.077 -0.6444  2.4071  0.1558
 2511SOL    HW218996   1.586   3.700  13.066 -2.4798  1.1655 -3.1245
 2512SOL     OW18997   4.671   2.102  11.515  0.3495 -0.6161 -0.2717
 2512SOL    HW118998   4.592   2.048  11.520 -0.1384  0.3015  2.0165
 2512SOL    HW218999   4.679   2.107  11.420  2.6259 -2.1367 -0.1614
 2513SOL     OW19000   0.404   3.620   5.954 -0.2386 -0.6904  0.3126
 2513SOL    HW119001   0.317   3.633   5.992 -0.0166 -2.0439  1.3109
 2513SOL    HW219002   0.466   3.611   6.026  0.1510 -1.5074 -0.1347
 2514SOL     OW19003   1.595   2.259   4.316  0.4094  0.2794  0.3360
 2514SOL    HW119004   1.646   2.186   4.281  1.8977  1.3251  0.3396
 2514SOL    HW219005   1.641   2.331   4.273 -0.3181 -0.9582 -2.5242
 2515SOL     OW19006   0.027   3.973   7.523  0.2447 -0.6087 -0.1243
 2515SOL    HW119007   0.075   3.897   7.488 -1.9989 -1.1024 -2.0905
 2515SOL    HW219008   4.684   3.987   7.455  0.9564 -0.2152 -0.7309
 2516SOL     OW19009   1.686   1.268   2.826  0.0151 -0.7329  0.4420
 2516SOL    HW119010   1.765   1.227   2.862 -0.8969 -2.1781  0.7467
 2516SOL    HW219011   1.696   1.242   2.735 -0.9355 -0.8042  0.3645
 2517SOL     OW19012   1.038   1.765   6.959 -0.4882 -0.4010 -0.1628
 2517SOL    HW119013   1.065   1.694   6.900  3.1492  0.3920  0.5416
 2517SOL    HW219014   1.088   1.741   7.037  1.5623  1.8207 -0.7801
 2518SOL     OW19015   3.850   3.986   3.450 -0.7816  0.1451  0.4984
 2518SOL    HW119016   3.904   3.908   3.457  1.4507  1.4694 -2.0874
 2518SOL    HW219017   3.893   4.047   3.510  2.0837 -2.9848  1.5831
 2519SOL     OW19018   2.033   3.127   4.203  0.2780 -0.4220 -0.1688
 2519SOL    HW119019   1.956   3.182   4.188  1.7712  2.0447  1.2341
 2519SOL    HW219020   2.093   3.172   4.144 -0.0528 -1.0533 -0.9780
 2520SOL     OW19021   4.261   2.144   5.441  0.3959 -0.4546 -0.2497
 2520SOL    HW119022   4.277   2.226   5.394 -0.1538 -0.6613 -0.7851
 2520SOL    HW219023   4.243   2.177   5.529 -0.6159  0.1628 -0.6853
 2521SOL     OW19024   0.009   1.972   3.241  0.8789  0.1135 -0.3652
 2521SOL    HW119025   0.075   1.916   3.200 -0.3701 -1.7821  0.2213
 2521SOL    HW219026   0.028   2.053   3.193 -0.6996  0.8573  0.2928
 2522SOL     OW19027   1.258   3.561   3.137 -0.2100  0.1206  0.2089
 2522SOL    HW119028   1.211   3.485   3.171  2.1419 -2.0096 -1.3504
 2522SOL    HW219029   1.347   3.529   3.145  0.5580  2.0338 -0.6102
 2523SOL     OW19030   1.895   2.896   3.121  0.4302 -0.5187 -0.2512
 2523SOL    HW119031   1.886   2.811   3.164  1.5060 -0.3820  0.2402
 2523SOL    HW219032   1.988   2.899   3.145 -0.8974 -0.9124  4.8266
 2524SOL     OW19033   3.871   1.094   3.511 -0.1709  0.9603  0.1620
 2524SOL    HW119034   3.788   1.104   3.464 -0.3880  0.6903  0.4822
 2524SOL    HW219035   3.934   1.055   3.450 -1.0524 -0.1751 -0.0384
 2525SOL     OW19036   4.619   0.202  17.220 -0.0529  0.2777  0.1406
 2525SOL    HW119037   4.656   0.256  17.290  2.3726  2.1227 -2.5803
 2525SOL    HW219038   4.555   0.155  17.274 -0.2089  2.2366  1.6647
 2526SOL     OW19039   4.398   4.519   5.512 -1.0076  0.1040 -0.3391
 2526SOL    HW119040   4.455   4.507   5.588 -0.9752 -0.5564 -0.4688
 2526SOL    HW219041   4.337   4.445   5.522 -0.8404 -0.0080 -0.1305
 2527SOL     OW19042   2.999   1.147   1.226 -0.6796 -0.2334  0.1183
 2527SOL    HW119043   3.046   1.231   1.234 -2.0423  0.4356  1.0067
 2527SOL    HW219044   2.915   1.169   1.187 -0.9983  0.3947  1.1658
 2528SOL     OW19045   2.578   1.902  16.401  0.4711  0.9183  0.5399
 2528SOL    HW119046   2.558   1.934  16.314  0.0188  0.5910  0.5250
 2528SOL    HW219047   2.506   1.942  16.449 -0.1357 -0.1393  0.5175
 2529SOL     OW19048   0.935   1.268   9.591  0.0490  0.2118 -0.2739
 2529SOL    HW119049   0.931   1.338   9.656  3.0938  1.8453 -1.8517
 2529SOL    HW219050   1.030   1.257   9.595 -0.1643 -1.0636  1.5589
 2530SOL     OW19051   3.935   1.586   8.548 -0.2483  0.3886  0.0301
 2530SOL    HW119052   3.875   1.561   8.618 -3.9247  1.6155 -2.7076
 2530SOL    HW219053   3.875   1.645   8.502  1.5578  2.1958 -0.0318
 2531SOL     OW19054   1.718   1.392   6.107  0.0168 -0.4718 -0.2193
 2531SOL    HW119055   1.761   1.404   6.022  1.3567  2.8540  0.8985
 2531SOL    HW219056   1.672   1.309   6.108 -0.0656 -0.4218  0.1577
 2532SOL     OW19057   2.175   2.891   1.768 -0.3378 -0.0019 -0.2601
 2532SOL    HW119058   2.154   2.972   1.815  1.1292 -0.1790  0.6703
 2532SOL    HW219059   2.259   2.918   1.731 -0.3076  1.0937  0.6288
 2533SOL     OW19060   2.533   2.752   6.543 -0.1977  0.3436  0.3338
 2533SOL    HW119061   2.526   2.843   6.515 -0.0429  0.3832  0.4258
 2533SOL    HW219062   2.606   2.751   6.605 -0.4846  1.5688  0.6785
 2534SOL     OW19063   3.251   4.705   2.655  0.3359  0.0823  0.4989
 2534SOL    HW119064   3.273   4.682   2.745  2.1204 -1.5989 -0.3746
 2534SOL    HW219065   3.194   0.059   2.665  2.3972  1.6153  0.5119
 2535SOL     OW19066   4.133   0.973  11.726  0.7284 -0.0306 -0.2022
 2535SOL    HW119067   4.092   0.990  11.810  0.8212  1.8631 -0.5343
 2535SOL    HW219068   4.172   1.056  11.698 -0.0934  0.7680  1.0643
 2536SOL     OW19069   4.190   3.257   4.074  0.2968 -0.1047  0.0846
 2536SOL    HW119070   4.256   3.255   4.005  0.7872  0.2194  0.5386
 2536SOL    HW219071   4.202   3.343   4.114  1.0482  0.1798 -0.7756
 2537SOL     OW19072   2.150   0.384   3.355 -0.3146 -0.0378 -0.0101
 2537SOL    HW119073   2.109   0.417   3.435 -0.9787  0.3692 -0.5153
 2537SOL    HW219074   2.158   0.294   3.387  0.6491  0.5078  1.2725
 2538SOL     OW19075   1.666   2.047   7.270 -0.1688 -0.1971  0.0951
 2538SOL    HW119076   1.638   1.957   7.281  0.0094 -0.5371 -2.0999
 2538SOL    HW219077   1.639   2.097   7.346 -1.2863 -0.7572  0.0578
 2539SOL     OW19078   2.987   4.692   3.212 -0.5220  0.1726 -0.1197
 2539SOL    HW119079   2.987   0.004   3.123  1.8484  0.3703 -0.0560
 2539SOL    HW219080   3.051   4.623   3.196  0.2675  0.8179  0.2440
 2540SOL     OW19081   0.940   4.648  15.675  0.3233 -0.1205 -0.5250
 2540SOL    HW119082   1.017   4.592  15.663  2.3832  2.5953  0.0770
 2540SOL    HW219083   0.887   4.601  15.610  1.3523 -0.0894 -1.3910
 2541SOL     OW19084   0.023   0.699   6.388 -0.7147 -0.5867  0.5237
 2541SOL    HW119085   0.095   0.707   6.450 -0.9171 -1.0155  0.8176
 2541SOL    HW219086   0.075   0.706   6.308 -3.1906 -0.7170 -1.0745
 2542SOL     OW19087   1.440   2.161  12.002 -0.5277 -0.2113 -0.0420
 2542SOL    HW119088   1.513   2.178  11.943 -0.7044 -0.8767 -0.4507
 2542SOL    HW219089   1.386   2.117  11.937 -0.6546  3.5498 -2.4866
 2543SOL     OW19090   2.428   2.367   8.383 -0.1236  0.3653  0.1718
 2543SOL    HW119091   2.336   2.392   8.388 -0.4684 -1.0768  0.8733
 2543SOL    HW219092   2.477   2.450   8.379 -0.0534  0.2513 -1.1907
 2544SOL     OW19093   2.604   1.834   6.789  0.2424  0.4101 -0.0067
 2544SOL    HW119094   2.614   1.812   6.697  2.6225 -2.1924  0.8922
 2544SOL    HW219095   2.620   1.751   6.833 -0.1742  0.1110 -0.4194
 2545SOL     OW19096   1.243   0.986   6.053  0.0282 -0.1343 -0.1198
 2545SOL    HW119097   1.279   0.899   6.038  2.3351  0.5592  1.2357
 2545SOL    HW219098   1.154   0.981   6.019  0.2834 -0.8019 -0.6781
 2546SOL     OW19099   4.194   1.993   4.879  0.3338  0.1744  0.5151
 2546SOL    HW119100   4.153   1.908   4.891  0.1839  0.1527 -0.1173
 2546SOL    HW219101   4.167   2.028   4.963 -1.2085 -1.3498  0.6421
 2547SOL     OW19102   3.643   4.178   7.646  0.2684  0.7778  0.1729
 2547SOL    HW119103   3.665   4.217   7.561 -0.1087  1.2139  0.2764
 2547SOL    HW219104   3.659   4.254   7.702 -0.2865 -1.4021  3.2802
 2548SOL     OW19105   3.717   2.848   2.749  0.1544 -0.3623 -0.1277
 2548SOL    HW119106   3.720   2.761   2.710  1.1049 -1.5300  2.5154
 2548SOL    HW219107   3.771   2.833   2.827 -2.0512 -0.6879  1.3474
 2549SOL     OW19108   0.979   3.354   3.359 -0.0070  0.4805  0.3753
 2549SOL    HW119109   1.073   3.337   3.357  0.0417  0.8089 -0.0062
 2549SOL    HW219110   0.983   3.449   3.374  0.9868  0.4027  0.5995
 2550SOL     OW19111   0.466   1.744   1.687  0.2026 -0.1000  0.1293
 2550SOL    HW119112   0.371   1.752   1.683 -0.1678 -2.7797  3.3630
 2550SOL    HW219113   0.477   1.661   1.733 -3.5207  0.1723  1.5572
 2551SOL     OW19114   2.231   0.804   4.491  0.4072  0.1279  0.7890
 2551SOL    HW119115   2.308   0.761   4.453  1.0432 -0.1329  2.3776
 2551SOL    HW219116   2.156   0.761   4.450  1.5383 -1.8342  0.7971
 2552SOL     OW19117   2.041   0.552  17.209  0.0964  0.3194  0.1086
 2552SOL    HW119118   1.965   0.607  17.189  0.8950  1.0311 -1.0003
 2552SOL    HW219119   2.003   0.471  17.175  3.1238 -1.2074  0.4088
 2553SOL     OW19120   1.540   1.166   6.774 -0.1234  0.2379 -0.5041
 2553SOL    HW119121   1.634   1.183   6.767 -0.0556 -0.3168 -0.8703
 2553SOL    HW219122   1.517   1.162   6.681  2.0971 -1.0308 -0.9899
 2554SOL     OW19123   0.603   3.207   2.882  0.2133 -0.0919  0.1069
 2554SOL    HW119124   0.519   3.248   2.864  1.8517  3.3737  0.2825
 2554SOL    HW219125   0.641   3.269   2.944  0.0405 -0.2456  0.3627
 2555SOL     OW19126   0.235   3.704   3.688 -0.6489  0.2954 -0.9557
 2555SOL    HW119127   0.239   3.681   3.596 -0.9913 -2.9147 -0.1748
 2555SOL    HW219128   0.209   3.618   3.723 -1.5740  1.2618  0.7544
 2556SOL     OW19129   0.794   4.623   4.281  0.3351 -0.3629 -0.3429
 2556SOL    HW119130   0.813   4.704   4.232  0.1695  0.0949  0.3450
 2556SOL    HW219131   0.703   4.611   4.254  0.2782  1.2433 -0.8907
 2557SOL     OW19132   3.300   3.535   0.202 -0.7709  0.5875  0.7070
 2557SOL    HW119133   3.332   3.623   0.222 -1.6881  1.0937 -0.0421
 2557SOL    HW219134   3.340   3.485   0.273 -3.2678 -1.0195  0.9797
 2558SOL     OW19135   2.658   1.723  11.350  0.0795 -0.0685 -0.2636
 2558SOL    HW119136   2.734   1.694  11.299 -0.5888 -1.2633 -0.5781
 2558SOL    HW219137   2.669   1.818  11.354  0.0722 -0.0504 -0.7037
 2559SOL     OW19138   3.995   4.531   9.083 -0.0753  0.5409 -0.0916
 2559SOL    HW119139   4.017   4.485   9.002  0.1471 -0.4529  0.5249
 2559SOL    HW219140   4.082   4.561   9.111  1.6998 -2.1767 -2.6992
 2560SOL     OW19141   1.056   2.851   7.508 -0.1696  0.1554 -0.0020
 2560SOL    HW119142   1.111   2.906   7.565  2.1601 -1.7327 -0.3951
 2560SOL    HW219143   0.976   2.903   7.509  0.7313  1.5732 -0.0669
 2561SOL     OW19144   1.921   0.067   9.565  0.0285 -0.5616 -0.8627
 2561SOL    HW119145   1.848   0.107   9.517  0.5689  2.3749  0.7617
 2561SOL    HW219146   1.876   0.021   9.636  0.0294 -0.4225 -0.7706
 2562SOL     OW19147   4.180   4.337   8.987 -0.2991 -0.4610  0.3977
 2562SOL    HW119148   4.168   4.395   8.912 -0.0541  0.6911  1.2470
 2562SOL    HW219149   4.273   4.317   8.994 -0.1982 -0.5579 -1.1308
 2563SOL     OW19150   2.079   0.992  14.943 -0.3701  0.0580  0.3155
 2563SOL    HW119151   2.106   0.934  14.872 -1.0366 -0.7158  0.6910
 2563SOL    HW219152   2.062   1.072  14.894 -3.0499 -1.2574 -0.9034
 2564SOL     OW19153   1.494   3.471  15.902  0.2126 -0.9363  0.5409
 2564SOL    HW119154   1.450   3.436  15.979 -4.0605  2.6632 -0.2117
 2564SOL    HW219155   1.458   3.560  15.896  0.3942 -0.9681 -1.1534
 2565SOL     OW19156   2.126   1.590   0.657  0.4853 -0.4230  0.5590
 2565SOL    HW119157   2.033   1.606   0.667  1.0402  2.3225  1.3780
 2565SOL    HW219158   2.134   1.618   0.566 -0.0488 -1.5234  0.1796
 2566SOL     OW19159   0.249   4.191   7.828 -0.1285 -0.1531 -0.0219
 2566SOL    HW119160   0.249   4.261   7.762  2.0921  1.2381  1.4541
 2566SOL    HW219161   0.156   4.170   7.825  0.1544 -1.7203  2.2268
 2567SOL     OW19162   1.507   4.301   5.128  0.2248 -0.4237 -0.6319
 2567SOL    HW119163   1.495   4.390   5.097 -1.1605 -0.7327 -0.9975
 2567SOL    HW219164   1.497   4.251   5.047 -0.2062 -0.1641 -0.7381
 2568SOL     OW19165   4.384   2.219   6.681  0.3250  0.1896  0.2755
 2568SOL    HW119166   4.475   2.190   6.678  1.0787  2.5880  0.0418
 2568SOL    HW219167   4.356   2.164   6.754 -1.6352  0.3309 -0.3387
 2569SOL     OW19168   1.676   2.662   3.358  0.5231 -0.6864  0.0315
 2569SOL    HW119169   1.762   2.644   3.319  1.0851  0.9951  0.5006
 2569SOL    HW219170   1.702   2.705   3.440 -1.7775  1.8397 -0.5902
 2570SOL     OW19171   1.792   3.526   5.276  0.2276 -1.5407 -0.3449
 2570SOL    HW119172   1.762   3.463   5.341 -1.2587  1.2762  1.7035
 2570SOL    HW219173   1.883   3.544   5.297 -0.6508  0.0903  2.0576
 2571SOL     OW19174   0.632   1.781   4.278  0.0916 -0.2984 -0.1580
 2571SOL    HW119175   0.581   1.701   4.264 -2.1627  0.9498  0.9809
 2571SOL    HW219176   0.657   1.804   4.188 -0.1556  2.4687  0.4780
 2572SOL     OW19177   1.992   1.618   1.479  0.0178 -0.1943  0.3270
 2572SOL    HW119178   1.947   1.643   1.399 -1.2843 -0.2205  1.0475
 2572SOL    HW219179   2.042   1.697   1.501  1.1816 -0.7397 -0.3540
 2573SOL     OW19180   2.617   1.606   6.237 -0.1141  0.1059 -0.7362
 2573SOL    HW119181   2.671   1.685   6.236  1.7849 -1.1678  0.5082
 2573SOL    HW219182   2.593   1.605   6.144  0.5658 -0.5923 -0.8976
 2574SOL     OW19183   2.659   4.628  12.126 -0.4644 -0.3019  0.3167
 2574SOL    HW119184   2.737   4.623  12.072  0.7869 -1.1190  2.1990
 2574SOL    HW219185   2.647   4.536  12.149 -2.2705  0.2747  1.6896
 2575SOL     OW19186   2.706   4.271   6.492  0.1151  0.0636 -0.7729
 2575SOL    HW119187   2.783   4.322   6.516  0.0681 -1.4781  2.6783
 2575SOL    HW219188   2.716   4.196   6.551  1.4145  1.9694  1.4065
 2576SOL     OW19189   2.042   2.805   8.291 -0.0923  0.1071 -0.0323
 2576SOL    HW119190   2.051   2.728   8.236  0.3632  1.0326 -1.2377
 2576SOL    HW219191   1.955   2.841   8.274 -0.6181 -1.4241 -0.5502
 2577SOL     OW19192   4.516   0.430   7.030 -0.0846  1.0553  0.2243
 2577SOL    HW119193   4.490   0.416   7.120  1.2488 -1.9048  0.1366
 2577SOL    HW219194   4.593   0.374   7.020 -1.8911 -0.9482 -2.6294
 2578SOL     OW19195   2.844   1.269  14.309 -0.4000 -0.4858 -0.6468
 2578SOL    HW119196   2.829   1.226  14.225  0.0426  0.3565 -1.1482
 2578SOL    HW219197   2.756   1.295  14.338  0.8887  2.2265  0.8365
 2579SOL     OW19198   2.600   4.571   6.373 -0.0671  0.3443 -0.7248
 2579SOL    HW119199   2.563   4.624   6.301  1.1639 -1.8113 -2.9278
 2579SOL    HW219200   2.691   4.599   6.367 -0.4708  1.9196  0.3078
 2580SOL     OW19201   2.976   4.405  12.273  0.2913  0.3939  0.1310
 2580SOL    HW119202   3.019   4.467  12.215  0.7524  1.1030  1.2319
 2580SOL    HW219203   2.950   4.340  12.208  0.4261 -0.0617  0.5360
 2581SOL     OW19204   1.543   3.118   3.821  0.2188  0.5584  0.3384
 2581SOL    HW119205   1.458   3.100   3.783 -0.1339  1.4219  0.7212
 2581SOL    HW219206   1.517   3.149   3.908 -1.4773  0.7228 -0.2348
 2582SOL     OW19207   0.633   3.527   7.747  0.0981 -0.1627 -0.1721
 2582SOL    HW119208   0.620   3.433   7.737 -0.4833 -0.5351  4.4170
 2582SOL    HW219209   0.565   3.560   7.805 -1.6539  0.1465 -2.3963
 2583SOL     OW19210   2.017   1.589  13.648 -0.4486  0.4095 -0.7349
 2583SOL    HW119211   2.013   1.672  13.695  0.3623  0.6141 -1.0167
 2583SOL    HW219212   2.038   1.618  13.559  5.1879 -0.8805  0.1741
 2584SOL     OW19213   1.179   0.901   5.360  0.4245  0.4161 -0.4563
 2584SOL    HW119214   1.139   0.923   5.276  0.6164  0.7835 -0.4531
 2584SOL    HW219215   1.268   0.874   5.338  1.1589  2.4095  0.0878
 2585SOL     OW19216   1.254   2.364   5.685  0.4201 -0.2203 -0.3243
 2585SOL    HW119217   1.259   2.457   5.666  0.0843 -0.4671 -1.6362
 2585SOL    HW219218   1.340   2.331   5.659  0.7712 -0.2111  0.8339
 2586SOL     OW19219   3.898   3.461   9.849  0.1432  0.9809 -0.0469
 2586SOL    HW119220   3.833   3.467   9.920 -0.6402  2.5211 -0.8923
 2586SOL    HW219221   3.968   3.412   9.891  0.7114  2.4688  0.7134
 2587SOL     OW19222   3.874   0.841  17.660  0.0036  0.3646 -0.1421
 2587SOL    HW119223   3.851   0.796  17.579  2.3289 -1.0776 -0.0024
 2587SOL    HW219224   3.871   0.763   0.021  2.4971  0.2480 -0.1864
 2588SOL     OW19225   3.727   3.562   8.340 -0.2861 -0.2632 -0.0072
 2588SOL    HW119226   3.780   3.637   8.312  0.3217 -1.4722 -2.0819
 2588SOL    HW219227   3.803   3.509   8.363 -0.8264 -1.1425 -0.2738
 2589SOL     OW19228   3.526   4.661   6.118  0.2856 -0.1939  0.1460
 2589SOL    HW119229   3.448   4.606   6.123  0.9014 -1.1643 -0.8609
 2589SOL    HW219230   3.589   4.611   6.067  1.4252 -0.4639  1.8203
 2590SOL     OW19231   3.822   0.266  15.196 -0.5158  0.3822 -0.2211
 2590SOL    HW119232   3.758   0.272  15.125 -1.6078 -0.6940  0.6866
 2590SOL    HW219233   3.894   0.290  15.137  1.2812  0.5418  2.0525
 2591SOL     OW19234   2.114   3.452   4.920 -0.1967  0.0796 -0.0766
 2591SOL    HW119235   2.058   3.410   4.854 -1.8830 -1.1873  2.1396
 2591SOL    HW219236   2.050   3.471   4.989 -0.7089  0.1981 -0.5870
 2592SOL     OW19237   1.510   3.689   8.721  0.4249  0.5531  0.8489
 2592SOL    HW119238   1.416   3.685   8.705  0.3925  1.3896  0.8287
 2592SOL    HW219239   1.550   3.694   8.633 -0.1652 -2.1880  0.4455
 2593SOL     OW19240   0.127   2.006   4.587  0.4716 -0.3692 -0.4821
 2593SOL    HW119241   0.170   1.964   4.661 -2.1357 -1.2397  0.5136
 2593SOL    HW219242   0.110   1.923   4.542 -0.5047 -0.6006  0.3410
 2594SOL     OW19243   2.421   3.480   0.771 -0.1501 -0.2377  0.2856
 2594SOL    HW119244   2.510   3.471   0.738  0.7948  0.9031  2.5409
 2594SOL    HW219245   2.426   3.575   0.778 -2.7964  0.0037 -0.7679
 2595SOL     OW19246   2.244   0.972  13.886 -0.3697  0.1582  0.4522
 2595SOL    HW119247   2.239   0.919  13.806  1.9897 -0.0910  0.4583
 2595SOL    HW219248   2.260   0.914  13.960  0.5435 -2.5364 -1.8635
 2596SOL     OW19249   3.599   3.428   6.902 -0.7338 -0.4923  0.1006
 2596SOL    HW119250   3.623   3.508   6.856  1.6199 -0.6832  0.9698
 2596SOL    HW219251   3.597   3.368   6.828  0.2049  0.8128 -0.9779
 2597SOL     OW19252   4.533   4.688   7.161 -0.2718  0.4663 -0.1023
 2597SOL    HW119253   4.498   4.603   7.135  0.5431 -0.0005  0.2977
 2597SOL    HW219254   4.460   4.718   7.215 -2.3716  0.7216 -3.1234
 2598SOL     OW19255   1.726   0.814   3.188  0.0466 -0.1079 -0.1176
 2598SOL    HW119256   1.769   0.764   3.258  0.3842  1.1658  0.5807
 2598SOL    HW219257   1.726   0.903   3.222 -2.3892  0.3749 -1.4037
 2599SOL     OW19258   1.591   3.793   5.871  0.1764  0.1100  0.2723
 2599SOL    HW119259   1.667   3.847   5.848 -0.2935  0.2947 -0.8109
 2599SOL    HW219260   1.627   3.704   5.872  0.7137  0.3294  0.9186
 2600SOL     OW19261   3.151   1.723   0.474  0.2422  0.1602 -0.9057
 2600SOL    HW119262   3.217   1.654   0.462 -1.2932 -1.6407  0.9924
 2600SOL    HW219263   3.067   1.683   0.451 -0.2328  1.7503 -1.9162
 2601SOL     OW19264   2.238   4.578   8.245 -0.0051  0.2151 -0.2323
 2601SOL    HW119265   2.223   4.517   8.173 -2.1478  0.3998  0.0706
 2601SOL    HW219266   2.329   4.566   8.272 -0.2195 -1.2165 -0.1955
 2602SOL     OW19267   2.712   1.940   3.266 -0.5012  0.8197 -0.3493
 2602SOL    HW119268   2.651   1.977   3.331  0.8525  1.1924  0.6985
 2602SOL    HW219269   2.713   1.853   3.306 -2.5695  0.4433 -1.1206
 2603SOL     OW19270   4.438   2.055  10.747 -0.7680  0.1749 -0.4071
 2603SOL    HW119271   4.512   2.046  10.687  1.2102  1.7178  1.7571
 2603SOL    HW219272   4.362   2.043  10.690 -1.4697  0.5858  0.4352
 2604SOL     OW19273   4.078   0.688   8.097 -0.1645  0.0635 -0.4474
 2604SOL    HW119274   4.016   0.662   8.164  2.1907 -0.7470  1.4359
 2604SOL    HW219275   4.027   0.673   8.017  1.2143  2.8676 -1.8644
 2605SOL     OW19276   1.915   1.337   1.731  0.0177  0.3985 -0.2200
 2605SOL    HW119277   1.932   1.245   1.754 -0.1872  0.1974 -0.8662
 2605SOL    HW219278   1.828   1.331   1.692  0.7777  0.1247 -1.8466
 2606SOL     OW19279   0.619   3.020   9.680 -0.7649 -0.4157  0.2481
 2606SOL    HW119280   0.639   3.055   9.767  0.9617 -0.6425 -0.0627
 2606SOL    HW219281   0.713   3.012   9.662 -0.5077  0.5159  1.1695
 2607SOL     OW19282   3.933   3.599   3.061 -0.3373 -0.7328  0.1553
 2607SOL    HW119283   4.013   3.612   3.112  1.6771 -0.3895 -3.0428
 2607SOL    HW219284   3.970   3.539   2.996 -0.9338  1.0998 -1.8590
 2608SOL     OW19285   3.405   4.237   9.717 -0.3101  0.0657  0.2498
 2608SOL    HW119286   3.315   4.271   9.711  0.0171  1.0682  1.1177
 2608SOL    HW219287   3.396   4.160   9.661  1.4325 -0.3707  0.5758
 2609SOL     OW19288   1.907   0.791   6.487 -0.6574  0.0537  0.0537
 2609SOL    HW119289   1.923   0.697   6.487  0.0490  0.1665  0.3390
 2609SOL    HW219290   1.980   0.809   6.547 -0.8690  0.7975  0.0862
 2610SOL     OW19291   3.470   0.702   6.125 -0.8565 -0.1776 -0.0915
 2610SOL    HW119292   3.402   0.745   6.074 -1.4142 -3.1599 -1.8342
 2610SOL    HW219293   3.430   0.665   6.203 -0.0070 -0.3320  0.2653
 2611SOL     OW19294   1.119   1.980  12.982 -0.4172 -0.0865  0.0004
 2611SOL    HW119295   1.062   2.019  13.048  0.7024  1.4857  0.0355
 2611SOL    HW219296   1.206   1.985  13.021 -0.3135  1.0928 -0.3881
 2612SOL     OW19297   2.605   2.831   0.288  0.2943  0.1430 -0.3234
 2612SOL    HW119298   2.522   2.844   0.335  1.1884  0.5250  1.1419
 2612SOL    HW219299   2.596   2.738   0.267 -2.7256  0.3632  0.0398
 2613SOL     OW19300   0.272   1.073  13.161 -0.0415  0.7304 -0.2138
 2613SOL    HW119301   0.258   1.093  13.069 -0.7492  2.7130  0.3342
 2613SOL    HW219302   0.196   1.114  13.203  0.6899  0.6389  1.2093
 2614SOL     OW19303   1.775   0.889   8.400 -0.0503 -0.2562  0.3374
 2614SOL    HW119304   1.863   0.890   8.436 -0.0217  0.0289  0.2572
 2614SOL    HW219305   1.732   0.807   8.426  1.5497 -1.8142 -1.8505
 2615SOL     OW19306   3.269   2.800  13.119 -0.0622 -0.5270  0.4968
 2615SOL    HW119307   3.247   2.803  13.213 -0.2845  3.9477  0.2843
 2615SOL    HW219308   3.288   2.708  13.101 -0.2264 -0.0102 -2.3039
 2616SOL     OW19309   3.832   0.604   4.224  0.0017 -0.6097  0.1160
 2616SOL    HW119310   3.858   0.533   4.165  3.6877  0.9851 -0.1724
 2616SOL    HW219311   3.838   0.684   4.172  2.3542 -2.2236 -2.0997
 2617SOL     OW19312   1.625   2.586  14.895  0.4114 -0.8644 -0.3225
 2617SOL    HW119313   1.631   2.512  14.955  0.2197  1.1470  2.2133
 2617SOL    HW219314   1.545   2.622  14.933  0.9349  1.1057 -1.0701
 2618SOL     OW19315   3.716   0.801   6.211  0.4398 -0.2463  0.0059
 2618SOL    HW119316   3.733   0.721   6.260  0.2481 -0.4128 -0.1971
 2618SOL    HW219317   3.624   0.784   6.189  0.1951 -0.3039  1.0612
 2619SOL     OW19318   0.199   3.035  16.935 -0.5629  0.0987  0.0623
 2619SOL    HW119319   0.188   2.949  16.894 -0.0278 -0.6670  1.5038
 2619SOL    HW219320   0.276   3.073  16.894 -1.1077  1.7567  0.6028
 2620SOL     OW19321   3.669   4.349   6.186  0.1670  0.0331 -0.0566
 2620SOL    HW119322   3.680   4.337   6.092 -0.1950 -1.1247  0.0508
 2620SOL    HW219323   3.618   4.269   6.202 -2.1604  2.0455  2.5977
 2621SOL     OW19324   2.300   0.970   8.903 -0.6967  0.2144  0.0926
 2621SOL    HW119325   2.301   1.050   8.851  1.5894  1.7217  2.4469
 2621SOL    HW219326   2.278   1.007   8.989  0.9849  0.7421  0.3035
 2622SOL     OW19327   0.365   3.380   5.354 -0.8179 -0.8343  0.6557
 2622SOL    HW119328   0.293   3.332   5.395  0.2741 -1.9389  1.2735
 2622SOL    HW219329   0.429   3.310   5.341 -0.0883 -0.0831  0.2112
 2623SOL     OW19330   0.543   4.565   4.975 -0.7871 -0.9184 -0.4226
 2623SOL    HW119331   0.504   4.630   4.917 -0.0122  3.0325  3.4754
 2623SOL    HW219332   0.607   4.615   5.026 -2.4123 -1.4693  2.1373
 2624SOL     OW19333   4.436   1.076   4.471  0.2378 -0.4519  0.5686
 2624SOL    HW119334   4.409   1.168   4.468 -0.1346 -0.5323  1.3873
 2624SOL    HW219335   4.355   1.041   4.508  0.4460 -2.9244 -1.3324
 2625SOL     OW19336   2.486   0.452   2.774  0.3411 -0.8137 -0.3439
 2625SOL    HW119337   2.442   0.373   2.804 -2.2036 -0.2403 -2.5790
 2625SOL    HW219338   2.522   0.431   2.688  3.4732  2.0125  0.2554
 2626SOL     OW19339   3.322   2.922   7.799  0.0760  0.5841  0.0653
 2626SOL    HW119340   3.256   2.964   7.744 -0.4105 -0.8521 -0.4491
 2626SOL    HW219341   3.313   2.975   7.878 -0.2718 -0.5996  0.8257
 2627SOL     OW19342   2.359   3.568   5.106 -0.1715 -0.2213 -0.1520
 2627SOL    HW119343   2.285   3.620   5.074 -0.1106 -0.2618 -0.3582
 2627SOL    HW219344   2.388   3.624   5.178 -0.0812  1.6218 -1.5975
 2628SOL     OW19345   4.092   0.772   7.535  0.5228  0.1367  0.2593
 2628SOL    HW119346   4.185   0.769   7.555  0.5997 -0.9030 -0.2564
 2628SOL    HW219347   4.080   0.862   7.564  2.2869  0.3420  0.3429
 2629SOL     OW19348   3.513   3.995   7.803 -0.0581  0.6136 -0.2256
 2629SOL    HW119349   3.537   4.041   7.884  1.9704 -2.7946  1.1063
 2629SOL    HW219350   3.560   4.048   7.740  1.5139 -1.3287 -0.6759
 2630SOL     OW19351   3.929   1.291   9.962  0.1770 -1.0978 -0.5401
 2630SOL    HW119352   3.907   1.380   9.990  2.2880 -0.5510 -0.6021
 2630SOL    HW219353   3.845   1.245   9.959 -0.8420  0.7424 -0.5786
 2631SOL     OW19354   1.625   1.594  13.550  0.2254  0.3177 -0.2263
 2631SOL    HW119355   1.548   1.639  13.514  0.9256  1.3529 -0.4242
 2631SOL    HW219356   1.611   1.614  13.643 -2.5847 -2.2501 -0.1004
 2632SOL     OW19357   3.684   2.734   0.776 -0.0985 -0.3455  0.2148
 2632SOL    HW119358   3.641   2.790   0.712  0.4548  0.6146  0.6840
 2632SOL    HW219359   3.743   2.797   0.817 -0.5384 -0.2810  0.7544
 2633SOL     OW19360   3.057   1.620  15.092 -0.2323  0.2515 -0.0625
 2633SOL    HW119361   3.090   1.600  15.004  0.6261 -0.2978  0.3861
 2633SOL    HW219362   3.106   1.561  15.148  0.4304  1.8489  1.0378
 2634SOL     OW19363   1.767   4.180   1.667  0.5065 -0.0618  0.2020
 2634SOL    HW119364   1.764   4.262   1.715 -0.5030  0.7496 -1.2469
 2634SOL    HW219365   1.729   4.125   1.736  2.4147  0.2650  1.5104
 2635SOL     OW19366   2.359   4.011  13.298 -0.3419 -0.2362 -0.0014
 2635SOL    HW119367   2.332   3.953  13.227  2.6051 -0.7119 -0.7101
 2635SOL    HW219368   2.438   4.055  13.269  0.2844 -0.3940  1.4795
 2636SOL     OW19369   3.799   2.500  11.147 -0.2778  0.2852 -0.1147
 2636SOL    HW119370   3.743   2.541  11.081 -0.1626  0.8948  0.1726
 2636SOL    HW219371   3.883   2.540  11.125 -0.2663 -0.4069 -1.3672
 2637SOL     OW19372   4.081   1.136   6.235  0.2118  0.3037  0.5085
 2637SOL    HW119373   4.143   1.126   6.307  0.6458  0.2571  0.1278
 2637SOL    HW219374   4.054   1.048   6.212 -0.4953  0.4417  0.8179
 2638SOL     OW19375   0.999   2.598   5.980 -0.3332 -0.1302 -0.2100
 2638SOL    HW119376   1.032   2.512   6.006  1.2165  0.5694  0.1252
 2638SOL    HW219377   0.926   2.567   5.925 -0.9150  0.2892  0.3241
 2639SOL     OW19378   2.248   2.198   5.169  0.1785  0.6506  0.0154
 2639SOL    HW119379   2.175   2.151   5.128  0.8071 -0.3483  0.0237
 2639SOL    HW219380   2.202   2.253   5.232 -1.9944  1.1392 -2.0136
 2640SOL     OW19381   2.412   2.043   6.506  0.3004  0.4861  0.8309
 2640SOL    HW119382   2.447   1.984   6.439  0.6554  1.2184  0.3796
 2640SOL    HW219383   2.416   2.131   6.470  0.3721  0.6642  1.2713
 2641SOL     OW19384   2.309   4.713   6.598  0.9735  0.4373  0.1289
 2641SOL    HW119385   2.387   4.711   6.542  0.6036 -0.1893 -0.3633
 2641SOL    HW219386   2.343   0.033   6.676 -0.7883 -0.1860  1.2108
 2642SOL     OW19387   0.011   3.846   4.519  0.4067 -0.1798 -0.0323
 2642SOL    HW119388   0.089   3.900   4.506  2.0513 -2.6568 -0.6133
 2642SOL    HW219389   0.058   3.764   4.535 -3.2565 -2.1814  0.4500
 2643SOL     OW19390   0.226   3.002   7.979 -0.1320 -0.0008 -0.0597
 2643SOL    HW119391   0.260   3.007   8.069  1.0270 -1.5442 -0.4100
 2643SOL    HW219392   0.166   2.929   7.997 -0.8755  0.6257  0.0178
 2644SOL     OW19393   3.746   1.472   9.198  0.2063 -0.6769  0.1450
 2644SOL    HW119394   3.761   1.423   9.117 -0.6239 -1.2029  0.3031
 2644SOL    HW219395   3.802   1.429   9.263  1.1329  0.9204  0.3918
 2645SOL     OW19396   2.652   3.435   4.206 -0.4880  0.3943  0.3232
 2645SOL    HW119397   2.614   3.348   4.217  0.1979  0.0128 -0.3322
 2645SOL    HW219398   2.721   3.440   4.272 -1.1849  0.7596  1.0201
 2646SOL     OW19399   1.219   4.556   0.291  0.1949 -0.5969  0.0475
 2646SOL    HW119400   1.232   4.462   0.303 -0.6756 -0.9220 -1.5727
 2646SOL    HW219401   1.124   4.558   0.300  0.0974  0.1381 -1.1408
 2647SOL     OW19402   3.829   4.299   4.690 -0.2018  0.3389 -0.0416
 2647SOL    HW119403   3.735   4.286   4.694 -0.1771 -0.0298 -0.5892
 2647SOL    HW219404   3.827   4.361   4.618  3.4107  0.9605  0.3789
 2648SOL     OW19405   2.669   1.820  13.184 -0.1449  0.0231 -0.2538
 2648SOL    HW119406   2.638   1.868  13.108 -0.2788 -0.1980 -0.3371
 2648SOL    HW219407   2.604   1.848  13.249  1.6114 -0.2489  1.6293
 2649SOL     OW19408   3.318   0.609   6.359  0.4401  0.2304 -0.0884
 2649SOL    HW119409   3.327   0.580   6.450  0.4747  1.5745  0.3258
 2649SOL    HW219410   3.317   0.520   6.322 -0.9323 -0.0570  0.6258
 2650SOL     OW19411   4.629   1.706   8.995  0.3045  0.1270  0.0195
 2650SOL    HW119412   4.684   1.720   9.072 -0.5245 -2.0049  0.9783
 2650SOL    HW219413   4.573   1.783   8.986 -1.1215 -1.0333 -1.1341
 2651SOL     OW19414   2.478   0.813   5.903 -0.5893  0.1763  0.1389
 2651SOL    HW119415   2.540   0.830   5.975  1.5286 -0.8378 -1.4732
 2651SOL    HW219416   2.409   0.764   5.947  0.6452 -0.5697  1.2474
 2652SOL     OW19417   1.005   4.208   3.298  0.0370  0.4340 -0.0947
 2652SOL    HW119418   1.011   4.164   3.214 -1.5654 -0.1305  0.0847
 2652SOL    HW219419   1.045   4.146   3.359 -1.2192  0.3384  0.6464
 2653SOL     OW19420   4.435   2.030   4.241 -0.2985  0.0583  0.3926
 2653SOL    HW119421   4.527   2.033   4.213  0.0699 -0.7751  1.5395
 2653SOL    HW219422   4.433   1.960   4.306  0.3394 -0.0468  0.3025
 2654SOL     OW19423   0.077   1.861   1.688  0.2100  0.0650  0.2454
 2654SOL    HW119424   0.100   1.776   1.651 -2.3325 -1.6912  2.7448
 2654SOL    HW219425   0.075   1.829   1.778  0.1665  0.7987  0.5006
 2655SOL     OW19426   1.242   0.693   6.581 -0.2014  0.7470 -0.6564
 2655SOL    HW119427   1.192   0.635   6.525  1.6435  0.1035 -1.6273
 2655SOL    HW219428   1.315   0.714   6.523 -0.0674  3.7172  0.5480
 2656SOL     OW19429   4.299   0.942   9.870  0.2382  0.0737 -0.0057
 2656SOL    HW119430   4.331   0.926   9.959 -0.2732 -0.5576  0.0633
 2656SOL    HW219431   4.215   0.966   9.908 -1.7076  0.0947 -4.3338
 2657SOL     OW19432   2.485   4.051  15.181 -0.1321  0.1250  0.2705
 2657SOL    HW119433   2.573   4.062  15.218  0.0878 -0.9209  0.0777
 2657SOL    HW219434   2.494   3.973  15.126  2.0244  2.1113 -2.2060
 2658SOL     OW19435   1.107   0.453   0.821  0.7597 -0.3279  0.3669
 2658SOL    HW119436   1.012   0.465   0.825  1.1111  1.1246  3.6531
 2658SOL    HW219437   1.122   0.360   0.802 -0.8352 -1.0699  2.7172
 2659SOL     OW19438   1.749   2.782  14.548 -0.1398 -0.1625 -0.3978
 2659SOL    HW119439   1.821   2.810  14.604 -0.0521 -0.9845 -0.1007
 2659SOL    HW219440   1.770   2.825  14.465  2.1090  1.0096  0.7897
 2660SOL     OW19441   0.489   3.636   5.170 -0.2432  0.4867 -0.1319
 2660SOL    HW119442   0.466   3.649   5.262  1.9025  0.3018  0.4298
 2660SOL    HW219443   0.527   3.720   5.144  2.2394 -0.9820 -1.2838
 2661SOL     OW19444   1.804   0.822   4.094  0.5698 -0.0906 -0.4464
 2661SOL    HW119445   1.799   0.762   4.019  0.4369 -1.5978  0.7735
 2661SOL    HW219446   1.874   0.876   4.056 -1.1747  2.6827  0.2699
 2662SOL     OW19447   3.659   0.843   3.694  0.3305  0.2321  0.1001
 2662SOL    HW119448   3.618   0.925   3.666 -0.4363 -0.2684 -0.2565
 2662SOL    HW219449   3.592   0.786   3.658 -1.3154  1.0973  1.8103
 2663SOL     OW19450   3.948   3.641  13.131  0.2197 -0.6957 -0.3333
 2663SOL    HW119451   3.904   3.557  13.115 -0.5082 -0.0816 -1.5818
 2663SOL    HW219452   3.939   3.653  13.225 -0.8689  0.0612 -0.5331
 2664SOL     OW19453   1.706   4.622   6.797  0.3927  0.4827 -0.0361
 2664SOL    HW119454   1.667   4.635   6.711  0.9253 -1.7467 -0.6146
 2664SOL    HW219455   1.691   4.705   6.842 -0.8047  0.5776 -0.6189
 2665SOL     OW19456   3.692   1.914   1.370  0.0685  0.0336 -0.5307
 2665SOL    HW119457   3.738   1.844   1.324  0.1064 -1.0368  1.1373
 2665SOL    HW219458   3.613   1.929   1.318 -1.0684  1.6654  1.6743
 2666SOL     OW19459   3.168   0.205   6.352  0.5136 -0.4787 -0.6350
 2666SOL    HW119460   3.114   0.226   6.276 -2.2179  0.2736  1.5015
 2666SOL    HW219461   3.158   0.110   6.362 -2.2709 -0.1110  0.0370
 2667SOL     OW19462   0.883   0.115  12.458  0.2752  0.7495  0.4296
 2667SOL    HW119463   0.794   0.143  12.439  0.0495 -0.2035  0.0957
 2667SOL    HW219464   0.879   0.078  12.546  0.8910  0.0826  0.1798
 2668SOL     OW19465   2.478   3.630   4.212  0.0392 -0.6287  0.4259
 2668SOL    HW119466   2.537   3.557   4.193 -0.0326 -0.0553 -2.0898
 2668SOL    HW219467   2.415   3.597   4.276  1.0848 -0.9983  1.2560
 2669SOL     OW19468   1.797   0.506   9.046 -0.1680  0.1282 -0.3941
 2669SOL    HW119469   1.832   0.433   8.994  0.2260 -0.0062  0.0614
 2669SOL    HW219470   1.829   0.568   8.980  2.7716 -0.2547  0.6693
 2670SOL     OW19471   4.272   3.091   7.778  0.3812 -0.7125 -0.6487
 2670SOL    HW119472   4.187   3.125   7.752 -0.6887 -1.0166  2.4821
 2670SOL    HW219473   4.333   3.162   7.760 -1.3766  0.9832  0.1122
 2671SOL     OW19474   1.957   4.460  15.671 -0.3556  0.3105 -0.2397
 2671SOL    HW119475   2.006   4.536  15.641  1.4253 -0.5688  0.4599
 2671SOL    HW219476   1.966   4.450  15.765  1.2049 -2.1676 -0.6493
 2672SOL     OW19477   3.968   3.168   8.320  0.1974 -0.3848 -0.2581
 2672SOL    HW119478   3.874   3.187   8.313  0.2858  0.4413  0.7219
 2672SOL    HW219479   3.981   3.105   8.249  1.1295  0.7462 -1.0825
 2673SOL     OW19480   2.187   1.556  10.361  0.2731 -0.4854  0.3786
 2673SOL    HW119481   2.107   1.596  10.326  1.5734  0.9425 -0.9774
 2673SOL    HW219482   2.255   1.616  10.329  0.9874 -1.1913  0.5560
 2674SOL     OW19483   2.295   1.071   5.946  0.4576  0.1697  1.0477
 2674SOL    HW119484   2.390   1.064   5.950  0.7453  3.5877  0.6253
 2674SOL    HW219485   2.277   0.996   5.890 -0.7469  1.8741 -0.8449
 2675SOL     OW19486   1.145   3.092  16.615  0.1527 -0.0534 -0.1713
 2675SOL    HW119487   1.094   3.014  16.638  1.1664 -0.1413  1.8187
 2675SOL    HW219488   1.189   3.058  16.537  0.5091 -0.8153  0.3632
 2676SOL     OW19489   4.054   4.188  12.278  0.4304 -1.2640  0.5494
 2676SOL    HW119490   4.095   4.271  12.250  1.4856 -1.7966  0.4956
 2676SOL    HW219491   3.970   4.216  12.312  0.1523 -1.1823 -0.1963
 2677SOL     OW19492   1.811   2.905   8.771 -0.0794  0.2339  0.4930
 2677SOL    HW119493   1.887   2.903   8.830  1.6101 -2.0231 -1.7764
 2677SOL    HW219494   1.798   2.810   8.769  0.5875  0.1914 -2.2604
 2678SOL     OW19495   2.699   4.355   4.861  0.7403  0.3293 -0.7008
 2678SOL    HW119496   2.729   4.309   4.783 -1.4294 -1.3086 -0.5689
 2678SOL    HW219497   2.729   4.444   4.842  3.0485  0.3097  2.7617
 2679SOL     OW19498   2.292   2.627  11.162  0.5422  0.0658  0.5738
 2679SOL    HW119499   2.324   2.593  11.078  0.9256 -1.9533  1.5258
 2679SOL    HW219500   2.371   2.659  11.206  0.5061 -1.7692  2.0247
 2680SOL     OW19501   4.206   2.840   7.747  0.0680 -0.9134  0.4272
 2680SOL    HW119502   4.226   2.933   7.751  1.3327 -1.1615 -0.1850
 2680SOL    HW219503   4.201   2.807   7.837  0.7488  1.3860  1.2945
 2681SOL     OW19504   2.679   3.798   2.643 -0.2907 -0.1475 -0.2597
 2681SOL    HW119505   2.624   3.873   2.667  0.1728 -0.3406  1.3784
 2681SOL    HW219506   2.730   3.832   2.569 -3.4036  3.2346 -0.8343
 2682SOL     OW19507   4.436   1.669   8.373 -0.0722  0.6307  0.4987
 2682SOL    HW119508   4.442   1.578   8.344 -0.8315 -0.2139  2.9765
 2682SOL    HW219509   4.363   1.657   8.434  0.8832  0.3655  1.6068
 2683SOL     OW19510   4.442   4.382   2.415  0.5331 -0.2506  0.3829
 2683SOL    HW119511   4.429   4.314   2.481 -0.9462 -2.0745 -1.7727
 2683SOL    HW219512   4.518   4.347   2.369  0.7314 -0.3158  0.7609
 2684SOL     OW19513   3.098   4.342   8.517  0.0111 -0.0441  0.7236
 2684SOL    HW119514   3.048   4.315   8.440  2.8212 -2.1634 -0.3615
 2684SOL    HW219515   3.139   4.425   8.490 -1.0772  0.2931  0.1257
 2685SOL     OW19516   0.867   0.904   4.906 -0.3617 -0.1958  0.4990
 2685SOL    HW119517   0.831   0.923   4.820  0.1910  0.3997  0.4029
 2685SOL    HW219518   0.895   0.812   4.906  1.5365  0.3771 -0.6914
 2686SOL     OW19519   0.914   2.236  17.573  0.2095  0.2190 -0.4783
 2686SOL    HW119520   0.941   2.283  17.652  0.3538 -0.9525  0.1630
 2686SOL    HW219521   0.927   2.150  17.612 -2.5926  0.6949  1.5604
 2687SOL     OW19522   0.150   1.776   4.387 -0.3592 -0.0659 -0.4344
 2687SOL    HW119523   0.175   1.717   4.316 -1.7372  0.5323 -1.4123
 2687SOL    HW219524   0.233   1.818   4.410 -0.7657  0.8096 -0.5559
 2688SOL     OW19525   1.431   2.590   4.954 -0.1988  0.0029 -0.1871
 2688SOL    HW119526   1.398   2.510   4.914  0.7528 -0.7143  0.4589
 2688SOL    HW219527   1.408   2.659   4.891  2.4608  1.7454  0.7536
 2689SOL     OW19528   4.655   0.451  13.529 -0.0175  0.2583  0.3564
 2689SOL    HW119529   4.720   0.502  13.480  0.5798  0.9054  1.8435
 2689SOL    HW219530   4.588   0.518  13.536 -0.0175  0.4066 -1.0688
 2690SOL     OW19531   3.348   4.476   9.839  0.3017 -0.4724  0.2844
 2690SOL    HW119532   3.313   4.518   9.918 -1.0443  1.1375 -1.1668
 2690SOL    HW219533   3.431   4.440   9.869  1.1496  0.4356 -0.9489
 2691SOL     OW19534   3.314   2.748   0.343 -0.0069  0.8154  0.1009
 2691SOL    HW119535   3.314   2.779   0.253  1.9305 -0.1417 -0.2479
 2691SOL    HW219536   3.235   2.791   0.375  0.3605  2.3992 -1.1468
 2692SOL     OW19537   1.907   2.522   5.381  0.5814 -0.4517  0.4274
 2692SOL    HW119538   1.824   2.562   5.407  0.6607 -0.6053  0.9014
 2692SOL    HW219539   1.946   2.590   5.326  0.5532 -1.1798 -0.4976
 2693SOL     OW19540   1.359   2.669  16.013 -0.1214  0.1211 -0.1046
 2693SOL    HW119541   1.295   2.603  15.985 -2.6561  2.4767  0.1489
 2693SOL    HW219542   1.420   2.667  15.939  1.1864  0.0385  0.9664
 2694SOL     OW19543   1.144   1.551   2.921 -0.0055 -0.2133  0.5574
 2694SOL    HW119544   1.144   1.525   2.829  0.4481  0.5318  0.3497
 2694SOL    HW219545   1.218   1.500   2.954  0.2985  1.2222  2.1031
 2695SOL     OW19546   2.057   1.665   8.216  0.5218  0.0079  0.0842
 2695SOL    HW119547   2.086   1.714   8.293 -1.1854 -1.1220  1.4253
 2695SOL    HW219548   1.963   1.682   8.222  0.2785 -1.7825  1.0863
 2696SOL     OW19549   3.813   4.306   9.318  0.4350 -0.3642  0.0495
 2696SOL    HW119550   3.859   4.389   9.316  0.0012 -0.0326  3.9464
 2696SOL    HW219551   3.850   4.255   9.246  0.1371 -2.4498  1.3566
 2697SOL     OW19552   3.709   3.659   7.816  1.1556  0.1367  0.2068
 2697SOL    HW119553   3.781   3.661   7.879  1.5767  1.6338 -0.3024
 2697SOL    HW219554   3.761   3.708   7.752 -0.5962 -0.0504 -1.3887
 2698SOL     OW19555   1.004   4.411  17.559  0.3371 -0.1366 -0.4321
 2698SOL    HW119556   0.955   4.331  17.575 -2.3470  1.8028  0.9891
 2698SOL    HW219557   1.095   4.381  17.571 -0.0713 -0.8712  0.8614
 2699SOL     OW19558   2.512   4.491   9.847 -0.3643 -0.3573 -0.3731
 2699SOL    HW119559   2.499   4.515   9.939  1.1581  2.0665 -0.7731
 2699SOL    HW219560   2.607   4.487   9.844 -0.3283  0.0026  0.2134
 2700SOL     OW19561   1.971   1.541   9.609 -0.0249 -0.1666 -0.4131
 2700SOL    HW119562   2.002   1.631   9.617 -1.7172  0.4311 -0.4382
 2700SOL    HW219563   2.036   1.493   9.659  2.1829  2.3625 -0.8844
 2701SOL     OW19564   0.040   1.612   5.990  0.0223  0.3118 -0.0935
 2701SOL    HW119565   4.689   1.586   5.934 -0.4027 -0.3755  0.7916
 2701SOL    HW219566   0.112   1.613   5.927 -0.5195 -0.2624 -0.7309
 2702SOL     OW19567   0.634   2.526   6.588  0.2413 -0.3915  0.1587
 2702SOL    HW119568   0.622   2.543   6.495  0.2966 -1.2571 -0.0002
 2702SOL    HW219569   0.673   2.439   6.584  0.8492 -0.0436 -1.7003
 2703SOL     OW19570   4.630   1.547   7.405 -0.0580 -0.2762  0.6584
 2703SOL    HW119571   4.637   1.473   7.464  0.1884 -0.3139  0.5841
 2703SOL    HW219572   0.001   1.560   7.389 -0.3665  1.6100  0.3516
 2704SOL     OW19573   0.183   2.963   4.273 -0.6250 -0.1741  0.2466
 2704SOL    HW119574   0.239   2.940   4.347 -0.2494 -1.5074 -0.4656
 2704SOL    HW219575   0.245   2.958   4.201 -1.6190 -2.4711 -0.4651
 2705SOL     OW19576   1.511   4.633   2.408  0.7439  0.2547 -0.0961
 2705SOL    HW119577   1.587   4.665   2.360 -0.5238  1.0735 -1.5550
 2705SOL    HW219578   1.450   4.706   2.401  0.9414  0.5503  1.2773
 2706SOL     OW19579   0.715   2.796  16.578  0.1897 -0.2771 -0.0179
 2706SOL    HW119580   0.657   2.769  16.650 -0.3473 -0.3804 -0.4869
 2706SOL    HW219581   0.805   2.797  16.610 -0.5341  0.4782  2.0186
 2707SOL     OW19582   3.040   2.368  17.147 -0.5987  0.4001  0.0104
 2707SOL    HW119583   3.118   2.410  17.110  0.6690 -3.0631 -1.3006
 2707SOL    HW219584   3.066   2.277  17.162 -1.1658  0.5221  1.6593
 2708SOL     OW19585   0.753   3.923   5.594 -0.5588  0.3673 -0.0036
 2708SOL    HW119586   0.715   3.891   5.675  0.8445 -1.5615 -0.1070
 2708SOL    HW219587   0.700   3.883   5.525 -0.7309 -0.1575  0.4399
 2709SOL     OW19588   2.389   3.465   7.409  0.4011 -0.1039  0.2348
 2709SOL    HW119589   2.374   3.402   7.479  0.9605  1.2120  1.5523
 2709SOL    HW219590   2.473   3.503   7.437  2.0336 -1.7135 -2.4006
 2710SOL     OW19591   3.103   3.026   4.915 -0.2879 -0.7043 -0.3700
 2710SOL    HW119592   3.097   3.060   4.825 -0.7251  0.6147  0.1621
 2710SOL    HW219593   3.122   2.933   4.900 -1.3720 -0.8685 -0.7427
 2711SOL     OW19594   0.238   1.630   4.126 -0.3105  0.1081 -0.0196
 2711SOL    HW119595   0.175   1.566   4.159 -0.6379 -0.1624 -1.1577
 2711SOL    HW219596   0.213   1.634   4.034 -0.0960  1.2809 -0.0272
 2712SOL     OW19597   0.576   2.857  13.981  0.3819  0.4093  0.1162
 2712SOL    HW119598   0.508   2.922  13.967 -0.4860 -0.6859 -0.7519
 2712SOL    HW219599   0.601   2.851  13.889  1.3901  2.5876  0.2497
 2713SOL     OW19600   4.522   3.068   3.058  0.2409 -0.4114  0.5839
 2713SOL    HW119601   4.577   2.995   3.031 -0.6008 -1.7697  2.5363
 2713SOL    HW219602   4.587   3.094   3.123  0.0994  3.2626 -0.7304
 2714SOL     OW19603   4.438   1.542   0.766 -0.2006  0.5399 -0.5386
 2714SOL    HW119604   4.445   1.585   0.680  2.1127 -2.1671 -1.7205
 2714SOL    HW219605   4.396   1.610   0.817  0.0867 -1.1976  2.0313
 2715SOL     OW19606   1.462   3.543  10.512  0.3110  0.5904  0.5792
 2715SOL    HW119607   1.551   3.531  10.478 -0.0995 -0.9397  0.0294
 2715SOL    HW219608   1.448   3.637  10.508  0.4199  0.6168  0.8582
 2716SOL     OW19609   3.526   2.729   5.034  0.1218  0.8398 -0.1971
 2716SOL    HW119610   3.483   2.663   5.087  1.4030 -1.9192 -2.5927
 2716SOL    HW219611   3.560   2.685   4.956 -2.9739  0.1489 -1.1265
 2717SOL     OW19612   0.671   2.057   5.638  0.0979  0.3194  0.1334
 2717SOL    HW119613   0.608   2.118   5.601  0.2869 -0.1213 -0.8953
 2717SOL    HW219614   0.637   1.978   5.597  0.6152 -1.0509  2.3021
 2718SOL     OW19615   3.902   3.157   7.238 -0.1690 -0.8616  0.3503
 2718SOL    HW119616   3.818   3.112   7.234  0.1701 -1.5273  0.6271
 2718SOL    HW219617   3.938   3.127   7.322  0.0529 -2.4396 -0.2968
 2719SOL     OW19618   2.482   3.145   5.504  0.4692 -0.2985 -0.1810
 2719SOL    HW119619   2.404   3.155   5.450 -1.1062  0.5443  2.2653
 2719SOL    HW219620   2.485   3.051   5.519  2.8341 -0.2712 -0.3659
 2720SOL     OW19621   1.962   4.242  10.508  0.2183 -0.5450  0.2092
 2720SOL    HW119622   1.932   4.156  10.537 -1.2756 -0.6905 -1.7578
 2720SOL    HW219623   1.878   4.288  10.517  0.1250 -0.2100 -2.2657
 2721SOL     OW19624   0.706   0.916   4.660  0.0840 -0.2257 -0.0449
 2721SOL    HW119625   0.682   0.975   4.588  2.0799  1.0028  0.2869
 2721SOL    HW219626   0.673   0.831   4.633 -1.2859 -0.1902  1.5084
 2722SOL     OW19627   0.442   4.050   7.248 -0.0678 -0.2505  0.3958
 2722SOL    HW119628   0.505   3.980   7.265 -0.1194 -1.1562 -3.0936
 2722SOL    HW219629   0.401   4.064   7.333 -0.8687 -1.4464  0.2094
 2723SOL     OW19630   3.935   0.498   7.262 -0.1820 -0.3493  0.0118
 2723SOL    HW119631   3.866   0.509   7.196  0.9067 -2.2273 -1.4215
 2723SOL    HW219632   3.967   0.410   7.246 -0.2301  0.0464 -2.3132
 2724SOL     OW19633   3.343   1.831   2.047 -0.2452  1.1611  0.1099
 2724SOL    HW119634   3.311   1.741   2.059  0.1315  1.2350  1.6685
 2724SOL    HW219635   3.436   1.810   2.039 -0.9895 -2.5057  1.0081
 2725SOL     OW19636   0.461   0.651   3.064 -0.3792 -0.2138 -0.2247
 2725SOL    HW119637   0.458   0.595   2.986 -0.2590 -1.3002  0.5611
 2725SOL    HW219638   0.370   0.669   3.088 -0.8567 -1.0536 -1.4271
 2726SOL     OW19639   0.888   3.778   1.150  0.0154 -0.0098  0.2197
 2726SOL    HW119640   0.836   3.857   1.167 -0.5457 -0.0378 -1.3223
 2726SOL    HW219641   0.897   3.742   1.238 -0.5428 -0.6438  0.0171
 2727SOL     OW19642   2.961   3.233   2.641  0.0280 -0.8832 -0.1583
 2727SOL    HW119643   2.939   3.270   2.727  0.1435  0.6200 -0.7848
 2727SOL    HW219644   2.906   3.286   2.585 -1.6006  0.9343  3.1424
 2728SOL     OW19645   3.277   3.053   7.237  0.4249 -0.2888 -0.1066
 2728SOL    HW119646   3.287   2.961   7.210  3.1273  0.1901 -0.7372
 2728SOL    HW219647   3.330   3.056   7.317 -0.2176 -1.2214  0.3533
 2729SOL     OW19648   2.224   3.816   3.237 -0.1759 -0.3621  0.1520
 2729SOL    HW119649   2.241   3.758   3.311  1.8298 -0.8317 -0.6861
 2729SOL    HW219650   2.169   3.881   3.280 -0.3976  0.1457 -0.8907
 2730SOL     OW19651   2.005   1.004  15.573  0.3175  0.3232  0.4762
 2730SOL    HW119652   2.007   1.077  15.510 -0.9264 -1.8628 -2.0814
 2730SOL    HW219653   2.058   1.034  15.647 -0.7798 -0.7409  1.6795
 2731SOL     OW19654   2.706   0.023   4.112 -0.0582  0.7160  0.1078
 2731SOL    HW119655   2.784   0.033   4.167 -0.1453 -0.5766  0.4639
 2731SOL    HW219656   2.637   0.006   4.176  0.2657  0.3247  0.3501
 2732SOL     OW19657   2.578   4.459  12.997 -0.4432 -0.4861  0.2534
 2732SOL    HW119658   2.568   4.408  12.916 -0.4151  0.0072 -0.0611
 2732SOL    HW219659   2.600   4.538  12.947 -0.6961 -0.3024  0.4372
 2733SOL     OW19660   3.399   3.926  13.237  0.2242 -0.0693  0.0969
 2733SOL    HW119661   3.392   4.021  13.222 -0.0979 -0.4541 -2.1547
 2733SOL    HW219662   3.494   3.918  13.225  0.1378 -1.8939  0.7235
 2734SOL     OW19663   3.989   3.524   8.938  0.0023  0.9573 -0.1178
 2734SOL    HW119664   3.916   3.564   8.985  1.3801  4.1221 -0.6717
 2734SOL    HW219665   3.993   3.437   8.977 -0.4961  0.6163 -0.8135
 2735SOL     OW19666   1.528   0.021   6.384 -0.4522  0.1052  0.0115
 2735SOL    HW119667   1.617   0.005   6.353 -1.8388 -3.5103 -2.1647
 2735SOL    HW219668   1.530   4.684   6.459  0.1163  1.1068  0.7891
 2736SOL     OW19669   3.658   2.982  13.032  0.7366  0.0045  0.3146
 2736SOL    HW119670   3.666   2.906  13.090 -0.8276 -0.2401  0.2212
 2736SOL    HW219671   3.676   2.948  12.945 -2.7051  1.0087 -0.8108
 2737SOL     OW19672   1.106   1.259   8.425 -0.5905 -0.2225  0.5432
 2737SOL    HW119673   1.114   1.206   8.345 -3.3284 -2.9769  2.0889
 2737SOL    HW219674   1.177   1.217   8.473  0.6425  1.0982 -0.1155
 2738SOL     OW19675   3.217   1.164   2.861  0.3671  0.6536 -0.4483
 2738SOL    HW119676   3.138   1.219   2.863 -0.7814 -1.0697  1.3506
 2738SOL    HW219677   3.235   1.169   2.767  0.6194  1.6216 -0.3542
 2739SOL     OW19678   4.623   4.179   2.373  0.0886 -0.1611 -0.8832
 2739SOL    HW119679   4.596   4.118   2.304 -0.1366  0.1699 -1.0887
 2739SOL    HW219680   4.719   4.177   2.377  0.0130 -0.2103  0.9440
 2740SOL     OW19681   3.951   1.865   5.268 -0.0498  0.1925 -0.1719
 2740SOL    HW119682   3.878   1.916   5.303 -0.6730  0.1345 -1.4121
 2740SOL    HW219683   4.032   1.898   5.307 -2.1769  1.0465  3.5090
 2741SOL     OW19684   2.394   1.064   3.499  0.2025 -0.5425  0.2834
 2741SOL    HW119685   2.461   1.098   3.559 -1.5708  0.1463  1.8942
 2741SOL    HW219686   2.412   0.974   3.528  1.4414 -0.5939 -0.6363
 2742SOL     OW19687   3.277   0.867   9.319 -0.1229  0.1962  0.1983
 2742SOL    HW119688   3.293   0.962   9.325 -1.6279  0.3057  2.2234
 2742SOL    HW219689   3.181   0.872   9.314 -0.2051 -1.2020  0.4797
 2743SOL     OW19690   3.655   2.953  13.813 -0.0468 -0.3512  0.2123
 2743SOL    HW119691   3.560   2.939  13.808 -0.0741  0.5688 -2.3273
 2743SOL    HW219692   3.659   3.049  13.806 -0.3854 -0.5610 -2.8357
 2744SOL     OW19693   4.688   3.405   1.056 -0.0307  0.3920  0.2485
 2744SOL    HW119694   0.025   3.459   1.004 -0.3939  2.3656  1.8602
 2744SOL    HW219695   4.620   3.471   1.066  0.4557  0.5841  2.1670
 2745SOL     OW19696   2.006   1.207   7.697  0.1700 -0.4657  0.0360
 2745SOL    HW119697   2.079   1.263   7.672 -0.4577 -0.4092 -1.6786
 2745SOL    HW219698   2.028   1.149   7.770  0.8009  1.1318  1.1092
 2746SOL     OW19699   1.684   0.089   0.858  0.1060 -0.0262 -0.3922
 2746SOL    HW119700   1.779   0.089   0.869 -0.0377 -3.4218  0.8035
 2746SOL    HW219701   1.659   0.056   0.944  0.7346  1.7628  0.4807
 2747SOL     OW19702   2.021   0.019   4.318 -0.0091 -0.0990 -0.1768
 2747SOL    HW119703   1.933   0.024   4.355  0.0113  2.2069 -0.4166
 2747SOL    HW219704   2.028   4.655   4.279  0.7326  0.7278 -1.9160
 2748SOL     OW19705   4.421   3.668   7.701 -0.1415  0.1385  0.0660
 2748SOL    HW119706   4.498   3.666   7.644  0.2600  0.2510  0.6054
 2748SOL    HW219707   4.398   3.759   7.686  0.1579  0.5111  1.9309
 2749SOL     OW19708   4.117   1.469   6.941  0.0985 -0.4433  0.2515
 2749SOL    HW119709   4.042   1.481   7.000 -0.0130 -0.8808  0.1946
 2749SOL    HW219710   4.137   1.377   6.958  1.5945 -0.2037 -0.2369
 2750SOL     OW19711   2.306   1.449   7.729  0.1565 -0.0073 -0.1772
 2750SOL    HW119712   2.220   1.483   7.703 -0.7065 -0.2865  2.3988
 2750SOL    HW219713   2.355   1.531   7.716  1.6005 -0.6257  1.3856
 2751SOL     OW19714   1.545   2.437   5.803  0.2978 -0.4860 -0.2878
 2751SOL    HW119715   1.571   2.346   5.791  0.5401 -0.2959 -1.2198
 2751SOL    HW219716   1.496   2.433   5.885 -0.4090 -1.1156 -0.7412
 2752SOL     OW19717   3.906   2.724   2.898 -0.2609  0.0871  0.3229
 2752SOL    HW119718   4.001   2.714   2.904 -0.3528  0.4314  2.3258
 2752SOL    HW219719   3.874   2.634   2.889 -0.6526  0.0475  2.0359
 2753SOL     OW19720   2.532   3.045   2.296 -0.0540  0.2780 -0.1981
 2753SOL    HW119721   2.492   3.019   2.379  3.3037  0.3793  1.4876
 2753SOL    HW219722   2.481   3.122   2.270 -0.1727  0.4042  0.4087
 2754SOL     OW19723   1.890   1.756   3.680 -0.3009  0.2888 -0.0231
 2754SOL    HW119724   1.916   1.795   3.763 -1.0754  0.6454  0.0446
 2754SOL    HW219725   1.805   1.794   3.659  1.1418  2.8176 -1.1618
 2755SOL     OW19726   3.582   3.563   1.020 -0.0083 -0.2087 -0.0001
 2755SOL    HW119727   3.488   3.573   1.035  0.0735 -1.5116  1.3015
 2755SOL    HW219728   3.582   3.505   0.944  1.8834  0.4264 -0.4849
 2756SOL     OW19729   1.968   3.810   5.707  0.1318 -0.5375  0.1634
 2756SOL    HW119730   1.916   3.779   5.633  0.8546 -0.9750 -0.1563
 2756SOL    HW219731   1.897   3.859   5.749  0.8301  0.2133  0.4668
 2757SOL     OW19732   1.319   0.755   6.305  0.0655 -0.2245  0.2113
 2757SOL    HW119733   1.370   0.815   6.359  0.1909  2.6844 -3.1296
 2757SOL    HW219734   1.374   0.724   6.233 -2.1557 -0.1945 -1.4945
 2758SOL     OW19735   2.034   2.359   0.315  0.5860 -0.0100  0.4240
 2758SOL    HW119736   1.943   2.334   0.332 -0.2154  0.5822 -3.0060
 2758SOL    HW219737   2.015   2.449   0.289  2.0924  0.2627  0.2550
 2759SOL     OW19738   0.838   1.191  14.303 -0.4081  0.2348  0.1647
 2759SOL    HW119739   0.812   1.269  14.352 -0.2860  0.5171 -0.2208
 2759SOL    HW219740   0.933   1.194  14.314 -0.4792 -1.5079  1.2350
 2760SOL     OW19741   2.367   4.113   7.399  0.1599  0.3465  0.2174
 2760SOL    HW119742   2.407   4.195   7.430 -0.7034  0.8929 -0.1449
 2760SOL    HW219743   2.365   4.068   7.484  0.7841  1.4262  0.8136
 2761SOL     OW19744   3.528   0.201  13.199  0.1434 -0.7838  0.1363
 2761SOL    HW119745   3.570   0.115  13.195  1.7600  0.0305 -0.2793
 2761SOL    HW219746   3.610   0.247  13.216 -0.8852  1.7151 -1.7984
 2762SOL     OW19747   0.254   2.477   5.074  0.3950 -0.5245 -0.2628
 2762SOL    HW119748   0.285   2.388   5.088 -1.1615 -1.0246  0.0108
 2762SOL    HW219749   0.328   2.522   5.115 -0.9677  1.3454  0.1585
 2763SOL     OW19750   4.208   3.577  11.323  0.1366 -0.0021  0.2061
 2763SOL    HW119751   4.114   3.592  11.332 -0.6832 -3.7452 -2.1446
 2763SOL    HW219752   4.243   3.632  11.393  0.4954 -1.4755  1.1924
 2764SOL     OW19753   0.965   0.624  17.568  0.0783  0.3421 -0.2738
 2764SOL    HW119754   0.916   0.551  17.607  1.0231  0.1211  0.5079
 2764SOL    HW219755   1.050   0.586  17.543 -1.4682 -2.0702 -1.8020
 2765SOL     OW19756   1.221   0.125   7.347 -0.1669  0.3854  0.3348
 2765SOL    HW119757   1.217   0.205   7.400 -1.5561  1.2886 -1.1220
 2765SOL    HW219758   1.292   0.078   7.390 -0.9158  1.4110  2.7175
 2766SOL     OW19759   1.136   2.634   0.396  0.0214  0.1894  0.0548
 2766SOL    HW119760   1.209   2.599   0.447  0.9368  0.6327 -0.9540
 2766SOL    HW219761   1.077   2.559   0.382  0.1275  0.3317 -1.1600
 2767SOL     OW19762   2.249   1.730   1.802 -0.2176  0.4990 -0.0509
 2767SOL    HW119763   2.283   1.682   1.877 -3.6887 -1.9937 -0.0899
 2767SOL    HW219764   2.183   1.667   1.772 -0.0173 -0.4631  1.5503
 2768SOL     OW19765   3.445   0.285   6.681 -0.4210  0.0545 -0.6678
 2768SOL    HW119766   3.415   0.266   6.592 -1.2183 -1.9072 -0.0009
 2768SOL    HW219767   3.539   0.269   6.686 -0.7710 -2.3250 -1.6878
 2769SOL     OW19768   3.289   0.249   0.361  0.5814  0.3423 -0.0437
 2769SOL    HW119769   3.277   0.160   0.330  0.4030 -0.2873  1.8173
 2769SOL    HW219770   3.380   0.256   0.332  0.2197  0.8878 -1.0467
 2770SOL     OW19771   0.550   2.116  15.414  0.2898  0.4664 -0.2332
 2770SOL    HW119772   0.592   2.040  15.373  0.3536 -0.0522  0.7928
 2770SOL    HW219773   0.490   2.080  15.479  1.1715 -1.2494 -0.3480
 2771SOL     OW19774   0.413   4.390   0.921 -0.6911 -0.2083 -1.1328
 2771SOL    HW119775   0.397   4.482   0.939  1.3656 -0.1812  0.5916
 2771SOL    HW219776   0.360   4.354   0.993  0.3018 -0.4321 -0.5152
 2772SOL     OW19777   0.272   3.264   7.352 -0.0688  0.0737  0.0505
 2772SOL    HW119778   0.204   3.331   7.350 -0.4187 -0.2649  0.5100
 2772SOL    HW219779   0.221   3.183   7.354  0.5041 -0.3850 -3.0208
 2773SOL     OW19780   2.798   2.801   5.440  0.1509  0.0080  0.2802
 2773SOL    HW119781   2.809   2.707   5.456 -2.2905  0.2889  3.6607
 2773SOL    HW219782   2.704   2.818   5.447  0.2950  0.7358  0.5390
 2774SOL     OW19783   1.656   1.535   2.801  0.4147  0.0326  0.3160
 2774SOL    HW119784   1.740   1.544   2.755  0.8791  0.7845  1.3222
 2774SOL    HW219785   1.657   1.440   2.802 -3.0919 -0.0082  1.0188
 2775SOL     OW19786   0.881   0.615   8.322  0.5560  0.6168 -0.5107
 2775SOL    HW119787   0.863   0.616   8.228 -0.0913  0.7600 -0.3871
 2775SOL    HW219788   0.976   0.625   8.323  0.6454 -0.3724  1.1924
 2776SOL     OW19789   3.011   2.769   6.258 -0.0335 -0.4281 -0.1776
 2776SOL    HW119790   3.037   2.857   6.232  1.1016 -0.9132 -0.7362
 2776SOL    HW219791   2.976   2.794   6.343  0.9801  0.8310 -0.1380
 2777SOL     OW19792   4.217   1.966   0.933 -0.1390 -0.1891 -0.2874
 2777SOL    HW119793   4.128   1.999   0.940  0.1667  0.7883 -1.1108
 2777SOL    HW219794   4.230   1.989   0.841 -1.8280 -0.9034 -0.7115
 2778SOL     OW19795   3.357   1.911   0.212 -0.0292 -0.6504 -0.3837
 2778SOL    HW119796   3.445   1.912   0.173 -0.8762 -0.4769 -2.2913
 2778SOL    HW219797   3.377   1.958   0.293 -1.0587 -0.0784 -0.4686
 2779SOL     OW19798   3.547   1.611   2.855 -0.2187  0.2985  0.9288
 2779SOL    HW119799   3.477   1.677   2.847  0.4502  0.9506  0.4420
 2779SOL    HW219800   3.490   1.535   2.846  0.6931 -0.3215  0.4228
 2780SOL     OW19801   2.182   1.495   2.379  0.0442 -0.0913  0.6262
 2780SOL    HW119802   2.177   1.505   2.474  1.2233  0.5644  0.6166
 2780SOL    HW219803   2.088   1.488   2.363  0.1148 -0.8492  0.5107
 2781SOL     OW19804   1.446   2.402   7.502  0.3964  0.5536  0.4201
 2781SOL    HW119805   1.454   2.494   7.527 -1.0224  0.3979  1.4619
 2781SOL    HW219806   1.427   2.349   7.579 -0.6718  0.2973 -0.0161
 2782SOL     OW19807   2.518   2.829   2.588  0.4302  0.1580  0.2354
 2782SOL    HW119808   2.544   2.770   2.516 -1.0069 -0.2477  0.0448
 2782SOL    HW219809   2.422   2.827   2.591  0.4536  1.2121  1.4456
 2783SOL     OW19810   4.334   4.042  11.593  0.4550 -0.0524  0.0527
 2783SOL    HW119811   4.264   4.057  11.656  0.1180 -1.8684  0.1205
 2783SOL    HW219812   4.397   4.102  11.633  1.8854 -1.3456 -0.2680
 2784SOL     OW19813   3.065   0.523   5.376 -0.5685 -1.0158 -0.1434
 2784SOL    HW119814   3.128   0.591   5.401  0.3345 -2.1719  0.7269
 2784SOL    HW219815   3.133   0.473   5.331  0.2893  0.9020 -0.9570
 2785SOL     OW19816   2.589   2.023   0.110 -0.4033  0.4419 -0.1244
 2785SOL    HW119817   2.659   1.958   0.116 -0.6520  0.1717 -0.1726
 2785SOL    HW219818   2.632   2.106   0.085  1.0683 -0.7233 -1.4923
 2786SOL     OW19819   2.934   1.498   4.824  0.5010 -0.1302 -0.0661
 2786SOL    HW119820   2.985   1.575   4.800 -0.4720  0.6485  0.3422
 2786SOL    HW219821   2.883   1.534   4.896  0.0794 -0.9256  0.0396
 2787SOL     OW19822   1.310   0.317  14.148  0.2954 -0.0018 -0.0723
 2787SOL    HW119823   1.284   0.374  14.076  2.0256  0.5044 -0.3034
 2787SOL    HW219824   1.391   0.366  14.162 -0.5437  1.0188  1.1909
 2788SOL     OW19825   3.622   1.161  12.996  0.0961 -0.5274  0.0513
 2788SOL    HW119826   3.688   1.164  13.065  0.6191 -0.0385 -0.4748
 2788SOL    HW219827   3.550   1.113  13.037  1.9985  1.9231  6.2225
 2789SOL     OW19828   1.093   0.929   7.639 -0.3290  0.4119  0.5351
 2789SOL    HW119829   1.032   0.984   7.590 -0.4459  1.6407  2.0476
 2789SOL    HW219830   1.036   0.864   7.680  0.4710 -1.4788 -1.3657
 2790SOL     OW19831   3.843   3.064   0.079  0.6635  0.2066 -0.2354
 2790SOL    HW119832   3.864   3.112  17.693  0.4059  1.4531  0.4542
 2790SOL    HW219833   3.820   2.979   0.041  2.1168 -0.4305  0.3361
 2791SOL     OW19834   0.681   0.085   5.743  0.1114  0.1243  0.1068
 2791SOL    HW119835   0.658   0.079   5.836  0.7679  2.9869  0.4475
 2791SOL    HW219836   0.676   0.180   5.736  0.7564  0.0024 -2.0634
 2792SOL     OW19837   4.116   1.983  12.302 -0.4738 -0.2993  0.0218
 2792SOL    HW119838   4.089   1.960  12.213  2.7833  1.3431 -1.3718
 2792SOL    HW219839   4.207   2.009  12.290 -0.4427 -0.2055  0.4818
 2793SOL     OW19840   0.718   2.409   3.902  0.8448 -0.2961  0.2594
 2793SOL    HW119841   0.777   2.427   3.829  2.3659 -1.8365  1.1167
 2793SOL    HW219842   0.699   2.501   3.918  0.0210 -0.2204 -1.1095
 2794SOL     OW19843   3.129   0.742   8.800  0.1176  0.4015  0.3314
 2794SOL    HW119844   3.184   0.668   8.825 -0.3607  0.5572  1.8246
 2794SOL    HW219845   3.191   0.808   8.766 -1.1078  0.4078 -1.9190
 2795SOL     OW19846   3.903   0.938  13.424 -0.4775 -0.3494  0.0353
 2795SOL    HW119847   3.973   0.896  13.474  0.0615 -0.2015 -0.6057
 2795SOL    HW219848   3.935   0.919  13.336 -1.6450 -1.1522 -0.2165
 2796SOL     OW19849   0.389   1.312   2.632 -0.2494 -0.1220 -0.0510
 2796SOL    HW119850   0.361   1.298   2.723 -1.7828  1.5266 -0.2668
 2796SOL    HW219851   0.327   1.260   2.581  1.0637 -1.4637 -0.3034
 2797SOL     OW19852   3.584   2.774  11.212  0.3689  0.0322  0.0512
 2797SOL    HW119853   3.521   2.834  11.252 -2.8555 -2.1722 -1.7031
 2797SOL    HW219854   3.521   2.701  11.213  0.0480  0.2869 -1.2060
 2798SOL     OW19855   0.091   0.543  12.240  0.5059 -0.2224 -0.0487
 2798SOL    HW119856   0.085   0.484  12.165  0.8482  0.2449 -0.4440
 2798SOL    HW219857   0.158   0.494  12.288 -0.3612 -0.6589  0.7210
 2799SOL     OW19858   2.486   2.252   5.666 -0.4133  0.4108 -0.7096
 2799SOL    HW119859   2.537   2.301   5.730 -1.1642  0.1857  0.0503
 2799SOL    HW219860   2.444   2.316   5.608 -1.0836  0.2760 -0.3758
 2800SOL     OW19861   0.025   3.960   5.768 -0.9307 -0.2180  0.1931
 2800SOL    HW119862   0.041   4.007   5.850 -0.3166  0.9281 -0.5758
 2800SOL    HW219863   4.653   3.967   5.758 -0.6423  0.4209 -2.1641
 2801SOL     OW19864   2.817   0.757   9.042 -0.1538 -0.2249 -0.8220
 2801SOL    HW119865   2.828   0.662   9.044  0.2443 -0.2388 -3.9698
 2801SOL    HW219866   2.722   0.768   9.049  0.1398  1.2028  1.2014
 2802SOL     OW19867   3.608   0.933   5.086 -0.0862  0.2277 -0.3272
 2802SOL    HW119868   3.599   1.022   5.052  2.6530  0.5898 -0.1332
 2802SOL    HW219869   3.639   0.882   5.011 -0.7211 -0.9294  0.1968
 2803SOL     OW19870   2.533   3.691   6.473  0.2885  0.4958 -0.6475
 2803SOL    HW119871   2.577   3.627   6.417 -0.0920 -1.0027  0.7620
 2803SOL    HW219872   2.482   3.632   6.529 -3.0604  1.6150 -2.5094
 2804SOL     OW19873   0.045   1.294   3.605  0.1541  0.5763 -0.0679
 2804SOL    HW119874   4.677   1.281   3.581  0.0496  1.2916 -0.0551
 2804SOL    HW219875   0.032   1.365   3.669 -0.6864  0.5790 -0.2423
 2805SOL     OW19876   1.276   0.218   4.292  0.1044 -0.1123  0.1327
 2805SOL    HW119877   1.351   0.254   4.341 -0.7969  3.8417 -1.3820
 2805SOL    HW219878   1.324   0.242   4.213 -1.4515 -0.0725 -0.7938
 2806SOL     OW19879   1.127   0.914   6.687  0.0269  0.9895 -0.2533
 2806SOL    HW119880   1.180   0.951   6.756  0.1310 -0.8316  0.6488
 2806SOL    HW219881   1.170   0.829   6.676 -0.0136  1.0021 -0.5101
 2807SOL     OW19882   3.786   0.636   7.581 -0.3995  0.3775 -0.6113
 2807SOL    HW119883   3.765   0.721   7.622 -0.0937 -0.2008  0.7564
 2807SOL    HW219884   3.864   0.609   7.629  0.0295 -1.0149 -2.1131
 2808SOL     OW19885   3.583   3.725   9.046  0.0568  0.3656  0.0232
 2808SOL    HW119886   3.521   3.687   9.108  0.0209 -0.4177 -0.5009
 2808SOL    HW219887   3.593   3.667   8.970  0.4301  0.2007  0.1976
 2809SOL     OW19888   0.948   2.008   1.307 -0.3225 -0.6097 -0.3067
 2809SOL    HW119889   0.911   1.919   1.307 -1.1242 -0.2753 -0.3665
 2809SOL    HW219890   0.875   2.042   1.359  1.8855  1.9441  1.0942
 2810SOL     OW19891   4.246   4.429  17.537  0.0670  0.7704  0.1226
 2810SOL    HW119892   4.306   4.394  17.472 -1.9606 -0.4453 -1.0986
 2810SOL    HW219893   4.294   4.508  17.564  0.9421 -0.3636  1.9130
 2811SOL     OW19894   3.688   2.667   3.373  0.1621 -0.0842 -0.0599
 2811SOL    HW119895   3.615   2.619   3.412  0.8726 -0.4961  0.7805
 2811SOL    HW219896   3.701   2.608   3.299  0.2017  0.4218 -0.4530
 2812SOL     OW19897   2.922   4.423  13.338 -0.0065  0.4151  0.1020
 2812SOL    HW119898   3.010   4.385  13.340 -0.0320  0.3993  0.8495
 2812SOL    HW219899   2.919   4.469  13.254  0.1335  2.0637  0.9973
 2813SOL     OW19900   3.392   0.207  15.664  0.2657 -0.2295  0.3666
 2813SOL    HW119901   3.373   0.158  15.584  0.5499 -1.6178  1.1439
 2813SOL    HW219902   3.468   0.157  15.694  0.3048 -0.0721  0.5249
 2814SOL     OW19903   4.023   2.442   3.223 -0.7146  0.1783  0.1300
 2814SOL    HW119904   4.038   2.510   3.289  2.3714 -0.0818 -0.2623
 2814SOL    HW219905   4.113   2.434   3.189 -1.0112  0.8876 -0.8042
 2815SOL     OW19906   0.940   3.715  15.591 -0.2968 -0.2852  0.2460
 2815SOL    HW119907   0.860   3.674  15.622  0.9572 -2.2904  0.8788
 2815SOL    HW219908   0.925   3.719  15.497 -2.2824  0.3481  0.6106
 2816SOL     OW19909   4.138   1.462  14.232  0.2940  0.4831  0.1480
 2816SOL    HW119910   4.134   1.422  14.145  0.2949 -0.3394  0.5273
 2816SOL    HW219911   4.113   1.552  14.213  0.6787  0.6256  0.3029
 2817SOL     OW19912   0.293   2.516   1.890 -0.3052 -0.8136  0.2917
 2817SOL    HW119913   0.353   2.575   1.936 -0.0210  0.1823 -1.3810
 2817SOL    HW219914   0.345   2.477   1.820 -0.9933 -0.6051 -0.3260
 2818SOL     OW19915   3.683   4.017   5.148  0.7117  0.4013 -0.1926
 2818SOL    HW119916   3.650   4.001   5.059 -0.5907  0.7725  0.2203
 2818SOL    HW219917   3.723   3.931   5.159  0.7093  0.3527 -0.5710
 2819SOL     OW19918   2.417   0.652   1.256 -0.4284  0.0269 -0.1902
 2819SOL    HW119919   2.495   0.639   1.311 -0.0843 -0.7394 -0.8656
 2819SOL    HW219920   2.346   0.653   1.320  2.3336  1.5746  2.8606
 2820SOL     OW19921   1.588   0.653  10.807  0.6280 -0.5424 -0.0616
 2820SOL    HW119922   1.518   0.596  10.775  1.8569 -1.5754 -0.9157
 2820SOL    HW219923   1.584   0.633  10.901  1.0786  0.3528  0.1420
 2821SOL     OW19924   1.279   2.054   2.341  0.1334 -0.0675  0.3649
 2821SOL    HW119925   1.239   2.140   2.338 -0.8436 -0.5419 -0.1157
 2821SOL    HW219926   1.231   2.009   2.272  1.1506  0.4107 -0.6589
 2822SOL     OW19927   4.568   1.752   3.119 -0.2476 -0.2810 -0.6220
 2822SOL    HW119928   4.609   1.694   3.183 -0.1852 -2.6473 -2.7873
 2822SOL    HW219929   4.595   1.832   3.163 -1.6488  1.1476 -2.3515
 2823SOL     OW19930   2.491   1.681   4.576 -0.0388 -0.0588 -0.2853
 2823SOL    HW119931   2.412   1.671   4.630  0.9738 -1.2442  0.9689
 2823SOL    HW219932   2.546   1.728   4.638 -1.3410  0.2711  0.6309
 2824SOL     OW19933   1.805   1.714   8.221  0.2702 -0.3192  0.0817
 2824SOL    HW119934   1.765   1.800   8.232  0.6930  0.1665 -2.2032
 2824SOL    HW219935   1.743   1.675   8.160 -0.0479  0.4475 -0.0860
 2825SOL     OW19936   3.764   1.067   1.415  0.0818 -0.6746 -0.1177
 2825SOL    HW119937   3.754   0.991   1.472  1.0493 -0.5617  0.2157
 2825SOL    HW219938   3.675   1.099   1.406  0.7674  1.1483 -0.4842
 2826SOL     OW19939   1.126   1.941   2.143  0.1115 -0.1380 -0.3082
 2826SOL    HW119940   1.075   1.962   2.064  1.1169  0.0349 -0.9070
 2826SOL    HW219941   1.161   1.857   2.113  2.2457  0.5389  0.3258
 2827SOL     OW19942   2.261   1.616  16.232  0.8398  0.1043  0.6084
 2827SOL    HW119943   2.258   1.535  16.284  0.0842  0.0564  0.4884
 2827SOL    HW219944   2.226   1.679  16.294 -2.0257  2.0480 -2.9999
 2828SOL     OW19945   0.954   4.373   8.264 -0.0447 -0.0996  0.2480
 2828SOL    HW119946   1.043   4.383   8.230 -0.2316 -2.0579 -0.8582
 2828SOL    HW219947   0.918   4.303   8.209 -1.1793  0.9663 -0.3724
 2829SOL     OW19948   2.973   3.689   0.379  0.6054 -0.2894 -0.6830
 2829SOL    HW119949   2.960   3.607   0.331 -0.3933  0.9161 -2.5075
 2829SOL    HW219950   2.951   3.745   0.304 -0.5880 -2.3635 -1.8843
 2830SOL     OW19951   1.645   1.114   6.157  0.3526 -0.2645 -0.5458
 2830SOL    HW119952   1.700   1.064   6.219  0.6140  0.8692  0.1383
 2830SOL    HW219953   1.649   1.055   6.082 -0.8937  0.1586 -0.9449
 2831SOL     OW19954   1.081   0.870   8.008  0.4384 -0.2026  0.2344
 2831SOL    HW119955   1.095   0.783   7.971 -1.4208  0.0545 -1.0534
 2831SOL    HW219956   0.988   0.864   8.032  0.0484  2.2134 -0.7038
 2832SOL     OW19957   0.754   1.423   6.540  0.5604 -0.3765  0.2416
 2832SOL    HW119958   0.766   1.331   6.516  2.7808  0.5513 -2.2693
 2832SOL    HW219959   0.663   1.431   6.568  0.3863  0.4560 -0.5350
 2833SOL     OW19960   0.268   4.428  12.763  0.4963 -0.2304 -0.3190
 2833SOL    HW119961   0.334   4.386  12.707 -1.4784 -0.6330 -2.3282
 2833SOL    HW219962   0.239   4.353  12.814  1.1498  0.9694  1.8452
 2834SOL     OW19963   1.810   2.434   7.442 -0.4602 -0.1240 -0.4484
 2834SOL    HW119964   1.755   2.416   7.365 -1.5426 -0.1309  0.3310
 2834SOL    HW219965   1.787   2.527   7.452 -1.3601 -0.5990  1.9097
 2835SOL     OW19966   2.514   2.644   5.399 -0.0368 -0.4750 -0.2651
 2835SOL    HW119967   2.529   2.638   5.493  0.1506  4.1279  0.0303
 2835SOL    HW219968   2.456   2.568   5.390  1.2351 -1.3066 -1.2967
 2836SOL     OW19969   3.676   1.053  12.692  0.4136 -0.2959  0.4184
 2836SOL    HW119970   3.661   1.106  12.770  0.8145  0.7046 -0.1818
 2836SOL    HW219971   3.629   0.975  12.721  2.2077 -0.9907  1.4990
 2837SOL     OW19972   1.403   0.161  15.077  0.2563  0.2223 -0.2778
 2837SOL    HW119973   1.365   0.073  15.079  1.5300 -0.3667 -1.8794
 2837SOL    HW219974   1.408   0.179  15.171 -0.1217 -0.7537 -0.0676
 2838SOL     OW19975   3.041   4.005  13.034  0.2403 -0.3498 -0.3267
 2838SOL    HW119976   2.954   3.982  13.065 -0.6462  1.4325 -1.4843
 2838SOL    HW219977   3.096   3.962  13.099  0.4172  0.5681  0.1306
 2839SOL     OW19978   3.281   3.018  11.124  0.0052  0.0890  0.2088
 2839SOL    HW119979   3.198   3.035  11.168 -0.7279  0.3379 -1.2688
 2839SOL    HW219980   3.337   2.978  11.190  1.2362 -0.1957 -1.0096
 2840SOL     OW19981   2.544   0.205  14.467 -1.0587  0.8402  0.2178
 2840SOL    HW119982   2.550   0.295  14.498  0.7870  0.1939  1.7980
 2840SOL    HW219983   2.635   0.187  14.444 -1.1434  0.2083  0.3736
 2841SOL     OW19984   3.463   2.497  12.209  0.3769  0.0168  0.0236
 2841SOL    HW119985   3.491   2.579  12.249  1.1194  0.6743 -1.8834
 2841SOL    HW219986   3.531   2.485  12.143  0.4963  1.8050 -0.1817
 2842SOL     OW19987   0.573   0.848  15.018  0.0402 -0.1703 -0.6267
 2842SOL    HW119988   0.484   0.816  15.031  0.6639 -1.2270  1.0702
 2842SOL    HW219989   0.587   0.805  14.934 -2.1479  0.4011 -1.2791
 2843SOL     OW19990   1.867   0.239   5.413  0.4224 -0.1604  0.1225
 2843SOL    HW119991   1.874   0.333   5.430 -1.9389  0.4966 -2.5509
 2843SOL    HW219992   1.820   0.237   5.330 -0.1208  0.7039  0.4092
 2844SOL     OW19993   0.308   2.335  16.615 -0.0862 -0.2722  0.0448
 2844SOL    HW119994   0.346   2.347  16.528  2.6787 -1.6860  1.0711
 2844SOL    HW219995   0.291   2.242  16.603 -0.3316 -0.3373  0.8582
 2845SOL     OW19996   1.652   2.380  16.868  0.7023  0.1960  0.3701
 2845SOL    HW119997   1.681   2.430  16.792 -0.2349  0.4416  0.1652
 2845SOL    HW219998   1.625   2.296  16.829  1.9064 -0.3879  0.8113
 2846SOL     OW19999   4.151   2.162   6.152  0.5933 -0.0733 -0.4514
 2846SOL    HW120000   4.193   2.081   6.125  1.0830 -0.1412  0.5015
 2846SOL    HW220001   4.103   2.131   6.229 -0.6656 -0.8201 -1.5490
 2847SOL     OW20002   4.635   4.245   7.444  1.0226 -0.4283  0.4446
 2847SOL    HW120003   4.589   4.292   7.374  0.8064 -1.1842  0.0706
 2847SOL    HW220004   4.586   4.167   7.417 -0.3501  0.6774 -0.2558
 2848SOL     OW20005   4.694   4.116  12.055  0.2604  0.0263  0.1998
 2848SOL    HW120006   4.718   4.084  11.968  1.1834 -0.4949  0.6531
 2848SOL    HW220007   4.612   4.068  12.054  0.6205 -0.6364  2.2116
 2849SOL     OW20008   0.403   2.571   2.854 -0.1001 -0.0700  0.3290
 2849SOL    HW120009   0.316   2.539   2.832 -0.1913  0.3983  0.0080
 2849SOL    HW220010   0.449   2.488   2.865 -1.3251 -0.6845  0.7847
 2850SOL     OW20011   4.391   1.665   7.828 -0.3935 -0.1228 -0.4609
 2850SOL    HW120012   4.471   1.664   7.775 -1.2566 -0.5525 -1.7480
 2850SOL    HW220013   4.343   1.738   7.788  0.4113 -0.4227 -1.9973
 2851SOL     OW20014   1.092   3.185   2.501  0.6705 -0.1023  0.2184
 2851SOL    HW120015   1.008   3.140   2.498  0.8230 -0.3975  0.3227
 2851SOL    HW220016   1.111   3.189   2.595 -1.2758 -3.0401  0.7293
 2852SOL     OW20017   3.048   3.708   6.111 -0.1596  0.0372 -0.4625
 2852SOL    HW120018   3.106   3.639   6.144 -0.8092  0.2371  1.1108
 2852SOL    HW220019   2.980   3.662   6.063  0.0329  2.6430 -3.2086
 2853SOL     OW20020   2.367   0.146   8.183  0.3544  0.3207 -0.0391
 2853SOL    HW120021   2.385   0.107   8.097  0.8233  0.9397 -0.2254
 2853SOL    HW220022   2.283   0.102   8.193  0.3178  0.7459  1.4558
 2854SOL     OW20023   1.868   4.655   5.219 -0.0677 -0.2824 -0.2072
 2854SOL    HW120024   1.835   4.575   5.178 -1.8213  0.4534 -0.2446
 2854SOL    HW220025   1.931   4.618   5.281 -0.2330 -1.5804 -0.8028
 2855SOL     OW20026   1.775   3.682   4.137  0.6879 -0.1035 -0.1993
 2855SOL    HW120027   1.789   3.630   4.058 -0.5100  2.2594 -1.9462
 2855SOL    HW220028   1.802   3.621   4.206 -0.8425  0.8472  1.2384
 2856SOL     OW20029   0.020   2.045   1.975 -0.4900  0.4308 -0.0838
 2856SOL    HW120030   0.083   1.976   1.954  1.0844  2.3019 -1.4202
 2856SOL    HW220031   0.078   2.119   1.960  0.0482 -0.0783 -0.5207
 2857SOL     OW20032   2.143   0.051   6.869 -0.7690  0.2426  0.0048
 2857SOL    HW120033   2.228   0.067   6.911 -0.8717 -0.0589  0.3160
 2857SOL    HW220034   2.093   0.132   6.881  2.2810  2.0793  0.6159
 2858SOL     OW20035   1.940   3.441   4.185 -0.3088  0.0513  0.5232
 2858SOL    HW120036   1.995   3.453   4.262  2.4147 -0.9115 -1.2880
 2858SOL    HW220037   1.883   3.369   4.211  0.5982 -1.5820 -2.0639
 2859SOL     OW20038   1.319   1.990   8.287  0.1597  0.6652  0.0826
 2859SOL    HW120039   1.360   1.984   8.201  0.0627 -0.0794  0.0851
 2859SOL    HW220040   1.319   1.895   8.302 -0.5803  0.5636 -0.5628
 2860SOL     OW20041   2.918   3.797   7.551  0.2594  0.1409 -0.0136
 2860SOL    HW120042   2.907   3.853   7.474 -0.4169  0.3597  0.2395
 2860SOL    HW220043   2.987   3.735   7.526  1.5615  1.9491 -0.8537
 2861SOL     OW20044   3.051   4.170   4.325  0.3151 -0.0538 -0.3215
 2861SOL    HW120045   3.077   4.080   4.343  1.1371  0.6200  1.9579
 2861SOL    HW220046   3.134   4.205   4.294  0.4984  1.1779  1.5378
 2862SOL     OW20047   3.894   1.070   7.469  0.1187 -0.8033  0.3411
 2862SOL    HW120048   3.868   1.019   7.545  0.7919  0.4969  1.4346
 2862SOL    HW220049   3.975   1.113   7.496  0.2336 -1.1447  0.5301
 2863SOL     OW20050   0.396   2.088  13.168  0.4848 -0.0459  0.0215
 2863SOL    HW120051   0.370   2.047  13.086 -1.6164 -0.6181  0.9636
 2863SOL    HW220052   0.372   2.028  13.239 -0.9801  1.0562  0.4849
 2864SOL     OW20053   1.089   1.409   3.523 -0.6042  0.0027  0.0510
 2864SOL    HW120054   1.047   1.346   3.581 -1.9763  0.6364 -0.2665
 2864SOL    HW220055   1.124   1.472   3.586 -2.2528  1.0789 -0.1138
 2865SOL     OW20056   1.304   3.327  12.517  0.1780 -0.0534 -0.4270
 2865SOL    HW120057   1.309   3.375  12.600 -0.4040 -1.7442  0.5704
 2865SOL    HW220058   1.387   3.358  12.479 -0.5386  2.2314 -0.1243
 2866SOL     OW20059   3.762   4.379   5.910 -0.6754 -0.0851  0.3687
 2866SOL    HW120060   3.684   4.366   5.857  0.4543  1.7997 -1.7573
 2866SOL    HW220061   3.823   4.336   5.850 -0.9456  0.7059 -0.4760
 2867SOL     OW20062   2.544   4.424   3.147  0.3325 -0.8309 -0.3065
 2867SOL    HW120063   2.479   4.488   3.175 -0.1064 -2.2762  1.9542
 2867SOL    HW220064   2.588   4.463   3.071 -0.2746  2.2774  0.9826
 2868SOL     OW20065   1.590   2.249   4.820 -0.5005  0.3325 -0.6447
 2868SOL    HW120066   1.620   2.253   4.911  2.4239 -1.3042 -1.5319
 2868SOL    HW220067   1.500   2.275   4.838 -1.2938 -1.6606 -1.8377
 2869SOL     OW20068   0.299   3.825   1.623 -0.5298 -0.2016  0.5118
 2869SOL    HW120069   0.290   3.749   1.565  1.5579  0.1955 -0.3459
 2869SOL    HW220070   0.350   3.778   1.690 -4.2947 -1.8564  2.2239
 2870SOL     OW20071   2.923   3.429   3.767  0.3406  0.4878 -0.2725
 2870SOL    HW120072   2.910   3.380   3.848 -0.6028  0.1871 -0.6080
 2870SOL    HW220073   2.993   3.382   3.723  1.0129 -0.5521  1.9015
 2871SOL     OW20074   3.615   0.413  11.347 -0.4383 -0.3684 -0.3338
 2871SOL    HW120075   3.656   0.412  11.261 -0.9059 -1.8603 -0.5257
 2871SOL    HW220076   3.536   0.360  11.341 -1.7879  1.4301  1.3501
 2872SOL     OW20077   1.291   0.801  17.369  0.2926  0.2668 -0.1624
 2872SOL    HW120078   1.238   0.810  17.290 -0.9676 -1.0836  0.5421
 2872SOL    HW220079   1.379   0.807  17.331 -0.0062 -1.4598 -1.1040
 2873SOL     OW20080   4.391   1.952   3.241  0.3573  0.4071 -0.1135
 2873SOL    HW120081   4.310   1.980   3.285 -0.4138 -1.1769 -0.4937
 2873SOL    HW220082   4.354   1.870   3.209  0.6177  0.7631 -1.3269
 2874SOL     OW20083   0.424   0.241   6.754  0.7305  0.2851  0.0835
 2874SOL    HW120084   0.504   0.287   6.726  0.6713  1.9200  2.6004
 2874SOL    HW220085   0.430   0.281   6.841 -0.8081  1.8369 -0.5347
 2875SOL     OW20086   3.844   0.744   9.665  0.5570  0.5955  0.7429
 2875SOL    HW120087   3.797   0.820   9.630  1.8253  0.1929 -1.7734
 2875SOL    HW220088   3.932   0.778   9.652  0.9842 -0.8182 -0.0846
 2876SOL     OW20089   1.197   2.116   8.514 -0.7664  0.3305 -0.0922
 2876SOL    HW120090   1.234   2.062   8.445 -0.7030  0.9542 -0.5494
 2876SOL    HW220091   1.152   2.052   8.570  2.7838 -3.6819 -1.8411
 2877SOL     OW20092   2.613   3.987   2.185 -0.0356  0.0350 -0.1009
 2877SOL    HW120093   2.555   3.983   2.261  0.9855  1.2580  0.7325
 2877SOL    HW220094   2.673   4.055   2.216  2.0935 -1.1993 -1.5219
 2878SOL     OW20095   1.270   4.626   5.384 -0.4946  0.4419 -0.3430
 2878SOL    HW120096   1.183   4.649   5.417 -0.8699  0.1877 -1.1425
 2878SOL    HW220097   1.232   4.557   5.329  1.7551 -1.7647  0.8657
 2879SOL     OW20098   1.139   4.454  15.592 -0.2288 -0.0227  0.5448
 2879SOL    HW120099   1.217   4.429  15.543 -1.8017 -2.6398 -0.6102
 2879SOL    HW220100   1.162   4.443  15.685 -2.2661 -0.9489  0.9353
 2880SOL     OW20101   2.241   3.148  11.170 -0.3380 -0.1764  0.2016
 2880SOL    HW120102   2.201   3.066  11.197  2.0029 -1.6009 -0.6559
 2880SOL    HW220103   2.192   3.164  11.089  1.8635  0.1610 -1.0526
 2881SOL     OW20104   1.219   3.793   8.956  0.4388 -0.4399 -0.8464
 2881SOL    HW120105   1.198   3.700   8.951 -0.8866 -0.1151 -1.3052
 2881SOL    HW220106   1.311   3.803   8.980  0.3923  2.5584 -1.8724
 2882SOL     OW20107   1.804   0.205   7.837  0.6307 -0.1298  0.2466
 2882SOL    HW120108   1.851   0.190   7.756  1.4220  0.9184  0.5040
 2882SOL    HW220109   1.881   0.207   7.894  0.1387  2.4131  0.8167
 2883SOL     OW20110   4.032   0.940   9.312  0.5678 -0.3482  0.0658
 2883SOL    HW120111   3.936   0.937   9.313  0.5244  0.6296 -0.8902
 2883SOL    HW220112   4.053   1.026   9.350 -1.8498 -0.5308  1.8291
 2884SOL     OW20113   1.940   0.993   4.920 -0.2367  0.0938 -0.1354
 2884SOL    HW120114   1.993   0.945   4.856  0.3072 -1.5176  1.5379
 2884SOL    HW220115   2.003   1.000   4.992 -0.4375 -1.8988  0.2227
 2885SOL     OW20116   0.743   2.456   5.349  0.5602 -0.0512  0.0361
 2885SOL    HW120117   0.821   2.412   5.315  0.8042  1.6883 -1.6812
 2885SOL    HW220118   0.769   2.456   5.441  1.0872  2.2964 -0.1089
 2886SOL     OW20119   0.406   1.853   4.438 -0.4533  0.4060 -0.3545
 2886SOL    HW120120   0.437   1.928   4.488 -0.2385  0.0870 -0.0078
 2886SOL    HW220121   0.476   1.844   4.373  0.6288  1.2525  0.6886
 2887SOL     OW20122   4.292   0.346   4.234  0.0947 -0.0465 -0.4080
 2887SOL    HW120123   4.383   0.370   4.250 -0.2512  0.3047  1.0216
 2887SOL    HW220124   4.281   0.356   4.139  0.5393  1.2429 -0.3266
 2888SOL     OW20125   3.327   2.483   0.135  0.3544 -0.0951  0.2348
 2888SOL    HW120126   3.347   2.398   0.097 -2.2908 -1.0394  0.9686
 2888SOL    HW220127   3.233   2.475   0.150  0.0779  1.4841 -0.7157
 2889SOL     OW20128   1.477   0.881  11.646  0.2455 -0.5008  0.3009
 2889SOL    HW120129   1.500   0.955  11.590 -2.1876 -0.3557 -0.5049
 2889SOL    HW220130   1.512   0.818  11.583 -0.2162  0.6419 -1.0966
 2890SOL     OW20131   3.917   3.032  14.146 -0.2487 -0.5977 -0.0108
 2890SOL    HW120132   3.963   2.960  14.188  0.7799  0.7617  1.2092
 2890SOL    HW220133   3.920   3.103  14.211 -0.8213  1.4037 -2.1478
 2891SOL     OW20134   0.040   2.607   9.695 -0.0457  0.9866  0.2969
 2891SOL    HW120135   0.121   2.641   9.733  2.6621 -2.4354 -2.3508
 2891SOL    HW220136   0.077   2.545   9.631 -1.5405  0.9434 -0.5260
 2892SOL     OW20137   0.486   1.021   6.300 -0.0683 -0.4047  0.3317
 2892SOL    HW120138   0.437   1.074   6.362  0.6515  0.4660  0.1529
 2892SOL    HW220139   0.431   1.011   6.223 -0.8232  1.8558  0.5946
 2893SOL     OW20140   4.406   2.121   0.060  0.5914  0.5764  0.0270
 2893SOL    HW120141   4.461   2.129   0.137  0.8466 -0.1162 -0.0812
 2893SOL    HW220142   4.378   2.208   0.029 -2.1684 -0.8721 -1.5893
 2894SOL     OW20143   3.157   0.933  15.686  0.5716  0.6888 -0.3204
 2894SOL    HW120144   3.098   0.871  15.730  2.0756 -0.8034 -0.3857
 2894SOL    HW220145   3.218   0.940  15.760 -0.4614  0.8730  0.5199
 2895SOL     OW20146   2.569   3.365   0.309  0.0988  0.7798  0.1394
 2895SOL    HW120147   2.477   3.351   0.287 -0.4141  1.3561  1.9138
 2895SOL    HW220148   2.558   3.451   0.348 -1.9810  1.4500 -1.9539
 2896SOL     OW20149   3.624   2.990  12.723 -0.3964 -0.0598  0.4573
 2896SOL    HW120150   3.554   2.937  12.760  0.0553 -0.3397  0.9025
 2896SOL    HW220151   3.606   3.080  12.750  2.2999 -0.2910  2.9768
 2897SOL     OW20152   1.652   1.068   7.469 -0.2891 -0.4005 -0.3594
 2897SOL    HW120153   1.598   1.117   7.531 -2.1836 -1.0404 -1.5206
 2897SOL    HW220154   1.741   1.086   7.500 -0.0341  0.3698 -1.5520
 2898SOL     OW20155   0.356   3.799  12.010  0.0868  0.5928 -0.1371
 2898SOL    HW120156   0.416   3.773  11.940 -0.1553  0.8460 -0.4410
 2898SOL    HW220157   0.306   3.869  11.966  1.3119  1.9137  0.5894
 2899SOL     OW20158   1.991   0.621   3.869 -0.7231  0.3185 -0.3973
 2899SOL    HW120159   1.976   0.530   3.897  1.9040 -0.2022 -0.6275
 2899SOL    HW220160   1.992   0.597   3.776  3.3436 -4.2786  0.8330
 2900SOL     OW20161   3.726   3.111   1.660 -0.1772  0.1659 -0.4378
 2900SOL    HW120162   3.719   3.018   1.642 -1.7474  0.4447 -1.2927
 2900SOL    HW220163   3.709   3.109   1.755 -1.1368  0.6595 -0.5946
 2901SOL     OW20164   0.770   0.644   1.463 -0.0429 -0.1228  0.2983
 2901SOL    HW120165   0.832   0.624   1.392  1.2802 -2.1139  2.0115
 2901SOL    HW220166   0.682   0.620   1.432 -0.4713  0.1723  1.3133
 2902SOL     OW20167   1.116   4.713  10.654 -0.0492 -0.4695 -0.0549
 2902SOL    HW120168   1.030   0.026  10.674  0.3823  0.4917  0.0900
 2902SOL    HW220169   1.163   4.699  10.737  1.3760  0.0521 -0.7574
 2903SOL     OW20170   2.777   4.022   9.477 -0.0207 -0.2235 -0.3338
 2903SOL    HW120171   2.685   4.011   9.502  0.2345  1.3826  1.3565
 2903SOL    HW220172   2.771   4.117   9.479 -1.3058 -0.2751 -2.3599
 2904SOL     OW20173   4.337   1.572   9.626 -0.3615  0.1970 -0.5401
 2904SOL    HW120174   4.287   1.653   9.616  0.8684  0.5780 -3.5841
 2904SOL    HW220175   4.386   1.562   9.545 -0.8931 -1.2973 -0.6843
 2905SOL     OW20176   3.414   4.267  15.228 -0.3768 -0.0727  0.4863
 2905SOL    HW120177   3.496   4.254  15.180  0.7235  2.5006  1.6951
 2905SOL    HW220178   3.443   4.227  15.310 -2.9299 -0.9754  0.9396
 2906SOL     OW20179   0.374   2.842   1.372  0.1268 -0.1546 -0.1455
 2906SOL    HW120180   0.427   2.894   1.311 -1.5433  3.2119  1.3011
 2906SOL    HW220181   0.302   2.808   1.319 -0.3277  2.2742 -1.1030
 2907SOL     OW20182   2.517   0.884  15.203 -0.5044  0.4064  0.2754
 2907SOL    HW120183   2.495   0.831  15.280 -1.8358  0.8641  0.2113
 2907SOL    HW220184   2.603   0.844  15.186 -1.0919 -0.8962  0.3722
 2908SOL     OW20185   0.580   0.675   4.599 -0.4746 -0.0161 -0.6126
 2908SOL    HW120186   0.490   0.705   4.611 -1.0447 -1.1292 -2.0200
 2908SOL    HW220187   0.578   0.646   4.507  3.6466  2.1479 -1.3699
 2909SOL     OW20188   0.566   2.193   6.057  0.1199  0.1372 -0.5458
 2909SOL    HW120189   0.500   2.132   6.023 -1.1494  0.0135  2.1101
 2909SOL    HW220190   0.561   2.271   6.003  0.5653  1.4691  1.3524
 2910SOL     OW20191   2.779   3.179   0.291  0.1288  0.1393 -0.4202
 2910SOL    HW120192   2.716   3.245   0.319  0.8518  1.6930 -2.4605
 2910SOL    HW220193   2.829   3.214   0.217 -0.8438 -0.2474 -1.2525
 2911SOL     OW20194   3.310   2.045   5.092  0.3375  0.3240  0.0742
 2911SOL    HW120195   3.380   2.054   5.157 -0.2680 -1.1601  0.9279
 2911SOL    HW220196   3.356   1.992   5.027 -0.1461 -1.2707  1.0213
 2912SOL     OW20197   0.580   1.363   8.337 -0.2644  0.3218  0.3657
 2912SOL    HW120198   0.614   1.297   8.397 -3.0638 -1.6224 -0.1709
 2912SOL    HW220199   0.525   1.413   8.397  1.1341 -2.2702  3.7960
 2913SOL     OW20200   2.341   0.021  14.397 -0.5665  0.0424 -0.6394
 2913SOL    HW120201   2.281   0.034  14.470  0.4007  0.4695  0.0767
 2913SOL    HW220202   2.399   0.096  14.409 -0.7734  0.7037 -3.6712
 2914SOL     OW20203   1.152   3.413   5.981 -0.6888 -0.3926  0.2761
 2914SOL    HW120204   1.208   3.385   6.053 -0.7338 -0.9054  0.1104
 2914SOL    HW220205   1.137   3.328   5.940  1.2704  0.2634 -1.8233
 2915SOL     OW20206   3.118   1.250  16.816  0.2934 -0.2140  0.3819
 2915SOL    HW120207   3.074   1.313  16.758 -1.1711 -1.5671  0.0318
 2915SOL    HW220208   3.086   1.270  16.904  1.0706  0.1981  0.5670
 2916SOL     OW20209   4.416   0.739  13.073  0.1656 -0.1443 -0.1006
 2916SOL    HW120210   4.489   0.685  13.043 -1.1188 -2.3174  0.6584
 2916SOL    HW220211   4.409   0.802  13.001  0.6227  0.7554  0.6451
 2917SOL     OW20212   4.600   0.482   5.030  0.0860  0.7034  0.3077
 2917SOL    HW120213   4.569   0.392   5.022 -1.6884  1.2061  1.4679
 2917SOL    HW220214   4.634   0.502   4.943 -0.5357  0.8550  0.1002
 2918SOL     OW20215   3.143   0.224   2.708 -0.1384  0.2064 -0.0569
 2918SOL    HW120216   3.105   0.265   2.630  1.1886 -1.2092 -1.4448
 2918SOL    HW220217   3.101   0.282   2.772 -1.7822  0.3067 -1.2248
 2919SOL     OW20218   4.488   3.370   6.126  0.1621 -0.2734  0.2940
 2919SOL    HW120219   4.427   3.301   6.103 -1.0084  1.9664 -3.4251
 2919SOL    HW220220   4.551   3.324   6.181  1.1029 -0.5263 -0.9975
 2920SOL     OW20221   2.356   4.104   9.864  0.3923  0.5555 -0.4496
 2920SOL    HW120222   2.296   4.033   9.887  1.9075 -0.0630  1.5740
 2920SOL    HW220223   2.436   4.068   9.901 -0.4967 -1.1717 -0.2205
 2921SOL     OW20224   2.408   2.882   8.025 -0.7003 -0.0660  0.0043
 2921SOL    HW120225   2.337   2.833   7.984 -0.1381 -1.5101  0.7557
 2921SOL    HW220226   2.385   2.879   8.117 -1.1852  3.3973 -0.0064
 2922SOL     OW20227   1.968   1.112   1.165 -1.3523 -0.6425  0.0252
 2922SOL    HW120228   1.960   1.199   1.205  2.1778 -0.7066  0.8380
 2922SOL    HW220229   2.042   1.074   1.211  0.3216  1.4307 -0.9648
 2923SOL     OW20230   3.870   0.603   3.338 -0.2150  0.0883 -0.7819
 2923SOL    HW120231   3.805   0.673   3.341 -1.2888 -0.9838  1.1029
 2923SOL    HW220232   3.812   0.528   3.356  1.0509 -0.1915  2.1451
 2924SOL     OW20233   0.696   3.604   5.574 -0.2392  0.0493  0.8278
 2924SOL    HW120234   0.606   3.574   5.565  0.1412 -0.8807  0.0019
 2924SOL    HW220235   0.700   3.653   5.656  1.7157  0.1407  0.6927
 2925SOL     OW20236   4.404   0.931   6.724 -0.2038  0.2721 -0.1911
 2925SOL    HW120237   4.444   0.897   6.644  0.4333  0.3600  0.0920
 2925SOL    HW220238   4.344   0.858   6.738 -2.3928  1.5845 -2.5815
 2926SOL     OW20239   4.639   4.375   6.858  0.6486 -0.4516  0.3109
 2926SOL    HW120240   4.715   4.392   6.803  0.1543  1.6459  0.3134
 2926SOL    HW220241   4.590   4.455   6.843  0.8414  0.1856  2.9689
 2927SOL     OW20242   0.982   2.139   4.335  0.5440  0.1619  0.0315
 2927SOL    HW120243   0.889   2.161   4.349  1.0248  0.2923  2.9933
 2927SOL    HW220244   0.960   2.061   4.284 -0.1977 -0.5266  1.4042
 2928SOL     OW20245   1.537   1.375   7.705  0.8681 -0.3902  0.3921
 2928SOL    HW120246   1.454   1.351   7.746  1.4437 -0.7121  1.3675
 2928SOL    HW220247   1.600   1.305   7.721  1.7007  0.0907 -0.7547
 2929SOL     OW20248   4.398   2.374   6.454 -0.1418  0.3161  0.6126
 2929SOL    HW120249   4.434   2.441   6.511  0.6083 -0.8108  1.4679
 2929SOL    HW220250   4.380   2.308   6.521  0.0746 -2.1565 -1.7486
 2930SOL     OW20251   0.983   3.406   3.761 -0.1149 -0.1285 -0.4347
 2930SOL    HW120252   0.957   3.435   3.849  0.3412  1.8955 -0.9638
 2930SOL    HW220253   0.910   3.449   3.718 -0.2708  0.2155  0.1664
 2931SOL     OW20254   3.611   0.342  11.912  0.0978  0.2070  0.3719
 2931SOL    HW120255   3.569   0.322  11.996  1.2319  0.5430  1.0201
 2931SOL    HW220256   3.697   0.376  11.938  0.4788 -0.5646  0.1023
 2932SOL     OW20257   0.071   0.367  14.275  0.6484  0.8708  0.1284
 2932SOL    HW120258   0.003   0.373  14.342 -1.4284 -2.2628 -1.6800
 2932SOL    HW220259   0.034   0.304  14.214  0.2509  0.5377  0.7078
 2933SOL     OW20260   0.239   2.288  14.972  0.0603  0.0362  0.1887
 2933SOL    HW120261   0.222   2.342  14.895  1.7748 -1.0104 -0.9341
 2933SOL    HW220262   0.325   2.322  14.996  0.8197 -0.3330 -2.0297
 2934SOL     OW20263   1.115   0.914   3.921 -0.1938  0.0177 -0.2922
 2934SOL    HW120264   1.092   0.949   3.835  0.4687  2.8783  0.7033
 2934SOL    HW220265   1.173   0.844   3.889 -1.7832 -1.5170  0.1570
 2935SOL     OW20266   4.281   4.255   4.884  0.2439 -0.3188  0.2769
 2935SOL    HW120267   4.199   4.285   4.923  0.8762  0.1943  1.2114
 2935SOL    HW220268   4.333   4.335   4.889  1.2869 -0.8888 -1.3862
 2936SOL     OW20269   3.721   2.820   1.630 -0.3340  0.2723 -0.6868
 2936SOL    HW120270   3.737   2.752   1.565 -0.2825 -1.1865  0.8770
 2936SOL    HW220271   3.809   2.817   1.668  0.1191 -0.8665 -1.8491
 2937SOL     OW20272   4.251   0.012   2.424  0.0760 -0.8307 -0.0379
 2937SOL    HW120273   4.275   0.105   2.433 -0.8449 -0.5578 -0.3402
 2937SOL    HW220274   4.304   4.697   2.494  0.0038  0.9750  1.0100
 2938SOL     OW20275   3.044   1.362   8.836  0.1431 -0.0690  0.6454
 2938SOL    HW120276   2.972   1.332   8.893  0.3974  2.5038  2.3431
 2938SOL    HW220277   3.117   1.366   8.898 -0.5727  3.4109  1.2840
 2939SOL     OW20278   1.929   0.208  10.993  0.9425 -0.3212 -0.4742
 2939SOL    HW120279   1.961   0.277  11.052  0.6958 -0.2261 -0.4535
 2939SOL    HW220280   1.940   0.251  10.908  2.6757  1.0184  0.4225
 2940SOL     OW20281   2.399   0.485   6.767  0.0903  0.3009  0.1347
 2940SOL    HW120282   2.410   0.435   6.685  2.3729 -1.9314  1.7775
 2940SOL    HW220283   2.483   0.476   6.812  0.7288  0.9940 -0.9285
 2941SOL     OW20284   0.756   1.083   3.822  0.1869 -0.3958  0.0144
 2941SOL    HW120285   0.666   1.114   3.809  0.3147  0.5616  1.4192
 2941SOL    HW220286   0.738   0.996   3.787  0.2717 -0.3266 -0.2058
 2942SOL     OW20287   2.463   3.758   7.722 -0.9300  0.4051  0.1247
 2942SOL    HW120288   2.515   3.780   7.799 -0.9826  0.4047  0.1601
 2942SOL    HW220289   2.476   3.664   7.728 -0.2087  0.3219 -2.7106
 2943SOL     OW20290   0.304   0.702   3.705  0.3123  0.0974  0.3529
 2943SOL    HW120291   0.287   0.719   3.612 -0.9872 -0.5440  0.4678
 2943SOL    HW220292   0.385   0.652   3.708 -0.9378 -1.9124  0.7882
 2944SOL     OW20293   2.287   4.099   4.054  0.6748 -0.3388 -0.4836
 2944SOL    HW120294   2.335   4.154   4.117 -1.2481 -0.6080  1.2300
 2944SOL    HW220295   2.238   4.170   4.013 -0.8763 -1.6649 -0.9214
 2945SOL     OW20296   3.380   2.348   2.298 -0.4661  0.2666  0.4779
 2945SOL    HW120297   3.459   2.363   2.350  0.3858 -2.2883 -0.0759
 2945SOL    HW220298   3.398   2.278   2.235 -2.2258  2.0939 -2.0127
 2946SOL     OW20299   3.910   2.635   7.586 -0.0510 -0.3581  0.3508
 2946SOL    HW120300   3.943   2.704   7.528  1.9104 -1.7685 -0.1837
 2946SOL    HW220301   3.859   2.684   7.650  0.6854 -2.2069  2.3242
 2947SOL     OW20302   4.422   0.538   7.598  0.4861 -0.2635  0.8122
 2947SOL    HW120303   4.402   0.603   7.666 -0.8017  1.3000 -1.0547
 2947SOL    HW220304   4.489   0.584   7.547 -0.0416  0.5818  0.8820
 2948SOL     OW20305   2.041   2.795   3.696  0.3587 -0.3501 -0.2379
 2948SOL    HW120306   2.039   2.889   3.713 -0.1415 -0.7426  1.9279
 2948SOL    HW220307   2.113   2.782   3.635 -0.5043 -0.1578 -1.3016
 2949SOL     OW20308   3.548   0.231   0.585  0.0743 -0.3964  0.2919
 2949SOL    HW120309   3.609   0.301   0.606  0.1262 -0.0641 -0.9311
 2949SOL    HW220310   3.585   0.205   0.500 -0.5809 -0.3238 -0.0170
 2950SOL     OW20311   4.323   3.212   0.814 -0.2847  0.5056 -0.3178
 2950SOL    HW120312   4.232   3.186   0.797 -1.4457  3.7262  0.8689
 2950SOL    HW220313   4.321   3.304   0.840 -0.6021  0.3142  0.3574
 2951SOL     OW20314   1.351   3.013   1.264 -0.7721  0.4690 -0.2130
 2951SOL    HW120315   1.291   2.950   1.303 -0.5296 -1.0973 -2.3373
 2951SOL    HW220316   1.430   2.960   1.256 -0.8594  0.1471  1.1477
 2952SOL     OW20317   4.017   1.748   9.207 -0.0453  0.6047 -0.4935
 2952SOL    HW120318   3.967   1.802   9.146 -1.2787  1.3338  1.1546
 2952SOL    HW220319   3.953   1.740   9.278 -0.0764 -0.3856 -0.6297
 2953SOL     OW20320   2.766   2.580   6.309 -0.2320  0.4235  0.2144
 2953SOL    HW120321   2.774   2.657   6.365  0.0482  0.9262 -0.5092
 2953SOL    HW220322   2.851   2.536   6.304 -0.4434 -0.0933  1.2937
 2954SOL     OW20323   3.211   2.366   5.132 -0.3920 -0.0977  0.1458
 2954SOL    HW120324   3.146   2.325   5.189 -2.1929  2.6236  0.0500
 2954SOL    HW220325   3.212   2.311   5.054  0.0990 -0.7215  0.5886
 2955SOL     OW20326   3.841   2.874   7.430  0.1430 -0.4404 -0.7154
 2955SOL    HW120327   3.810   2.798   7.382 -0.2761 -1.9433  1.9268
 2955SOL    HW220328   3.775   2.936   7.398  0.9713 -0.5795 -2.6654
 2956SOL     OW20329   0.183   2.043   0.649 -0.3516 -0.1670  0.0174
 2956SOL    HW120330   0.185   1.951   0.623 -1.5437 -0.6176  1.5274
 2956SOL    HW220331   0.275   2.064   0.662 -0.6419  0.5430  0.8903
 2957SOL     OW20332   3.350   1.858   6.144 -0.0454  0.1096 -0.2302
 2957SOL    HW120333   3.287   1.832   6.077  0.1236 -1.2582  0.1361
 2957SOL    HW220334   3.335   1.952   6.148 -1.5488 -0.1538  0.3910
 2958SOL     OW20335   0.586   0.408  14.589  0.0295 -0.1461  0.1182
 2958SOL    HW120336   0.518   0.442  14.646 -0.5256  0.0506 -0.6646
 2958SOL    HW220337   0.571   0.468  14.516  2.6089 -0.4678 -0.6767
 2959SOL     OW20338   2.429   1.070   1.979  0.4449 -0.6391  0.8571
 2959SOL    HW120339   2.467   1.142   1.928 -1.2044  1.6230  2.8079
 2959SOL    HW220340   2.358   1.046   1.921  0.9512  1.4370 -0.6167
 2960SOL     OW20341   0.442   3.701   4.021 -0.7556 -0.4342  0.4427
 2960SOL    HW120342   0.496   3.780   4.032  0.9134 -1.3753 -0.9045
 2960SOL    HW220343   0.374   3.747   3.972 -0.6337 -0.4896  0.2221
 2961SOL     OW20344   3.000   2.853   9.262  0.7257 -0.1411  0.3697
 2961SOL    HW120345   2.996   2.761   9.238 -3.1301  0.0063  0.4151
 2961SOL    HW220346   2.999   2.893   9.175  1.0858  1.7407  1.2187
 2962SOL     OW20347   2.283   2.388   7.457  0.2018  0.9084  0.0476
 2962SOL    HW120348   2.318   2.331   7.388 -1.7072  0.0335 -0.1807
 2962SOL    HW220349   2.360   2.403   7.513  0.5898 -1.8748  0.2907
 2963SOL     OW20350   4.468   3.685  15.190 -0.2252  0.0475 -0.0101
 2963SOL    HW120351   4.548   3.664  15.238 -1.7338  0.6686  2.7365
 2963SOL    HW220352   4.415   3.605  15.188 -0.5551  0.2994 -1.3375
 2964SOL     OW20353   4.315   4.120   8.023  0.7239 -0.2659  0.2330
 2964SOL    HW120354   4.337   4.122   7.930 -1.5183 -0.8874 -0.2945
 2964SOL    HW220355   4.338   4.031   8.049 -0.2499 -0.5620  0.0552
 2965SOL     OW20356   4.157   3.684   5.344 -0.2279 -0.3685 -0.2501
 2965SOL    HW120357   4.134   3.777   5.335  1.6897 -0.0407 -1.6943
 2965SOL    HW220358   4.146   3.672   5.438  0.6785 -0.0170 -0.1043
 2966SOL     OW20359   3.830   3.754   5.217  0.1539 -0.0647 -0.0433
 2966SOL    HW120360   3.830   3.732   5.124  1.0584  0.7468 -0.2291
 2966SOL    HW220361   3.904   3.815   5.220 -0.6771  0.8611  1.3130
 2967SOL     OW20362   1.636   4.536  11.819  0.6138  0.1720 -0.1867
 2967SOL    HW120363   1.569   4.472  11.842  0.3174  0.6383  0.2531
 2967SOL    HW220364   1.685   4.544  11.901  0.7577 -0.7139 -0.1776
 2968SOL     OW20365   2.479   0.026   3.217 -0.8035 -1.0559 -0.2643
 2968SOL    HW120366   2.506   0.061   3.302  1.8919 -0.8795 -1.1994
 2968SOL    HW220367   2.551   0.062   3.166 -1.5039 -1.1344 -1.3113
 2969SOL     OW20368   2.779   3.254   6.369 -0.3476 -0.1333  0.3559
 2969SOL    HW120369   2.862   3.230   6.329  0.2927  0.1056  1.5423
 2969SOL    HW220370   2.753   3.165   6.393  1.0148 -0.4442  0.6791
 2970SOL     OW20371   2.056   2.280   6.594  0.4108  0.1447 -0.1668
 2970SOL    HW120372   2.072   2.221   6.668  0.4410  2.1939  1.4794
 2970SOL    HW220373   2.146   2.298   6.567  0.5031  1.2718  0.8825
 2971SOL     OW20374   4.198   3.959  10.764 -0.0042  0.1891 -0.2464
 2971SOL    HW120375   4.169   3.913  10.843 -0.3416  3.3260  1.4726
 2971SOL    HW220376   4.254   4.021  10.812 -1.5762 -0.2836  2.2274
 2972SOL     OW20377   1.896   3.034   3.444  0.0786 -0.2985  0.1966
 2972SOL    HW120378   1.811   3.050   3.402  0.5288 -2.1238 -1.4109
 2972SOL    HW220379   1.950   3.068   3.372 -0.3116  1.7404  0.8655
 2973SOL     OW20380   3.300   1.175   2.585  0.5563  0.9123 -0.3769
 2973SOL    HW120381   3.372   1.238   2.578  0.8238  0.9411  2.6847
 2973SOL    HW220382   3.270   1.184   2.494  1.1898 -1.8117 -0.8692
 2974SOL     OW20383   4.469   0.402  14.701 -0.3605 -0.3911  0.2006
 2974SOL    HW120384   4.511   0.345  14.766 -1.0768 -0.8281  0.2900
 2974SOL    HW220385   4.379   0.370  14.710 -0.4405 -0.4700 -0.8562
 2975SOL     OW20386   0.951   0.140  14.936  0.3686 -0.0544 -0.0003
 2975SOL    HW120387   0.983   0.227  14.913 -0.1573 -0.0606 -0.7714
 2975SOL    HW220388   1.021   0.082  14.905  0.7068  0.3138  0.0755
 2976SOL     OW20389   3.567   4.618  13.194  0.6098  0.3085  0.1184
 2976SOL    HW120390   3.620   4.595  13.270  0.6108 -1.1907 -0.3334
 2976SOL    HW220391   3.475   4.628  13.219  0.4467 -1.4288  0.2296
 2977SOL     OW20392   0.330   1.315   7.893  0.2548  0.2633  0.7589
 2977SOL    HW120393   0.397   1.247   7.898 -0.2354 -0.3793 -1.5025
 2977SOL    HW220394   0.337   1.345   7.984  1.6972  0.4739  0.5830
 2978SOL     OW20395   1.537   1.178   3.091  0.2332 -0.3226 -0.0317
 2978SOL    HW120396   1.612   1.237   3.094 -0.3207  0.3180  0.9202
 2978SOL    HW220397   1.534   1.149   3.182 -1.5161 -2.0985 -0.6472
 2979SOL     OW20398   1.193   3.494   5.131 -0.3304 -0.1020  0.0057
 2979SOL    HW120399   1.192   3.561   5.199 -1.1310 -1.4941  1.3281
 2979SOL    HW220400   1.159   3.540   5.054 -0.5023  0.4332  0.4069
 2980SOL     OW20401   2.087   0.591   6.292  0.0600 -0.6071 -0.1343
 2980SOL    HW120402   2.134   0.674   6.291  1.5971 -1.4832 -0.4765
 2980SOL    HW220403   2.129   0.551   6.369  0.1230 -1.4117 -0.5806
 2981SOL     OW20404   2.238   3.608   2.793  0.1449  0.0050  0.2252
 2981SOL    HW120405   2.300   3.643   2.856 -2.0576  4.1223  0.1336
 2981SOL    HW220406   2.287   3.536   2.754 -0.0353  1.0738 -1.9909
 2982SOL     OW20407   0.630   2.857   9.448  0.0105 -0.1637  0.3311
 2982SOL    HW120408   0.593   2.883   9.533 -0.3691 -1.5370  0.5840
 2982SOL    HW220409   0.643   2.763   9.460 -0.6972 -0.3498 -0.3463
 2983SOL     OW20410   4.213   2.057  10.574 -0.3490  0.7744 -0.2177
 2983SOL    HW120411   4.229   2.124  10.508 -2.5164  1.7893  0.2850
 2983SOL    HW220412   4.146   2.003  10.533  0.7848 -1.5940  1.0333
 2984SOL     OW20413   2.700   2.078   1.675 -0.1957 -0.4091 -0.3123
 2984SOL    HW120414   2.671   2.003   1.727 -1.4922 -0.4085 -1.0244
 2984SOL    HW220415   2.701   2.046   1.585 -0.8801  0.4947 -0.6470
 2985SOL     OW20416   0.828   3.604   1.963 -0.0746  0.3040 -0.1252
 2985SOL    HW120417   0.892   3.672   1.984  2.1034 -2.2193  1.3987
 2985SOL    HW220418   0.856   3.569   1.878  2.4648 -1.3872  1.4038
 2986SOL     OW20419   1.213   0.797   2.842  0.6111  0.0402 -0.3089
 2986SOL    HW120420   1.248   0.884   2.858 -0.4296  0.9103 -2.7844
 2986SOL    HW220421   1.119   0.812   2.846  0.4132 -1.1944 -0.1697
 2987SOL     OW20422   4.390   3.863   6.062  0.4424  0.2790  0.0125
 2987SOL    HW120423   4.370   3.942   6.113 -1.0667 -0.6194  0.8234
 2987SOL    HW220424   4.416   3.797   6.126  0.4438  0.2805  0.0134
 2988SOL     OW20425   1.066   3.060   6.495 -0.6582  0.0144 -0.3770
 2988SOL    HW120426   1.012   2.993   6.536  0.0638  0.0808  0.6623
 2988SOL    HW220427   1.002   3.131   6.486 -0.5956  0.1682  0.4498
 2989SOL     OW20428   4.011   4.532   2.471 -0.1789 -0.6163 -0.0588
 2989SOL    HW120429   3.976   4.447   2.443  0.2017 -0.7401 -0.1567
 2989SOL    HW220430   4.100   4.536   2.435  0.1693  1.1541  1.0410
 2990SOL     OW20431   2.630   1.160   5.665 -0.2619 -0.4310 -0.1617
 2990SOL    HW120432   2.540   1.192   5.669  0.0919  0.1341  3.0060
 2990SOL    HW220433   2.603   1.068   5.665 -0.6798 -0.3126  2.3865
 2991SOL     OW20434   4.550   3.127   4.077  1.0637  0.0760  0.2039
 2991SOL    HW120435   4.486   3.179   4.029 -1.2399 -2.3088  0.7074
 2991SOL    HW220436   4.545   3.043   4.032  1.0588 -1.0704  2.3401
 2992SOL     OW20437   3.355   2.963   6.448  0.3887 -0.3695  0.0070
 2992SOL    HW120438   3.446   2.968   6.420 -0.4020  4.6335 -1.7118
 2992SOL    HW220439   3.332   2.871   6.461 -0.5415  0.0607  1.4744
 2993SOL     OW20440   2.334   4.719  17.590 -0.2161  0.1053 -0.6334
 2993SOL    HW120441   2.295   4.695  17.674  0.9985 -0.9371 -0.3648
 2993SOL    HW220442   2.429   4.711  17.605 -0.4185 -3.1786 -1.1414
 2994SOL     OW20443   4.174   1.091  16.709 -0.1109  0.5306  0.6623
 2994SOL    HW120444   4.210   1.147  16.777  0.1544  1.7624 -0.4820
 2994SOL    HW220445   4.237   1.021  16.725  0.1619  0.8194  0.8355
 2995SOL     OW20446   4.142   3.194  12.362  0.1641  0.3682  0.1921
 2995SOL    HW120447   4.205   3.259  12.332  1.2366 -0.6057  0.3373
 2995SOL    HW220448   4.130   3.136  12.286  0.8786 -0.0230  0.3780
 2996SOL     OW20449   1.346   2.363   4.328  0.2603 -0.8046  0.2770
 2996SOL    HW120450   1.435   2.327   4.339  1.0665  0.7795 -1.0369
 2996SOL    HW220451   1.295   2.282   4.329  1.4134 -1.5324  0.4565
 2997SOL     OW20452   0.811   4.136  11.018 -0.2740 -0.1566 -0.2191
 2997SOL    HW120453   0.763   4.059  10.990  0.0366  0.3933 -2.2430
 2997SOL    HW220454   0.874   4.150  10.946  0.8198 -0.4593  0.6757
 2998SOL     OW20455   3.985   3.418   3.310 -0.1989 -0.7467 -0.2757
 2998SOL    HW120456   4.025   3.497   3.274 -0.7292  0.6756  2.3044
 2998SOL    HW220457   3.970   3.436   3.403 -0.3062 -2.4484  0.0349
 2999SOL     OW20458   2.908   3.239  12.702  0.0230 -0.4165  0.4151
 2999SOL    HW120459   2.847   3.276  12.638 -0.5928  0.9631  1.7870
 2999SOL    HW220460   2.892   3.307  12.768  1.3831 -0.1969  0.5124
 3000SOL     OW20461   3.379   2.133   6.814  0.5895  0.5333 -0.1183
 3000SOL    HW120462   3.467   2.172   6.814  1.5395 -1.5921 -0.1263
 3000SOL    HW220463   3.330   2.213   6.831  0.1147  0.0166  0.8905
 3001SOL     OW20464   3.764   2.168   1.480  0.9989 -0.0234  0.9221
 3001SOL    HW120465   3.736   2.083   1.446 -0.0906  0.4807  0.5382
 3001SOL    HW220466   3.830   2.157   1.547  2.9188  1.9283 -0.6629
 3002SOL     OW20467   1.064   1.762   7.486 -0.4257  0.2579 -0.3649
 3002SOL    HW120468   1.040   1.811   7.407  0.2674 -0.8609 -1.2791
 3002SOL    HW220469   1.006   1.686   7.475 -1.3235  1.1753 -2.1346
 3003SOL     OW20470   1.117   0.358   8.572  0.9189  0.6503  0.3732
 3003SOL    HW120471   1.055   0.295   8.536  0.8368  0.7758  0.2945
 3003SOL    HW220472   1.200   0.312   8.561  0.5294 -0.0506  0.3602
 3004SOL     OW20473   3.754   0.467   1.149  0.4654  0.3384  0.1337
 3004SOL    HW120474   3.723   0.519   1.224  0.6420  2.3721 -1.2193
 3004SOL    HW220475   3.732   0.527   1.078 -0.4623  1.0517  1.0265
 3005SOL     OW20476   2.970   1.585   8.207 -0.3168  0.0588 -0.1624
 3005SOL    HW120477   3.035   1.633   8.259 -0.0821 -1.2542  0.7729
 3005SOL    HW220478   3.008   1.498   8.200 -0.6658 -0.0974 -0.1304
 3006SOL     OW20479   4.090   1.262   7.736 -0.4818  0.3193 -0.2214
 3006SOL    HW120480   4.039   1.250   7.816  0.5253 -0.0615  0.3646
 3006SOL    HW220481   4.163   1.314   7.770 -0.4130  0.1093 -0.0517
 3007SOL     OW20482   0.271   3.593   1.489  0.3497  0.0364  0.4998
 3007SOL    HW120483   0.223   3.624   1.413  2.8503 -1.0247 -1.4876
 3007SOL    HW220484   0.322   3.516   1.463 -0.9930 -1.3303  1.8725
 3008SOL     OW20485   3.666   2.440   3.234 -0.6643  0.2275 -0.1489
 3008SOL    HW120486   3.646   2.377   3.165 -0.5937 -1.4171  1.3510
 3008SOL    HW220487   3.736   2.392   3.279 -1.2554  1.0104  1.6022
 3009SOL     OW20488   3.082   2.847   0.443 -0.4398  0.0179  0.2353
 3009SOL    HW120489   3.049   2.921   0.494 -3.9735 -1.7435  0.4962
 3009SOL    HW220490   3.014   2.782   0.457 -1.0174  1.0312  2.1626
 3010SOL     OW20491   1.000   3.996   5.223  0.1936 -0.2182  0.0099
 3010SOL    HW120492   1.053   3.980   5.301  0.2834  0.7905  0.1600
 3010SOL    HW220493   0.926   3.940   5.248 -0.8177 -0.1383 -2.8618
 3011SOL     OW20494   4.008   2.061   8.542  0.2043 -0.6322 -0.1068
 3011SOL    HW120495   3.996   2.009   8.462  1.3239 -1.9298  0.5547
 3011SOL    HW220496   3.924   2.084   8.579  1.2992  1.4146  1.0804
 3012SOL     OW20497   2.292   2.245   3.353  0.0444  0.9623 -0.1904
 3012SOL    HW120498   2.323   2.315   3.296  2.7141  0.6016  0.7744
 3012SOL    HW220499   2.199   2.257   3.337 -0.3146  0.2678  1.4398
 3013SOL     OW20500   0.443   3.182   9.579 -0.0946  0.0050  0.0200
 3013SOL    HW120501   0.507   3.233   9.529 -0.3538 -0.3038 -0.6305
 3013SOL    HW220502   0.495   3.109   9.613 -0.2298  0.0244  0.2695
 3014SOL     OW20503   2.596   2.120   7.756  0.3659 -0.0118 -0.7082
 3014SOL    HW120504   2.610   2.138   7.849 -1.9166 -0.7778 -0.2008
 3014SOL    HW220505   2.684   2.108   7.722  0.5205  0.2566 -0.4073
 3015SOL     OW20506   2.428   3.227   8.701 -0.0659 -0.2031 -0.2545
 3015SOL    HW120507   2.368   3.294   8.666 -0.3741 -1.5888 -2.3531
 3015SOL    HW220508   2.502   3.278   8.734  0.2382 -0.8021 -0.0169
 3016SOL     OW20509   2.411   4.251   7.978 -0.4187  0.2700 -0.7659
 3016SOL    HW120510   2.499   4.224   8.005 -1.8098 -1.6137  1.9264
 3016SOL    HW220511   2.425   4.281   7.888  0.1836 -1.7496 -1.3354
 3017SOL     OW20512   0.396   3.518   9.674  0.1229 -0.4720 -0.7536
 3017SOL    HW120513   0.413   3.496   9.583  2.3844  3.9392 -1.4052
 3017SOL    HW220514   0.324   3.580   9.662  0.6785  0.2214 -0.5401
 3018SOL     OW20515   3.332   0.123   3.826  1.1688  0.2441 -0.6801
 3018SOL    HW120516   3.246   0.111   3.784  1.2489  1.1557 -1.1123
 3018SOL    HW220517   3.387   0.049   3.804 -2.0883 -2.2922 -0.3131
 3019SOL     OW20518   2.096   2.352   2.029  0.0397 -0.6129  0.1843
 3019SOL    HW120519   2.043   2.281   2.065 -0.2729 -0.9660 -0.9580
 3019SOL    HW220520   2.074   2.433   2.075 -0.1294 -1.4869  1.6185
 3020SOL     OW20521   0.853   2.487   2.158  0.3732  0.0955 -0.9887
 3020SOL    HW120522   0.927   2.458   2.104  0.5147 -0.6135 -0.4151
 3020SOL    HW220523   0.837   2.403   2.201  2.3888  1.5254  2.5002
 3021SOL     OW20524   1.986   0.978  15.233 -0.0766  0.3481  0.2317
 3021SOL    HW120525   2.037   0.994  15.154 -1.2788 -0.5471 -0.7268
 3021SOL    HW220526   2.042   0.932  15.295 -0.4705  0.8770  0.9861
 3022SOL     OW20527   1.625   3.689   3.049  0.5615  0.0074 -0.1712
 3022SOL    HW120528   1.678   3.758   3.009  1.4374 -0.9439 -0.6916
 3022SOL    HW220529   1.539   3.724   3.027  0.2568 -0.2512  0.5951
 3023SOL     OW20530   3.550   4.660   5.773  0.7016 -0.2524  0.5547
 3023SOL    HW120531   3.502   4.676   5.692 -0.8041  0.0473  1.5169
 3023SOL    HW220532   3.531   4.567   5.780  0.4904 -0.2835 -0.4755
 3024SOL     OW20533   1.459   0.499   8.506  0.3298  0.2065 -0.2606
 3024SOL    HW120534   1.383   0.556   8.496  0.4548  0.3004 -0.6752
 3024SOL    HW220535   1.499   0.542   8.582  1.6447 -1.3440 -0.0698
 3025SOL     OW20536   4.331   3.125   9.140  0.1401  0.1613  0.0686
 3025SOL    HW120537   4.242   3.099   9.118 -0.4450  1.6889  0.5729
 3025SOL    HW220538   4.331   3.219   9.121  3.4002 -0.1407 -1.4640
 3026SOL     OW20539   2.194   0.872   0.457 -0.8175  0.2522  0.3223
 3026SOL    HW120540   2.153   0.871   0.544 -0.5736  1.5541  0.4588
 3026SOL    HW220541   2.120   0.847   0.402 -0.5588 -0.3731  0.2567
 3027SOL     OW20542   2.355   2.761  14.410  0.2786 -0.0223 -0.7055
 3027SOL    HW120543   2.343   2.776  14.504  1.1404 -0.6233 -0.5030
 3027SOL    HW220544   2.446   2.732  14.413  0.4056  0.4356  0.0456
 3028SOL     OW20545   0.919   4.099   5.893 -0.3486 -0.9006 -0.3421
 3028SOL    HW120546   0.934   4.083   5.987 -0.1272  0.7507 -0.0997
 3028SOL    HW220547   0.827   4.126   5.893 -0.4962 -1.3684  0.5316
 3029SOL     OW20548   2.027   2.050  11.825  0.1398  0.4906  0.0738
 3029SOL    HW120549   2.050   1.975  11.880 -0.6051  0.0058 -0.2702
 3029SOL    HW220550   2.000   2.016  11.740  0.7357  1.0291 -0.3285
 3030SOL     OW20551   0.249   2.931   8.276  0.3198  0.4544 -0.0398
 3030SOL    HW120552   0.205   3.013   8.296 -2.4142 -1.3556  1.3564
 3030SOL    HW220553   0.183   2.873   8.314  0.1003  0.6129 -0.1780
 3031SOL     OW20554   4.400   2.051  14.891 -0.2087  0.5871 -0.3784
 3031SOL    HW120555   4.395   1.960  14.861  1.2649  0.6502 -0.7820
 3031SOL    HW220556   4.360   2.081  14.809  0.2024  1.8207 -0.1143
 3032SOL     OW20557   4.501   0.655   4.582 -0.1688  0.3339 -0.0785
 3032SOL    HW120558   4.523   0.707   4.659  0.7717  0.7095 -0.6104
 3032SOL    HW220559   4.456   0.583   4.628  0.7036  1.1300  2.0223
 3033SOL     OW20560   0.658   4.488  13.658 -0.1024  0.1042  0.1457
 3033SOL    HW120561   0.623   4.462  13.743  0.8328  1.3877  0.9359
 3033SOL    HW220562   0.573   4.508  13.619 -0.1953  1.8461  1.2099
 3034SOL     OW20563   1.460   4.348   2.416  0.4682  0.0433  0.0753
 3034SOL    HW120564   1.451   4.306   2.330  2.2847 -2.7496  1.2460
 3034SOL    HW220565   1.520   4.422   2.403  0.0459  0.1823 -1.1559
 3035SOL     OW20566   3.497   1.357   2.505 -0.2245 -0.1725 -0.1051
 3035SOL    HW120567   3.564   1.324   2.444 -1.3070 -0.1019 -1.3179
 3035SOL    HW220568   3.505   1.452   2.489 -1.2334  0.6225  4.3266
 3036SOL     OW20569   2.100   1.679   5.745 -0.2116 -0.3608 -0.1140
 3036SOL    HW120570   2.039   1.631   5.688  2.0684 -2.1690 -1.0036
 3036SOL    HW220571   2.078   1.647   5.833  1.0217 -2.4208 -0.5466
 3037SOL     OW20572   1.157   3.175   4.848 -0.2890  0.1056 -0.3665
 3037SOL    HW120573   1.243   3.138   4.868  0.0381  1.0073 -0.0840
 3037SOL    HW220574   1.101   3.108   4.887 -2.6330  2.7105  0.7658
 3038SOL     OW20575   2.271   3.540   5.485 -0.2280  0.1849 -0.1458
 3038SOL    HW120576   2.282   3.633   5.504 -0.6771 -0.0299  1.2225
 3038SOL    HW220577   2.356   3.507   5.457  0.9860  2.8208  0.4500
 3039SOL     OW20578   0.124   2.420   3.699 -0.2179  0.1380 -0.2197
 3039SOL    HW120579   0.211   2.457   3.711 -1.0968  2.1028 -0.0355
 3039SOL    HW220580   0.130   2.404   3.605 -1.2709 -1.9712  0.0691
 3040SOL     OW20581   1.819   4.470  11.216 -0.3222 -0.6893 -0.0585
 3040SOL    HW120582   1.737   4.504  11.180 -0.3044  0.1426  0.6943
 3040SOL    HW220583   1.789   4.380  11.230 -0.3115 -0.7525 -0.4361
 3041SOL     OW20584   2.459   3.707   5.292  0.3316 -0.6175 -0.4600
 3041SOL    HW120585   2.406   3.766   5.345 -0.0139 -2.3578  1.1709
 3041SOL    HW220586   2.550   3.730   5.309 -0.2140  0.6360  0.7355
 3042SOL     OW20587   1.482   1.300  16.496 -0.3201  0.5542 -0.6705
 3042SOL    HW120588   1.467   1.312  16.590  0.1759 -2.3725 -0.1924
 3042SOL    HW220589   1.390   1.301  16.470 -0.7557  2.4327  0.9124
 3043SOL     OW20590   3.984   0.397   7.896 -0.1824 -0.1711  0.1495
 3043SOL    HW120591   4.014   0.330   7.957  3.5198  1.3136 -0.0273
 3043SOL    HW220592   3.962   0.349   7.816 -3.1488  0.1635  0.7716
 3044SOL     OW20593   3.381   0.489  11.882  0.1027 -0.4799 -0.2272
 3044SOL    HW120594   3.379   0.531  11.796 -0.7913  0.7814  0.4064
 3044SOL    HW220595   3.472   0.462  11.887 -0.4535 -2.2791  0.2241
 3045SOL     OW20596   1.153   4.158   1.142  0.1742 -0.1728  0.0710
 3045SOL    HW120597   1.204   4.211   1.081  0.4041 -1.1484 -0.5962
 3045SOL    HW220598   1.211   4.082   1.147 -1.7757 -1.7317 -1.2221
 3046SOL     OW20599   2.067   2.564   3.867  0.0974  0.0387 -0.0810
 3046SOL    HW120600   2.036   2.615   3.793 -2.1196 -0.8934  0.1865
 3046SOL    HW220601   2.018   2.484   3.847  0.0214  0.1103 -0.1769
 3047SOL     OW20602   1.216   2.754  12.553 -0.6019  0.0860 -0.3970
 3047SOL    HW120603   1.278   2.822  12.581  1.3090 -2.0230  0.4312
 3047SOL    HW220604   1.160   2.808  12.497 -1.6847  2.4817  2.9983
 3048SOL     OW20605   3.986   0.225   6.627  0.9861 -0.0059  0.1256
 3048SOL    HW120606   4.048   0.279   6.676  0.4758  1.2992 -0.6619
 3048SOL    HW220607   4.036   0.158   6.580 -1.6610 -1.1497 -1.0657
 3049SOL     OW20608   2.049   3.084   4.870  0.0558  0.0996 -0.1612
 3049SOL    HW120609   1.998   3.003   4.871  0.4286 -0.1318  0.1139
 3049SOL    HW220610   2.138   3.049   4.875  0.3292  0.7568 -0.4235
 3050SOL     OW20611   4.022   0.254   6.171  0.4264 -0.2884 -0.1569
 3050SOL    HW120612   4.105   0.280   6.211 -0.2035  1.3259  0.0950
 3050SOL    HW220613   3.976   0.332   6.138 -0.6879 -0.9236 -0.1146
 3051SOL     OW20614   3.141   0.185   7.662 -0.2759 -0.0097  0.2103
 3051SOL    HW120615   3.094   0.241   7.601  2.9044 -0.0119 -2.2140
 3051SOL    HW220616   3.230   0.185   7.627 -0.1056 -1.6952  0.6241
 3052SOL     OW20617   2.973   4.281   5.556 -0.1203 -0.3765  0.4407
 3052SOL    HW120618   2.924   4.327   5.625 -0.9540  0.7533 -0.8917
 3052SOL    HW220619   2.916   4.291   5.479 -2.7819 -0.1035  2.4509
 3053SOL     OW20620   4.382   2.672  17.194  0.7740 -0.3801  0.2315
 3053SOL    HW120621   4.321   2.744  17.178 -2.3182 -3.5397 -2.1384
 3053SOL    HW220622   4.334   2.617  17.257 -1.0732  3.4662  2.1823
 3054SOL     OW20623   0.632   3.610   7.367 -0.3131 -0.1093 -0.5857
 3054SOL    HW120624   0.683   3.578   7.293  1.5457  0.7100  0.3478
 3054SOL    HW220625   0.616   3.704   7.352 -1.5324 -0.1727  0.2623
 3055SOL     OW20626   3.372   2.990  13.807 -0.0470 -0.3482 -0.0475
 3055SOL    HW120627   3.335   2.977  13.719 -1.4824  1.7370  0.2621
 3055SOL    HW220628   3.307   2.970  13.873  0.2875 -0.0423  0.3716
 3056SOL     OW20629   2.768   2.933  11.700  0.5469  0.0623 -0.6128
 3056SOL    HW120630   2.705   2.861  11.698 -0.2731  0.7306  0.7106
 3056SOL    HW220631   2.721   3.012  11.671  2.4621  1.0916 -0.9003
 3057SOL     OW20632   2.052   2.810  14.402 -0.8647 -0.5211  0.0356
 3057SOL    HW120633   2.074   2.726  14.443 -0.2429 -0.2766  0.1963
 3057SOL    HW220634   2.012   2.862  14.471 -1.3434  0.8082 -1.2473
 3058SOL     OW20635   2.659   1.257   8.180 -0.0991 -0.2983  0.3162
 3058SOL    HW120636   2.633   1.337   8.225  0.2993 -0.4544  0.8304
 3058SOL    HW220637   2.692   1.208   8.256 -0.3133 -1.3643 -0.2748
 3059SOL     OW20638   4.058   3.901   9.033  0.1708 -0.2254  0.0342
 3059SOL    HW120639   3.984   3.864   8.986  0.7738 -3.1321  1.3978
 3059SOL    HW220640   4.075   3.841   9.106 -1.1000 -0.6880 -0.0466
 3060SOL     OW20641   3.966   3.732   9.847  0.1984 -0.0089 -0.1145
 3060SOL    HW120642   3.940   3.642   9.867 -0.3717 -0.4347 -2.7792
 3060SOL    HW220643   3.912   3.788   9.903 -0.6593 -0.9648  0.0215
 3061SOL     OW20644   1.925   2.641   7.849  0.0296  0.6438 -0.3091
 3061SOL    HW120645   1.909   2.722   7.802  0.8786  0.7690 -0.3693
 3061SOL    HW220646   1.956   2.578   7.784  0.5553  0.1711  0.3977
 3062SOL     OW20647   1.786   1.802  11.670  0.0097  0.3414 -0.3720
 3062SOL    HW120648   1.794   1.835  11.759  0.5211 -0.8877  0.0428
 3062SOL    HW220649   1.741   1.869  11.618 -2.6216  0.1737  1.6794
 3063SOL     OW20650   1.630   4.342   3.648 -0.3843 -0.0653 -0.1191
 3063SOL    HW120651   1.594   4.333   3.560  2.2698 -2.3217 -0.9883
 3063SOL    HW220652   1.610   4.432   3.674  0.4206  0.0927 -0.0345
 3064SOL     OW20653   2.824   0.870   6.885  0.2725  0.0953  0.0803
 3064SOL    HW120654   2.739   0.838   6.915  0.7957 -1.1470  0.2253
 3064SOL    HW220655   2.829   0.959   6.920  3.0575 -0.8343  2.0328
 3065SOL     OW20656   3.072   2.036   6.779  0.2052  0.0266  0.0357
 3065SOL    HW120657   3.150   2.042   6.833  1.2778  1.1690 -1.6198
 3065SOL    HW220658   3.053   2.128   6.761 -1.9747 -0.7496 -1.6655
 3066SOL     OW20659   0.802   0.077   8.429 -0.4871 -0.6246 -0.3176
 3066SOL    HW120660   0.864   0.074   8.357  0.0983  0.7295  0.1325
 3066SOL    HW220661   0.795   0.171   8.446 -1.7605 -0.6903 -0.4826
 3067SOL     OW20662   3.821   4.707   5.762  0.8556 -0.2017  0.0411
 3067SOL    HW120663   3.813   4.619   5.723 -1.8737 -0.7643  1.8915
 3067SOL    HW220664   3.730   4.721   5.787  1.3004 -0.2355  1.6610
 3068SOL     OW20665   0.359   4.594   6.439 -0.1872  0.0963 -0.2675
 3068SOL    HW120666   0.387   4.638   6.519 -1.0839 -1.6056  0.9780
 3068SOL    HW220667   0.298   4.657   6.401 -0.4581 -0.6747 -1.1102
 3069SOL     OW20668   2.499   3.726  11.547 -0.1508  0.7417 -0.2151
 3069SOL    HW120669   2.571   3.736  11.485  0.4337 -0.6840  0.2263
 3069SOL    HW220670   2.519   3.643  11.591  0.4186  1.1851  0.3595
 3070SOL     OW20671   0.837   1.942   6.036 -0.0880 -0.1132 -0.3282
 3070SOL    HW120672   0.932   1.945   6.048 -0.1461  3.6991 -0.7475
 3070SOL    HW220673   0.815   2.001   5.964 -1.5289  0.9793  0.9978
 3071SOL     OW20674   3.476   4.688  14.897  0.7353 -0.3073 -0.1671
 3071SOL    HW120675   3.418   4.623  14.937  1.8525 -0.8327  0.6054
 3071SOL    HW220676   3.520   0.004  14.973 -0.5538  2.2414 -0.6899
 3072SOL     OW20677   3.754   2.056   1.065 -0.7971  0.5074  0.4778
 3072SOL    HW120678   3.669   2.038   1.105 -1.6172  2.0977 -0.5345
 3072SOL    HW220679   3.819   2.045   1.134 -0.3332 -0.8903 -0.1874
 3073SOL     OW20680   3.187   3.242   8.196 -0.1718  0.1114  0.1897
 3073SOL    HW120681   3.232   3.236   8.280  1.1880  1.6851 -0.4368
 3073SOL    HW220682   3.100   3.212   8.222 -0.1151 -0.2343 -0.0162
 3074SOL     OW20683   1.763   3.462  12.614  0.0645 -0.3268  0.4299
 3074SOL    HW120684   1.774   3.436  12.522 -0.1690 -1.2362  0.6589
 3074SOL    HW220685   1.825   3.400  12.650  0.9545 -1.5267 -3.1747
 3075SOL     OW20686   1.689   0.224  13.451 -0.2389 -0.1631  0.0401
 3075SOL    HW120687   1.594   0.230  13.447 -0.2685  1.2254  2.5626
 3075SOL    HW220688   1.701   0.301  13.507 -1.3754  1.2617 -1.6501
 3076SOL     OW20689   1.299   1.520   4.507  0.5896  0.0276  0.0754
 3076SOL    HW120690   1.338   1.590   4.558  0.1196 -0.1155  0.6252
 3076SOL    HW220691   1.343   1.538   4.423 -2.1989 -0.1485 -1.4297
 3077SOL     OW20692   0.761   2.388   7.452  0.0663  0.3434 -0.1293
 3077SOL    HW120693   0.817   2.446   7.505 -1.0900  1.9558 -0.6720
 3077SOL    HW220694   0.791   2.305   7.489 -0.3969  0.4042  0.3721
 3078SOL     OW20695   2.172   3.563   3.744  0.8430  0.7011  0.0565
 3078SOL    HW120696   2.092   3.546   3.793  1.8743 -0.5860  1.2916
 3078SOL    HW220697   2.150   3.651   3.713 -1.1222  0.0667 -0.3889
 3079SOL     OW20698   2.985   1.399   4.204  0.3391  0.0042 -0.0724
 3079SOL    HW120699   3.013   1.310   4.225  3.8921  1.3748  0.9514
 3079SOL    HW220700   2.925   1.414   4.277  1.8869 -1.5135  1.5170
 3080SOL     OW20701   4.453   4.611   3.644 -0.1799 -0.2725  0.2022
 3080SOL    HW120702   4.392   4.641   3.577  1.3482 -1.2702 -1.6521
 3080SOL    HW220703   4.434   4.670   3.717 -2.1796  0.2648 -0.7561
 3081SOL     OW20704   3.398   2.147   9.952 -0.1861  0.5407  0.1276
 3081SOL    HW120705   3.336   2.179  10.018  2.3128  1.7036  1.8920
 3081SOL    HW220706   3.435   2.081  10.009  0.7383  0.1759 -0.8978
 3082SOL     OW20707   2.801   0.480   4.862 -0.1572  0.2581 -0.1390
 3082SOL    HW120708   2.848   0.422   4.803 -2.5617 -1.4138 -0.3760
 3082SOL    HW220709   2.840   0.452   4.945  0.1712  1.1309  0.0060
 3083SOL     OW20710   0.215   2.217  13.405  0.0557  0.1852 -0.6958
 3083SOL    HW120711   0.276   2.175  13.344 -0.7309 -2.3476  0.2692
 3083SOL    HW220712   0.165   2.141  13.435  1.2854 -0.8468 -1.2221
 3084SOL     OW20713   2.134   2.002  13.504 -0.2829 -0.2318  0.3634
 3084SOL    HW120714   2.170   2.088  13.524  0.2741 -0.3843  0.0292
 3084SOL    HW220715   2.160   1.988  13.413 -0.3151 -1.7922  0.5955
 3085SOL     OW20716   3.321   1.914   6.556  0.3010 -0.2893 -0.4180
 3085SOL    HW120717   3.344   1.916   6.648  2.1884  0.2223 -0.9028
 3085SOL    HW220718   3.324   1.819   6.550  2.2086 -0.4010  2.5335
 3086SOL     OW20719   3.013   1.536   0.121  0.3338  1.1143  0.0118
 3086SOL    HW120720   2.948   1.532   0.191 -0.6823  0.9604 -0.9642
 3086SOL    HW220721   3.001   1.630   0.105  0.7884  1.6894  2.9719
 3087SOL     OW20722   1.373   4.386   3.140  0.5955 -0.0083  0.0586
 3087SOL    HW120723   1.415   4.336   3.070 -1.4665 -2.3310  0.5087
 3087SOL    HW220724   1.281   4.369   3.121  1.0049 -0.8490 -1.1944
 3088SOL     OW20725   0.843   3.219   5.323 -0.1604 -0.1664  0.2624
 3088SOL    HW120726   0.850   3.305   5.364  0.2335  0.5968 -1.3946
 3088SOL    HW220727   0.935   3.194   5.324 -0.5066 -1.3980  0.6603
 3089SOL     OW20728   0.912   1.003  14.661  0.5094 -0.2870  0.3856
 3089SOL    HW120729   0.976   0.987  14.592  1.3160  1.3287  0.7664
 3089SOL    HW220730   0.955   1.063  14.721  0.1474  0.3439  0.0159
 3090SOL     OW20731   2.383   0.486   8.420 -0.2622  0.1198  0.1241
 3090SOL    HW120732   2.465   0.467   8.374 -0.0056  1.8277 -0.1327
 3090SOL    HW220733   2.408   0.567   8.464 -0.1274  0.1783 -0.0589
 3091SOL     OW20734   0.284   2.241   4.921  0.0739  0.3546 -0.4794
 3091SOL    HW120735   0.358   2.301   4.919  0.7770 -0.4868  0.1286
 3091SOL    HW220736   0.326   2.156   4.933  0.7544  0.7696  0.0947
 3092SOL     OW20737   3.585   0.208   2.285 -0.3306 -0.2670  1.0030
 3092SOL    HW120738   3.664   0.158   2.266 -0.9550 -0.5692 -0.7390
 3092SOL    HW220739   3.544   0.170   2.363  0.0291 -0.3096  1.1724
 3093SOL     OW20740   0.632   0.174  12.437  0.1424 -0.3495  0.1101
 3093SOL    HW120741   0.568   0.104  12.452  0.6819 -0.7217  0.7190
 3093SOL    HW220742   0.581   0.242  12.394 -0.3562 -0.2741  0.8282
 3094SOL     OW20743   3.130   1.621   6.269 -0.0873 -0.0022 -0.6954
 3094SOL    HW120744   3.038   1.600   6.290  0.7267 -0.6144  2.2715
 3094SOL    HW220745   3.116   1.688   6.202 -1.5562 -0.4081 -0.7994
 3095SOL     OW20746   1.014   2.956   6.134 -0.2858 -0.4937 -0.0180
 3095SOL    HW120747   0.993   3.041   6.174  1.1204 -0.3005  0.2944
 3095SOL    HW220748   0.995   2.885   6.195 -1.6676 -0.1318 -0.0290
 3096SOL     OW20749   1.701   4.268  13.413 -0.0730 -0.1521 -0.3724
 3096SOL    HW120750   1.676   4.273  13.505  0.2013  1.6158 -0.3952
 3096SOL    HW220751   1.649   4.192  13.386  0.3080  0.1624 -1.9914
 3097SOL     OW20752   2.190   4.205   7.728 -0.2147  0.5175  0.2791
 3097SOL    HW120753   2.282   4.196   7.752 -0.6282 -1.6174  1.0190
 3097SOL    HW220754   2.173   4.117   7.694 -0.6251  0.3637  0.8820
 3098SOL     OW20755   0.252   0.502   6.706 -0.5267  0.3038  0.2329
 3098SOL    HW120756   0.185   0.560   6.742 -1.2227 -2.0812  2.7891
 3098SOL    HW220757   0.197   0.431   6.673 -1.0540  1.3710 -1.1478
 3099SOL     OW20758   0.707   3.420   3.036 -0.2882 -0.1907  0.3445
 3099SOL    HW120759   0.775   3.466   2.987 -2.5698  1.1229 -1.6218
 3099SOL    HW220760   0.650   3.495   3.052 -1.6105 -1.1345  0.1778
 3100SOL     OW20761   0.442   0.698   6.348 -0.5775 -0.2457 -0.0155
 3100SOL    HW120762   0.530   0.729   6.326 -0.4988 -0.5379 -0.1146
 3100SOL    HW220763   0.442   0.632   6.279 -0.3244  0.2743 -0.5150
 3101SOL     OW20764   2.249   4.171   8.533 -1.2460  0.3543  0.8268
 3101SOL    HW120765   2.233   4.211   8.618 -0.5415 -2.9533  2.4793
 3101SOL    HW220766   2.158   4.181   8.504 -1.1325  2.9032  1.3421
 3102SOL     OW20767   3.132   4.331   9.602 -0.0908 -0.4548 -0.4283
 3102SOL    HW120768   3.155   4.420   9.575 -1.0503 -0.3058 -0.7628
 3102SOL    HW220769   3.117   4.293   9.515  0.5368 -1.4904 -0.0702
 3103SOL     OW20770   2.837   2.125   7.630  0.2435 -0.0142  1.0528
 3103SOL    HW120771   2.883   2.055   7.676  2.8399 -0.3363 -1.9923
 3103SOL    HW220772   2.878   2.125   7.543  0.2684 -1.1055  1.0573
 3104SOL     OW20773   2.566   3.951   3.002  0.0664  0.4848  0.4696
 3104SOL    HW120774   2.648   3.903   2.995 -0.9297 -1.2821  0.8660
 3104SOL    HW220775   2.575   3.997   3.085  2.3048 -1.0934  1.0776
 3105SOL     OW20776   1.480   4.260   4.839 -0.5725  0.4248 -0.7639
 3105SOL    HW120777   1.477   4.225   4.750 -1.2337  0.3984 -0.7352
 3105SOL    HW220778   1.391   4.293   4.849  0.5421  3.0994  0.4019
 3106SOL     OW20779   1.083   1.223  14.406  0.4856  0.3315 -0.3619
 3106SOL    HW120780   1.119   1.144  14.447 -1.6805 -0.8874 -0.8137
 3106SOL    HW220781   1.079   1.288  14.476  1.5538 -0.2372  0.2239
 3107SOL     OW20782   4.323   2.768  16.817 -0.2515 -0.1231  0.5556
 3107SOL    HW120783   4.308   2.684  16.862 -1.4308 -0.4551 -0.4712
 3107SOL    HW220784   4.342   2.731  16.731 -0.2581  1.0543  0.0498
 3108SOL     OW20785   4.687   1.069   7.188 -0.7535 -0.2872  0.0142
 3108SOL    HW120786   4.693   1.040   7.279 -2.3502 -0.2669  0.1337
 3108SOL    HW220787   4.594   1.053   7.172 -0.2664 -0.8018 -2.2860
 3109SOL     OW20788   3.290   1.984   4.425 -0.3138 -0.0063 -0.6105
 3109SOL    HW120789   3.279   1.991   4.330 -1.7693  0.7769 -0.3963
 3109SOL    HW220790   3.224   1.918   4.446 -0.5311  0.8937  1.5861
 3110SOL     OW20791   4.631   4.421  10.495 -0.4231 -0.0606 -0.0702
 3110SOL    HW120792   4.723   4.441  10.475 -0.4239  0.6815  0.6635
 3110SOL    HW220793   4.633   4.326  10.511 -0.8852 -0.3835 -1.9338
 3111SOL     OW20794   2.167   3.970  10.836  0.3103 -0.1913 -0.0143
 3111SOL    HW120795   2.207   3.907  10.896  0.7531  0.0457 -0.0618
 3111SOL    HW220796   2.160   4.052  10.886 -2.6279 -0.7227  0.4512
 3112SOL     OW20797   2.312   2.481   0.227  0.1176 -0.2696 -0.1107
 3112SOL    HW120798   2.242   2.416   0.227 -0.8681  0.7857 -0.8083
 3112SOL    HW220799   2.274   2.541   0.292  0.6105 -0.7596  0.6238
 3113SOL     OW20800   4.595   2.542   7.017 -0.0327 -0.0802  0.0765
 3113SOL    HW120801   4.653   2.504   6.951  0.2217 -0.3954  0.4878
 3113SOL    HW220802   4.524   2.479   7.000 -1.2500  0.3937  3.4546
 3114SOL     OW20803   3.393   0.476   6.839 -0.3414  0.8700  0.3888
 3114SOL    HW120804   3.336   0.442   6.907 -0.6528  2.1685  0.7914
 3114SOL    HW220805   3.380   0.407   6.774  1.6001  0.4622  0.4561
 3115SOL     OW20806   1.239   2.050   7.363 -0.3382 -0.1124  0.4812
 3115SOL    HW120807   1.321   2.003   7.347 -0.0667  0.4352  0.2577
 3115SOL    HW220808   1.281   2.136   7.363 -0.0336 -0.2656  1.0362
 3116SOL     OW20809   1.773   0.410   5.113  0.2907  0.0611  0.3553
 3116SOL    HW120810   1.751   0.323   5.149 -0.8656 -0.0399 -0.5961
 3116SOL    HW220811   1.835   0.379   5.047 -0.2575  1.0555 -0.6127
 3117SOL     OW20812   4.252   1.563   4.750 -0.2997 -0.2011 -0.4917
 3117SOL    HW120813   4.271   1.530   4.838 -1.6531 -2.5300 -1.0973
 3117SOL    HW220814   4.181   1.504   4.724 -0.5098 -0.0919 -0.1743
 3118SOL     OW20815   2.221   0.756   3.576 -0.4948  0.3528 -0.4918
 3118SOL    HW120816   2.237   0.680   3.632 -1.0955  0.6248  0.0608
 3118SOL    HW220817   2.239   0.727   3.487 -1.2314 -3.0274  0.4505
 3119SOL     OW20818   1.688   4.710   1.989  0.6603 -0.1163  0.1840
 3119SOL    HW120819   1.650   4.678   1.906  0.9990  0.3874 -0.1646
 3119SOL    HW220820   1.619   0.040   2.028 -2.0975 -2.9962 -0.7153
 3120SOL     OW20821   2.865   4.481  13.090 -0.1197 -0.2223 -0.4506
 3120SOL    HW120822   2.780   4.453  13.123 -0.5873  1.5228 -0.1690
 3120SOL    HW220823   2.881   4.396  13.048 -0.3449  0.2820 -1.5569
 3121SOL     OW20824   0.955   2.593  13.433  0.1478 -0.5826  0.4920
 3121SOL    HW120825   1.040   2.636  13.435  0.5586 -1.2390 -2.2952
 3121SOL    HW220826   0.939   2.591  13.338 -0.7245  0.3276  0.6187
 3122SOL     OW20827   0.343   0.533   7.890  0.2192  0.2507 -0.3670
 3122SOL    HW120828   0.292   0.481   7.829 -0.6604  0.7581 -0.0561
 3122SOL    HW220829   0.328   0.619   7.850  1.4832  2.0027  2.9085
 3123SOL     OW20830   2.978   2.014   7.929 -0.6320 -0.1027 -0.4268
 3123SOL    HW120831   3.073   2.029   7.934 -0.9861  0.7920  3.3454
 3123SOL    HW220832   2.970   1.948   7.860  0.6025  0.0167 -0.6934
 3124SOL     OW20833   0.921   2.015   6.958 -0.2671 -0.0890 -0.2479
 3124SOL    HW120834   0.860   2.016   7.032 -1.0355  0.4810 -0.8959
 3124SOL    HW220835   0.952   1.924   6.952  0.5503  0.2035 -0.4377
 3125SOL     OW20836   0.863   2.635   8.550 -0.0195  0.0103 -0.1595
 3125SOL    HW120837   0.818   2.593   8.477  2.0715 -1.4484 -0.6293
 3125SOL    HW220838   0.844   2.729   8.547  0.5826  0.1186 -0.7758
 3126SOL     OW20839   4.493   4.133   7.724 -0.4199 -0.2855 -0.1859
 3126SOL    HW120840   4.580   4.093   7.725 -0.9469 -1.3918  0.9749
 3126SOL    HW220841   4.507   4.228   7.719  1.1270 -0.2967  4.2910
 3127SOL     OW20842   4.122   0.061   6.032 -0.5071 -0.2642  0.1402
 3127SOL    HW120843   4.078   0.138   6.068 -0.1575  0.3900 -0.8389
 3127SOL    HW220844   4.103   4.715   6.095 -0.6111 -0.4020 -0.0414
 3128SOL     OW20845   3.163   0.245   6.639  0.9859 -0.2910 -0.4558
 3128SOL    HW120846   3.124   0.331   6.651 -1.4193 -1.4008 -0.3164
 3128SOL    HW220847   3.170   0.251   6.543 -0.2407  1.9149 -0.4144
 3129SOL     OW20848   0.983   0.865   3.074 -0.6684  0.0079 -0.4394
 3129SOL    HW120849   0.996   0.778   3.035 -0.6328 -0.8146  1.4018
 3129SOL    HW220850   0.903   0.849   3.124 -0.6784 -0.3779 -0.5807
 3130SOL     OW20851   2.680   3.390   0.704  0.2616 -0.3840  0.6288
 3130SOL    HW120852   2.718   3.385   0.791  0.1420  0.6675  0.7454
 3130SOL    HW220853   2.747   3.434   0.651  0.4829  0.9239  2.0108
 3131SOL     OW20854   3.960   0.992  17.030  0.0345 -0.0329 -0.1065
 3131SOL    HW120855   3.965   1.080  17.067  3.6571 -0.6851  0.9414
 3131SOL    HW220856   3.866   0.985  17.012  0.1855 -1.7269 -0.2844
 3132SOL     OW20857   3.626   3.782   5.493 -0.7015  0.2385 -0.9020
 3132SOL    HW120858   3.669   3.797   5.409  2.3542  0.8694  0.7653
 3132SOL    HW220859   3.592   3.870   5.508  0.3950  0.4175  0.6219
 3133SOL     OW20860   3.136   2.734   4.889  0.2660  0.4481  0.6940
 3133SOL    HW120861   3.063   2.708   4.833  1.5369 -0.5644 -0.4826
 3133SOL    HW220862   3.215   2.702   4.847 -0.7997  1.1964 -1.8769
 3134SOL     OW20863   2.603   2.734   1.859 -0.3685 -0.1371  0.2442
 3134SOL    HW120864   2.541   2.663   1.840 -0.3633  0.5303 -2.2255
 3134SOL    HW220865   2.670   2.727   1.791 -0.2515  4.4528 -0.1179
 3135SOL     OW20866   1.142   3.551   2.519  0.4476  0.9970  0.5016
 3135SOL    HW120867   1.053   3.584   2.506  1.2414  2.1664 -1.9038
 3135SOL    HW220868   1.118   3.461   2.497  1.0164  1.0145 -0.1813
 3136SOL     OW20869   0.211   3.566   1.983  0.0037  0.0076 -0.4207
 3136SOL    HW120870   0.220   3.483   2.029  1.2624  0.9049  0.9180
 3136SOL    HW220871   0.126   3.596   2.017  0.2833 -0.0148  0.2953
 3137SOL     OW20872   3.984   3.510   4.652  0.0851  0.5451 -0.5913
 3137SOL    HW120873   3.928   3.570   4.701 -1.1416 -0.7681 -0.3995
 3137SOL    HW220874   4.013   3.447   4.717 -0.2055  2.0978  1.0260
 3138SOL     OW20875   1.525   1.861   2.316  0.3760  0.3090  0.2767
 3138SOL    HW120876   1.459   1.886   2.251  0.4129 -0.7093 -0.1621
 3138SOL    HW220877   1.598   1.910   2.279 -0.5045  2.1035  0.9044
 3139SOL     OW20878   3.570   4.460  10.169  0.3489 -0.5311 -0.1700
 3139SOL    HW120879   3.505   4.394  10.194 -1.6361  1.2285 -0.6250
 3139SOL    HW220880   3.585   4.438  10.077  1.1191  0.9285 -0.3980
 3140SOL     OW20881   4.463   3.313   2.303 -0.5976  0.1408 -0.3509
 3140SOL    HW120882   4.498   3.361   2.228  0.3445 -0.1335 -0.0758
 3140SOL    HW220883   4.510   3.231   2.289 -1.5020 -0.6919  1.4923
 3141SOL     OW20884   0.206   3.621   7.505 -0.0892  0.2783 -0.1299
 3141SOL    HW120885   0.244   3.628   7.418  0.0209 -3.0872 -0.3434
 3141SOL    HW220886   0.268   3.569   7.555  1.0227  0.7969 -0.9899
 3142SOL     OW20887   3.704   4.616   1.868  0.3392 -0.0052  0.8067
 3142SOL    HW120888   3.649   4.691   1.890 -0.1308 -0.2569  0.4764
 3142SOL    HW220889   3.766   4.651   1.803 -1.2994  0.3432 -0.5435
 3143SOL     OW20890   1.368   0.943  17.645 -0.1795 -0.5756  0.3680
 3143SOL    HW120891   1.433   1.008  17.619 -0.3848 -0.0363  1.1754
 3143SOL    HW220892   1.313   0.939  17.567 -1.9167  0.4944  1.5117
 3144SOL     OW20893   3.866   2.463   2.956  0.0612  0.0743  0.0741
 3144SOL    HW120894   3.924   2.481   3.030  0.7348 -0.7006 -0.2669
 3144SOL    HW220895   3.886   2.370   2.948 -0.1648  0.2380 -2.6548
 3145SOL     OW20896   0.934   3.361   4.932  0.1793  0.1241  0.0578
 3145SOL    HW120897   0.969   3.450   4.938 -2.3752  1.3488 -2.7423
 3145SOL    HW220898   0.971   3.323   4.852 -0.9050 -0.3612 -0.2146
 3146SOL     OW20899   2.535   2.924   6.988 -0.1838  0.0065  0.1885
 3146SOL    HW120900   2.481   2.884   7.056 -0.7855  0.4698 -0.0202
 3146SOL    HW220901   2.617   2.875   6.990 -0.0054  0.2378 -1.5884
 3147SOL     OW20902   3.546   3.759   4.146 -0.0296 -0.5503  0.0067
 3147SOL    HW120903   3.559   3.721   4.059  1.4326  0.3441 -0.1760
 3147SOL    HW220904   3.636   3.785   4.169 -0.6609 -0.9175  2.8847
 3148SOL     OW20905   3.150   1.748   5.474  0.6340  0.3004  0.8429
 3148SOL    HW120906   3.212   1.679   5.495 -1.2599 -0.5505  3.7126
 3148SOL    HW220907   3.201   1.819   5.435  1.2844 -1.3147 -1.2445
 3149SOL     OW20908   3.533   3.633   2.576 -0.9869  0.2525 -0.5370
 3149SOL    HW120909   3.562   3.544   2.555  0.1805  1.2664 -3.1701
 3149SOL    HW220910   3.450   3.609   2.618 -1.3579  1.7972 -0.3817
 3150SOL     OW20911   4.574   2.959   5.893  0.0340 -0.1979  0.0243
 3150SOL    HW120912   4.627   2.932   5.968  1.2926 -1.6805 -1.3865
 3150SOL    HW220913   4.614   2.921   5.815 -2.3332 -3.6536  0.4978
 3151SOL     OW20914   2.615   2.845   3.383 -0.1694  0.2828 -0.1178
 3151SOL    HW120915   2.684   2.810   3.328 -1.7234 -2.1422 -0.5058
 3151SOL    HW220916   2.672   2.892   3.444  3.5749 -2.7200 -1.3367
 3152SOL     OW20917   2.521   0.631   3.659 -0.7301 -0.2959  0.0517
 3152SOL    HW120918   2.547   0.550   3.617  1.4311 -0.1217  1.0437
 3152SOL    HW220919   2.606   0.646   3.701 -1.3485  1.0306  0.8475
 3153SOL     OW20920   2.894   1.003   4.762  0.2040 -0.0381  0.0845
 3153SOL    HW120921   2.921   0.923   4.716 -1.4012 -1.4803  1.6407
 3153SOL    HW220922   2.890   1.072   4.697 -0.9078  1.0461  1.2973
 3154SOL     OW20923   2.823   3.683   4.120  0.0434  0.5275  0.4947
 3154SOL    HW120924   2.744   3.630   4.129  0.1637  0.0513 -1.2344
 3154SOL    HW220925   2.779   3.767   4.104  0.0369  0.5234  0.4907
 3155SOL     OW20926   2.574   1.011   7.501  0.2066 -0.6671  0.6828
 3155SOL    HW120927   2.583   1.026   7.595 -0.9871 -0.7161  0.7968
 3155SOL    HW220928   2.481   0.994   7.490  0.0130  0.3786  0.7060
 3156SOL     OW20929   2.861   2.670   2.364 -0.0927  0.5089 -0.4604
 3156SOL    HW120930   2.800   2.736   2.330 -0.6050  0.4403  0.3195
 3156SOL    HW220931   2.938   2.724   2.380  0.6000 -1.0255  1.5250
 3157SOL     OW20932   1.068   2.489   8.840  0.0154  0.2603  0.2293
 3157SOL    HW120933   1.048   2.583   8.841  0.7012  0.3888  1.3787
 3157SOL    HW220934   1.139   2.488   8.904 -0.6223  0.9060  0.9559
 3158SOL     OW20935   2.393   1.266   8.353  0.5801 -0.2337  0.1926
 3158SOL    HW120936   2.383   1.354   8.317  0.4258  0.8763  2.9615
 3158SOL    HW220937   2.356   1.288   8.438  0.2647 -0.2130  0.0504
 3159SOL     OW20938   1.523   1.202   5.383  0.0689 -0.6044  0.2476
 3159SOL    HW120939   1.431   1.190   5.410 -0.2653 -2.5077 -1.7045
 3159SOL    HW220940   1.558   1.275   5.433  0.5406 -0.3497 -0.4575
 3160SOL     OW20941   4.631   1.982  10.274 -0.2124 -0.2486 -0.0498
 3160SOL    HW120942   4.688   1.964  10.200 -0.6585  0.3044 -0.5259
 3160SOL    HW220943   4.592   1.894  10.282 -1.5801  0.3506 -0.0668
 3161SOL     OW20944   1.754   2.481   5.042 -0.0026  0.0526  0.1061
 3161SOL    HW120945   1.678   2.536   5.024 -0.1586  0.4086  1.8005
 3161SOL    HW220946   1.707   2.427   5.106 -1.3862  1.9887  0.7142
 3162SOL     OW20947   4.543   3.458   2.585  0.6961  0.1937 -0.1459
 3162SOL    HW120948   4.469   3.418   2.632  0.5891 -0.1184 -0.5804
 3162SOL    HW220949   4.544   3.393   2.515 -0.9636 -0.6627  0.6372
 3163SOL     OW20950   1.482   3.336  11.497 -0.0749  0.6069  0.2833
 3163SOL    HW120951   1.520   3.407  11.549 -0.6167 -0.5896  2.3096
 3163SOL    HW220952   1.472   3.388  11.417  2.1321  3.7311  2.0190
 3164SOL     OW20953   2.959   0.358   2.214 -0.2946  0.4019 -0.2477
 3164SOL    HW120954   2.889   0.421   2.197 -1.4636 -0.7561  0.2217
 3164SOL    HW220955   3.032   0.400   2.169 -1.9267  2.1086 -1.3223
 3165SOL     OW20956   1.756   4.067  14.433  0.3229  0.7701  0.5039
 3165SOL    HW120957   1.781   4.005  14.365 -2.0488 -0.6516  0.9486
 3165SOL    HW220958   1.802   4.026  14.507  0.9232  1.7796  0.6987
 3166SOL     OW20959   1.521   0.700  14.062  0.2168 -0.3213 -0.2441
 3166SOL    HW120960   1.526   0.651  14.144  0.5352  3.7949  2.1930
 3166SOL    HW220961   1.454   0.765  14.084  1.6088  1.6286 -1.7827
 3167SOL     OW20962   0.459   1.942   3.440 -1.1561  0.0567 -0.0880
 3167SOL    HW120963   0.393   1.878   3.412 -0.5351  0.1868 -1.8295
 3167SOL    HW220964   0.473   1.980   3.354  0.4322 -0.2192  0.0391
 3168SOL     OW20965   1.858   1.183   3.809 -0.6820  0.7339  0.2281
 3168SOL    HW120966   1.848   1.088   3.799 -2.5688  1.0693 -1.0067
 3168SOL    HW220967   1.764   1.194   3.821 -1.1674 -2.1365 -1.1486
 3169SOL     OW20968   1.196   3.853   1.851  0.4862  0.2886  0.1155
 3169SOL    HW120969   1.142   3.839   1.773  3.8521 -3.9160 -1.4437
 3169SOL    HW220970   1.251   3.777   1.832  0.4134  0.1847  0.3143
 3170SOL     OW20971   4.135   0.716   3.198  0.7001 -0.1325  0.3292
 3170SOL    HW120972   4.219   0.717   3.152  0.9259 -1.6703  0.7017
 3170SOL    HW220973   4.124   0.622   3.191 -0.9334  0.1071 -0.1964
 3171SOL     OW20974   1.728   2.160   8.450  0.3720  0.0162 -0.1006
 3171SOL    HW120975   1.796   2.211   8.406  0.9595 -0.6045  0.0723
 3171SOL    HW220976   1.710   2.214   8.526  1.3931  0.2736 -0.0391
 3172SOL     OW20977   0.444   1.781   0.643  0.1062 -0.0025  0.1517
 3172SOL    HW120978   0.425   1.874   0.652 -0.6013 -0.0363 -0.9176
 3172SOL    HW220979   0.448   1.774   0.547  0.1815 -0.2565  0.1727
 3173SOL     OW20980   0.925   4.345   7.956 -0.5162  0.3042 -0.6750
 3173SOL    HW120981   0.929   4.305   7.869 -0.8335  0.0562 -0.5778
 3173SOL    HW220982   1.004   4.393   7.977 -0.9019  0.5327  0.2629
 3174SOL     OW20983   1.111   1.995   6.035  0.1037  0.1981  0.3128
 3174SOL    HW120984   1.198   1.957   6.042 -0.4312 -1.0139  0.3207
 3174SOL    HW220985   1.122   2.073   6.091 -2.1595  0.2012  0.7462
 3175SOL     OW20986   4.008   3.648   5.871  0.0285 -0.5619  0.1999
 3175SOL    HW120987   4.005   3.568   5.819  0.6838  1.1416 -2.4314
 3175SOL    HW220988   4.062   3.613   5.942  2.3116  3.7190  0.5865
 3176SOL     OW20989   4.153   1.524   9.303 -0.0723 -0.1724 -0.0758
 3176SOL    HW120990   4.242   1.548   9.329  0.2970 -1.6996  0.0250
 3176SOL    HW220991   4.121   1.602   9.257 -3.5598 -0.4463  1.8635
 3177SOL     OW20992   1.024   1.480  16.174 -0.1355 -0.2542 -0.1041
 3177SOL    HW120993   1.105   1.527  16.154 -0.6427  0.7586  0.2280
 3177SOL    HW220994   1.051   1.391  16.153 -0.2868 -0.3593  0.1433
 3178SOL     OW20995   4.028   3.522   6.841 -0.4012  0.3721  0.2315
 3178SOL    HW120996   3.982   3.603   6.859 -2.0436 -0.2319 -1.3855
 3178SOL    HW220997   3.971   3.462   6.890  0.7067 -0.5564  0.3843
 3179SOL     OW20998   1.406   0.798  12.037  0.0038  0.0703  0.5915
 3179SOL    HW120999   1.458   0.724  12.068  0.0331  0.4647  1.4799
 3179SOL    HW221000   1.439   0.865  12.096  0.1967 -0.8871  1.5693
 3180SOL     OW21001   0.388   3.009   4.051  0.2399 -0.1100  0.1552
 3180SOL    HW121002   0.439   2.957   3.989 -0.3569  0.4978 -0.8387
 3180SOL    HW221003   0.447   3.025   4.125 -1.3543  0.1663  1.3943
 3181SOL     OW21004   2.504   1.279   1.837  0.1605 -0.6006  0.2049
 3181SOL    HW121005   2.447   1.341   1.793 -0.7450 -0.6636  1.2690
 3181SOL    HW221006   2.553   1.255   1.759 -1.7552 -1.5146 -0.7296
 3182SOL     OW21007   4.640   1.841   3.959 -0.3548 -0.3408 -0.3158
 3182SOL    HW121008   4.629   1.908   3.892  0.6197  1.7380  1.6255
 3182SOL    HW221009   4.638   1.898   4.035  0.9687  0.5879 -0.9931
 3183SOL     OW21010   2.886   4.573   2.801  0.4446  0.5027  0.3033
 3183SOL    HW121011   2.900   4.654   2.751  0.5226 -0.0787 -0.6188
 3183SOL    HW221012   2.974   4.536   2.807  0.8005  1.1423 -0.8207
 3184SOL     OW21013   3.152   2.462   9.308  0.3022  0.1013  0.0693
 3184SOL    HW121014   3.238   2.423   9.320 -0.1309 -1.1481 -0.8882
 3184SOL    HW221015   3.158   2.546   9.354  0.2342  0.3593 -0.4009
 3185SOL     OW21016   2.664   3.723   0.588 -0.2413 -0.0815  0.1997
 3185SOL    HW121017   2.733   3.682   0.537  0.6428 -0.1560  1.4717
 3185SOL    HW221018   2.708   3.723   0.673  0.2621 -0.5097 -0.0612
 3186SOL     OW21019   3.062   2.610   5.479 -0.0917 -0.6964  0.4495
 3186SOL    HW121020   3.073   2.699   5.445  0.8085 -1.4097 -1.1221
 3186SOL    HW221021   3.021   2.569   5.403  1.2959  0.5010 -0.9633
 3187SOL     OW21022   1.954   2.703   0.472 -0.6459  0.4169  0.2323
 3187SOL    HW121023   1.860   2.685   0.469 -1.1394  2.6845  2.5021
 3187SOL    HW221024   1.969   2.674   0.561  0.7840 -2.0876 -0.8347
 3188SOL     OW21025   2.225   0.544  12.769 -0.2348 -0.0827  0.8030
 3188SOL    HW121026   2.174   0.558  12.690 -0.9474  0.6833  1.4005
 3188SOL    HW221027   2.308   0.584  12.743 -0.1534  0.6023  2.0976
 3189SOL     OW21028   1.133   2.679   7.266  0.2962 -0.2300  0.2915
 3189SOL    HW121029   1.097   2.731   7.337 -0.1278 -0.5645  0.3243
 3189SOL    HW221030   1.213   2.729   7.250  0.3607  0.3601  2.5985
 3190SOL     OW21031   4.012   4.709  10.955  0.3124  0.3655  0.1466
 3190SOL    HW121032   4.088   0.041  10.935 -1.7576  2.1278 -2.8834
 3190SOL    HW221033   4.061   4.628  10.943  1.8022  1.4462 -1.1524
 3191SOL     OW21034   2.106   1.752   7.043  0.3953  0.1360 -0.1706
 3191SOL    HW121035   2.127   1.821   7.107 -1.0004  1.9342 -1.6268
 3191SOL    HW221036   2.103   1.682   7.108 -1.0699  0.2924 -0.0635
 3192SOL     OW21037   3.155   2.765  15.520  0.7284  0.2240 -0.2398
 3192SOL    HW121038   3.213   2.713  15.465 -0.1514 -0.5183 -0.4687
 3192SOL    HW221039   3.104   2.696  15.564  0.6874 -0.6318 -1.6121
 3193SOL     OW21040   3.089   2.661   5.154  0.3304  0.3339  0.1929
 3193SOL    HW121041   3.086   2.576   5.108 -0.8624  0.0473  0.8082
 3193SOL    HW221042   3.115   2.716   5.080 -1.4006 -0.7439 -1.2169
 3194SOL     OW21043   3.920   2.072   3.207  0.0158 -0.1905 -0.1693
 3194SOL    HW121044   3.894   1.993   3.255 -0.6214  0.7824  1.0727
 3194SOL    HW221045   4.007   2.060   3.170 -0.2009  0.1128 -0.7827
 3195SOL     OW21046   3.253   0.753  10.619 -0.3139 -0.5608  0.5815
 3195SOL    HW121047   3.216   0.686  10.562 -0.2917 -0.8941  0.9592
 3195SOL    HW221048   3.193   0.755  10.693  0.7808  1.2400  1.4277
 3196SOL     OW21049   2.404   0.472  16.035  0.0977  0.3851 -0.2914
 3196SOL    HW121050   2.309   0.481  16.037  0.2886  2.4776 -0.3894
 3196SOL    HW221051   2.420   0.409  16.105 -1.0975 -1.5345 -1.7690
 3197SOL     OW21052   0.055   3.761   7.959  0.0880 -0.5034  0.1160
 3197SOL    HW121053   0.006   3.794   8.034  0.2846 -0.8355  0.3940
 3197SOL    HW221054   0.148   3.778   7.976  0.4374 -1.2369 -1.0327
 3198SOL     OW21055   0.675   2.852   8.528  0.2861  0.1860 -0.0736
 3198SOL    HW121056   0.621   2.927   8.499  1.5202  1.0681 -0.0794
 3198SOL    HW221057   0.609   2.803   8.577 -0.6249 -0.6803 -2.1545
 3199SOL     OW21058   3.810   0.995   1.859  0.1881  0.2871 -0.3209
 3199SOL    HW121059   3.804   0.901   1.844 -0.5336  0.2005  0.5278
 3199SOL    HW221060   3.795   0.995   1.954  0.7056 -1.3102 -0.2418
 3200SOL     OW21061   3.202   1.093   9.094 -0.0200 -0.0890  0.0390
 3200SOL    HW121062   3.161   1.133   9.170 -1.3016 -0.4985 -0.4410
 3200SOL    HW221063   3.140   1.022   9.076  1.0222 -0.5931 -1.5268
 3201SOL     OW21064   4.299   1.789   9.155  0.3651  0.5276 -0.2856
 3201SOL    HW121065   4.303   1.857   9.222  1.0587  0.0118  0.1926
 3201SOL    HW221066   4.205   1.778   9.167 -0.0034  2.7426 -1.1285
 3202SOL     OW21067   2.057   4.235   6.473 -0.1603  0.1881 -1.4318
 3202SOL    HW121068   2.142   4.216   6.514 -0.9168  1.9228  0.9299
 3202SOL    HW221069   2.054   4.329   6.487  0.7481 -0.1048  0.8428
 3203SOL     OW21070   3.514   2.625  17.638 -0.0369 -0.0329  0.1387
 3203SOL    HW121071   3.455   2.688  17.679 -3.3094 -1.8428 -1.8156
 3203SOL    HW221072   3.514   2.547  17.694 -2.7244  0.0697  0.2673
 3204SOL     OW21073   3.430   1.942   3.904  0.4457  0.3070 -0.2434
 3204SOL    HW121074   3.444   1.879   3.975 -2.4299 -0.2875 -0.2372
 3204SOL    HW221075   3.412   1.888   3.827 -0.5983  1.1705 -0.5997
 3205SOL     OW21076   2.708   4.310  10.612 -0.0495  0.4163 -0.3614
 3205SOL    HW121077   2.712   4.405  10.597  2.1154  0.6782  1.8476
 3205SOL    HW221078   2.622   4.291  10.576 -0.8864  3.1112  0.2072
 3206SOL     OW21079   3.505   3.853   3.341 -0.1752  0.5093 -0.6584
 3206SOL    HW121080   3.441   3.802   3.291 -2.0507  0.6276  1.5949
 3206SOL    HW221081   3.585   3.815   3.306  0.6992  0.1174  1.7621
 3207SOL     OW21082   3.407   0.112   8.646  0.2250  0.4806  0.3201
 3207SOL    HW121083   3.483   0.114   8.703 -0.1580  0.0097  0.8442
 3207SOL    HW221084   3.411   0.024   8.608  2.3999  0.1688  1.3110
 3208SOL     OW21085   3.403   3.068   0.876  0.8369  0.0204  0.0714
 3208SOL    HW121086   3.468   3.135   0.895  1.6497 -0.7695  0.0537
 3208SOL    HW221087   3.337   3.089   0.942  1.3599  1.3649  0.1632
 3209SOL     OW21088   1.231   3.315   2.867  0.6216 -0.0746 -0.5061
 3209SOL    HW121089   1.277   3.260   2.930 -0.9138  0.1020  0.7831
 3209SOL    HW221090   1.193   3.239   2.823  1.0830 -0.8648  0.4596
 3210SOL     OW21091   2.139   4.334   5.601  0.4441 -0.5998  0.1710
 3210SOL    HW121092   2.125   4.396   5.672 -0.2794  0.4572 -0.8810
 3210SOL    HW221093   2.081   4.262   5.625  1.6891 -1.4236  0.7019
 3211SOL     OW21094   2.553   3.342   3.177 -0.0708 -0.5313  0.8787
 3211SOL    HW121095   2.500   3.289   3.118  2.4586 -0.8152 -1.1455
 3211SOL    HW221096   2.635   3.318   3.133  1.3094 -0.0440  3.1588
 3212SOL     OW21097   1.416   0.309  17.304 -0.0471 -0.5881  0.2593
 3212SOL    HW121098   1.457   0.223  17.297  0.6632 -0.2620  0.4142
 3212SOL    HW221099   1.374   0.304  17.390 -0.0083 -0.9314  0.2577
 3213SOL     OW21100   4.299   2.737  11.579  0.1711  0.1463  0.1789
 3213SOL    HW121101   4.251   2.655  11.572  2.9597 -1.5139  0.6456
 3213SOL    HW221102   4.329   2.744  11.670 -3.1258 -0.3111  1.3077
 3214SOL     OW21103   1.878   2.510  11.344 -0.1833  0.1705 -0.2018
 3214SOL    HW121104   1.846   2.460  11.269  0.6015 -0.7516  0.0727
 3214SOL    HW221105   1.819   2.585  11.351  0.1249  0.4149 -0.2281
 3215SOL     OW21106   2.319   0.224   7.310 -0.0525 -0.0749  0.2318
 3215SOL    HW121107   2.310   0.238   7.216 -0.5538  0.1957  0.3186
 3215SOL    HW221108   2.386   0.290   7.330  0.6660 -0.9103  0.5825
 3216SOL     OW21109   1.352   1.791   5.565  0.1040  0.1361 -0.3665
 3216SOL    HW121110   1.296   1.847   5.620  2.2184  1.0438  0.8716
 3216SOL    HW221111   1.289   1.732   5.523  0.1126  2.3023 -3.4660
 3217SOL     OW21112   4.083   2.714   0.282 -0.4417  0.3469 -0.3136
 3217SOL    HW121113   4.039   2.656   0.344  2.5599 -1.5766  0.0112
 3217SOL    HW221114   4.042   2.686   0.200 -1.0342  1.3450 -0.3448
 3218SOL     OW21115   0.103   4.251   6.606  0.2536 -0.8386  0.5108
 3218SOL    HW121116   0.154   4.264   6.686 -0.1974  1.5737  0.4207
 3218SOL    HW221117   0.094   4.156   6.608  0.4529 -0.9012 -1.6970
 3219SOL     OW21118   3.636   4.437   4.452  0.2957 -0.2062 -0.1377
 3219SOL    HW121119   3.592   4.462   4.371  1.4671 -1.2656 -1.0900
 3219SOL    HW221120   3.630   4.519   4.501 -1.5561 -1.0387  1.0319
 3220SOL     OW21121   3.972   2.174   3.582 -0.2590  0.3158 -0.0746
 3220SOL    HW121122   3.921   2.241   3.535 -1.2174  0.4208  1.0846
 3220SOL    HW221123   3.971   2.214   3.670 -1.0216 -0.1149  0.1162
 3221SOL     OW21124   3.930   3.398  13.786 -0.1221  0.0852 -0.6615
 3221SOL    HW121125   3.889   3.462  13.844  1.6952 -0.2724  1.0113
 3221SOL    HW221126   3.981   3.350  13.851 -2.1938 -1.8755 -0.4703
 3222SOL     OW21127   1.699   2.344   3.069 -0.2752 -0.2980 -0.3062
 3222SOL    HW121128   1.640   2.295   3.012  0.2407 -2.1520  0.7214
 3222SOL    HW221129   1.684   2.431   3.034 -0.3901 -0.0426  0.3704
 3223SOL     OW21130   4.680   0.097   6.081  0.0065 -0.0954  0.3241
 3223SOL    HW121131   4.606   0.152   6.058  0.7737  1.0489  0.6037
 3223SOL    HW221132   0.008   0.095   6.001 -0.8109  0.5471 -0.2083
 3224SOL     OW21133   0.964   3.176   6.784  0.8961 -0.0236  0.1748
 3224SOL    HW121134   0.883   3.144   6.824  0.7631 -0.0520 -0.1133
 3224SOL    HW221135   1.028   3.130   6.839 -1.2505  0.1231  2.7575
 3225SOL     OW21136   4.344   2.766   1.806 -0.0166  0.6036 -0.4491
 3225SOL    HW121137   4.314   2.854   1.829 -3.1715 -0.6192  0.1085
 3225SOL    HW221138   4.371   2.783   1.716 -0.1515  0.0575 -0.5889
 3226SOL     OW21139   0.880   3.607   2.294 -0.7966  0.0956  0.2285
 3226SOL    HW121140   0.908   3.666   2.223 -2.7108  0.2672 -0.3973
 3226SOL    HW221141   0.926   3.526   2.272 -0.9329 -0.0574  0.5135
 3227SOL     OW21142   2.875   0.677   4.678  0.1405 -0.1291  0.3662
 3227SOL    HW121143   2.850   0.612   4.744 -0.4504 -1.3940 -1.1071
 3227SOL    HW221144   2.969   0.662   4.685  0.4556  2.2712  1.3089
 3228SOL     OW21145   2.023   0.874   2.273 -0.3242 -0.0547 -0.2089
 3228SOL    HW121146   1.980   0.789   2.278  2.6553 -1.6055 -1.4088
 3228SOL    HW221147   1.990   0.907   2.189  1.8931  0.7095 -0.7776
 3229SOL     OW21148   1.934   2.552   2.788 -0.2143  0.1706 -0.1451
 3229SOL    HW121149   1.939   2.461   2.757 -0.7810  0.3949 -0.8878
 3229SOL    HW221150   1.914   2.604   2.711  1.8809 -0.4895 -1.1519
 3230SOL     OW21151   0.840   2.267   8.368  0.3082 -0.0279 -0.1178
 3230SOL    HW121152   0.846   2.318   8.449  1.4863 -0.9953  0.4150
 3230SOL    HW221153   0.873   2.184   8.403 -0.3563 -0.3073 -0.1612
 3231SOL     OW21154   0.522   1.216  10.350 -0.2295  0.0691  0.1262
 3231SOL    HW121155   0.478   1.154  10.292 -0.0964  0.4063 -0.3320
 3231SOL    HW221156   0.610   1.182  10.362 -0.7802 -1.0691  0.9835
 3232SOL     OW21157   2.748   2.716   2.732  0.0835 -0.1911  0.0508
 3232SOL    HW121158   2.805   2.787   2.703  1.4075 -0.0697  2.9095
 3232SOL    HW221159   2.668   2.726   2.681 -0.4304  0.0404  0.9095
 3233SOL     OW21160   1.601   1.853  13.162  0.3221  0.6469  0.1656
 3233SOL    HW121161   1.510   1.882  13.157 -0.0308 -0.8986 -2.4403
 3233SOL    HW221162   1.609   1.871  13.256 -1.4769  2.2174  0.0049
 3234SOL     OW21163   3.537   2.265   6.525  0.0330 -0.3535  0.0576
 3234SOL    HW121164   3.627   2.251   6.555  0.5837  1.7926 -0.5894
 3234SOL    HW221165   3.544   2.265   6.430  0.9668  1.5303  0.1234
 3235SOL     OW21166   0.856   3.499  10.053 -0.2981  0.3018  0.2840
 3235SOL    HW121167   0.893   3.552   9.983 -1.1500  1.0917  0.4291
 3235SOL    HW221168   0.922   3.430  10.051  0.0121  0.5901  0.4466
 3236SOL     OW21169   0.951   2.169  11.576 -0.1130  0.1567 -0.0192
 3236SOL    HW121170   0.893   2.218  11.519 -0.9285 -1.5777 -0.6759
 3236SOL    HW221171   1.031   2.221  11.570 -1.2949  1.8868 -0.5933
 3237SOL     OW21172   3.160   4.485   2.341  0.0701  0.2225  0.6783
 3237SOL    HW121173   3.217   4.431   2.397 -1.1219 -0.2866  1.4209
 3237SOL    HW221174   3.099   4.414   2.322 -0.6764  0.7189  1.2113
 3238SOL     OW21175   3.707   2.370   8.648 -0.4397  0.1766 -0.1118
 3238SOL    HW121176   3.746   2.430   8.585  1.3811  1.2440  2.0526
 3238SOL    HW221177   3.722   2.418   8.730  3.0161  0.6158 -0.9954
 3239SOL     OW21178   0.074   1.601  12.880  0.0354 -0.8170  0.9037
 3239SOL    HW121179   0.062   1.629  12.971 -0.2461 -0.9541  0.9067
 3239SOL    HW221180   0.142   1.534  12.878 -1.1760 -2.0544  0.9404
 3240SOL     OW21181   4.279   2.217  14.126 -0.3114  0.5999 -0.4509
 3240SOL    HW121182   4.252   2.245  14.038 -0.8061  0.2757 -0.4022
 3240SOL    HW221183   4.367   2.253  14.137 -0.6262  0.7926  1.3444
 3241SOL     OW21184   2.483   4.012   8.211  0.3617 -0.1687 -0.3440
 3241SOL    HW121185   2.522   4.087   8.167 -1.5383  1.4857  0.8276
 3241SOL    HW221186   2.525   4.000   8.296 -1.5235 -1.1426  0.4516
 3242SOL     OW21187   3.582   0.651   7.062 -0.3650 -0.0018  1.1452
 3242SOL    HW121188   3.662   0.605   7.040 -0.0015  0.5462  1.3139
 3242SOL    HW221189   3.616   0.728   7.108  0.5672  0.5782 -0.5213
 3243SOL     OW21190   3.131   1.022   2.384 -0.2159 -0.4637 -0.2470
 3243SOL    HW121191   3.164   1.086   2.320 -1.1526  1.4012  1.1310
 3243SOL    HW221192   3.211   0.969   2.388 -0.5265 -0.9032  0.1520
 3244SOL     OW21193   3.256   4.011   8.961  0.4202 -0.6047  0.4053
 3244SOL    HW121194   3.164   4.004   8.984  0.4240 -0.3437  0.5097
 3244SOL    HW221195   3.276   4.098   8.997  1.4480 -1.5485  2.1490
 3245SOL     OW21196   2.943   4.452   3.958  0.1175 -0.0693  0.0715
 3245SOL    HW121197   2.994   4.483   4.033 -0.9998  2.0478 -0.0410
 3245SOL    HW221198   2.936   4.359   3.979 -2.3452  0.1574  0.2381
 3246SOL     OW21199   1.546   3.304   8.743  0.2659  0.2323 -0.2504
 3246SOL    HW121200   1.554   3.217   8.704  3.1451  0.7850 -0.8952
 3246SOL    HW221201   1.526   3.350   8.661  0.7515 -1.0654 -1.0980
 3247SOL     OW21202   4.036   2.380  11.355  0.1642  0.2749 -0.1242
 3247SOL    HW121203   3.954   2.333  11.345 -1.4029  2.2105  3.4179
 3247SOL    HW221204   4.075   2.343  11.277 -1.6368  0.5637 -1.1592
 3248SOL     OW21205   1.303   4.043  16.638 -0.6286  0.7069 -0.2394
 3248SOL    HW121206   1.246   4.111  16.602 -1.9890 -1.1095 -1.4882
 3248SOL    HW221207   1.363   4.098  16.690  0.2285 -1.6472  1.2891
 3249SOL     OW21208   2.052   0.887   1.635  0.0282  0.4899  0.0679
 3249SOL    HW121209   2.033   0.950   1.704 -2.0019  1.2509 -1.1881
 3249SOL    HW221210   2.119   0.830   1.673 -0.4423 -1.9727 -2.7790
 3250SOL     OW21211   4.065   3.153   5.450  0.1285 -0.6614  0.1348
 3250SOL    HW121212   4.154   3.188   5.449 -0.6845  1.4172  0.2393
 3250SOL    HW221213   4.025   3.240   5.447 -0.1107 -0.8650 -2.7718
 3251SOL     OW21214   3.162   3.467  14.406 -0.5982  0.2694  0.8498
 3251SOL    HW121215   3.159   3.537  14.340  1.0336 -0.2226  0.2597
 3251SOL    HW221216   3.073   3.434  14.422 -0.7977  0.4739  0.1817
 3252SOL     OW21217   0.595   1.555  11.389  0.4075 -0.5010  0.0935
 3252SOL    HW121218   0.633   1.613  11.454  0.6773 -0.0720 -0.4579
 3252SOL    HW221219   0.576   1.480  11.446  0.8588 -0.0780  0.7818
 3253SOL     OW21220   1.767   0.833   5.130 -0.5717 -0.4102  0.3876
 3253SOL    HW121221   1.780   0.882   5.049  1.0295  0.0657  0.9404
 3253SOL    HW221222   1.738   0.751   5.090  2.1022 -1.2159  0.1002
 3254SOL     OW21223   3.027   0.528   0.809 -0.1846  0.0863  0.1321
 3254SOL    HW121224   3.023   0.599   0.873 -1.2504 -2.0216  2.4074
 3254SOL    HW221225   3.040   0.580   0.730  1.1485  0.9355  0.9046
 3255SOL     OW21226   1.969   1.999  10.681 -0.0543  0.0364 -0.8089
 3255SOL    HW121227   1.935   2.076  10.726 -2.1716 -1.2091 -0.2686
 3255SOL    HW221228   2.024   1.960  10.750 -2.2345 -1.7909 -0.1004
 3256SOL     OW21229   2.425   1.523  17.146  0.5102  0.7878 -0.4739
 3256SOL    HW121230   2.503   1.473  17.122 -0.9451 -1.4481 -0.5070
 3256SOL    HW221231   2.425   1.513  17.241  2.0053  0.8592 -0.4675
 3257SOL     OW21232   4.122   3.064  12.121  0.1463 -0.2002  0.1491
 3257SOL    HW121233   4.208   3.063  12.079 -0.4962  1.3172 -1.2313
 3257SOL    HW221234   4.062   3.082  12.049 -0.7263 -1.1321  0.6391
 3258SOL     OW21235   2.336   1.319  14.994 -0.2192  0.1532 -0.1589
 3258SOL    HW121236   2.397   1.250  15.018  3.6962  2.8161 -2.4786
 3258SOL    HW221237   2.328   1.374  15.072  0.7044 -1.9307  1.3946
 3259SOL     OW21238   1.522   4.136   6.147  0.0420 -0.4495 -0.6316
 3259SOL    HW121239   1.511   4.041   6.134  0.6140 -0.6303  0.2375
 3259SOL    HW221240   1.431   4.159   6.166  0.8323  1.7916  0.3928
 3260SOL     OW21241   1.231   0.246  13.057 -0.2592  0.1603 -0.2255
 3260SOL    HW121242   1.269   0.331  13.079 -1.6820 -0.0859  3.1396
 3260SOL    HW221243   1.169   0.273  12.989 -1.4434  1.2665  1.2873
 3261SOL     OW21244   2.465   2.889   0.954  0.1190 -0.0055  1.0302
 3261SOL    HW121245   2.372   2.911   0.961  0.1987  0.9291 -0.7600
 3261SOL    HW221246   2.485   2.919   0.865 -4.0601 -0.0821  0.0853
 3262SOL     OW21247   2.004   1.038   7.900  0.2497 -0.7273  0.7142
 3262SOL    HW121248   2.055   0.959   7.884 -0.4716 -1.1825  0.6175
 3262SOL    HW221249   1.970   1.015   7.986 -1.3664  0.0170  0.2732
 3263SOL     OW21250   4.332   3.543   8.483 -0.0317 -0.2514 -0.2217
 3263SOL    HW121251   4.314   3.450   8.498  1.2799 -0.1798  1.7134
 3263SOL    HW221252   4.420   3.547   8.447  0.3599  0.1443  0.7918
 3264SOL     OW21253   2.697   3.985   4.746 -0.5239 -0.3641 -0.2770
 3264SOL    HW121254   2.747   3.909   4.777 -0.9224  0.2839  2.0035
 3264SOL    HW221255   2.609   3.962   4.777 -0.3076 -0.3305  0.3699
 3265SOL     OW21256   2.915   2.969   7.411  0.2922  0.3210  0.0756
 3265SOL    HW121257   2.985   2.904   7.409  0.2414  0.2785 -0.3764
 3265SOL    HW221258   2.890   2.951   7.501 -1.7646 -1.2329 -0.7872
 3266SOL     OW21259   3.673   1.246   2.345  0.6102  0.8950  0.4563
 3266SOL    HW121260   3.702   1.155   2.347 -0.7795  0.5119  2.3018
 3266SOL    HW221261   3.672   1.266   2.251  3.8897 -0.0546  0.2455
 3267SOL     OW21262   2.398   3.484   1.236 -0.1967 -0.0460 -0.9631
 3267SOL    HW121263   2.356   3.548   1.179  0.0274  0.4340 -0.5937
 3267SOL    HW221264   2.383   3.403   1.187 -0.7966  0.5469 -1.7657
 3268SOL     OW21265   1.586   0.824   4.274 -0.3861  0.2650 -0.6574
 3268SOL    HW121266   1.670   0.824   4.228  1.1898  1.9890  2.1226
 3268SOL    HW221267   1.520   0.806   4.208  0.5278 -0.4962 -1.3630
 3269SOL     OW21268   0.049   2.293   5.271 -0.2272 -0.4345 -0.1583
 3269SOL    HW121269   0.133   2.334   5.294 -0.8325  0.0273  1.1810
 3269SOL    HW221270   0.056   2.220   5.333 -1.0120 -1.2174 -1.0001
 3270SOL     OW21271   4.322   0.101   7.310  0.0157 -0.7212  0.4332
 3270SOL    HW121272   4.322   0.183   7.358 -0.3818 -1.1295  1.1331
 3270SOL    HW221273   4.276   0.041   7.369  0.0447  0.0724  1.2458
 3271SOL     OW21274   1.093   1.344   5.211  0.3810 -0.6717  0.1943
 3271SOL    HW121275   1.067   1.349   5.119 -0.1539  2.3322  0.4963
 3271SOL    HW221276   1.007   1.344   5.253 -0.4543 -0.8971 -1.5379
 3272SOL     OW21277   2.184   0.845   6.215 -0.1206 -0.1354 -0.0582
 3272SOL    HW121278   2.211   0.936   6.227 -3.0003  0.5478  1.2620
 3272SOL    HW221279   2.096   0.875   6.194  0.1506  1.4562  1.0776
 3273SOL     OW21280   1.341   1.522   7.945 -0.1857  0.1013  0.1955
 3273SOL    HW121281   1.269   1.584   7.938 -1.8766 -1.9229 -0.1213
 3273SOL    HW221282   1.320   1.457   7.878  0.8778 -0.4914  0.4309
 3274SOL     OW21283   4.551   1.338   7.861  0.5959 -0.0960  0.5882
 3274SOL    HW121284   4.562   1.417   7.914  1.4852 -0.5190  1.0361
 3274SOL    HW221285   4.536   1.283   7.938 -2.6485 -1.2391 -0.8534
 3275SOL     OW21286   2.529   4.416  13.261 -0.8775  0.1720 -0.0169
 3275SOL    HW121287   2.534   4.502  13.304 -3.2675 -0.0029  0.6127
 3275SOL    HW221288   2.522   4.445  13.170 -1.2460 -1.4216 -0.4902
 3276SOL     OW21289   1.539   4.535  12.722  0.2768 -0.2116  0.5345
 3276SOL    HW121290   1.594   4.461  12.749  0.7583  0.7184  2.0734
 3276SOL    HW221291   1.461   4.532  12.777  1.3630 -2.6825  1.9459
 3277SOL     OW21292   0.058   4.587  12.351  0.2406  0.1131 -0.4332
 3277SOL    HW121293   0.028   4.652  12.288  2.0646  2.9286  1.5766
 3277SOL    HW221294   0.020   4.625  12.430  0.0592  2.4963 -1.6615
 3278SOL     OW21295   0.768   0.582   4.772  0.5215  0.2580 -0.3161
 3278SOL    HW121296   0.839   0.636   4.737  1.0905 -0.4521 -0.2627
 3278SOL    HW221297   0.700   0.605   4.708  0.2479  5.1722  1.7221
 3279SOL     OW21298   0.713   0.300   0.623  0.1163 -0.0519  0.1265
 3279SOL    HW121299   0.694   0.295   0.529  0.5392  0.0559  0.0367
 3279SOL    HW221300   0.789   0.245   0.643 -0.4627 -1.7551 -2.2936
 3280SOL     OW21301   1.238   4.438   2.068 -0.2793  0.3943  0.0620
 3280SOL    HW121302   1.307   4.399   2.121 -0.5320  1.2844  1.0352
 3280SOL    HW221303   1.172   4.375   2.097 -3.0471  2.2050 -2.2864
 3281SOL     OW21304   2.291   2.646   6.498  0.3606 -0.2710  0.3434
 3281SOL    HW121305   2.381   2.675   6.486  0.9411 -1.5750  1.5810
 3281SOL    HW221306   2.292   2.576   6.433 -3.1043 -0.9119  0.9679
 3282SOL     OW21307   2.019   4.399   6.992  0.2367 -0.3393  0.3340
 3282SOL    HW121308   2.018   4.303   6.983  0.0453 -0.4316  1.3318
 3282SOL    HW221309   2.045   4.419   6.902  1.2457  1.1430  0.9608
 3283SOL     OW21310   1.087   1.094   1.416  0.0423  0.7983  0.4670
 3283SOL    HW121311   1.132   1.076   1.334 -1.0017  0.1945  0.0279
 3283SOL    HW221312   1.001   1.056   1.397  0.0003  1.3211 -0.3918
 3284SOL     OW21313   0.135   1.597   1.629 -0.2505 -0.1009 -0.1440
 3284SOL    HW121314   0.090   1.515   1.607  0.8484 -0.6149 -0.4705
 3284SOL    HW221315   0.189   1.556   1.696  1.8245  1.9402 -0.5738
 3285SOL     OW21316   4.553   3.700   4.379  0.6664 -0.4781  0.7875
 3285SOL    HW121317   4.628   3.715   4.438  1.7384 -1.0861 -0.4224
 3285SOL    HW221318   4.523   3.791   4.385  1.8320 -0.0937  0.8268
 3286SOL     OW21319   0.517   0.779   3.306 -0.2064  0.2911  0.5581
 3286SOL    HW121320   0.529   0.862   3.259  1.7468  0.8560  2.0720
 3286SOL    HW221321   0.465   0.727   3.245 -1.1622 -1.8515  3.1875
 3287SOL     OW21322   3.529   1.428   6.485 -0.1664  0.7329  0.5745
 3287SOL    HW121323   3.465   1.497   6.470  1.2478  1.7118 -0.9821
 3287SOL    HW221324   3.518   1.376   6.405  1.8738 -0.0732  0.7946
 3288SOL     OW21325   2.056   2.104   4.984 -0.1720  0.7046 -0.0688
 3288SOL    HW121326   1.962   2.107   4.964 -0.2229  2.3929  0.4134
 3288SOL    HW221327   2.079   2.191   4.950 -1.8140  0.5433 -1.6280
 3289SOL     OW21328   3.549   2.018   1.894 -0.5299  0.2489  0.3048
 3289SOL    HW121329   3.561   1.930   1.928  0.8832  0.6560  0.8692
 3289SOL    HW221330   3.559   2.002   1.800  1.0881  0.4275  0.4547
 3290SOL     OW21331   3.797   2.125   4.223 -0.0251 -0.0277  0.1456
 3290SOL    HW121332   3.741   2.164   4.156 -1.5656 -1.9177  0.3140
 3290SOL    HW221333   3.865   2.072   4.180  0.1446  0.4089 -0.1202
 3291SOL     OW21334   3.174   1.386  13.445 -0.3192  0.3092  0.3262
 3291SOL    HW121335   3.216   1.360  13.364 -2.5174 -1.5165 -0.2181
 3291SOL    HW221336   3.110   1.316  13.457  0.9602 -1.5399 -3.7441
 3292SOL     OW21337   1.379   3.868   5.404  0.4196 -0.6723 -0.8612
 3292SOL    HW121338   1.433   3.947   5.417 -1.4732  0.3481  0.7689
 3292SOL    HW221339   1.421   3.825   5.479  1.0301 -0.9102 -1.3402
 3293SOL     OW21340   4.261   2.914   5.473  0.4884 -0.5446  0.2369
 3293SOL    HW121341   4.181   2.944   5.429  0.4580 -2.6430 -1.1404
 3293SOL    HW221342   4.318   2.919   5.396 -0.9206 -0.3734 -0.7985
 3294SOL     OW21343   3.346   3.161   8.423 -0.0238  0.2637  0.0217
 3294SOL    HW121344   3.336   3.218   8.499 -1.0739  1.3066 -0.8811
 3294SOL    HW221345   3.437   3.131   8.431  0.0284  0.4034 -0.0476
 3295SOL     OW21346   2.108   1.393  12.917  0.6023  0.7001 -0.2156
 3295SOL    HW121347   2.014   1.405  12.932  0.5636  0.8125 -0.5433
 3295SOL    HW221348   2.140   1.450  12.987  0.6870 -1.8344  1.7856
 3296SOL     OW21349   0.659   2.793   3.632  0.5135  0.1431  0.4181
 3296SOL    HW121350   0.633   2.728   3.566  1.4554  0.7525 -0.5623
 3296SOL    HW221351   0.682   2.871   3.581  0.2118 -0.4117 -0.5669
 3297SOL     OW21352   1.554   3.278   8.226  0.5101 -0.1677 -0.1986
 3297SOL    HW121353   1.563   3.285   8.131 -3.2229 -0.8166 -0.6353
 3297SOL    HW221354   1.570   3.184   8.236 -1.7892 -0.6758 -1.3454
 3298SOL     OW21355   0.507   3.734   0.286  0.6341  0.5630 -0.3170
 3298SOL    HW121356   0.576   3.740   0.352  1.5826 -1.6339 -1.1186
 3298SOL    HW221357   0.562   3.686   0.224  0.7095 -0.2419  0.3810
 3299SOL     OW21358   1.725   1.991   2.177  0.4733  0.1126  0.0033
 3299SOL    HW121359   1.774   1.954   2.104 -0.0623  0.3344 -0.4770
 3299SOL    HW221360   1.741   2.085   2.162  2.1700  0.1523  2.1348
 3300SOL     OW21361   4.269   4.445   5.254  0.5595 -0.0890  0.7941
 3300SOL    HW121362   4.360   4.476   5.261  0.7238 -0.2403 -0.5699
 3300SOL    HW221363   4.267   4.379   5.323 -1.7356  0.8357  1.6174
 3301SOL     OW21364   3.261   4.542   1.200 -0.3857  0.3461 -0.0822
 3301SOL    HW121365   3.350   4.507   1.204 -1.4632 -2.5574 -1.8495
 3301SOL    HW221366   3.221   4.487   1.133 -0.8254  0.0043  0.4595
 3302SOL     OW21367   0.147   1.149   4.096 -0.2147  0.1226 -0.3373
 3302SOL    HW121368   0.181   1.208   4.028  2.1715 -2.0173 -0.9986
 3302SOL    HW221369   0.069   1.122   4.048  0.4695 -3.8009  0.7615
 3303SOL     OW21370   3.472   2.948   3.229 -0.0064  0.3762 -0.5468
 3303SOL    HW121371   3.529   2.872   3.219 -0.1175  0.3223 -0.7629
 3303SOL    HW221372   3.520   3.013   3.178  2.8396 -2.7430 -1.7943
 3304SOL     OW21373   2.235   1.638   6.834 -0.0720 -0.0149 -0.0391
 3304SOL    HW121374   2.213   1.699   6.905  1.5691  1.3623 -0.6939
 3304SOL    HW221375   2.256   1.697   6.761  0.7559  0.0273  0.2348
 3305SOL     OW21376   1.080   2.158   5.747 -0.6090  0.3628  0.3133
 3305SOL    HW121377   1.145   2.098   5.785  0.7235  0.5828 -1.6177
 3305SOL    HW221378   1.136   2.213   5.694 -0.2879 -0.3853 -0.1192
 3306SOL     OW21379   4.502   0.882   9.168 -0.3863  0.1075  0.4339
 3306SOL    HW121380   4.408   0.868   9.156 -0.3090 -1.5627  1.6657
 3306SOL    HW221381   4.515   0.859   9.260  1.3983 -3.9913 -0.8032
 3307SOL     OW21382   2.460   3.860   6.864 -0.2027 -0.1643 -0.4258
 3307SOL    HW121383   2.457   3.901   6.778  1.6141  2.7677  0.8953
 3307SOL    HW221384   2.365   3.848   6.871 -0.1124 -0.3781  0.5278
 3308SOL     OW21385   0.569   3.857   4.669  0.2622 -0.1860  0.2441
 3308SOL    HW121386   0.574   3.806   4.588  1.9408  0.8254 -0.3030
 3308SOL    HW221387   0.593   3.787   4.730 -1.5360 -0.8638  0.1740
 3309SOL     OW21388   0.217   1.645  15.031 -0.7691  0.2220  0.4682
 3309SOL    HW121389   0.128   1.660  14.998 -0.0656 -0.1014 -1.5901
 3309SOL    HW221390   0.245   1.735  15.047  0.2570  0.1287 -0.8102
 3310SOL     OW21391   0.041   2.868   3.626  0.1834 -0.1026 -0.1985
 3310SOL    HW121392   0.104   2.804   3.595  1.8708  0.7285  1.4944
 3310SOL    HW221393   0.014   2.914   3.546 -2.3312 -1.3448 -0.0694
 3311SOL     OW21394   3.863   4.624   4.092 -0.1844  0.1398  0.1019
 3311SOL    HW121395   3.942   4.645   4.142  0.2513 -2.4908  0.5079
 3311SOL    HW221396   3.866   4.695   4.028 -0.0266 -0.9970 -1.1742
 3312SOL     OW21397   1.519   3.710   5.564 -0.3602  0.1097 -0.3734
 3312SOL    HW121398   1.454   3.691   5.632 -0.3798 -1.1497 -0.7470
 3312SOL    HW221399   1.527   3.623   5.525 -0.5428 -0.4304  0.7952
 3313SOL     OW21400   2.798   0.029   4.804  0.0949  0.7034  0.0208
 3313SOL    HW121401   2.719   4.701   4.786 -0.0211  0.3486  1.4867
 3313SOL    HW221402   2.801   0.007   4.897 -1.4240 -0.9914 -0.3360
 3314SOL     OW21403   0.599   3.725   9.149 -0.4362 -0.0212 -0.3968
 3314SOL    HW121404   0.508   3.697   9.136 -0.5478  0.3455 -0.3994
 3314SOL    HW221405   0.618   3.716   9.242 -3.1057 -0.1330  0.1562
 3315SOL     OW21406   3.038   2.372   7.994 -0.0431 -0.1917 -0.0159
 3315SOL    HW121407   3.028   2.450   8.049 -1.5759  1.0307 -2.0528
 3315SOL    HW221408   2.959   2.374   7.941 -0.1896  1.3398  0.2408
 3316SOL     OW21409   2.572   1.713  12.862 -0.3433 -0.1723 -0.3464
 3316SOL    HW121410   2.477   1.719  12.876  0.4527  0.9773  4.5748
 3316SOL    HW221411   2.589   1.651  12.933  0.8364  0.4798 -0.0602
 3317SOL     OW21412   0.108   3.042   7.387 -0.2735  0.3511 -0.3002
 3317SOL    HW121413   0.062   3.123   7.410  1.3049  1.4143 -0.8539
 3317SOL    HW221414   0.038   3.005   7.332 -1.3705  1.1628  0.5473
 3318SOL     OW21415   3.560   0.253   7.745 -0.4290  0.1624  0.0423
 3318SOL    HW121416   3.502   0.198   7.692 -1.3436  0.4051  0.8026
 3318SOL    HW221417   3.515   0.336   7.730  0.0095  0.3431 -0.2791
 3319SOL     OW21418   1.798   4.614   8.210 -0.8309 -0.2973  0.4616
 3319SOL    HW121419   1.752   4.663   8.141 -0.9105  0.7172  1.2339
 3319SOL    HW221420   1.751   4.636   8.290  0.2250  1.6802  0.5539
 3320SOL     OW21421   3.877   0.437  11.988 -0.1230 -0.4007  0.1328
 3320SOL    HW121422   3.927   0.422  12.068  1.4297 -0.5726 -0.8755
 3320SOL    HW221423   3.902   0.528  11.970 -2.0481 -0.0639 -0.8685
 3321SOL     OW21424   0.819   1.513   3.666  0.2203  0.2232 -0.2373
 3321SOL    HW121425   0.835   1.545   3.577 -0.9707 -0.5339 -0.7351
 3321SOL    HW221426   0.883   1.567   3.711  0.1964 -0.4127  0.5522
 3322SOL     OW21427   3.572   4.687   6.870 -0.1727  0.1872 -0.1752
 3322SOL    HW121428   3.645   0.017   6.837 -1.6899  2.6358  0.4303
 3322SOL    HW221429   3.573   4.605   6.820  0.1385 -0.9877  1.7183
 3323SOL     OW21430   3.520   3.442   8.193 -0.3376  0.1888  0.4375
 3323SOL    HW121431   3.462   3.513   8.167  3.1729  2.5407 -0.9816
 3323SOL    HW221432   3.591   3.484   8.241  1.6459  0.2956 -2.5540
 3324SOL     OW21433   2.003   3.592   2.963  0.1078 -0.2962  0.0623
 3324SOL    HW121434   2.083   3.594   2.911  1.3843  0.2696  2.0342
 3324SOL    HW221435   1.950   3.557   2.892 -1.9087  1.0668  0.9156
 3325SOL     OW21436   4.535   1.349   2.316 -0.1594 -0.3133  0.0085
 3325SOL    HW121437   4.567   1.421   2.370 -1.5629 -1.1674  2.0076
 3325SOL    HW221438   4.533   1.276   2.378  2.0016 -0.2838  0.1409
 3326SOL     OW21439   0.200   1.333   3.911 -0.2148 -0.1223  0.2648
 3326SOL    HW121440   0.247   1.347   3.829 -1.6422 -0.4875 -0.6300
 3326SOL    HW221441   0.123   1.385   3.888  0.4825  1.1895  0.9749
 3327SOL     OW21442   4.653   2.954  17.076 -0.1659 -0.0879 -0.4847
 3327SOL    HW121443   4.632   2.995  17.160 -2.5007  1.9727 -2.0527
 3327SOL    HW221444   4.697   3.018  17.020 -0.6212 -0.0351 -0.7809
 3328SOL     OW21445   2.534   1.882  13.434 -0.0565 -0.5933  0.2936
 3328SOL    HW121446   2.461   1.879  13.496 -1.0831  2.6081 -0.7733
 3328SOL    HW221447   2.577   1.961  13.467  1.8986 -1.3839 -0.3979
 3329SOL     OW21448   3.375   0.003   5.551  0.2664 -0.0431  0.5728
 3329SOL    HW121449   3.311   0.037   5.614  0.7581 -0.5207  1.3426
 3329SOL    HW221450   3.329   0.014   5.468  0.6572 -0.2915  0.3275
 3330SOL     OW21451   2.377   0.164   1.545 -0.2847  0.7502 -0.1731
 3330SOL    HW121452   2.392   0.157   1.639 -0.2576 -0.0743 -0.2390
 3330SOL    HW221453   2.417   0.250   1.537 -0.4023  0.7817 -0.4100
 3331SOL     OW21454   2.447   3.931   4.537 -0.1959  0.5616  0.1024
 3331SOL    HW121455   2.437   3.846   4.494 -0.7892  1.3441 -1.3075
 3331SOL    HW221456   2.536   3.959   4.513  0.1245 -0.4971  0.0844
 3332SOL     OW21457   0.604   0.423   7.921  0.3859 -0.2482 -0.1201
 3332SOL    HW121458   0.598   0.384   7.834  3.0802  1.9783 -1.3126
 3332SOL    HW221459   0.518   0.464   7.926  0.2918 -0.0921 -3.0699
 3333SOL     OW21460   3.351   1.920   8.194  0.2844 -0.4252  0.2979
 3333SOL    HW121461   3.376   1.984   8.260 -2.5959 -0.5385  1.5083
 3333SOL    HW221462   3.439   1.897   8.164 -0.2144 -1.1761 -0.5946
 3334SOL     OW21463   2.749   2.469   3.624 -0.0501 -0.7486 -0.0539
 3334SOL    HW121464   2.844   2.454   3.627 -0.2570 -1.9196  0.5106
 3334SOL    HW221465   2.713   2.386   3.594 -1.1805 -0.0461 -0.6532
 3335SOL     OW21466   2.234   4.398  16.672 -0.5647  0.5272 -0.1214
 3335SOL    HW121467   2.234   4.487  16.708 -0.9355  0.3687  0.2640
 3335SOL    HW221468   2.141   4.376  16.673 -0.3773 -0.2938 -2.1273
 3336SOL     OW21469   2.751   1.460   5.526 -0.0213  0.7167 -0.6850
 3336SOL    HW121470   2.812   1.533   5.520  0.5061  0.4509  1.2547
 3336SOL    HW221471   2.722   1.466   5.617 -1.1856  0.2901 -1.0206
 3337SOL     OW21472   4.658   4.190   8.556  0.4514  0.1509 -0.6412
 3337SOL    HW121473   4.573   4.146   8.551 -1.3692  3.3185  2.6017
 3337SOL    HW221474   4.715   4.113   8.563  1.6102  1.0512 -0.0659
 3338SOL     OW21475   2.207   1.931   7.283  0.1664  0.4539 -0.1620
 3338SOL    HW121476   2.237   2.012   7.241  0.1753  0.3405 -0.3764
 3338SOL    HW221477   2.291   1.920   7.328 -0.9719 -3.3656  0.9644
 3339SOL     OW21478   1.024   0.876   2.368  0.5146 -0.2199 -0.5729
 3339SOL    HW121479   0.993   0.862   2.279  0.7755 -2.6583 -0.2801
 3339SOL    HW221480   0.962   0.835   2.428  0.1442 -1.5433 -1.8711
 3340SOL     OW21481   2.433   3.424   6.517  0.1749 -0.2136  0.4687
 3340SOL    HW121482   2.505   3.399   6.575  0.0958 -2.8206 -0.5112
 3340SOL    HW221483   2.365   3.366   6.550  1.0476  0.0661  2.7315
 3341SOL     OW21484   2.999   2.738   7.908  0.3365  0.3473 -0.2711
 3341SOL    HW121485   3.085   2.699   7.922  0.5073  0.4171 -1.1290
 3341SOL    HW221486   2.961   2.694   7.984  2.4784  0.2352  0.7271
 3342SOL     OW21487   3.648   3.380   7.439 -0.0125  0.4817 -0.3767
 3342SOL    HW121488   3.643   3.390   7.534  1.1887 -3.2211  0.0873
 3342SOL    HW221489   3.611   3.455   7.394  1.5331  1.0662 -0.6817
 3343SOL     OW21490   1.123   4.505   8.618  0.1845  0.0852  0.2306
 3343SOL    HW121491   1.113   4.434   8.681 -0.3980  0.3637  0.4548
 3343SOL    HW221492   1.062   4.469   8.553  1.4478  0.3673 -1.1123
 3344SOL     OW21493   2.551   0.157  12.109  0.1711 -0.2374  0.3088
 3344SOL    HW121494   2.574   0.064  12.110  1.0612 -0.0301 -1.6628
 3344SOL    HW221495   2.638   0.196  12.098 -0.3797  0.9724  0.2057
 3345SOL     OW21496   2.213   3.924   8.622  0.2064 -0.0147 -0.0996
 3345SOL    HW121497   2.265   3.979   8.563 -1.0156  0.3347 -0.8567
 3345SOL    HW221498   2.127   3.948   8.587  0.1338 -0.0780  0.0334
 3346SOL     OW21499   2.663   1.845   7.534 -0.3556 -0.5384  0.2935
 3346SOL    HW121500   2.754   1.863   7.510 -0.7034  2.3620  1.1918
 3346SOL    HW221501   2.668   1.805   7.620  0.2613 -1.8527 -0.3563
 3347SOL     OW21502   0.709   2.392  15.125 -0.4511  0.3083  0.7955
 3347SOL    HW121503   0.685   2.440  15.204 -0.6640 -0.0962  0.9768
 3347SOL    HW221504   0.771   2.326  15.156  0.4492  0.8714  0.2138
 3348SOL     OW21505   3.398   2.733   3.006  0.2469  0.1499 -0.1680
 3348SOL    HW121506   3.409   2.817   2.960 -0.3032  0.4031  0.1644
 3348SOL    HW221507   3.476   2.689   2.973  0.3708 -0.0145  0.3520
 3349SOL     OW21508   0.625   1.777   7.121  0.3171  0.5542  0.1197
 3349SOL    HW121509   0.681   1.854   7.135  0.5931  0.2069  0.9506
 3349SOL    HW221510   0.537   1.812   7.130  0.1196  1.0910 -3.7849
 3350SOL     OW21511   0.722   0.727   3.065 -0.0227 -0.3831  0.1353
 3350SOL    HW121512   0.631   0.711   3.089 -0.6900  1.4043 -1.1889
 3350SOL    HW221513   0.722   0.725   2.969 -2.4341 -1.2057  0.1564
 3351SOL     OW21514   0.156   3.328  10.780  0.1142  0.1196 -0.3742
 3351SOL    HW121515   0.161   3.409  10.729 -2.1442  0.9238  0.6475
 3351SOL    HW221516   0.109   3.349  10.861  1.6215  0.4609  0.3982
 3352SOL     OW21517   4.066   1.356   4.748  0.5620 -0.3864  0.1118
 3352SOL    HW121518   4.045   1.291   4.681  0.0164 -1.8162  1.6574
 3352SOL    HW221519   4.083   1.289   4.815 -0.6390  0.4668  1.2628
 3353SOL     OW21520   1.991   3.743   4.800 -0.1352 -0.0720 -0.0977
 3353SOL    HW121521   2.033   3.701   4.875 -0.6119 -0.3875 -0.0043
 3353SOL    HW221522   1.897   3.744   4.820 -0.3398 -0.1219 -1.0681
 3354SOL     OW21523   1.898   0.070   0.620  0.3032 -0.4036 -0.1060
 3354SOL    HW121524   1.924   4.712   0.576 -0.0239  0.2843 -1.5670
 3354SOL    HW221525   1.960   0.066   0.693 -1.9322 -2.6148  1.6590
 3355SOL     OW21526   2.936   4.215   4.069  0.0287 -0.0257 -0.3304
 3355SOL    HW121527   2.855   4.230   4.118  2.1357  1.4210  2.7306
 3355SOL    HW221528   2.990   4.182   4.141 -0.7861 -2.3723 -0.7975
 3356SOL     OW21529   3.082   3.984   7.234 -0.1052 -0.4693  0.1339
 3356SOL    HW121530   2.998   3.957   7.269  0.3168 -2.4349 -0.3934
 3356SOL    HW221531   3.064   4.078   7.225  1.3750 -0.0863  1.1919
 3357SOL     OW21532   1.879   2.457   3.630  0.0946  0.5480 -0.5765
 3357SOL    HW121533   1.837   2.384   3.584 -0.6483  0.1335  0.7731
 3357SOL    HW221534   1.970   2.441   3.603 -0.1692 -0.4267 -0.8989
 3358SOL     OW21535   2.665   0.072  10.051 -0.9115 -0.5646 -0.3125
 3358SOL    HW121536   2.614   4.714  10.055  1.3167 -1.8911  1.3679
 3358SOL    HW221537   2.639   0.103   9.964  0.2249  0.6930 -0.2089
 3359SOL     OW21538   3.325   4.472   6.456 -0.0850  0.3081 -0.3419
 3359SOL    HW121539   3.254   4.446   6.397 -0.2338  0.0990 -0.0704
 3359SOL    HW221540   3.371   4.391   6.479 -1.0685 -0.6910 -1.8331
 3360SOL     OW21541   1.860   0.501   2.772  0.1297  0.0408  0.1462
 3360SOL    HW121542   1.944   0.513   2.728 -0.1384  2.5490  0.3130
 3360SOL    HW221543   1.819   0.579   2.733  0.5549  0.1480 -0.0916
 3361SOL     OW21544   4.504   3.561   0.222 -0.4415  0.2862 -0.2264
 3361SOL    HW121545   4.460   3.507   0.156  1.5125 -2.0101  0.3537
 3361SOL    HW221546   4.432   3.621   0.240 -0.3973 -0.0271  1.0052
 3362SOL     OW21547   4.542   2.814  17.374 -0.3265  0.0343  0.1810
 3362SOL    HW121548   4.575   2.893  17.330  2.8644 -0.7756  1.0860
 3362SOL    HW221549   4.537   2.766  17.291 -2.1758  0.3114  0.1455
 3363SOL     OW21550   4.252   3.799   2.614  0.2754 -0.3956 -0.2216
 3363SOL    HW121551   4.244   3.715   2.569  0.0326 -0.1644 -0.6047
 3363SOL    HW221552   4.329   3.829   2.566  0.2492  2.2990  1.4306
 3364SOL     OW21553   1.899   3.366  17.374  0.6851  0.0001 -0.3011
 3364SOL    HW121554   1.893   3.456  17.407  0.2793  0.1301 -0.7318
 3364SOL    HW221555   1.859   3.304  17.436 -0.1579  0.9898  0.1415
 3365SOL     OW21556   2.206   4.650   2.598  0.3255  0.2904  0.0101
 3365SOL    HW121557   2.124   4.647   2.646 -0.1901 -0.5774 -0.9247
 3365SOL    HW221558   2.266   4.602   2.655 -0.2711 -0.0017  0.3859
 3366SOL     OW21559   0.894   4.601   6.390 -0.0174 -0.0552 -0.2349
 3366SOL    HW121560   0.977   4.575   6.350  0.1421  0.7141 -0.3980
 3366SOL    HW221561   0.910   4.558   6.474  0.2617 -2.6142 -1.5838
 3367SOL     OW21562   3.309   2.856   4.060  0.4801 -0.8290  0.0161
 3367SOL    HW121563   3.277   2.871   4.149  0.7079 -1.7740  0.2516
 3367SOL    HW221564   3.392   2.903   4.053  0.1059 -0.4483 -1.8491
 3368SOL     OW21565   2.296   0.196   0.765  0.2952  0.2636  0.2931
 3368SOL    HW121566   2.360   0.207   0.695  0.3246 -0.8985  0.1502
 3368SOL    HW221567   2.342   0.241   0.836 -1.6103  1.7958  0.5759
 3369SOL     OW21568   4.273   2.367   8.847 -0.3658  0.1644 -0.0227
 3369SOL    HW121569   4.310   2.421   8.777  1.0623  0.4079  0.9446
 3369SOL    HW221570   4.216   2.315   8.789 -2.2587  0.1167  1.8845
 3370SOL     OW21571   1.703   3.173   6.325 -0.1390 -0.5742  0.3397
 3370SOL    HW121572   1.773   3.175   6.259  0.9140  2.0812  1.5105
 3370SOL    HW221573   1.724   3.249   6.380  1.9961 -0.2715 -0.8870
 3371SOL     OW21574   4.317   3.863   5.810  0.2621  0.3079 -0.2232
 3371SOL    HW121575   4.378   3.878   5.738  0.8759  0.1675  0.2711
 3371SOL    HW221576   4.360   3.878   5.894  0.5851 -1.6832 -0.0393
 3372SOL     OW21577   3.346   0.329   5.657  0.1064 -0.4085  0.4353
 3372SOL    HW121578   3.393   0.394   5.709  2.9031 -0.4469 -2.0911
 3372SOL    HW221579   3.331   0.261   5.723 -1.2883  2.7793  3.4228
 3373SOL     OW21580   0.800   3.658   5.293  0.1899 -0.3859 -0.8747
 3373SOL    HW121581   0.733   3.640   5.359  1.0452  1.5193  0.5061
 3373SOL    HW221582   0.868   3.591   5.307 -0.6403 -0.9006  0.7031
 3374SOL     OW21583   1.622   0.270   5.770  0.4808  0.0481 -0.2219
 3374SOL    HW121584   1.631   0.344   5.830 -0.4369  0.1908 -0.2615
 3374SOL    HW221585   1.529   0.248   5.762  0.1607  1.8281 -1.2503
 3375SOL     OW21586   2.014   2.472   4.307  0.2517  0.0644  0.0630
 3375SOL    HW121587   2.047   2.541   4.249 -2.1389  0.1489 -1.2000
 3375SOL    HW221588   2.058   2.502   4.387 -1.8429  1.1106  0.8213
 3376SOL     OW21589   0.965   0.079   4.111  0.4122  0.2401 -0.4195
 3376SOL    HW121590   0.968   0.001   4.056  1.4758  0.0805 -0.1281
 3376SOL    HW221591   1.057   0.103   4.117  0.4722  0.1118 -0.8461
 3377SOL     OW21592   3.347   0.866   8.668  0.0571 -0.1984 -0.4640
 3377SOL    HW121593   3.429   0.818   8.677 -0.6755 -1.2938  0.4609
 3377SOL    HW221594   3.375   0.950   8.704 -3.1763 -0.1934  2.0709
 3378SOL     OW21595   1.625   0.075  14.105  0.3803 -0.2297 -0.6572
 3378SOL    HW121596   1.713   0.107  14.086  0.5062 -0.0030  0.3066
 3378SOL    HW221597   1.634   4.712  14.063 -0.9206 -1.1148  0.8786
 3379SOL     OW21598   1.225   4.239  17.035  0.5771  0.2338  0.4291
 3379SOL    HW121599   1.186   4.236  16.948  1.2142 -0.2937  0.1604
 3379SOL    HW221600   1.219   4.333  17.053 -1.1079  0.4662 -1.4131
 3380SOL     OW21601   0.541   3.853   5.457  0.0040 -0.0271  0.7715
 3380SOL    HW121602   0.454   3.889   5.470  0.4174  1.9229 -1.8169
 3380SOL    HW221603   0.516   3.761   5.456 -0.7088  0.1681  1.0401
 3381SOL     OW21604   4.019   0.448   0.470  0.0644  0.3085 -0.1687
 3381SOL    HW121605   4.039   0.541   0.461 -1.3439  0.5351 -1.0209
 3381SOL    HW221606   4.105   0.413   0.446 -0.3567 -1.2560  0.6258
 3382SOL     OW21607   3.060   3.723  12.776 -0.2388  0.1005 -0.5543
 3382SOL    HW121608   3.001   3.791  12.808 -0.4823 -0.2809 -0.1950
 3382SOL    HW221609   3.144   3.767  12.761  0.8760 -0.9005  2.7037
 3383SOL     OW21610   0.596   2.467   2.662 -0.2350  0.3348  0.2986
 3383SOL    HW121611   0.532   2.435   2.599 -0.4093  1.1084  0.0746
 3383SOL    HW221612   0.571   2.404   2.729 -1.2170 -0.2901 -0.6600
 3384SOL     OW21613   2.476   0.223   3.747 -0.3773  0.4771 -0.0154
 3384SOL    HW121614   2.537   0.153   3.769 -2.1342 -1.5732 -1.6797
 3384SOL    HW221615   2.401   0.209   3.804  0.1004  1.8933  0.9536
 3385SOL     OW21616   1.079   1.505   8.349  0.0738 -0.0296 -0.2688
 3385SOL    HW121617   1.085   1.413   8.371  2.1779  0.3368  0.7056
 3385SOL    HW221618   0.999   1.530   8.396  1.4707  0.1676  1.9699
 3386SOL     OW21619   2.693   3.727  11.353 -0.2653  0.1168 -0.2754
 3386SOL    HW121620   2.679   3.805  11.300  2.4609  0.5501 -0.3504
 3386SOL    HW221621   2.643   3.657  11.311  0.8888  1.2056 -3.4326
 3387SOL     OW21622   4.375   1.427   6.348  0.4803  0.3087 -0.0333
 3387SOL    HW121623   4.459   1.392   6.377  1.1454  0.3469 -1.9506
 3387SOL    HW221624   4.399   1.426   6.255 -1.3850 -1.9639 -0.5112
 3388SOL     OW21625   3.652   1.573   3.826 -0.0165  0.2090  0.3606
 3388SOL    HW121626   3.651   1.582   3.731  0.8636  1.5977  0.4831
 3388SOL    HW221627   3.739   1.537   3.846  0.5067  0.0965 -2.2036
 3389SOL     OW21628   2.640   3.870   9.166  0.0605 -0.1201 -0.5568
 3389SOL    HW121629   2.608   3.867   9.256  0.7823  1.6504 -0.2429
 3389SOL    HW221630   2.682   3.955   9.154 -3.6526  1.4945 -1.9372
 3390SOL     OW21631   3.419   0.522  16.012  0.0748  0.0862  0.0825
 3390SOL    HW121632   3.389   0.547  16.099  3.3773  1.8780  0.6713
 3390SOL    HW221633   3.341   0.481  15.972 -1.4233  0.8496  2.2361
 3391SOL     OW21634   0.853   3.199   6.542  0.7268  0.4915 -0.2225
 3391SOL    HW121635   0.897   3.181   6.625 -0.5449 -1.7769 -0.0386
 3391SOL    HW221636   0.832   3.292   6.544 -2.9213 -0.2709 -2.1358
 3392SOL     OW21637   3.904   4.574  10.076  0.3426 -0.0050  0.2789
 3392SOL    HW121638   3.923   4.487  10.112 -1.9500  0.6619  3.1265
 3392SOL    HW221639   3.848   4.600  10.149 -1.1750  2.7346 -1.8953
 3393SOL     OW21640   2.607   3.882  11.155 -0.0390 -0.0496  0.2273
 3393SOL    HW121641   2.594   3.844  11.068  1.4412  0.5715 -0.2612
 3393SOL    HW221642   2.701   3.881  11.170  0.3501 -0.3700 -2.2768
 3394SOL     OW21643   2.967   4.375  16.746 -0.1994 -0.8894  0.0501
 3394SOL    HW121644   2.933   4.460  16.718  1.0590 -0.7579 -1.0505
 3394SOL    HW221645   3.038   4.367  16.683  0.7402  2.3411  0.6706
 3395SOL     OW21646   1.570   3.532   2.049 -0.1289  0.1297  0.1838
 3395SOL    HW121647   1.497   3.492   2.002 -0.8460  1.7330 -0.0829
 3395SOL    HW221648   1.568   3.486   2.132  0.9623  1.6029  1.0302
 3396SOL     OW21649   2.362   3.636   3.050  0.0673  0.4266  0.1548
 3396SOL    HW121650   2.344   3.717   3.097 -0.5840  1.7359 -2.4112
 3396SOL    HW221651   2.306   3.574   3.096  1.2714 -1.3890 -0.8157
 3397SOL     OW21652   0.315   4.036   7.515  0.6685 -0.5598  0.1449
 3397SOL    HW121653   0.380   4.018   7.583  1.0578  0.9739  0.1888
 3397SOL    HW221654   0.251   3.973   7.548  1.5286 -1.2240  0.5595
 3398SOL     OW21655   4.137   1.537  11.201  0.2496 -0.1033  0.1798
 3398SOL    HW121656   4.042   1.544  11.196  0.0251 -1.5769  2.2925
 3398SOL    HW221657   4.140   1.468  11.135 -1.0578  2.0642 -2.1181
 3399SOL     OW21658   1.364   4.031   8.556 -0.3988 -0.7959 -0.1084
 3399SOL    HW121659   1.371   4.051   8.463 -1.6745 -0.7734 -0.1981
 3399SOL    HW221660   1.271   4.044   8.572 -0.2555 -0.7466  0.6803
 3400SOL     OW21661   3.026   0.936   6.073  0.3428  0.7914  0.7300
 3400SOL    HW121662   3.120   0.916   6.072 -0.1991 -1.8087  0.4367
 3400SOL    HW221663   3.002   0.879   6.146 -0.2625  1.1106  0.7729
 3401SOL     OW21664   2.306   4.413   9.296 -0.0422  0.3607  0.2020
 3401SOL    HW121665   2.386   4.465   9.301  0.0779 -0.0115  2.4430
 3401SOL    HW221666   2.243   4.479   9.326 -1.2678 -2.6985  4.4505
 3402SOL     OW21667   3.730   1.235   7.334  0.2968  0.0208 -0.0793
 3402SOL    HW121668   3.776   1.184   7.401 -1.4388 -0.8965  0.4211
 3402SOL    HW221669   3.716   1.170   7.264  0.9243  1.1938 -1.2838
 3403SOL     OW21670   3.154   0.855   7.290 -0.6102  0.3788  0.1947
 3403SOL    HW121671   3.233   0.811   7.259  0.3158  2.8171 -0.8983
 3403SOL    HW221672   3.123   0.885   7.205  3.3528 -2.2926 -2.1598
 3404SOL     OW21673   2.490   2.499   1.504  0.7508 -0.5980 -0.0093
 3404SOL    HW121674   2.551   2.559   1.462  0.4453 -0.4270 -0.2102
 3404SOL    HW221675   2.546   2.421   1.506  3.4580  1.2463 -3.9806
 3405SOL     OW21676   3.302   0.670   4.465  0.4242 -0.4831  0.6405
 3405SOL    HW121677   3.329   0.761   4.475  1.4825 -0.4907 -2.0842
 3405SOL    HW221678   3.370   0.638   4.406  1.1839  1.6673  0.3442
 3406SOL     OW21679   2.545   1.806   8.207 -0.2481  0.2850 -0.3978
 3406SOL    HW121680   2.471   1.852   8.248 -0.6220 -1.7384  1.2453
 3406SOL    HW221681   2.617   1.826   8.266  0.9283 -2.0676 -1.0603
 3407SOL     OW21682   1.368   2.547   0.573 -0.1050  0.2243 -0.2536
 3407SOL    HW121683   1.402   2.635   0.588  2.6180 -0.4796 -2.3638
 3407SOL    HW221684   1.412   2.489   0.635  1.7925 -0.5660 -2.3314
 3408SOL     OW21685   4.256   2.360   5.245 -0.3227  0.2060 -0.7295
 3408SOL    HW121686   4.330   2.354   5.184 -0.2639 -0.5471 -0.5852
 3408SOL    HW221687   4.260   2.455   5.247 -1.4438  0.2470 -0.5031
 3409SOL     OW21688   4.441   2.452   5.590  0.4405  0.1524 -0.3986
 3409SOL    HW121689   4.520   2.459   5.644  2.1414 -1.4405 -2.6626
 3409SOL    HW221690   4.474   2.467   5.502 -1.5516 -0.0778 -1.1910
 3410SOL     OW21691   3.050   4.702   8.637  0.2088 -0.0859 -0.0920
 3410SOL    HW121692   2.968   0.025   8.620  1.5899  2.6470  0.8066
 3410SOL    HW221693   3.098   0.019   8.564  0.6021  0.0039  0.2131
 3411SOL     OW21694   3.509   2.377   5.143 -0.0896  0.0203  0.3827
 3411SOL    HW121695   3.553   2.408   5.222 -1.1285 -1.0009  1.3683
 3411SOL    HW221696   3.422   2.413   5.162 -0.0875 -0.3757  1.1293
 3412SOL     OW21697   3.218   3.717   7.243 -0.3452  0.1116 -0.1283
 3412SOL    HW121698   3.161   3.788   7.214 -0.9355 -0.7428 -1.0591
 3412SOL    HW221699   3.183   3.640   7.199  1.2328  0.9153 -2.7522
 3413SOL     OW21700   3.142   3.499   4.369  0.3110  0.5533  0.5550
 3413SOL    HW121701   3.150   3.426   4.431  1.4123  1.2728  1.2729
 3413SOL    HW221702   3.223   3.484   4.320  0.0248 -0.0391  0.2707
 3414SOL     OW21703   0.753   3.522  15.651 -0.2312  0.2640 -0.3867
 3414SOL    HW121704   0.703   3.495  15.728 -1.1979  3.1263 -0.0242
 3414SOL    HW221705   0.758   3.442  15.600 -3.7680  0.0879 -0.4627
 3415SOL     OW21706   4.681   2.277   4.085 -0.2655 -0.0275 -0.8583
 3415SOL    HW121707   0.022   2.268   4.156 -1.1519 -0.6458 -0.1424
 3415SOL    HW221708   4.705   2.216   4.016 -0.5314 -1.6008  0.4308
 3416SOL     OW21709   3.164   1.826   7.489  0.0741  0.1630  0.3766
 3416SOL    HW121710   3.175   1.740   7.528 -2.0989 -0.4260 -0.3137
 3416SOL    HW221711   3.212   1.815   7.407 -2.4619 -1.9490 -0.8325
 3417SOL     OW21712   1.324   3.387  16.090 -1.1645  0.6914 -0.1661
 3417SOL    HW121713   1.261   3.359  16.024  0.3567 -3.7330  0.2236
 3417SOL    HW221714   1.278   3.452  16.143 -3.0826 -0.3466 -0.5559
 3418SOL     OW21715   3.287   0.043   6.783 -0.0780  0.3340  0.5064
 3418SOL    HW121716   3.382   0.041   6.778 -0.0159 -0.7218  1.9868
 3418SOL    HW221717   3.272   0.123   6.732 -1.8827 -0.5496 -0.3642
 3419SOL     OW21718   2.374   1.457   1.706 -0.2591  0.0877  0.6879
 3419SOL    HW121719   2.281   1.475   1.698 -0.1181  0.0473 -1.0553
 3419SOL    HW221720   2.395   1.485   1.617  0.5971  1.0911  1.2058
 3420SOL     OW21721   3.497   0.521   4.334  0.4113 -0.5305 -0.6044
 3420SOL    HW121722   3.468   0.445   4.384 -1.3683 -0.6735 -1.8743
 3420SOL    HW221723   3.588   0.490   4.329  0.2060 -1.1457 -0.4395
 3421SOL     OW21724   0.484   2.462   5.601  0.3716 -0.0800 -0.6350
 3421SOL    HW121725   0.576   2.480   5.582  0.3648  0.1579 -0.4339
 3421SOL    HW221726   0.483   2.367   5.613 -1.2000  0.0396  0.2653
 3422SOL     OW21727   1.698   3.382   6.487 -0.4989  0.0925 -0.0143
 3422SOL    HW121728   1.625   3.422   6.438  0.1440  1.9513  0.5337
 3422SOL    HW221729   1.711   3.459   6.542  1.7885  1.5027 -2.5439
 3423SOL     OW21730   4.080   0.580  17.007 -0.2119  0.1068 -0.1085
 3423SOL    HW121731   4.111   0.652  17.062  1.2898 -0.6491  0.0314
 3423SOL    HW221732   4.031   0.620  16.935  1.4809 -1.2166 -1.9860
 3424SOL     OW21733   4.079   0.767  14.313  0.1149  0.2433  0.1399
 3424SOL    HW121734   4.082   0.859  14.339  1.1036 -0.0709  1.1064
 3424SOL    HW221735   3.984   0.751  14.315 -0.1091  1.5544  0.2985
 3425SOL     OW21736   4.259   0.239  11.829  0.3319  0.1668  0.4190
 3425SOL    HW121737   4.270   0.268  11.920 -1.3752 -1.1236  1.0491
 3425SOL    HW221738   4.169   0.270  11.816  0.1296 -0.6232 -0.0660
 3426SOL     OW21739   0.216   3.191   3.676  0.5592  0.3553 -0.2361
 3426SOL    HW121740   0.279   3.132   3.634  0.6636  1.6586 -1.9014
 3426SOL    HW221741   0.177   3.129   3.738 -0.4150 -0.3172 -1.5255
 3427SOL     OW21742   0.678   2.264   2.283 -0.1652  0.0896 -0.1676
 3427SOL    HW121743   0.760   2.223   2.310 -0.3879 -0.4839 -0.3463
 3427SOL    HW221744   0.659   2.213   2.204 -1.1344  0.7234 -0.3382
 3428SOL     OW21745   1.355   1.855   6.039  0.2333 -0.3517  0.6898
 3428SOL    HW121746   1.362   1.854   6.135 -0.5845 -1.3304  0.7363
 3428SOL    HW221747   1.411   1.778   6.023 -2.0646 -1.3438 -2.3867
 3429SOL     OW21748   1.185   2.199   0.497 -0.0648  0.5366 -0.3669
 3429SOL    HW121749   1.090   2.210   0.500 -0.0673 -0.1230  1.7078
 3429SOL    HW221750   1.210   2.277   0.547 -0.1937 -0.5254  1.3289
 3430SOL     OW21751   1.741   2.076   4.626 -0.2340 -0.0188 -0.5795
 3430SOL    HW121752   1.696   1.996   4.655  1.1423 -1.5422 -2.6028
 3430SOL    HW221753   1.666   2.134   4.613  1.3955  2.6442  2.0034
 3431SOL     OW21754   0.222   4.686   3.989 -0.6955 -0.2975  0.8152
 3431SOL    HW121755   0.163   0.038   3.983 -0.0397  0.2662  1.4304
 3431SOL    HW221756   0.245   4.660   3.900  1.7666 -0.3122  1.4721
 3432SOL     OW21757   0.331   3.271   9.936  0.6192  0.0748  0.0444
 3432SOL    HW121758   0.358   3.317   9.856 -0.4963  1.3504  0.3937
 3432SOL    HW221759   0.405   3.301   9.989  1.1331 -2.0574  0.5082
 3433SOL     OW21760   3.337   3.448   4.747 -0.9301 -0.2665 -0.9518
 3433SOL    HW121761   3.273   3.514   4.721  0.5532  1.7297  0.3763
 3433SOL    HW221762   3.332   3.405   4.662 -0.9667 -2.6343  0.2510
 3434SOL     OW21763   1.041   2.141   9.334 -0.4813 -0.5326  0.2149
 3434SOL    HW121764   0.993   2.149   9.252 -0.1649 -3.9121 -0.3091
 3434SOL    HW221765   1.013   2.223   9.375  1.4746  0.5585 -0.6527
 3435SOL     OW21766   2.984   0.680   1.101 -0.5463  0.2474  0.3257
 3435SOL    HW121767   2.923   0.654   1.171  0.3867  0.0326  1.0596
 3435SOL    HW221768   2.929   0.700   1.025 -0.0859  0.7620  0.1341
 3436SOL     OW21769   2.002   0.641   2.042  0.2889 -0.5263  0.8103
 3436SOL    HW121770   1.931   0.675   2.097 -1.9118  0.0207 -2.3450
 3436SOL    HW221771   1.960   0.587   1.975 -2.5044  1.1944  1.1888
 3437SOL     OW21772   3.139   4.639   4.887  0.3763 -0.3613  0.4098
 3437SOL    HW121773   3.093   4.555   4.895 -0.1775  0.0099  1.0833
 3437SOL    HW221774   3.218   4.607   4.930  0.1321  1.0740  1.9112
 3438SOL     OW21775   1.311   2.008   5.802  0.2456 -0.4635  0.4379
 3438SOL    HW121776   1.277   1.945   5.866  0.5204 -1.1750 -0.1247
 3438SOL    HW221777   1.374   2.056   5.856  1.5948 -1.4653 -0.2527
 3439SOL     OW21778   3.686   1.342   6.923 -0.3436 -0.3030 -0.8251
 3439SOL    HW121779   3.663   1.250   6.934 -3.2420  0.3945 -1.0306
 3439SOL    HW221780   3.743   1.367   6.995 -1.3281  1.3888 -0.6204
 3440SOL     OW21781   0.265   3.531  11.406  0.2552  0.4527 -0.4259
 3440SOL    HW121782   0.310   3.556  11.486  1.0947 -1.7161 -0.2073
 3440SOL    HW221783   0.180   3.567  11.430  0.1206  0.7492 -1.3643
 3441SOL     OW21784   4.549   0.255   0.689 -0.2710 -0.2158  0.1972
 3441SOL    HW121785   4.550   0.345   0.655  1.6510 -0.2290  0.1992
 3441SOL    HW221786   4.533   0.201   0.611 -3.0253  0.6948  0.1404
 3442SOL     OW21787   4.017   3.842   1.130 -0.0147  0.5448 -0.9499
 3442SOL    HW121788   3.937   3.822   1.178  0.1596 -0.3063 -1.0058
 3442SOL    HW221789   3.991   3.927   1.095 -1.3269  1.5544  2.4409
 3443SOL     OW21790   1.750   3.736  15.264 -0.3372  0.2508 -0.3375
 3443SOL    HW121791   1.773   3.805  15.202 -1.6669  1.1955  0.2097
 3443SOL    HW221792   1.831   3.710  15.307 -1.3973 -0.9946  0.8933
 3444SOL     OW21793   4.046   2.659   5.867 -0.0312 -0.0005 -0.0417
 3444SOL    HW121794   4.070   2.716   5.941  0.5883  2.9833 -2.5442
 3444SOL    HW221795   4.118   2.661   5.804 -1.4977  1.9938 -1.6302
 3445SOL     OW21796   3.722   0.748   8.492 -0.5551  0.5647 -0.6206
 3445SOL    HW121797   3.653   0.683   8.479  1.4868 -2.4867  3.7988
 3445SOL    HW221798   3.696   0.810   8.424  2.6026  2.1921 -0.3559
 3446SOL     OW21799   4.120   0.104   3.843 -0.1525 -0.1336 -0.1631
 3446SOL    HW121800   4.109   0.186   3.794  0.0223  1.4963  2.5233
 3446SOL    HW221801   4.031   0.076   3.861 -0.2884 -0.2130 -0.9612
 3447SOL     OW21802   4.463   0.051   6.533  0.1137  0.6263  0.0830
 3447SOL    HW121803   4.374   0.066   6.502 -0.1307  0.7632  0.8525
 3447SOL    HW221804   4.457   0.035   6.627 -0.3290  1.6586  0.2236
 3448SOL     OW21805   0.870   1.416   4.336 -0.2903  0.7848  0.2065
 3448SOL    HW121806   0.818   1.346   4.296 -1.2014  0.3382  2.1795
 3448SOL    HW221807   0.952   1.367   4.342 -0.7774 -0.3492 -2.1019
 3449SOL     OW21808   2.086   1.805   4.154 -0.3361  0.2317  0.1074
 3449SOL    HW121809   2.043   1.771   4.232  0.3711 -0.5627  0.1578
 3449SOL    HW221810   2.176   1.775   4.166 -0.8234 -1.7634 -1.2822
 3450SOL     OW21811   3.331   4.151   4.532 -0.0809  0.3054 -0.4882
 3450SOL    HW121812   3.261   4.193   4.581  0.9053  0.2750  0.9445
 3450SOL    HW221813   3.295   4.068   4.500  1.3297 -1.2285  1.8992
 3451SOL     OW21814   0.299   3.352   8.036 -0.1109  0.1058  0.7558
 3451SOL    HW121815   0.209   3.345   8.002  0.0982  2.5893 -0.3096
 3451SOL    HW221816   0.276   3.368   8.127 -0.2424 -1.9252  1.0925
 3452SOL     OW21817   0.311   1.284   7.292 -0.8848 -0.6038 -0.7099
 3452SOL    HW121818   0.227   1.244   7.310 -1.0708  1.1375  2.2253
 3452SOL    HW221819   0.380   1.224   7.320  0.1981  0.0724 -1.9245
 3453SOL     OW21820   3.668   0.138   8.732  0.0076  0.1488  0.5313
 3453SOL    HW121821   3.668   0.198   8.657 -1.3715 -1.5614 -0.8283
 3453SOL    HW221822   3.711   0.195   8.795  1.5235  0.3589 -0.6809
 3454SOL     OW21823   0.641   3.445   4.413 -0.1170  0.0190 -0.5292
 3454SOL    HW121824   0.693   3.368   4.437  0.6134  0.1178 -1.7960
 3454SOL    HW221825   0.580   3.419   4.344 -1.3656  2.5385 -0.3779
 3455SOL     OW21826   4.226   0.463   7.036  0.4872  0.5942 -0.2042
 3455SOL    HW121827   4.196   0.374   7.054  0.1078  0.7925  0.1451
 3455SOL    HW221828   4.274   0.483   7.117 -0.9475 -0.6584  0.9380
 3456SOL     OW21829   2.049   1.131   2.650 -0.2559  0.2400  0.0159
 3456SOL    HW121830   2.078   1.138   2.559 -1.8400  0.7463 -0.4460
 3456SOL    HW221831   2.112   1.181   2.701  0.1534  0.5613 -0.7933
 3457SOL     OW21832   3.312   2.985   2.055  0.5155  0.0848  0.6314
 3457SOL    HW121833   3.264   3.061   2.086  0.9174  1.1607 -1.3976
 3457SOL    HW221834   3.353   3.009   1.972  1.9363  1.3059  1.6864
 3458SOL     OW21835   0.403   3.946   9.686  0.2279  0.0181  0.9127
 3458SOL    HW121836   0.384   4.007   9.615 -2.3594 -4.0375 -1.8253
 3458SOL    HW221837   0.355   3.983   9.760  0.8540 -0.1202  1.3926
 3459SOL     OW21838   2.360   4.542   6.138 -0.2692 -0.2799  0.0562
 3459SOL    HW121839   2.278   4.519   6.181 -0.3315 -0.3460 -0.0969
 3459SOL    HW221840   2.339   4.593   6.060 -0.9692  0.1498  0.5269
 3460SOL     OW21841   2.600   3.128   8.140  0.7325 -0.1909 -0.1127
 3460SOL    HW121842   2.563   3.100   8.056  2.2972 -2.3326 -0.0857
 3460SOL    HW221843   2.572   3.066   8.207 -0.7272 -1.4427 -1.8737
 3461SOL     OW21844   0.468   3.152   6.997 -0.2124  0.4603  0.2196
 3461SOL    HW121845   0.441   3.094   7.068  0.8298  0.3961  0.5623
 3461SOL    HW221846   0.393   3.149   6.937 -0.4515 -0.1796  0.5520
 3462SOL     OW21847   0.260   1.908   0.997 -0.1496  0.2452 -0.5914
 3462SOL    HW121848   0.284   1.997   0.971 -3.2233  0.8380 -1.4807
 3462SOL    HW221849   0.319   1.905   1.072  0.5248  0.8735 -1.0998
 3463SOL     OW21850   4.130   2.002   0.609 -0.1431 -0.3243 -0.1981
 3463SOL    HW121851   4.161   1.994   0.518 -0.9765  1.4385 -0.6375
 3463SOL    HW221852   4.096   1.916   0.635 -0.3779 -0.3397 -0.5525
 3464SOL     OW21853   2.002   4.710  10.368  0.4646 -0.0212 -0.2533
 3464SOL    HW121854   2.081   4.702  10.315  1.0255  0.6846  0.4881
 3464SOL    HW221855   2.025   4.634  10.420  0.0639 -0.8033 -1.2128
 3465SOL     OW21856   1.117   1.197   3.200  0.3327  0.0242 -0.0924
 3465SOL    HW121857   1.177   1.270   3.184  0.9637 -0.5826 -0.5231
 3465SOL    HW221858   1.034   1.228   3.166  0.1328  1.5222  1.7582
 3466SOL     OW21859   4.537   0.908  15.756  0.6393  0.1318 -0.5632
 3466SOL    HW121860   4.539   0.958  15.674  0.3336 -0.3036 -0.8362
 3466SOL    HW221861   4.497   0.827  15.725 -1.0566  0.8406 -0.1811
 3467SOL     OW21862   1.333   1.780   6.299  0.1695  0.2489 -0.0183
 3467SOL    HW121863   1.252   1.821   6.328 -0.4478  0.6630 -2.3370
 3467SOL    HW221864   1.319   1.686   6.289 -0.3063 -0.0270  3.1267
 3468SOL     OW21865   3.578   2.520   2.943 -0.0792  0.1712 -0.4854
 3468SOL    HW121866   3.575   2.507   3.037  0.8853 -0.2776 -0.5241
 3468SOL    HW221867   3.672   2.514   2.928 -0.1243  0.2658 -0.8067
 3469SOL     OW21868   1.510   3.599  16.462  0.2977 -0.0782 -0.0859
 3469SOL    HW121869   1.486   3.569  16.549 -0.0010  1.1212  0.2506
 3469SOL    HW221870   1.532   3.516  16.419  0.3388 -1.0299  1.7840
 3470SOL     OW21871   4.342   0.346  17.253  0.1744  0.0533 -0.6410
 3470SOL    HW121872   4.431   0.382  17.254  0.3360 -0.1979 -4.0163
 3470SOL    HW221873   4.327   0.351  17.158  1.8204  2.1995 -0.7941
 3471SOL     OW21874   0.851   4.340   8.610  0.9148 -0.5353  0.2036
 3471SOL    HW121875   0.817   4.256   8.580 -1.2010  0.0073  1.0708
 3471SOL    HW221876   0.803   4.400   8.552 -1.0173 -2.7488 -0.4909
 3472SOL     OW21877   1.815   1.396  13.051  0.6282  0.4776  0.7703
 3472SOL    HW121878   1.786   1.350  12.973  2.1196  1.2726 -0.2478
 3472SOL    HW221879   1.784   1.346  13.126 -1.5089 -0.4947 -0.7840
 3473SOL     OW21880   3.827   2.954   0.887 -0.6225 -0.0655 -0.0979
 3473SOL    HW121881   3.917   2.922   0.894 -0.8421 -0.6989 -0.1938
 3473SOL    HW221882   3.814   2.979   0.979  0.4067 -0.7226  0.2263
 3474SOL     OW21883   1.217   3.266   4.197  0.9165 -0.0988  0.2182
 3474SOL    HW121884   1.170   3.336   4.243  2.5541 -0.2790  2.1461
 3474SOL    HW221885   1.237   3.219   4.278  3.0044 -2.3521 -1.6014
 3475SOL     OW21886   1.823   0.861   1.497  0.2784 -0.0875 -0.4170
 3475SOL    HW121887   1.845   0.778   1.455  0.9126  0.2166 -0.6787
 3475SOL    HW221888   1.892   0.858   1.563 -0.3569  1.0792  0.2938
 3476SOL     OW21889   2.306   0.702   2.758  0.1348 -0.8691 -0.1571
 3476SOL    HW121890   2.361   0.734   2.687 -0.0608 -0.9280 -0.3373
 3476SOL    HW221891   2.352   0.622   2.785  2.9947  0.8080 -0.1898
 3477SOL     OW21892   3.500   2.553  17.353 -0.1889  0.3290 -0.0632
 3477SOL    HW121893   3.571   2.588  17.299  0.1748  0.5776  0.5746
 3477SOL    HW221894   3.523   2.561  17.446 -0.2839 -1.5385  0.1132
 3478SOL     OW21895   3.279   2.303   1.507  0.0608 -0.4389 -0.5139
 3478SOL    HW121896   3.318   2.352   1.435 -0.0074  1.9029  1.0612
 3478SOL    HW221897   3.354   2.279   1.562  0.5316  0.6106 -0.6999
 3479SOL     OW21898   2.729   1.728   3.424  0.5548 -0.1764  0.2447
 3479SOL    HW121899   2.729   1.646   3.474  0.7441 -1.1744 -1.4061
 3479SOL    HW221900   2.785   1.785   3.477  1.4176 -0.3961 -0.4447
 3480SOL     OW21901   0.831   4.116   4.805  0.3502  0.2501 -0.0543
 3480SOL    HW121902   0.762   4.073   4.854  1.1691 -0.5733  0.3781
 3480SOL    HW221903   0.912   4.068   4.824  0.9298  0.8750 -0.9374
 3481SOL     OW21904   2.062   4.517   9.408 -0.4786  0.0885 -0.1023
 3481SOL    HW121905   2.017   4.441   9.443 -0.3054  0.2768  0.5247
 3481SOL    HW221906   1.995   4.567   9.360 -0.2220  0.2969 -0.2471
 3482SOL     OW21907   1.989   2.269   8.457 -0.6089  0.1866 -0.5458
 3482SOL    HW121908   2.063   2.311   8.413 -0.1577 -1.0545 -0.9905
 3482SOL    HW221909   1.970   2.337   8.521  0.6944 -0.1089  0.1555
 3483SOL     OW21910   2.692   0.983  14.327 -0.3688  0.1525 -0.3009
 3483SOL    HW121911   2.697   1.025  14.241 -1.1337  0.8004 -0.0171
 3483SOL    HW221912   2.651   1.054  14.376  0.3600  0.9721 -0.8653
 3484SOL     OW21913   1.666   3.651   3.530 -0.0304  0.0033  0.5348
 3484SOL    HW121914   1.604   3.601   3.583  0.0332 -0.2250  0.3973
 3484SOL    HW221915   1.735   3.666   3.594  2.0461  0.6036 -1.8585
 3485SOL     OW21916   3.770   3.942  11.559  0.4991  0.5771 -0.5330
 3485SOL    HW121917   3.740   3.915  11.645 -0.3196  0.5514 -0.8259
 3485SOL    HW221918   3.687   3.930  11.514  0.1453 -2.0190  0.8840
 3486SOL     OW21919   3.910   2.256   2.149  0.1591 -0.1932 -0.8424
 3486SOL    HW121920   3.892   2.300   2.232  1.2304 -1.3065 -0.0152
 3486SOL    HW221921   3.983   2.309   2.118  0.5258 -0.0989  0.2031
 3487SOL     OW21922   2.539   1.918   7.149 -0.4345 -0.3371  0.2069
 3487SOL    HW121923   2.516   1.951   7.236  0.3486  0.4355  0.1235
 3487SOL    HW221924   2.505   1.986   7.090  0.3658  0.4794  0.6878
 3488SOL     OW21925   1.469   3.538   8.049 -1.0278  0.3086  0.0829
 3488SOL    HW121926   1.529   3.613   8.040 -0.6803  0.2161  1.5423
 3488SOL    HW221927   1.427   3.552   8.134  0.4046 -1.0018  1.0050
 3489SOL     OW21928   4.373   2.615  11.324  0.6602 -0.0049 -1.1955
 3489SOL    HW121929   4.314   2.587  11.395  0.1710 -0.5335 -1.8083
 3489SOL    HW221930   4.374   2.538  11.267 -1.4641 -0.6138 -0.4237
 3490SOL     OW21931   4.573   0.175   7.997 -0.2033  0.3347  0.2966
 3490SOL    HW121932   4.618   0.188   8.080  1.9166  3.7999 -1.4148
 3490SOL    HW221933   4.573   0.080   7.984 -0.9108  0.4035 -0.2404
 3491SOL     OW21934   4.455   4.074   5.416  0.8616 -0.3521 -0.0392
 3491SOL    HW121935   4.542   4.104   5.445  0.3219  1.4995 -0.3322
 3491SOL    HW221936   4.475   4.003   5.356  0.7803 -0.1238 -0.3376
 3492SOL     OW21937   2.487   0.693   8.558 -0.0559  0.9007  0.1970
 3492SOL    HW121938   2.568   0.668   8.602 -0.1310 -2.9311 -1.8861
 3492SOL    HW221939   2.522   0.767   8.507  0.2651  0.0305 -0.8402
 3493SOL     OW21940   0.475   4.344   8.840  0.0474 -0.4014 -0.5000
 3493SOL    HW121941   0.495   4.395   8.761 -1.7159  0.4832 -0.3865
 3493SOL    HW221942   0.525   4.392   8.906 -2.7778  1.5629  0.2011
 3494SOL     OW21943   3.658   0.531   6.747  0.0004  0.2909 -0.1225
 3494SOL    HW121944   3.685   0.441   6.728 -0.6178  0.4787 -1.8263
 3494SOL    HW221945   3.564   0.519   6.754  0.2249 -1.6411 -0.4322
 3495SOL     OW21946   1.876   2.912  13.849  0.5709 -0.4510  0.2509
 3495SOL    HW121947   1.869   2.847  13.919 -0.0904  2.7551  3.1532
 3495SOL    HW221948   1.901   2.989  13.901 -2.4413  0.0566  0.9634
 3496SOL     OW21949   4.109   3.993   8.608  0.4771  0.0929 -0.3998
 3496SOL    HW121950   4.155   4.021   8.687  0.4411  0.0195 -0.3538
 3496SOL    HW221951   4.020   4.001   8.644  0.8398 -2.6581  1.0425
 3497SOL     OW21952   2.509   1.050   5.245  0.4887  0.3248  0.0796
 3497SOL    HW121953   2.482   0.967   5.285  0.1180 -0.1984 -1.2610
 3497SOL    HW221954   2.537   1.116   5.309 -1.8522  1.2958  0.1332
 3498SOL     OW21955   3.015   2.278   1.599 -0.5551 -0.0020  0.0474
 3498SOL    HW121956   3.102   2.275   1.560 -0.7220 -0.2597 -0.3046
 3498SOL    HW221957   3.034   2.225   1.677  0.4448 -1.1470 -0.9705
 3499SOL     OW21958   1.982   0.646   5.176 -0.2311 -0.4126 -0.0330
 3499SOL    HW121959   1.946   0.639   5.088  1.2335  0.2670 -0.6834
 3499SOL    HW221960   2.057   0.703   5.164 -0.8569  0.5643  0.7033
 3500SOL     OW21961   4.393   0.528  16.792  0.5657 -0.3444  0.0071
 3500SOL    HW121962   4.459   0.538  16.723  0.7846 -1.8254 -0.0048
 3500SOL    HW221963   4.429   0.584  16.860  4.7529 -2.3172 -0.5477
 3501SOL     OW21964   0.588   2.999   7.247 -0.1596 -0.3827 -0.6345
 3501SOL    HW121965   0.545   2.916   7.229 -0.2620 -0.2329 -1.0805
 3501SOL    HW221966   0.516   3.056   7.275 -0.3544  0.3847 -2.7532
 3502SOL     OW21967   2.590   4.319   1.414  0.0839 -0.1673  0.6266
 3502SOL    HW121968   2.656   4.268   1.462  0.2384 -0.1631  0.4200
 3502SOL    HW221969   2.620   4.408   1.429  1.3389 -0.4204 -0.2922
 3503SOL     OW21970   0.251   4.646   3.215  0.3432  0.5416 -0.0203
 3503SOL    HW121971   0.274   4.592   3.290  0.6843 -2.1164 -2.0684
 3503SOL    HW221972   0.174   4.690   3.253 -0.2641 -1.5084  1.1030
 3504SOL     OW21973   0.585   4.582   2.877  0.3628  0.3219 -0.3155
 3504SOL    HW121974   0.537   4.520   2.931  0.3719  0.3561 -0.2679
 3504SOL    HW221975   0.663   4.547   2.834  1.5723  2.0519  0.4309
 3505SOL     OW21976   4.266   3.880   3.131  0.3267 -0.2304 -1.1335
 3505SOL    HW121977   4.235   3.840   3.049 -1.2052  3.1349 -2.2086
 3505SOL    HW221978   4.224   3.966   3.131 -0.2526 -0.5103 -2.3490
 3506SOL     OW21979   1.689   3.273  10.003 -0.2302  0.7287 -0.1209
 3506SOL    HW121980   1.623   3.203  10.010  0.4751 -0.0340 -1.1047
 3506SOL    HW221981   1.763   3.236  10.050  0.9942 -0.2174 -2.8029
 3507SOL     OW21982   4.515   1.791   2.032 -0.2785  0.1341  0.1504
 3507SOL    HW121983   4.479   1.872   1.994 -0.7480 -0.6106 -0.9793
 3507SOL    HW221984   4.608   1.801   2.012 -0.2791  3.3113  1.6966
 3508SOL     OW21985   1.636   0.578   7.069 -0.0290  0.4254 -0.4076
 3508SOL    HW121986   1.646   0.628   7.151 -0.1577 -0.3525  0.0782
 3508SOL    HW221987   1.610   0.656   7.020 -0.6764 -0.0952 -0.8849
 3509SOL     OW21988   0.808   4.429  11.719  0.3002 -0.5509  0.3165
 3509SOL    HW121989   0.775   4.471  11.798 -0.8823  0.6530 -0.8151
 3509SOL    HW221990   0.847   4.358  11.769  1.2537 -0.3416 -0.1215
 3510SOL     OW21991   0.531   1.399   5.729  0.2923  0.0507  0.5248
 3510SOL    HW121992   0.530   1.490   5.698  0.5146 -0.9851 -2.6060
 3510SOL    HW221993   0.498   1.416   5.816  2.8342  0.7669  1.3599
 3511SOL     OW21994   4.104   2.018   5.900  0.5637  0.3890 -0.3665
 3511SOL    HW121995   4.200   2.028   5.901  0.5762  0.2294  0.2969
 3511SOL    HW221996   4.082   2.051   5.987 -0.7758  0.1038 -0.6078
 3512SOL     OW21997   1.684   0.894   5.666  0.2877 -0.4537  0.0834
 3512SOL    HW121998   1.717   0.943   5.590 -1.2480  3.3203  1.8496
 3512SOL    HW221999   1.623   0.831   5.627  1.6287  0.1059 -2.9295
 3513SOL     OW22000   3.269   4.555   8.724 -0.5840  0.2824  0.0474
 3513SOL    HW122001   3.314   4.603   8.794  0.2985  1.2253 -1.1579
 3513SOL    HW222002   3.191   4.610   8.715 -0.9116 -0.2927 -0.6081
 3514SOL     OW22003   4.408   2.106  11.057  0.2283  0.4237 -0.0335
 3514SOL    HW122004   4.402   2.010  11.049  1.8974  0.2813  0.3696
 3514SOL    HW222005   4.369   2.124  10.972  0.1052 -0.3892 -0.1533
 3515SOL     OW22006   3.279   4.231  12.752  0.5751  0.7388 -0.0387
 3515SOL    HW122007   3.340   4.193  12.689 -0.3554  1.0847 -1.1443
 3515SOL    HW222008   3.194   4.186  12.750  0.3839  1.1202 -0.3337
 3516SOL     OW22009   3.975   1.933   9.741 -0.2773  0.3936 -0.0397
 3516SOL    HW122010   4.003   2.023   9.757  1.1002 -0.2457  1.0557
 3516SOL    HW222011   3.896   1.934   9.686 -1.2490 -1.2819  1.3351
 3517SOL     OW22012   4.320   2.258  15.071  0.0516  0.2626 -0.3885
 3517SOL    HW122013   4.264   2.217  15.137 -0.7349  2.7819  0.5003
 3517SOL    HW222014   4.339   2.190  15.007  0.6730  0.1774 -0.1122
 3518SOL     OW22015   4.376   0.020   3.858 -0.5433 -0.8237  0.0137
 3518SOL    HW122016   4.285   0.032   3.885 -0.3452 -1.0095  0.7511
 3518SOL    HW222017   4.390   0.112   3.836  2.0337 -1.1538  0.2982
 3519SOL     OW22018   0.966   1.748   2.964 -0.5446 -0.5381  0.2822
 3519SOL    HW122019   1.027   1.675   2.952  0.8509  0.4839  1.1969
 3519SOL    HW222020   0.946   1.756   2.871  1.6727  0.4178 -0.1119
 3520SOL     OW22021   0.520   2.938   3.807  0.3536 -0.8325  0.4141
 3520SOL    HW122022   0.443   2.896   3.771 -0.5347 -0.5634  2.0050
 3520SOL    HW222023   0.590   2.908   3.749  0.0284 -1.5565  0.4080
 3521SOL     OW22024   3.612   4.527   4.128  0.3156  0.6224  0.1201
 3521SOL    HW122025   3.629   4.437   4.098 -0.8854  0.1373  0.8791
 3521SOL    HW222026   3.698   4.568   4.126 -1.0113  3.4311  0.8940
 3522SOL     OW22027   0.465   3.987   4.157 -0.4565 -0.6635  0.3834
 3522SOL    HW122028   0.461   4.069   4.108 -1.7281 -0.0550  1.5315
 3522SOL    HW222029   0.537   4.000   4.220 -0.2429  0.1315 -0.0225
 3523SOL     OW22030   4.223   1.225   7.040  0.0459  0.1320 -0.4328
 3523SOL    HW122031   4.225   1.139   7.080  1.5903 -0.5979 -2.0495
 3523SOL    HW222032   4.192   1.273   7.116  1.2426 -1.3063  0.9739
 3524SOL     OW22033   3.580   1.226   7.622  0.1993  0.4343 -0.5754
 3524SOL    HW122034   3.631   1.154   7.587  1.0391  1.5491 -1.6489
 3524SOL    HW222035   3.653   1.284   7.644  0.0598  0.5681 -0.4616
 3525SOL     OW22036   0.914   0.256   3.288  0.2702  0.2870 -0.2966
 3525SOL    HW122037   0.916   0.227   3.196 -3.0681  0.0143 -0.3019
 3525SOL    HW222038   0.821   0.238   3.305  0.7689 -1.1257  0.8700
 3526SOL     OW22039   3.722   3.021  11.364 -0.2054 -0.4129  0.2556
 3526SOL    HW122040   3.630   2.999  11.376 -0.3719  0.0709 -0.1752
 3526SOL    HW222041   3.731   3.103  11.412  4.2119 -0.3773 -0.5888
 3527SOL     OW22042   2.555   4.006  14.098  0.1331  0.0382 -0.6706
 3527SOL    HW122043   2.460   3.998  14.095  0.2242 -1.7598  0.7232
 3527SOL    HW222044   2.572   4.046  14.013  1.8169 -1.3151 -0.9756
 3528SOL     OW22045   3.475   3.172   8.088  0.4771  0.5678  0.1177
 3528SOL    HW122046   3.487   3.257   8.129  0.6880  1.7487 -2.4094
 3528SOL    HW222047   3.380   3.164   8.090  0.6382 -1.3136  0.3179
 3529SOL     OW22048   3.982   3.197  14.391 -0.1581  0.0380  0.3556
 3529SOL    HW122049   4.009   3.146  14.468  1.0085  1.3349  0.8173
 3529SOL    HW222050   3.957   3.283  14.425 -1.1158  0.1752 -0.7188
 3530SOL     OW22051   4.267   1.179   3.126  0.2264 -0.2621 -0.3293
 3530SOL    HW122052   4.241   1.125   3.051 -2.8976  3.3014 -1.7869
 3530SOL    HW222053   4.256   1.263   3.082 -0.6742  1.5559  3.3647
 3531SOL     OW22054   3.912   2.483   5.202 -0.2555 -0.1325  0.2731
 3531SOL    HW122055   3.965   2.427   5.145  1.0787  2.6408 -1.2628
 3531SOL    HW222056   3.953   2.570   5.201  0.4920 -0.5114 -2.4183
 3532SOL     OW22057   0.647   0.661   6.894  0.2599  0.0835 -0.2283
 3532SOL    HW122058   0.687   0.622   6.972  1.5376 -1.7044 -1.7913
 3532SOL    HW222059   0.653   0.752   6.923  0.9109  0.0790 -0.3512
 3533SOL     OW22060   3.066   1.432  13.003 -0.5801  0.2192  0.0394
 3533SOL    HW122061   2.995   1.442  13.065  0.7529 -0.8082  1.7304
 3533SOL    HW222062   3.098   1.522  12.996 -0.1913  0.0716 -0.1281
 3534SOL     OW22063   1.168   4.347  11.155  0.2122 -0.3730  0.0598
 3534SOL    HW122064   1.259   4.358  11.184  0.5242 -0.4897 -0.8827
 3534SOL    HW222065   1.170   4.255  11.128 -1.0180 -0.5758  0.6607
 3535SOL     OW22066   3.364   4.640  10.869 -0.1168 -0.3586 -1.0612
 3535SOL    HW122067   3.418   4.582  10.922  1.8335  0.8019 -1.8004
 3535SOL    HW222068   3.287   4.587  10.847 -1.8504  1.7059 -0.0418
 3536SOL     OW22069   1.557   3.403   4.946 -0.2748 -0.2218  0.4005
 3536SOL    HW122070   1.531   3.483   4.991  1.8331  1.1827 -0.9275
 3536SOL    HW222071   1.503   3.347   5.001 -1.0705  0.2753  0.1205
 3537SOL     OW22072   0.350   3.052   2.677 -0.4553 -0.1256 -0.4042
 3537SOL    HW122073   0.394   3.005   2.747  0.6102 -0.0648 -1.0407
 3537SOL    HW222074   0.391   3.018   2.597 -2.7285  1.2544 -2.1832
 3538SOL     OW22075   0.804   3.085   2.508 -0.4298 -0.7437 -0.6469
 3538SOL    HW122076   0.781   3.080   2.601  2.8783  0.2406  0.2159
 3538SOL    HW222077   0.760   3.165   2.480  3.2936  0.9285 -1.6960
 3539SOL     OW22078   4.179   0.549   7.361 -0.2768  0.3893 -0.0327
 3539SOL    HW122079   4.117   0.563   7.289 -1.7163 -0.6688  1.0011
 3539SOL    HW222080   4.161   0.627   7.413  0.6116  0.4130  0.2421
 3540SOL     OW22081   2.291   2.395   3.804 -0.2741  0.1681 -0.0432
 3540SOL    HW122082   2.232   2.469   3.822  0.3839  0.3963  1.1521
 3540SOL    HW222083   2.271   2.328   3.869 -1.0653  0.8528  0.4244
 3541SOL     OW22084   1.659   2.003   7.942  0.2257  0.2763  0.1123
 3541SOL    HW122085   1.681   2.093   7.919 -0.2055  0.0555 -1.1477
 3541SOL    HW222086   1.742   1.959   7.927 -0.6285 -2.2050  2.5741
 3542SOL     OW22087   1.906   3.850   3.177 -0.5633 -0.3658 -0.0143
 3542SOL    HW122088   1.844   3.859   3.104 -0.4939 -1.0187 -0.1463
 3542SOL    HW222089   1.951   3.777   3.136  0.2729  0.0635  0.1480
 3543SOL     OW22090   0.609   1.337   4.008  0.2463  0.3287 -0.0588
 3543SOL    HW122091   0.606   1.418   3.958  4.1783  0.5532  0.0375
 3543SOL    HW222092   0.563   1.277   3.950  0.1336  1.2792 -0.9474
 3544SOL     OW22093   4.455   1.198   5.662  0.0956 -0.5461 -0.5910
 3544SOL    HW122094   4.375   1.243   5.691  1.9320  2.4649 -0.1311
 3544SOL    HW222095   4.413   1.117   5.633  1.4622 -0.2794 -3.3302
 3545SOL     OW22096   3.121   3.185   2.132 -0.1020 -0.1809  0.5810
 3545SOL    HW122097   3.026   3.176   2.120  0.2354  1.6363 -3.5528
 3545SOL    HW222098   3.128   3.186   2.227 -0.4176 -0.5263  0.6084
 3546SOL     OW22099   4.334   4.248   5.974  0.0014 -0.1605 -0.0936
 3546SOL    HW122100   4.267   4.316   5.978 -0.1677 -0.4743  2.3086
 3546SOL    HW222101   4.345   4.233   6.068 -2.1965 -1.2464 -0.0164
 3547SOL     OW22102   2.860   4.025   5.556  0.5671  0.0098 -0.0584
 3547SOL    HW122103   2.810   4.038   5.637 -0.2589  0.5378 -0.6554
 3547SOL    HW222104   2.916   4.102   5.562 -0.0265  0.4004  0.5123
 3548SOL     OW22105   2.261   3.393   6.093 -0.0170 -0.0073 -0.0194
 3548SOL    HW122106   2.273   3.302   6.063  0.3954 -0.8181  2.6160
 3548SOL    HW222107   2.353   3.416   6.107 -0.0979  0.1510  0.2361
 3549SOL     OW22108   0.710   1.928  14.582 -0.4033  0.2901  0.3134
 3549SOL    HW122109   0.710   1.841  14.622  2.6896  0.2977  0.3214
 3549SOL    HW222110   0.622   1.956  14.605  0.4448  1.8261  1.6241
 3550SOL     OW22111   2.747   3.891  10.751  0.2729  0.3496 -0.1820
 3550SOL    HW122112   2.657   3.894  10.783  0.6415 -2.4016  1.0404
 3550SOL    HW222113   2.781   3.806  10.779  1.5396  0.9376  0.0675
 3551SOL     OW22114   2.389   4.603  16.837  0.2940 -0.1009  0.0639
 3551SOL    HW122115   2.383   4.635  16.747 -1.3302 -1.4044 -0.2976
 3551SOL    HW222116   2.407   4.510  16.821  0.2645  0.1029 -1.1390
 3552SOL     OW22117   2.341   2.341  15.851  0.3259 -0.6512  0.1134
 3552SOL    HW122118   2.418   2.304  15.893  1.8314  0.2971 -1.7612
 3552SOL    HW222119   2.358   2.317  15.760  0.6213  0.6001 -0.1611
 3553SOL     OW22120   0.541   0.043   7.398  0.5804 -0.3477 -0.2814
 3553SOL    HW122121   0.506   4.722   7.476 -1.2995 -1.4623 -1.7317
 3553SOL    HW222122   0.460   0.070   7.356  0.2832 -0.9290 -0.0866
 3554SOL     OW22123   1.449   0.058  17.497  0.5279 -0.5122  0.3784
 3554SOL    HW122124   1.539   0.059  17.529  0.9875 -1.9697 -0.8550
 3554SOL    HW222125   1.417   0.133  17.548 -0.0897 -0.0757 -0.6639
 3555SOL     OW22126   1.303   3.989  13.573  0.2809 -0.6355  0.2515
 3555SOL    HW122127   1.340   4.016  13.657 -1.4380 -0.7366  1.0400
 3555SOL    HW222128   1.220   4.036  13.579  2.3207  3.1121 -0.5627
 3556SOL     OW22129   0.423   4.677   2.628 -0.2421  0.0813 -0.5900
 3556SOL    HW122130   0.506   4.659   2.672 -0.5083 -1.4642 -0.7305
 3556SOL    HW222131   0.462   4.706   2.546 -0.6179  0.5328 -0.6115
 3557SOL     OW22132   2.443   1.771   8.973  0.1955  0.0206  0.3258
 3557SOL    HW122133   2.423   1.864   8.976 -0.4151 -0.1470  1.5183
 3557SOL    HW222134   2.356   1.731   8.964 -0.1125  0.5011  1.2116
 3558SOL     OW22135   1.188   0.368   0.499 -0.5493  1.0237  0.1562
 3558SOL    HW122136   1.260   0.334   0.552  0.0978 -1.5822 -2.4156
 3558SOL    HW222137   1.235   0.444   0.464  1.1422 -0.3140 -0.4696
 3559SOL     OW22138   0.528   4.458   7.179  0.0788  0.3487  0.3994
 3559SOL    HW122139   0.498   4.482   7.266  1.6255 -0.9787  1.3012
 3559SOL    HW222140   0.463   4.402   7.137  1.4646 -1.1039  0.1785
 3560SOL     OW22141   3.652   3.657   3.871 -0.5659 -0.4104  0.2636
 3560SOL    HW122142   3.725   3.716   3.855 -2.3223  1.5989 -0.2485
 3560SOL    HW222143   3.700   3.620   3.946 -0.6555  0.3114  0.6734
 3561SOL     OW22144   2.992   1.816   6.642 -0.2880  0.1833  0.1083
 3561SOL    HW122145   3.035   1.890   6.683  0.5786  0.9786 -2.2886
 3561SOL    HW222146   3.047   1.741   6.667 -0.5943  0.5133  1.8029
 3562SOL     OW22147   4.258   2.269   8.386 -0.1376  0.0879 -0.2907
 3562SOL    HW122148   4.328   2.276   8.322 -0.7419 -0.8399 -1.0432
 3562SOL    HW222149   4.234   2.177   8.389 -1.3948  0.4391  0.4257
 3563SOL     OW22150   1.447   0.718  13.789 -0.1413  0.3097 -0.2908
 3563SOL    HW122151   1.522   0.757  13.745  2.1232 -1.7235  1.8070
 3563SOL    HW222152   1.467   0.712  13.882 -1.5020 -1.5484 -0.1048
 3564SOL     OW22153   0.151   1.377   2.042 -0.3626 -0.3780  0.1296
 3564SOL    HW122154   0.130   1.420   2.125  0.3024 -0.8622  0.5444
 3564SOL    HW222155   0.076   1.394   1.985  0.0285  0.0161 -0.2622
 3565SOL     OW22156   4.380   0.295   3.789  0.2910 -0.4009  1.0717
 3565SOL    HW122157   4.350   0.270   3.702  0.4768  2.7109  0.1087
 3565SOL    HW222158   4.459   0.345   3.768  0.5829 -1.3259 -0.0162
 3566SOL     OW22159   3.711   4.483   8.379  0.1916 -0.7167 -0.0226
 3566SOL    HW122160   3.698   4.505   8.287 -1.2190 -1.1174  0.0720
 3566SOL    HW222161   3.627   4.444   8.403 -0.7493  0.9316 -0.6662
 3567SOL     OW22162   1.387   3.800  12.670  0.3799 -0.0042  0.4850
 3567SOL    HW122163   1.344   3.716  12.684  2.4167 -1.2086 -0.4859
 3567SOL    HW222164   1.414   3.826  12.758  1.3887  1.2395 -0.1954
 3568SOL     OW22165   2.783   1.801   0.037  0.3354 -0.0391 -1.0064
 3568SOL    HW122166   2.848   1.799  17.660  0.1244 -0.5337 -1.1900
 3568SOL    HW222167   2.826   1.861   0.098 -0.6226  0.0185 -0.3800
 3569SOL     OW22168   4.040   0.366  12.197 -0.2141  0.2982  0.2991
 3569SOL    HW122169   4.113   0.317  12.157 -0.0434  1.4929 -0.8557
 3569SOL    HW222170   3.979   0.292  12.196  0.0474  0.0528  2.4414
 3570SOL     OW22171   0.415   3.058   3.518  0.1153  0.6059 -0.4370
 3570SOL    HW122172   0.419   2.997   3.444 -0.2154 -1.3527  1.1522
 3570SOL    HW222173   0.509   3.074   3.526  0.1044  1.3465 -1.8314
 3571SOL     OW22174   4.282   1.732  10.405 -0.0026 -0.7484 -0.4256
 3571SOL    HW122175   4.321   1.756  10.321  1.9617 -0.9575  0.4146
 3571SOL    HW222176   4.221   1.659  10.395 -0.8009 -0.0912 -0.3195
 3572SOL     OW22177   2.227   2.368   5.727 -0.4084 -0.3552  0.5965
 3572SOL    HW122178   2.237   2.285   5.679 -3.8216  0.1809 -1.0529
 3572SOL    HW222179   2.144   2.400   5.691 -0.9725  0.7927  2.8769
 3573SOL     OW22180   2.842   0.437   5.126  0.2281  0.1806 -0.1216
 3573SOL    HW122181   2.808   0.503   5.185  2.0871  2.1855 -1.2808
 3573SOL    HW222182   2.859   0.378   5.200 -0.2294 -1.5356 -1.3686
 3574SOL     OW22183   4.262   0.788   4.082 -0.1741 -0.0711  0.0463
 3574SOL    HW122184   4.211   0.793   4.163 -1.6827  0.6051 -0.9468
 3574SOL    HW222185   4.242   0.702   4.044  0.1290  0.1180 -0.5308
 3575SOL     OW22186   3.587   3.005   8.482  0.2818 -0.0554  0.3593
 3575SOL    HW122187   3.615   3.035   8.569  1.5536 -0.9992  0.2662
 3575SOL    HW222188   3.595   2.912   8.499  3.4037  0.4948  1.9587
 3576SOL     OW22189   2.172   3.166   6.317  0.2952 -0.3382  0.0526
 3576SOL    HW122190   2.167   3.182   6.222 -1.4749  0.4723  0.2758
 3576SOL    HW222191   2.263   3.143   6.333  1.0734  3.1584  0.6226
 3577SOL     OW22192   3.327   4.509  15.873  0.0766  0.5804  0.0137
 3577SOL    HW122193   3.255   4.524  15.934 -1.4197 -1.8675 -1.1221
 3577SOL    HW222194   3.398   4.465  15.919 -1.2508 -1.3983  0.1462
 3578SOL     OW22195   1.705   0.276   3.318 -0.4020  0.1909 -0.4337
 3578SOL    HW122196   1.733   0.252   3.229 -2.0297 -0.7661 -0.6850
 3578SOL    HW222197   1.676   0.189   3.343 -0.8421  1.5211  3.5540
 3579SOL     OW22198   2.063   2.338  10.901 -0.3168 -0.3540  0.4926
 3579SOL    HW122199   2.004   2.285  10.847  1.8628 -0.1583 -2.0987
 3579SOL    HW222200   2.039   2.421  10.861 -2.6128 -0.3719  1.8270
 3580SOL     OW22201   2.880   0.999   0.685  0.0383  0.6058 -0.1378
 3580SOL    HW122202   2.860   1.092   0.695  0.2266  0.9484 -3.0290
 3580SOL    HW222203   2.794   0.959   0.667  0.4542 -0.5168  0.3649
 3581SOL     OW22204   3.079   0.177   0.143 -0.2537  0.8429 -0.3800
 3581SOL    HW122205   3.124   0.259   0.163 -0.0297  1.7994 -4.8668
 3581SOL    HW222206   3.111   0.104   0.196 -2.0604  0.6961  0.5175
 3582SOL     OW22207   2.761   1.744   1.934  0.4796 -0.3765 -0.4199
 3582SOL    HW122208   2.711   1.755   1.854 -1.3804  2.3741  1.1192
 3582SOL    HW222209   2.792   1.834   1.932 -0.2011 -0.1539 -0.8579
 3583SOL     OW22210   3.106   1.975   4.916 -0.7724 -0.3132 -0.0715
 3583SOL    HW122211   3.122   2.067   4.895  3.0358 -1.5750 -2.6722
 3583SOL    HW222212   3.159   1.974   4.996  0.6287  0.5088 -0.9932
 3584SOL     OW22213   1.851   2.601  12.071  0.3785  0.3258  0.7222
 3584SOL    HW122214   1.813   2.665  12.131 -1.0878 -1.8463  2.1182
 3584SOL    HW222215   1.794   2.526  12.092 -0.6324  1.1066  0.7476
 3585SOL     OW22216   2.870   2.730  11.121 -0.2141 -0.2888  0.1290
 3585SOL    HW122217   2.914   2.723  11.206 -1.6957  2.3719  1.1127
 3585SOL    HW222218   2.932   2.780  11.068 -0.4229  0.7446  0.8461
 3586SOL     OW22219   2.594   2.968   7.865 -0.2362  0.6664 -0.1787
 3586SOL    HW122220   2.665   2.940   7.922 -0.4113 -0.0197 -0.2951
 3586SOL    HW222221   2.525   2.913   7.902  1.4120 -0.1901  1.5964
 3587SOL     OW22222   3.524   1.041   6.045 -0.0358 -0.4916 -0.2437
 3587SOL    HW122223   3.546   1.134   6.048 -0.3898 -0.4977  2.5921
 3587SOL    HW222224   3.558   1.021   6.132  0.3609 -0.0108 -0.2926
 3588SOL     OW22225   4.140   4.692  13.673 -0.0484  0.2428  0.3186
 3588SOL    HW122226   4.107   4.710  13.761 -0.5512 -0.9992  0.3897
 3588SOL    HW222227   4.234   4.711  13.673  0.2271 -1.1417 -0.0894
 3589SOL     OW22228   1.669   4.234  11.263  0.0768  0.5693 -1.1142
 3589SOL    HW122229   1.712   4.176  11.326  0.8768  0.7168 -1.5245
 3589SOL    HW222230   1.688   4.188  11.182 -4.2604 -0.8797 -1.2685
 3590SOL     OW22231   3.993   2.100   6.381 -0.4642  0.6928  0.3896
 3590SOL    HW122232   4.046   2.071   6.456 -0.3723  1.5752  0.6722
 3590SOL    HW222233   3.915   2.046   6.389  0.7546 -1.1729 -0.1450
 3591SOL     OW22234   2.559   2.743   3.973 -0.1119 -0.3053  0.3587
 3591SOL    HW122235   2.579   2.772   4.062  0.0774 -0.8231  0.4818
 3591SOL    HW222236   2.467   2.719   3.984 -0.2828 -0.6592 -1.9496
 3592SOL     OW22237   1.314   4.092  16.245 -0.0411  0.5823 -0.3985
 3592SOL    HW122238   1.275   4.007  16.223  1.6170 -0.4982  0.9145
 3592SOL    HW222239   1.372   4.067  16.317 -0.4945  2.5735  0.6548
 3593SOL     OW22240   3.570   3.535   3.350  0.8253 -0.4168  0.2279
 3593SOL    HW122241   3.633   3.563   3.416  1.6558 -0.3029 -0.6257
 3593SOL    HW222242   3.546   3.447   3.380 -0.2325 -1.0374 -2.3685
 3594SOL     OW22243   3.118   1.107   9.724 -0.2545  0.1332 -0.2401
 3594SOL    HW122244   3.167   1.036   9.684 -0.8899 -1.6682  2.2432
 3594SOL    HW222245   3.188   1.148   9.774 -0.6350 -0.5683  0.8594
 3595SOL     OW22246   0.907   3.617   6.649  0.3231  0.1819 -0.5706
 3595SOL    HW122247   0.861   3.669   6.715  0.4672  2.2512 -2.1100
 3595SOL    HW222248   0.931   3.543   6.705 -3.3114 -2.1568 -2.0331
 3596SOL     OW22249   0.654   0.173   3.196 -0.0514 -0.5663  0.0032
 3596SOL    HW122250   0.575   0.119   3.190 -0.9106  0.9675 -2.8979
 3596SOL    HW222251   0.713   0.135   3.130 -1.7982 -1.0388 -1.2925
 3597SOL     OW22252   0.730   2.234   8.110 -0.1282  0.0908 -0.0156
 3597SOL    HW122253   0.749   2.238   8.204  2.1205 -0.7243 -0.4535
 3597SOL    HW222254   0.745   2.324   8.080 -1.1023  0.2969  0.1072
 3598SOL     OW22255   1.664   0.356   3.850  0.1153  0.0804 -0.1886
 3598SOL    HW122256   1.671   0.351   3.754 -0.9667  0.5895 -0.2922
 3598SOL    HW222257   1.756   0.341   3.871 -0.8045 -3.7161  1.1380
 3599SOL     OW22258   3.159   3.922   4.411 -0.3963  0.1344 -0.4558
 3599SOL    HW122259   3.113   3.855   4.461  0.1241 -0.8017 -1.2434
 3599SOL    HW222260   3.245   3.881   4.404 -1.0586 -1.0566 -1.5770
 3600SOL     OW22261   0.053   3.931   8.439 -0.1371  0.1149 -0.1030
 3600SOL    HW122262   0.122   3.946   8.375 -0.4483 -1.0642 -0.7114
 3600SOL    HW222263   0.104   3.952   8.518 -1.7706 -2.2156  1.5691
 3601SOL     OW22264   0.580   2.654  14.179 -0.1680  0.3432  0.0106
 3601SOL    HW122265   0.667   2.687  14.202 -0.1765  0.7915 -0.6002
 3601SOL    HW222266   0.562   2.726  14.118 -0.9539 -1.0905 -1.4595
 3602SOL     OW22267   1.675   4.700   4.031 -0.1507 -0.0342  0.1021
 3602SOL    HW122268   1.747   4.708   3.968 -0.2501 -0.9987 -0.1311
 3602SOL    HW222269   1.723   4.681   4.111  0.5363  2.3471  0.2750
 3603SOL     OW22270   2.785   1.184   3.609 -0.5109 -0.0342 -0.5045
 3603SOL    HW122271   2.862   1.241   3.607  0.6291 -1.4884  1.9560
 3603SOL    HW222272   2.767   1.183   3.515 -0.5193 -0.0065 -0.5031
 3604SOL     OW22273   3.707   0.930   4.634 -0.5053 -0.0799 -0.2740
 3604SOL    HW122274   3.794   0.889   4.636  0.6142  2.3651  1.6654
 3604SOL    HW222275   3.730   1.006   4.580  0.9743 -1.0011 -0.9437
 3605SOL     OW22276   2.228   1.700   0.425  0.2078 -0.0220 -0.0082
 3605SOL    HW122277   2.243   1.775   0.483 -0.9339 -0.9438  1.4687
 3605SOL    HW222278   2.268   1.742   0.348  0.9505  0.1254  0.4579
 3606SOL     OW22279   3.104   4.706   6.985 -0.3838  0.0154  0.3928
 3606SOL    HW122280   3.170   0.029   6.933 -2.3178  1.6143 -0.6705
 3606SOL    HW222281   3.114   4.613   6.966 -1.0709 -0.2261  1.2109
 3607SOL     OW22282   3.034   2.101  17.173 -0.4933 -0.1146  0.3324
 3607SOL    HW122283   2.957   2.062  17.131 -0.7588 -0.4142  1.1027
 3607SOL    HW222284   3.107   2.054  17.134 -0.7120 -0.3824  0.2470
 3608SOL     OW22285   1.997   2.717  15.313 -0.5723  0.4959 -0.0996
 3608SOL    HW122286   2.065   2.727  15.247 -1.1410 -0.4204 -0.8325
 3608SOL    HW222287   2.041   2.729  15.397  1.3804 -1.2655 -0.8666
 3609SOL     OW22288   3.359   0.558   9.701 -0.3757 -0.1842 -0.5211
 3609SOL    HW122289   3.447   0.522   9.704  0.4799  1.9939  0.3881
 3609SOL    HW222290   3.341   0.560   9.795  1.1651 -1.9443 -0.1819
 3610SOL     OW22291   0.878   1.730   2.705 -0.0418 -0.5217  0.3973
 3610SOL    HW122292   0.955   1.700   2.657  1.2597  3.1580  0.1709
 3610SOL    HW222293   0.813   1.749   2.638 -1.7474  0.8503  2.4256
 3611SOL     OW22294   2.126   3.397   1.720 -0.3940  0.3740 -0.0324
 3611SOL    HW122295   2.137   3.388   1.625 -0.5748 -2.0901  0.1803
 3611SOL    HW222296   2.079   3.480   1.723  2.0725  1.7750  0.0716
 3612SOL     OW22297   0.315   3.406   6.787  0.4061  0.6557  0.2543
 3612SOL    HW122298   0.293   3.338   6.723 -2.4363  1.7438  0.0734
 3612SOL    HW222299   0.277   3.373   6.868 -1.3738  2.1484  0.0307
 3613SOL     OW22300   2.706   3.445  10.996 -0.0622 -0.2690 -0.1154
 3613SOL    HW122301   2.786   3.394  11.009  1.0698  1.4822 -0.3108
 3613SOL    HW222302   2.661   3.433  11.080 -0.0936  2.3351  0.2513
 3614SOL     OW22303   4.068   3.783   4.017 -0.2533  0.0644  0.2625
 3614SOL    HW122304   4.101   3.697   4.042 -2.1494 -0.0028  2.5653
 3614SOL    HW222305   4.131   3.841   4.059 -1.4185  1.3470  0.2490
 3615SOL     OW22306   1.544   3.007   8.166 -0.3293  0.3181 -0.5655
 3615SOL    HW122307   1.536   3.018   8.071  2.4857  0.7901 -0.7441
 3615SOL    HW222308   1.475   2.946   8.191  0.5300 -0.6693 -0.6056
 3616SOL     OW22309   3.840   0.284   8.908 -0.4999  0.4336 -0.2565
 3616SOL    HW122310   3.804   0.359   8.954  0.5230  1.2900 -0.8454
 3616SOL    HW222311   3.895   0.243   8.975 -1.4189 -0.2587  0.0733
 3617SOL     OW22312   1.170   1.552   6.517 -0.2488 -0.1624  0.5249
 3617SOL    HW122313   1.159   1.528   6.426 -0.0281  0.9454  0.2008
 3617SOL    HW222314   1.263   1.574   6.530  0.0161  1.0178 -3.3272
 3618SOL     OW22315   2.364   1.527  16.571  0.1708  0.0886 -0.2246
 3618SOL    HW122316   2.357   1.466  16.498  0.0998 -2.9669  2.3345
 3618SOL    HW222317   2.444   1.574  16.547  0.5276  0.3668  1.4668
 3619SOL     OW22318   0.038   3.254  16.964 -0.2466  0.4265  0.6708
 3619SOL    HW122319   0.094   3.176  16.965 -0.3165  0.3325 -1.8684
 3619SOL    HW222320   0.028   3.272  17.057 -1.8948  0.1915  0.5422
 3620SOL     OW22321   3.801   2.790  11.046 -0.3812  0.6462 -0.0911
 3620SOL    HW122322   3.730   2.794  11.109 -0.0390  1.0137  0.2683
 3620SOL    HW222323   3.772   2.821  10.960  0.8359 -0.9870 -1.1119
 3621SOL     OW22324   4.319   0.304   1.116 -0.1908  0.9135 -0.3378
 3621SOL    HW122325   4.236   0.274   1.152  1.2578 -0.0125  2.1860
 3621SOL    HW222326   4.330   0.229   1.058  2.8498  0.2106  1.1036
 3622SOL     OW22327   3.323   3.315   7.267 -0.4589 -0.2631 -0.6038
 3622SOL    HW122328   3.279   3.232   7.284 -0.7455  0.1855  0.8076
 3622SOL    HW222329   3.299   3.368   7.343  2.2321  0.0724  0.0261
 3623SOL     OW22330   2.571   2.451   3.857 -0.4810 -0.2237  0.0434
 3623SOL    HW122331   2.620   2.387   3.908  1.4874  1.9407  0.8498
 3623SOL    HW222332   2.482   2.415   3.859  0.0305 -1.4055  0.9086
 3624SOL     OW22333   3.458   3.786   2.169  0.2572  0.1686  0.1160
 3624SOL    HW122334   3.421   3.798   2.257  0.2143  1.3215 -0.0546
 3624SOL    HW222335   3.385   3.788   2.108  1.0528  1.9100 -0.7852
 3625SOL     OW22336   4.652   0.385  17.026 -0.1190  0.3996  0.2492
 3625SOL    HW122337   4.711   0.448  17.066 -0.3126  1.5719 -1.3086
 3625SOL    HW222338   4.651   0.311  17.087 -0.7285  1.2439  1.2523
 3626SOL     OW22339   1.397   2.485   8.292  0.1891  0.2365  0.3851
 3626SOL    HW122340   1.441   2.402   8.271 -1.6173 -0.7057  0.3801
 3626SOL    HW222341   1.309   2.457   8.317 -0.6262  1.3307 -1.2817
 3627SOL     OW22342   2.719   4.278   9.462 -0.4323 -0.1421 -0.1314
 3627SOL    HW122343   2.657   4.347   9.483 -1.9181 -1.4443 -0.2052
 3627SOL    HW222344   2.678   4.240   9.384 -0.6771 -0.8882  0.3536
 3628SOL     OW22345   2.446   4.570  15.715  0.2552 -0.1442  0.6321
 3628SOL    HW122346   2.517   4.634  15.722 -0.7160  0.8854  1.0913
 3628SOL    HW222347   2.407   4.594  15.631 -0.0730 -0.9680  0.5512
 3629SOL     OW22348   4.310   2.094   3.701  0.1891 -0.3078  0.3846
 3629SOL    HW122349   4.352   2.136   3.776  0.2236 -2.9615  1.8761
 3629SOL    HW222350   4.299   2.002   3.726  0.6393 -1.3267 -3.1344
 3630SOL     OW22351   2.199   0.702   5.505  0.3840  0.3328 -0.4570
 3630SOL    HW122352   2.153   0.626   5.542  0.3859 -0.2460 -1.6482
 3630SOL    HW222353   2.141   0.767   5.544  0.0818 -1.1178  1.5258
 3631SOL     OW22354   4.318   1.406   7.728 -0.5739 -0.2166  0.4056
 3631SOL    HW122355   4.341   1.494   7.698  1.9829 -0.5240  1.4282
 3631SOL    HW222356   4.403   1.376   7.761 -0.4752  1.6870  1.9026
 3632SOL     OW22357   0.797   0.897   1.865 -0.0353  0.0063  1.2085
 3632SOL    HW122358   0.706   0.925   1.862 -0.1337 -0.4771 -0.2006
 3632SOL    HW222359   0.811   0.885   1.771 -0.4487 -1.0588  1.2838
 3633SOL     OW22360   3.586   4.550   5.284  0.3967 -0.0858 -0.0598
 3633SOL    HW122361   3.584   4.645   5.274  2.1197  0.1078  1.4107
 3633SOL    HW222362   3.671   4.528   5.244 -0.4964 -1.9470 -0.9432
 3634SOL     OW22363   2.823   1.912   5.424  0.2932 -0.1567 -0.0309
 3634SOL    HW122364   2.899   1.971   5.430  0.0431 -0.0060  1.4740
 3634SOL    HW222365   2.749   1.965   5.456 -0.0383 -1.7522  1.8101
 3635SOL     OW22366   3.256   1.240   5.564  0.5508  0.1155  0.4335
 3635SOL    HW122367   3.246   1.177   5.635 -0.3786  1.0865  1.1745
 3635SOL    HW222368   3.166   1.263   5.541  0.4533 -1.9995 -1.1976
 3636SOL     OW22369   3.856   3.397   2.328 -0.1640  0.0338  0.1374
 3636SOL    HW122370   3.920   3.327   2.338  0.5159  0.3174 -2.2542
 3636SOL    HW222371   3.913   3.473   2.332 -0.5935  0.2964  1.4486
 3637SOL     OW22372   1.711   0.562  15.525 -0.3121  0.2153  0.5871
 3637SOL    HW122373   1.637   0.597  15.475 -0.9687 -1.5792  0.3145
 3637SOL    HW222374   1.697   0.473  15.494  0.9027  0.0610  0.4780
 3638SOL     OW22375   0.715   2.463   0.606  0.1804 -0.0358 -0.2562
 3638SOL    HW122376   0.757   2.382   0.633 -0.6563 -1.0115 -1.8365
 3638SOL    HW222377   0.668   2.486   0.686 -0.1460  0.0613 -0.4721
 3639SOL     OW22378   3.754   1.003   7.705  0.0952 -0.5367 -0.4417
 3639SOL    HW122379   3.771   1.037   7.793 -0.6642 -2.1439  0.3258
 3639SOL    HW222380   3.670   0.960   7.716 -0.4964  0.2380 -1.8238
 3640SOL     OW22381   3.644   3.454   0.764  0.4560  0.2673 -0.4962
 3640SOL    HW122382   3.656   3.366   0.799 -0.5435  0.4722  0.3542
 3640SOL    HW222383   3.709   3.465   0.695  0.1607  0.8583 -0.6791
 3641SOL     OW22384   1.166   1.544   1.991 -0.3162  0.6190  0.5636
 3641SOL    HW122385   1.141   1.577   1.905  0.8404  0.0136 -0.0013
 3641SOL    HW222386   1.109   1.467   1.993  0.0285  0.3804  1.3274
 3642SOL     OW22387   4.234   1.777   6.660  0.3277  0.3134  0.4713
 3642SOL    HW122388   4.190   1.720   6.597  1.5437  0.3487 -0.3966
 3642SOL    HW222389   4.174   1.776   6.735 -1.6991 -0.2303 -1.1565
 3643SOL     OW22390   4.476   3.684  12.591 -0.0522 -0.2227  0.4936
 3643SOL    HW122391   4.554   3.721  12.634 -1.3709  1.0318  1.7880
 3643SOL    HW222392   4.495   3.696  12.498 -0.1493 -2.2851  0.2120
 3644SOL     OW22393   3.323   2.657   6.443 -0.3544  0.1065 -0.4356
 3644SOL    HW122394   3.341   2.620   6.357 -0.8251  1.7520 -1.2383
 3644SOL    HW222395   3.404   2.625   6.483 -0.2238  0.4338 -0.4335
 3645SOL     OW22396   0.792   0.889   6.983 -0.2498 -0.0897 -0.1303
 3645SOL    HW122397   0.821   0.932   6.903 -1.1651  0.3928 -0.2140
 3645SOL    HW222398   0.872   0.847   7.013 -1.0292 -1.4114  0.0884
 3646SOL     OW22399   2.623   1.255   5.403  0.1131 -0.0180  0.3303
 3646SOL    HW122400   2.668   1.334   5.435 -1.9812  0.7768  1.3404
 3646SOL    HW222401   2.644   1.202   5.480  0.9404 -0.7812 -0.4316
 3647SOL     OW22402   1.788   3.186   1.276 -0.4155 -0.4918  0.1776
 3647SOL    HW122403   1.776   3.108   1.221 -0.1461  0.0936 -0.7246
 3647SOL    HW222404   1.699   3.215   1.293  0.1154  2.3111 -1.7418
 3648SOL     OW22405   1.026   3.974  10.831  0.4247  1.0250  0.7314
 3648SOL    HW122406   0.946   3.961  10.779 -0.3531 -0.6806  2.3393
 3648SOL    HW222407   1.048   3.881  10.839 -0.9993  0.5773 -0.5974
 3649SOL     OW22408   1.613   0.801   7.579 -0.1086  0.4346 -0.0136
 3649SOL    HW122409   1.525   0.839   7.579 -1.3522 -2.5022 -2.0462
 3649SOL    HW222410   1.663   0.873   7.619  0.8257  1.2571 -2.6663
 3650SOL     OW22411   1.953   3.104   9.335  0.4923 -0.3789 -0.0594
 3650SOL    HW122412   2.034   3.154   9.326 -0.1002  0.3264 -1.5048
 3650SOL    HW222413   1.895   3.165   9.289  0.7366 -1.3279 -1.6130
 3651SOL     OW22414   1.918   0.902   5.349  0.3757  0.7425 -0.1649
 3651SOL    HW122415   1.848   0.957   5.384 -1.1436  1.0109 -3.5223
 3651SOL    HW222416   1.872   0.865   5.273  0.1139  1.9652 -0.5996
 3652SOL     OW22417   1.498   2.335   2.487  0.4108 -0.7030  0.1735
 3652SOL    HW122418   1.573   2.311   2.432  0.5856  0.8736 -0.2884
 3652SOL    HW222419   1.475   2.245   2.508 -1.5849 -0.6255 -1.6028
 3653SOL     OW22420   0.761   1.337   2.253  0.1177  0.1225  0.0974
 3653SOL    HW122421   0.738   1.272   2.187  0.1211 -0.3642  0.5722
 3653SOL    HW222422   0.844   1.301   2.283 -0.4334 -2.0778 -1.0065
 3654SOL     OW22423   3.548   3.676   8.511  0.1604 -0.0649  0.0487
 3654SOL    HW122424   3.491   3.689   8.436 -2.7335 -0.0428  2.2481
 3654SOL    HW222425   3.614   3.627   8.463 -1.9044 -0.2696 -2.5393
 3655SOL     OW22426   0.672   1.172   8.498 -0.2793  0.4261  0.3111
 3655SOL    HW122427   0.744   1.214   8.546 -0.0277  0.8381 -0.4198
 3655SOL    HW222428   0.624   1.126   8.567 -2.4165 -2.2139 -2.9402
 3656SOL     OW22429   3.387   2.108  13.018 -0.9425  0.1328  0.4737
 3656SOL    HW122430   3.455   2.040  13.012 -1.6796 -0.3809 -1.9774
 3656SOL    HW222431   3.392   2.126  13.112  3.1661  0.6053  0.1982
 3657SOL     OW22432   0.741   4.104  14.607 -0.4386  0.0146 -0.1643
 3657SOL    HW122433   0.723   4.010  14.618 -0.8001  0.0974 -0.0327
 3657SOL    HW222434   0.779   4.107  14.519  0.6385 -0.4344  0.2933
 3658SOL     OW22435   4.295   0.714  13.316 -0.5027 -0.2075 -1.0057
 3658SOL    HW122436   4.211   0.688  13.278 -0.2217  0.3458 -1.9977
 3658SOL    HW222437   4.346   0.711  13.235 -0.5394  0.0400 -1.0380
 3659SOL     OW22438   1.742   4.709  12.594  0.6277 -0.5582  0.6108
 3659SOL    HW122439   1.659   4.668  12.618 -0.7137  2.8882  1.9250
 3659SOL    HW222440   1.764   0.025  12.679  0.5535  1.7478 -0.4226
 3660SOL     OW22441   3.198   1.728   8.313 -0.4651  0.3683  0.4387
 3660SOL    HW122442   3.253   1.786   8.261  1.4791  0.1030  2.2248
 3660SOL    HW222443   3.155   1.779   8.382  0.3677  0.6258  0.7637
 3661SOL     OW22444   3.770   2.319  15.775 -0.4186 -0.6488 -0.3232
 3661SOL    HW122445   3.804   2.292  15.690 -1.7098 -0.9460 -0.7399
 3661SOL    HW222446   3.802   2.408  15.789  2.4790 -2.2061  2.9852
 3662SOL     OW22447   3.842   3.113  15.448  0.1756 -0.8111  0.4224
 3662SOL    HW122448   3.782   3.147  15.515 -0.3050  0.7922 -0.8051
 3662SOL    HW222449   3.888   3.049  15.501  1.6822 -1.2698 -1.4347
 3663SOL     OW22450   2.176   1.390  12.212 -0.5863  0.4474  0.9718
 3663SOL    HW122451   2.125   1.376  12.132  0.4185 -0.0850  0.4176
 3663SOL    HW222452   2.170   1.307  12.260 -0.2811 -0.9120 -1.2917
 3664SOL     OW22453   3.775   4.458   1.539 -0.6546 -0.5234 -0.0921
 3664SOL    HW122454   3.682   4.457   1.514 -0.9314  0.6080  0.8389
 3664SOL    HW222455   3.813   4.485   1.456 -0.9832 -0.9766 -0.3868
 3665SOL     OW22456   4.618   2.029   5.926 -0.2523  0.2760 -0.1451
 3665SOL    HW122457   4.660   1.996   5.847  1.2634  0.8214  0.4301
 3665SOL    HW222458   4.602   1.947   5.974 -0.7931  1.0068  0.9092
 3666SOL     OW22459   3.945   0.555   4.519  0.0412 -1.1634 -0.0042
 3666SOL    HW122460   3.912   0.534   4.432 -0.7287  1.5765 -0.3751
 3666SOL    HW222461   4.010   0.621   4.495 -0.4696 -1.4089 -2.0784
 3667SOL     OW22462   2.559   2.427   5.872 -0.7782 -0.4832 -0.2057
 3667SOL    HW122463   2.478   2.408   5.918 -0.7473 -1.8175 -0.7079
 3667SOL    HW222464   2.624   2.369   5.912 -0.7376  1.7270  2.9609
 3668SOL     OW22465   1.823   3.789  11.751  0.0155  0.1400 -0.2070
 3668SOL    HW122466   1.879   3.812  11.677  1.0597 -0.4288  0.4181
 3668SOL    HW222467   1.739   3.833  11.734  0.2866 -0.3771 -2.9397
 3669SOL     OW22468   3.667   1.791   7.710  0.5013  0.0871 -0.3895
 3669SOL    HW122469   3.630   1.814   7.795  0.3065  2.7632 -1.1790
 3669SOL    HW222470   3.601   1.840   7.660  1.1920  1.2968 -0.1213
 3670SOL     OW22471   2.017   0.159   7.995  0.6393 -0.6166  0.1839
 3670SOL    HW122472   2.052   0.151   8.084 -0.9589  0.1077  0.8675
 3670SOL    HW222473   2.084   0.106   7.950  0.8714 -1.8198  1.9376
 3671SOL     OW22474   1.038   3.478  12.899  0.4967 -0.3461 -0.0547
 3671SOL    HW122475   0.994   3.544  12.845 -2.9598 -0.0914  3.1029
 3671SOL    HW222476   0.973   3.408  12.906  0.6848 -0.6601 -1.4427
 3672SOL     OW22477   1.308   2.358   4.855  0.0138  0.2462  0.0813
 3672SOL    HW122478   1.246   2.287   4.870  2.2491 -1.4348  1.3606
 3672SOL    HW222479   1.259   2.402   4.785  1.2020 -1.3288 -1.7314
 3673SOL     OW22480   0.112   3.861   1.818 -0.4192 -0.0418 -0.0923
 3673SOL    HW122481   0.054   3.791   1.789  0.1657 -1.1720  1.5020
 3673SOL    HW222482   0.161   3.866   1.735 -0.6684 -1.3723 -0.3212
 3674SOL     OW22483   4.425   4.015   8.609 -0.2679  0.2328  0.5254
 3674SOL    HW122484   4.386   4.049   8.689  1.1176  0.5829  1.0508
 3674SOL    HW222485   4.348   4.009   8.553  0.4005 -1.6949 -0.1889
 3675SOL     OW22486   3.331   3.485   3.517  0.6222  0.5796 -0.2127
 3675SOL    HW122487   3.335   3.516   3.607 -4.6324  1.1958 -0.1687
 3675SOL    HW222488   3.419   3.515   3.494  0.1888  1.9747 -0.0523
 3676SOL     OW22489   4.564   1.288   5.880 -0.8690 -0.1810  0.2644
 3676SOL    HW122490   4.628   1.219   5.893 -2.3759 -2.1432 -2.6621
 3676SOL    HW222491   4.527   1.264   5.795  0.8940  0.5375 -0.7074
 3677SOL     OW22492   3.173   2.174   9.435 -0.4952 -0.2599 -0.0640
 3677SOL    HW122493   3.142   2.220   9.513  0.4414  0.7463 -0.2849
 3677SOL    HW222494   3.261   2.206   9.416  0.6898 -2.3339  1.9533
 3678SOL     OW22495   1.110   0.117  15.574 -0.4539 -0.4700 -0.7411
 3678SOL    HW122496   1.092   0.207  15.599  0.6602 -1.1718  2.5169
 3678SOL    HW222497   1.045   0.069  15.626 -0.1660  1.7693  1.6706
 3679SOL     OW22498   2.434   2.696   3.675  0.1739 -0.4091  0.6027
 3679SOL    HW122499   2.424   2.601   3.664  0.8385 -0.3521 -0.4845
 3679SOL    HW222500   2.472   2.712   3.589 -2.0965 -3.2393 -0.9204
 3680SOL     OW22501   1.838   4.431   6.021 -0.4422 -0.1440 -0.1986
 3680SOL    HW122502   1.748   4.460   6.038  0.0861  0.6864  1.1095
 3680SOL    HW222503   1.829   4.346   6.064  1.4373 -0.3501 -0.2361
 3681SOL     OW22504   0.563   1.997   3.196  0.4897 -0.3540 -0.2521
 3681SOL    HW122505   0.509   2.029   3.124 -1.0736 -0.3752  0.9018
 3681SOL    HW222506   0.645   1.995   3.146 -0.7763 -0.2079 -2.3293
 3682SOL     OW22507   0.734   1.211   4.223  0.3267  0.4611 -0.0564
 3682SOL    HW122508   0.678   1.249   4.155  0.7530  1.5749  0.2224
 3682SOL    HW222509   0.789   1.159   4.165  0.1994  0.7111 -0.3990
 3683SOL     OW22510   2.353   2.753   0.617  0.0161  0.6651  0.3304
 3683SOL    HW122511   2.304   2.795   0.688  0.5110 -0.6449  1.4613
 3683SOL    HW222512   2.387   2.825   0.565 -1.0828  0.5848 -0.4778
 3684SOL     OW22513   0.518   1.585   3.611 -0.0776 -0.1960  0.0850
 3684SOL    HW122514   0.527   1.680   3.625 -1.2322  0.0093 -0.5943
 3684SOL    HW222515   0.572   1.577   3.532  0.0280 -0.1117  0.1477
 3685SOL     OW22516   4.705   0.846  12.995  0.2385  0.2579  0.3694
 3685SOL    HW122517   0.050   0.790  13.032 -0.8862 -1.3174  0.0794
 3685SOL    HW222518   4.648   0.781  12.954  0.0362  0.8351 -0.2720
 3686SOL     OW22519   3.268   3.953   0.860 -0.5695 -0.1593 -0.8971
 3686SOL    HW122520   3.300   3.953   0.951 -0.8271 -1.4268 -0.7977
 3686SOL    HW222521   3.186   3.904   0.865 -0.7613 -0.0463 -2.8472
 3687SOL     OW22522   0.464   2.095  10.303  0.6396  0.0321  0.0106
 3687SOL    HW122523   0.460   2.029  10.371  0.0694  0.7579  0.6872
 3687SOL    HW222524   0.385   2.078  10.251  1.2741 -0.6358 -0.7317
 3688SOL     OW22525   1.796   4.280   5.442  0.5084  0.3647 -0.3444
 3688SOL    HW122526   1.771   4.361   5.486  1.1077  1.4584 -1.9813
 3688SOL    HW222527   1.846   4.238   5.512  0.6365  1.5374  0.2528
 3689SOL     OW22528   1.251   1.886  10.408  0.1339 -0.2820 -0.4548
 3689SOL    HW122529   1.315   1.817  10.390 -1.4937 -1.2193 -2.6039
 3689SOL    HW222530   1.300   1.966  10.392  1.6538 -1.1245  0.0165
 3690SOL     OW22531   4.107   4.271   1.582 -0.3868  0.0968 -0.1382
 3690SOL    HW122532   4.070   4.207   1.643  0.1071  1.4495  1.5625
 3690SOL    HW222533   4.164   4.319   1.641 -2.6929  2.8304 -0.1477
 3691SOL     OW22534   3.931   4.196   9.068  0.5792  0.4725 -0.0749
 3691SOL    HW122535   3.983   4.116   9.053 -1.4500 -0.9428  0.4159
 3691SOL    HW222536   3.983   4.259   9.018 -0.5654  1.4623 -0.0039
 3692SOL     OW22537   0.820   3.223  12.839  0.5057 -0.3719 -0.2990
 3692SOL    HW122538   0.879   3.149  12.849 -1.2514 -1.4628  1.9339
 3692SOL    HW222539   0.754   3.176  12.788  0.1522  0.1795 -0.3491
 3693SOL     OW22540   3.857   1.328  16.146  0.2608  0.0985  0.4377
 3693SOL    HW122541   3.836   1.269  16.074 -0.2874 -0.2442  0.8869
 3693SOL    HW222542   3.928   1.282  16.190  2.7456  2.1003 -1.4843
 3694SOL     OW22543   1.154   1.311   6.325  0.3320  0.0547  0.4394
 3694SOL    HW122544   1.229   1.255   6.346 -0.8524 -1.2282  1.2469
 3694SOL    HW222545   1.079   1.278   6.374  1.3104 -1.3668  0.9720
 3695SOL     OW22546   3.117   0.353   9.819 -0.1355 -0.3762 -0.3987
 3695SOL    HW122547   3.113   0.395   9.733 -0.9675 -2.6589 -1.4834
 3695SOL    HW222548   3.203   0.385   9.844  0.0743 -1.0720 -0.2408
 3696SOL     OW22549   0.894   3.919  16.534  0.1911  0.1017 -0.3489
 3696SOL    HW122550   0.912   3.830  16.564  0.8644  0.6184  0.7795
 3696SOL    HW222551   0.927   3.978  16.602 -1.4085 -1.8071  2.1006
 3697SOL     OW22552   4.627   3.752   5.082  0.2101  0.4884 -0.8335
 3697SOL    HW122553   4.578   3.672   5.099  0.0715  0.9165  0.8338
 3697SOL    HW222554   4.680   3.757   5.161 -4.0296  0.3978  2.0605
 3698SOL     OW22555   0.114   0.498   4.120 -0.0168  0.0286  0.2142
 3698SOL    HW122556   0.089   0.583   4.085  0.6491  0.4583  0.7890
 3698SOL    HW222557   0.064   0.491   4.201  1.4777  2.4597  1.3393
 3699SOL     OW22558   1.218   0.131   3.032  0.2660 -0.3720  0.0359
 3699SOL    HW122559   1.190   0.210   2.986  2.3178 -0.4730 -1.3781
 3699SOL    HW222560   1.309   0.154   3.049 -0.2037  1.4668  0.0396
 3700SOL     OW22561   2.608   4.364  12.202  0.4454  0.2135 -0.2132
 3700SOL    HW122562   2.665   4.289  12.219  0.0245 -0.2258 -0.7525
 3700SOL    HW222563   2.592   4.350  12.109  1.8231  1.6128 -0.6658
 3701SOL     OW22564   1.496   2.567   4.433  0.7846 -0.0727  0.3197
 3701SOL    HW122565   1.453   2.496   4.386 -0.8228  0.0533  1.6028
 3701SOL    HW222566   1.567   2.522   4.478 -1.2518 -1.4233  2.1336
 3702SOL     OW22567   2.774   0.535   9.614 -0.4538  0.5532  0.4796
 3702SOL    HW122568   2.826   0.551   9.693 -1.9384  1.8348  1.1926
 3702SOL    HW222569   2.731   0.618   9.594 -0.0267  0.4038 -1.0696
 3703SOL     OW22570   1.101   2.802   3.310 -0.0239  0.6060 -0.3442
 3703SOL    HW122571   1.195   2.784   3.313 -0.4512 -1.5006  0.0296
 3703SOL    HW222572   1.071   2.773   3.223  0.3343 -3.0588  0.7400
 3704SOL     OW22573   3.738   4.193  17.503 -0.4596 -0.1399  0.6714
 3704SOL    HW122574   3.715   4.190  17.596  0.9710 -4.0127  0.9344
 3704SOL    HW222575   3.833   4.202  17.505 -0.3269 -0.8269 -2.4667
 3705SOL     OW22576   2.580   0.365   6.963 -0.0606  0.5195  0.1247
 3705SOL    HW122577   2.624   0.421   7.027 -1.5004  1.2899  0.4528
 3705SOL    HW222578   2.641   0.364   6.889  0.0257  0.4467  0.1972
 3706SOL     OW22579   4.077   4.032   5.761 -0.0672 -0.0936  0.1734
 3706SOL    HW122580   4.071   4.018   5.667  1.1643 -0.2083  0.1027
 3706SOL    HW222581   4.162   3.994   5.786 -0.9664 -2.8715 -0.9733
 3707SOL     OW22582   3.888   1.729   2.105  0.6141 -0.3392 -0.5033
 3707SOL    HW122583   3.910   1.721   2.012  1.8779 -0.2790 -0.2027
 3707SOL    HW222584   3.890   1.823   2.120  0.0977 -0.1689 -1.5088
 3708SOL     OW22585   2.844   2.655   4.420 -0.5900 -0.5847  0.2845
 3708SOL    HW122586   2.857   2.588   4.488  0.5207 -1.2624 -0.5899
 3708SOL    HW222587   2.824   2.608   4.339 -2.5852  0.0355  0.4009
 3709SOL     OW22588   2.928   2.370   1.363  0.4712  0.3534  0.6470
 3709SOL    HW122589   2.946   2.312   1.436  0.6509  1.0501  1.1550
 3709SOL    HW222590   2.833   2.382   1.370  0.0932 -0.4444 -2.9661
 3710SOL     OW22591   3.595   0.411   9.720  0.5720  0.1623  0.2060
 3710SOL    HW122592   3.594   0.342   9.786 -1.2314 -0.7719 -0.7734
 3710SOL    HW222593   3.679   0.398   9.676 -0.0571 -2.4721 -0.2507
 3711SOL     OW22594   0.648   1.949   0.075  0.1443  1.1975  0.3260
 3711SOL    HW122595   0.698   2.026   0.099  2.1414  0.7014 -2.1798
 3711SOL    HW222596   0.585   1.984   0.011 -0.7836  0.1699  0.6601
 3712SOL     OW22597   2.597   2.532   8.120  0.5384 -0.0731  0.1092
 3712SOL    HW122598   2.669   2.586   8.088  0.4343 -0.0384 -0.0676
 3712SOL    HW222599   2.615   2.532   8.214  1.4395 -0.4052 -0.0631
 3713SOL     OW22600   2.168   1.784   7.922  0.3465  0.3661 -0.5211
 3713SOL    HW122601   2.120   1.791   8.004  1.3644  4.2688 -0.2035
 3713SOL    HW222602   2.256   1.792   7.961  0.2407 -0.4161 -0.1312
 3714SOL     OW22603   0.529   2.403  14.908 -0.1179  0.2387 -0.4176
 3714SOL    HW122604   0.513   2.490  14.945  0.3309 -0.5245  1.5449
 3714SOL    HW222605   0.597   2.373  14.968 -2.6380  1.2053  2.9048
 3715SOL     OW22606   1.196   4.061   8.934 -0.3537  0.2184 -0.4064
 3715SOL    HW122607   1.198   4.055   9.030  0.9797 -2.6371 -0.6193
 3715SOL    HW222608   1.187   3.968   8.914 -0.3372  0.7369 -2.8125
 3716SOL     OW22609   1.734   0.607  16.147  0.7452  0.1645 -0.3850
 3716SOL    HW122610   1.657   0.583  16.198  0.5888  0.6889 -0.3781
 3716SOL    HW222611   1.699   0.691  16.118 -0.5879 -0.4367 -0.5267
 3717SOL     OW22612   2.699   1.403   4.725 -0.5443 -0.0165  0.0634
 3717SOL    HW122613   2.736   1.458   4.656 -1.9486 -1.1347 -1.5518
 3717SOL    HW222614   2.753   1.441   4.794 -1.7339  1.6772  0.0469
 3718SOL     OW22615   1.879   2.714  12.800 -0.1578 -0.7185 -0.2719
 3718SOL    HW122616   1.970   2.714  12.828 -0.6594  0.3321  1.3688
 3718SOL    HW222617   1.861   2.808  12.801  3.0882 -0.1063 -1.1896
 3719SOL     OW22618   4.114   0.080  16.032 -0.1270 -0.0083 -0.1390
 3719SOL    HW122619   4.071   0.147  16.085 -1.4145  0.9967 -2.4738
 3719SOL    HW222620   4.097   0.112  15.943 -0.6180  1.2487  0.4129
 3720SOL     OW22621   1.474   0.973   8.314 -0.0218 -0.0136 -0.4182
 3720SOL    HW122622   1.553   0.954   8.365 -0.6828  0.1479  0.6581
 3720SOL    HW222623   1.436   0.886   8.303  0.5570 -0.4072  0.7343
 3721SOL     OW22624   0.226   2.406   1.591  0.8448  0.2093  0.1754
 3721SOL    HW122625   0.245   2.315   1.616  1.3023 -0.1377 -1.4368
 3721SOL    HW222626   0.307   2.445   1.623  1.1427 -0.3281  0.0882
 3722SOL     OW22627   0.630   0.261   2.686 -0.8713 -0.8081  0.0934
 3722SOL    HW122628   0.580   0.253   2.606 -1.0018 -2.1257  0.3075
 3722SOL    HW222629   0.710   0.224   2.649 -0.7154 -0.3378 -0.0364
 3723SOL     OW22630   0.460   0.876   7.860  0.3032 -0.5303 -0.1640
 3723SOL    HW122631   0.547   0.838   7.871  0.8986  1.4192  1.9555
 3723SOL    HW222632   0.490   0.946   7.802 -2.6249 -2.1343 -3.5675
 3724SOL     OW22633   3.194   0.372   5.169 -0.3317 -0.9794 -0.3911
 3724SOL    HW122634   3.230   0.313   5.235  2.2995  0.8530 -0.2222
 3724SOL    HW222635   3.269   0.385   5.111 -0.3339 -1.0047 -0.3998
 3725SOL     OW22636   1.718   1.844   6.534  0.5894  0.6619 -0.1280
 3725SOL    HW122637   1.693   1.796   6.613 -1.9909  0.3120 -1.1555
 3725SOL    HW222638   1.649   1.819   6.473 -0.6942  1.3669  1.0336
 3726SOL     OW22639   0.256   0.693  16.468  0.3835 -0.7798 -0.0394
 3726SOL    HW122640   0.322   0.736  16.414  0.4881  1.9026  2.2328
 3726SOL    HW222641   0.283   0.723  16.555 -1.5566 -1.3261  0.7551
 3727SOL     OW22642   2.847   1.333   4.415 -0.0174 -0.6705  0.1819
 3727SOL    HW122643   2.788   1.259   4.408 -0.1965 -0.4510 -0.6284
 3727SOL    HW222644   2.899   1.303   4.490  0.3833 -0.1979  0.0969
 3728SOL     OW22645   3.082   2.330   4.193 -0.4562  0.4188 -0.3629
 3728SOL    HW122646   3.134   2.360   4.268  1.2829  1.6154 -2.0665
 3728SOL    HW222647   3.152   2.319   4.128  0.7413 -1.7188  1.2584
 3729SOL     OW22648   0.879   2.432   3.330 -0.3861 -0.3814  0.0704
 3729SOL    HW122649   0.955   2.434   3.272 -0.1318 -0.7383  0.3910
 3729SOL    HW222650   0.844   2.519   3.311  0.1062  0.2868  2.2054
 3730SOL     OW22651   0.488   3.173   8.184  0.6034 -0.1190  1.0644
 3730SOL    HW122652   0.472   3.094   8.134 -1.2390  0.5306  0.6374
 3730SOL    HW222653   0.451   3.238   8.124  0.6549 -1.2684 -0.2104
 3731SOL     OW22654   2.569   3.746   7.305  1.0729 -0.0117  0.2495
 3731SOL    HW122655   2.566   3.684   7.232  0.1747 -1.0731  1.1958
 3731SOL    HW222656   2.577   3.681   7.375 -0.7553 -0.5301 -0.0249
 3732SOL     OW22657   1.106   4.007   6.820 -0.7497 -0.4637  0.0467
 3732SOL    HW122658   1.114   4.103   6.820 -2.3714 -0.3258  0.6550
 3732SOL    HW222659   1.082   4.000   6.913 -2.0924  0.9565 -0.1908
 3733SOL     OW22660   1.898   2.828   7.649  0.3389 -0.2113  0.8227
 3733SOL    HW122661   1.971   2.877   7.611 -1.1375 -0.1502 -1.8902
 3733SOL    HW222662   1.878   2.775   7.572 -0.7798  0.1755  0.8464
 3734SOL     OW22663   2.897   2.289   4.804  0.4349 -0.5633  0.1455
 3734SOL    HW122664   2.871   2.371   4.845 -0.7299  0.8590 -3.3990
 3734SOL    HW222665   2.991   2.291   4.824  0.2601  2.5149  0.5191
 3735SOL     OW22666   2.755   1.276  17.188 -0.5365  0.0002  0.0257
 3735SOL    HW122667   2.738   1.251  17.279 -1.6017  0.6047 -0.0023
 3735SOL    HW222668   2.846   1.305  17.193 -0.8216  0.6892  1.1256
 3736SOL     OW22669   1.731   3.564   2.622 -0.2682  0.0240 -0.5073
 3736SOL    HW122670   1.740   3.659   2.617  0.2907 -0.1295 -2.7373
 3736SOL    HW222671   1.710   3.553   2.714  0.0381  1.2599 -0.2920
 3737SOL     OW22672   3.409   3.356  10.212 -0.3365 -0.4970  0.0040
 3737SOL    HW122673   3.366   3.330  10.294  1.5921 -3.2953  0.1099
 3737SOL    HW222674   3.504   3.357  10.224 -0.5227 -1.0435  1.5789
 3738SOL     OW22675   1.724   3.549  10.414  0.2038 -0.5688  0.3505
 3738SOL    HW122676   1.805   3.566  10.365  1.1970  0.3559  2.3335
 3738SOL    HW222677   1.727   3.454  10.411  3.0736 -0.4844  1.0560
 3739SOL     OW22678   1.544   0.029  11.678 -0.2715 -0.3547 -0.5224
 3739SOL    HW122679   1.583   4.689  11.739  1.8150 -1.8275 -3.3709
 3739SOL    HW222680   1.456   4.716  11.687  0.2653 -1.3710  0.6727
 3740SOL     OW22681   3.581   2.982   4.927  0.4507 -0.0390  0.1271
 3740SOL    HW122682   3.580   2.897   4.969 -0.7636 -0.3629 -0.5483
 3740SOL    HW222683   3.506   3.024   4.969 -0.6157  1.1491 -2.9700
 3741SOL     OW22684   1.268   1.870   4.351  0.0414  0.2746 -0.5202
 3741SOL    HW122685   1.358   1.835   4.349  0.3293  1.0477 -1.1237
 3741SOL    HW222686   1.209   1.795   4.345 -2.0042  1.6858  2.2704
 3742SOL     OW22687   1.219   1.397   5.587 -0.0687 -0.5778  0.0932
 3742SOL    HW122688   1.266   1.353   5.658  1.2349 -0.1452 -0.4842
 3742SOL    HW222689   1.206   1.320   5.531 -4.1117 -1.0715  1.7522
 3743SOL     OW22690   1.635   4.693   1.092  0.2139  0.1617  0.4324
 3743SOL    HW122691   1.639   4.607   1.134  1.7642 -0.6684 -1.3459
 3743SOL    HW222692   1.543   4.708   1.114  0.0498 -1.1523  0.6593
 3744SOL     OW22693   2.995   2.837   6.809  0.7100  0.3557  0.2971
 3744SOL    HW122694   2.937   2.814   6.882  0.6478  0.8202  0.3947
 3744SOL    HW222695   2.984   2.771   6.741 -0.7292 -0.0385  0.9131
 3745SOL     OW22696   2.389   3.456   8.523  0.6034  0.4119  0.0748
 3745SOL    HW122697   2.335   3.532   8.500 -0.7224 -0.5000  0.1252
 3745SOL    HW222698   2.354   3.390   8.463 -0.2513 -0.2655  1.3342
 3746SOL     OW22699   2.379   2.033   9.589  0.1855 -0.0163 -0.1204
 3746SOL    HW122700   2.316   1.980   9.540 -0.6945  0.8457  0.0859
 3746SOL    HW222701   2.340   2.120   9.593 -1.5347 -0.8220  0.7692
 3747SOL     OW22702   0.137   1.134   2.914 -0.0422 -0.2359  0.3920
 3747SOL    HW122703   0.104   1.049   2.885 -0.7579 -0.0044  0.5164
 3747SOL    HW222704   0.230   1.121   2.930  0.1195  1.1178  0.5036
 3748SOL     OW22705   0.455   2.500  16.933 -0.2550 -0.1884 -0.0196
 3748SOL    HW122706   0.408   2.534  17.010  1.3780 -0.0510  0.9191
 3748SOL    HW222707   0.374   2.467  16.894  0.2073  0.4217 -1.4670
 3749SOL     OW22708   2.339   3.316  11.547  0.8561  0.8490 -0.0861
 3749SOL    HW122709   2.413   3.376  11.547  1.7910 -0.3233  3.3651
 3749SOL    HW222710   2.373   3.233  11.581 -1.0273 -0.7028 -1.9423
 3750SOL     OW22711   4.277   3.484  11.011 -0.4162  0.0294 -0.0865
 3750SOL    HW122712   4.269   3.559  10.952  1.2100  0.2526 -0.0179
 3750SOL    HW222713   4.242   3.412  10.958  1.1958 -0.1963 -0.8461
 3751SOL     OW22714   0.289   0.103  16.043  0.6363 -0.4174 -0.2963
 3751SOL    HW122715   0.373   0.060  16.026  1.3531  1.0906 -0.5528
 3751SOL    HW222716   0.294   0.170  15.974 -1.6273  1.2498  1.1807
 3752SOL     OW22717   3.271   0.913   3.395  0.0968  0.2619  0.2014
 3752SOL    HW122718   3.236   0.938   3.481 -0.0157 -1.1182  0.5559
 3752SOL    HW222719   3.192   0.874   3.358  0.4562 -0.9255  0.6836
 3753SOL     OW22720   0.034   3.373   7.436  0.1936 -0.6900  0.4344
 3753SOL    HW122721   0.050   3.466   7.453  1.6298 -0.3845 -2.5709
 3753SOL    HW222722   4.664   3.374   7.411 -0.4729  0.9987  3.0056
 3754SOL     OW22723   2.011   3.227   0.265 -0.7391  0.3205 -0.0913
 3754SOL    HW122724   2.054   3.308   0.294 -1.7867  0.7100  0.4192
 3754SOL    HW222725   1.958   3.263   0.193  0.4274  1.4717 -0.3746
 3755SOL     OW22726   2.278   0.541   2.062 -0.0260 -0.0019 -0.4675
 3755SOL    HW122727   2.322   0.606   2.117 -0.7424  0.0849  0.0003
 3755SOL    HW222728   2.189   0.575   2.056 -0.1601  0.0072  1.6996
 3756SOL     OW22729   3.953   1.239   5.422  0.6730 -0.1637  0.5144
 3756SOL    HW122730   3.871   1.252   5.375  0.9492 -2.6806 -0.6599
 3756SOL    HW222731   3.967   1.324   5.464  0.1678  0.2241 -0.1047
 3757SOL     OW22732   0.782   3.052   2.770 -0.4635  0.0522  0.1807
 3757SOL    HW122733   0.712   3.104   2.808 -0.5756 -0.8138  1.1316
 3757SOL    HW222734   0.765   2.966   2.808 -0.6641  0.2559  0.5519
 3758SOL     OW22735   1.307   2.341   5.999  0.5680 -0.3542 -0.1670
 3758SOL    HW122736   1.294   2.266   6.057  1.6878  0.1181  0.7047
 3758SOL    HW222737   1.325   2.305   5.913  3.6230 -1.2892  0.8596
 3759SOL     OW22738   0.948   4.151  17.127  0.0993 -0.2737  0.2087
 3759SOL    HW122739   0.904   4.078  17.084 -1.0085  0.2818  0.4159
 3759SOL    HW222740   1.030   4.118  17.165 -0.2972 -0.6492  0.7381
 3760SOL     OW22741   4.032   3.491   7.762 -0.3237 -0.3561 -0.0390
 3760SOL    HW122742   4.034   3.429   7.835 -0.1535 -0.9483 -0.5409
 3760SOL    HW222743   3.968   3.557   7.788 -1.9166 -2.2707  0.9610
 3761SOL     OW22744   4.525   0.240   5.537 -0.2189 -0.8950 -0.2085
 3761SOL    HW122745   4.452   0.248   5.475 -0.4551 -1.9743 -0.0708
 3761SOL    HW222746   4.584   0.180   5.491  2.5304  1.2608  0.5462
 3762SOL     OW22747   3.032   2.021   6.133 -0.7420  0.1525  0.3862
 3762SOL    HW122748   3.103   2.025   6.069 -0.2331 -2.2714  0.7872
 3762SOL    HW222749   3.076   2.091   6.181  2.0653 -1.7732  0.6689
 3763SOL     OW22750   2.063   0.739   4.281 -0.2709  0.1167  0.6769
 3763SOL    HW122751   2.128   0.728   4.212 -0.8733 -0.5394  0.2112
 3763SOL    HW222752   2.020   0.821   4.257  2.8281  1.3716 -0.4890
 3764SOL     OW22753   1.066   1.937  11.116 -0.1645 -0.2587 -0.2646
 3764SOL    HW122754   1.107   1.864  11.162 -0.1265  1.0639  1.7831
 3764SOL    HW222755   1.133   2.005  11.119 -0.1647 -0.1445 -3.0552
 3765SOL     OW22756   0.427   4.473  11.830  0.3643  0.2398 -0.0707
 3765SOL    HW122757   0.381   4.404  11.780 -0.2629  1.7967 -1.6492
 3765SOL    HW222758   0.418   4.439  11.919  1.7464  1.0338  0.3543
 3766SOL     OW22759   0.979   0.801  13.192 -0.1289 -0.0484  0.5924
 3766SOL    HW122760   1.006   0.886  13.156  0.4227  1.0628  3.6181
 3766SOL    HW222761   0.910   0.782  13.128  0.1690 -2.8160  1.1053
 3767SOL     OW22762   4.562   2.079   7.965  0.1555  0.5790 -0.3293
 3767SOL    HW122763   4.528   1.998   7.927 -1.0251 -0.5097  3.0574
 3767SOL    HW222764   4.590   2.136   7.892  2.2721  0.8666  0.7115
 3768SOL     OW22765   0.894   0.779   5.792 -0.1483 -0.0516 -0.3949
 3768SOL    HW122766   0.838   0.841   5.746 -0.3751  0.2606  0.2931
 3768SOL    HW222767   0.953   0.769   5.718  1.0181 -1.7827  0.7574
 3769SOL     OW22768   4.686   1.231   5.527 -0.5186 -0.5201  0.7782
 3769SOL    HW122769   4.607   1.215   5.579  0.2468 -1.4164  1.6743
 3769SOL    HW222770   4.666   1.314   5.484  2.1826 -0.0213  0.4960
 3770SOL     OW22771   1.808   0.817   8.117  0.1667 -0.4366  0.0001
 3770SOL    HW122772   1.893   0.843   8.151  0.1872  0.6931 -0.9340
 3770SOL    HW222773   1.754   0.811   8.196  0.4400 -0.6160  0.1711
 3771SOL     OW22774   1.927   3.939  14.591 -0.2516 -0.1570 -0.2875
 3771SOL    HW122775   1.993   3.883  14.632 -1.3305 -1.2477 -0.0421
 3771SOL    HW222776   1.985   4.013  14.573  1.1079 -1.4751 -1.2462
 3772SOL     OW22777   3.123   2.284  11.842  0.3132  0.8224 -0.0006
 3772SOL    HW122778   3.186   2.237  11.896 -0.4857 -0.0680  0.1514
 3772SOL    HW222779   3.042   2.234  11.852  0.0555  1.1300 -0.5679
 3773SOL     OW22780   4.071   2.264   1.158  0.2427 -0.1085  0.4092
 3773SOL    HW122781   4.060   2.314   1.078 -0.3883 -3.2257 -1.4522
 3773SOL    HW222782   4.151   2.220   1.130 -0.0299 -0.3178 -0.0425
 3774SOL     OW22783   2.928   1.567   4.525 -0.1008  0.7946  0.4873
 3774SOL    HW122784   2.872   1.496   4.494  0.2734  0.5610  0.3511
 3774SOL    HW222785   2.992   1.568   4.454  1.2549 -1.4994  1.6870
 3775SOL     OW22786   4.670   2.241   6.081  0.1488 -0.4534  0.5102
 3775SOL    HW122787   4.692   2.309   6.017 -1.0493  0.5697  1.1935
 3775SOL    HW222788   4.677   2.166   6.022  1.7748  0.7264 -0.8163
 3776SOL     OW22789   1.046   3.823   8.434 -0.1748  0.3344  0.3692
 3776SOL    HW122790   0.953   3.803   8.445  0.2691 -1.5290  0.6978
 3776SOL    HW222791   1.069   3.740   8.392  0.3887  1.2273 -1.0928
 3777SOL     OW22792   2.959   1.101  15.054 -0.1535 -0.0090 -0.1541
 3777SOL    HW122793   2.984   1.159  15.126  0.2294 -2.5393  1.7221
 3777SOL    HW222794   3.040   1.108  15.002  1.7189 -0.4914  2.6791
 3778SOL     OW22795   3.241   0.356  15.845 -0.4965  0.1970  0.0143
 3778SOL    HW122796   3.220   0.272  15.885  2.2176  0.8343  2.7718
 3778SOL    HW222797   3.277   0.319  15.764 -1.2501  0.7477 -0.5656
 3779SOL     OW22798   3.591   3.376   5.073 -0.3635  0.1242 -0.6098
 3779SOL    HW122799   3.595   3.436   5.147  0.1686  1.1677 -1.4869
 3779SOL    HW222800   3.660   3.312   5.094  1.9157  2.3564 -1.2765
 3780SOL     OW22801   3.076   4.638  13.103  0.1228 -0.1438  0.3845
 3780SOL    HW122802   3.096   4.645  13.009  0.2013 -0.3067  0.3892
 3780SOL    HW222803   2.990   4.597  13.098 -1.0236  2.6492 -3.0387
 3781SOL     OW22804   1.778   2.005   7.603  0.0334  0.1460 -0.4240
 3781SOL    HW122805   1.748   2.096   7.600 -0.2263  0.0736 -0.1058
 3781SOL    HW222806   1.833   1.996   7.526  0.7502  0.5907  0.0327
 3782SOL     OW22807   2.843   1.524   3.952 -0.2778 -0.1723 -0.1706
 3782SOL    HW122808   2.757   1.559   3.977 -0.3445 -1.0633  0.8769
 3782SOL    HW222809   2.861   1.460   4.022  1.7616  0.3909 -0.1882
 3783SOL     OW22810   0.028   4.703   4.512 -0.0206 -0.1945 -0.1114
 3783SOL    HW122811   0.072   4.694   4.597 -1.5589  0.9818  0.8015
 3783SOL    HW222812   0.014   4.611   4.491  0.8768 -0.1897 -0.7198
 3784SOL     OW22813   1.405   0.561   0.462  0.0300 -0.0570  0.0811
 3784SOL    HW122814   1.356   0.639   0.491  1.0743  0.0642  1.5113
 3784SOL    HW222815   1.427   0.595   0.376 -1.1277  1.2951  0.3125
 3785SOL     OW22816   2.643   0.503   3.032  0.1813 -0.0249 -0.2077
 3785SOL    HW122817   2.604   0.583   3.068  1.4027  0.0096  1.0385
 3785SOL    HW222818   2.586   0.486   2.958  2.8998 -3.1140 -1.5747
 3786SOL     OW22819   2.789   2.704   1.091 -0.1691 -0.3978 -0.1888
 3786SOL    HW122820   2.858   2.760   1.056  1.4107 -1.0598  1.9108
 3786SOL    HW222821   2.790   2.635   1.025 -1.8904 -0.0216 -0.6176
 3787SOL     OW22822   1.473   0.159   2.020 -0.1946 -0.0751  0.2423
 3787SOL    HW122823   1.492   0.180   1.929  2.5684 -0.0122  0.8582
 3787SOL    HW222824   1.396   0.102   2.021 -1.6988  1.9196 -2.3974
 3788SOL     OW22825   2.368   4.609   2.163 -0.1917 -0.0716  0.3485
 3788SOL    HW122826   2.430   4.675   2.193 -1.8879  2.5240 -1.8025
 3788SOL    HW222827   2.370   4.558   2.244 -1.2714  2.0946  1.7414
 3789SOL     OW22828   4.150   3.696   3.790 -0.7528  0.0741  0.0687
 3789SOL    HW122829   4.223   3.685   3.851 -0.8520  1.7486  0.4875
 3789SOL    HW222830   4.087   3.733   3.851  0.3376  1.7844  0.1614
 3790SOL     OW22831   3.916   4.544  16.750 -0.3619  0.0509 -0.4151
 3790SOL    HW122832   3.907   4.610  16.818  1.0759  0.0190 -0.1965
 3790SOL    HW222833   3.866   4.474  16.793 -1.2377  0.6640 -0.4229
 3791SOL     OW22834   0.959   1.225   8.048  0.2946  0.3145  0.0074
 3791SOL    HW122835   1.016   1.298   8.074  0.7603  0.4179 -1.3252
 3791SOL    HW222836   1.001   1.198   7.967 -0.9117  0.0170 -0.5186
 3792SOL     OW22837   1.862   2.890   4.909  0.0744 -0.7864  0.1352
 3792SOL    HW122838   1.859   2.815   4.849  0.5750 -0.5548 -0.1802
 3792SOL    HW222839   1.792   2.946   4.875  0.3174 -1.6479 -1.8123
 3793SOL     OW22840   3.700   4.135  14.559 -0.2172 -0.4511 -0.2670
 3793SOL    HW122841   3.619   4.172  14.523 -0.2359 -0.6457 -0.4243
 3793SOL    HW222842   3.673   4.094  14.641  2.8480 -0.9336  0.5070
 3794SOL     OW22843   1.458   2.755  15.198  0.3678 -0.1799  0.7794
 3794SOL    HW122844   1.414   2.708  15.127 -0.9078 -0.1501  1.5698
 3794SOL    HW222845   1.498   2.827  15.148 -0.0989 -0.2211  0.3481
 3795SOL     OW22846   1.857   1.630   0.726 -0.0308 -0.3470 -0.2557
 3795SOL    HW122847   1.806   1.578   0.788 -0.0260  0.9164  0.8020
 3795SOL    HW222848   1.803   1.636   0.647  1.4883  2.0533 -1.1496
 3796SOL     OW22849   0.581   3.437   9.014 -0.0104  0.1913  0.0291
 3796SOL    HW122850   0.637   3.405   9.084 -3.8767  0.0162  3.0303
 3796SOL    HW222851   0.626   3.513   8.977  0.3931  0.1139  0.3589
 3797SOL     OW22852   2.258   0.139   8.704 -0.0545  0.7605  0.1715
 3797SOL    HW122853   2.184   0.087   8.674  1.9768 -1.5185 -0.9208
 3797SOL    HW222854   2.248   0.213   8.644 -0.0414 -0.6426 -1.5601
 3798SOL     OW22855   0.569   2.277  14.555  0.5285 -0.2850  0.0805
 3798SOL    HW122856   0.481   2.245  14.535  0.8672 -0.5170 -1.0804
 3798SOL    HW222857   0.587   2.317  14.469 -2.2290  2.0358  0.5566
 3799SOL     OW22858   2.062   0.620   2.610  0.5783  0.5136  0.4174
 3799SOL    HW122859   2.154   0.636   2.634 -0.1248  0.2625  3.2536
 3799SOL    HW222860   2.081   0.565   2.534  0.7363 -0.3303  1.0746
 3800SOL     OW22861   1.279   2.674   7.554  0.6343  0.7028 -0.3523
 3800SOL    HW122862   1.285   2.649   7.646 -0.6656  2.3504  0.1715
 3800SOL    HW222863   1.188   2.687   7.529 -0.1562  0.2345  2.3386
 3801SOL     OW22864   1.764   2.428   4.206  0.3919  0.1455  0.2233
 3801SOL    HW122865   1.760   2.503   4.147 -0.4596 -0.0656  0.0204
 3801SOL    HW222866   1.853   2.442   4.237  1.0025 -1.2734 -0.8256
 3802SOL     OW22867   0.919   2.608   7.577  0.4616  0.1033 -0.1105
 3802SOL    HW122868   0.988   2.554   7.614 -0.9273 -0.8190  1.1324
 3802SOL    HW222869   0.962   2.682   7.533  0.7213 -0.8528 -1.4601
 3803SOL     OW22870   3.973   4.383   5.354  0.2028 -0.0651  0.2494
 3803SOL    HW122871   3.921   4.318   5.308 -2.3787  0.6157  2.2182
 3803SOL    HW222872   4.064   4.362   5.334  1.0278  1.4451  2.2983
 3804SOL     OW22873   1.886   1.938   8.477  0.8895  0.0902 -0.0972
 3804SOL    HW122874   1.834   1.875   8.528  0.3213  0.8519  0.2652
 3804SOL    HW222875   1.826   2.010   8.459  2.0315  1.0189 -0.1760
 3805SOL     OW22876   0.812   1.538  11.739 -0.1373 -0.2415  0.2620
 3805SOL    HW122877   0.774   1.617  11.700  0.6213 -1.0215 -2.0828
 3805SOL    HW222878   0.735   1.512  11.789 -0.6581 -0.7321 -0.7887
 3806SOL     OW22879   1.483   4.600  15.396  0.5839  0.5376  0.1168
 3806SOL    HW122880   1.456   4.519  15.440  1.1158  0.5195  0.4088
 3806SOL    HW222881   1.462   4.668  15.459  3.3863 -0.2159  1.8940
 3807SOL     OW22882   3.920   3.589   1.987 -0.1220 -0.3543  0.3092
 3807SOL    HW122883   3.850   3.602   2.050  0.1580 -3.3335  1.2154
 3807SOL    HW222884   3.871   3.520   1.943  0.0799 -0.7241  0.6664
 3808SOL     OW22885   2.785   1.934   0.548 -0.2216 -0.3437  0.1039
 3808SOL    HW122886   2.703   1.895   0.521 -0.1225  0.0429 -0.7495
 3808SOL    HW222887   2.773   1.957   0.640 -0.5585  0.6047 -0.1819
 3809SOL     OW22888   4.408   2.621   5.907 -0.2212 -0.0603 -0.1707
 3809SOL    HW122889   4.402   2.697   5.964 -1.0690 -1.1660  1.2110
 3809SOL    HW222890   4.320   2.581   5.908  0.2313 -1.0185  0.7824
 3810SOL     OW22891   1.401   2.963  12.641  0.2544  0.3861 -0.3372
 3810SOL    HW122892   1.455   2.887  12.662 -1.0551 -0.3514  0.3358
 3810SOL    HW222893   1.383   3.011  12.722 -1.4471 -2.8135  1.1652
 3811SOL     OW22894   1.251   3.728   6.092  0.1490  0.1552  0.2358
 3811SOL    HW122895   1.231   3.639   6.063  1.2420 -0.2373  0.6694
 3811SOL    HW222896   1.209   3.733   6.178 -1.7151  0.0281 -0.6751
 3812SOL     OW22897   3.837   2.040  15.806  0.2768 -0.3139 -0.6702
 3812SOL    HW122898   3.814   2.126  15.841 -2.0681 -0.5019 -1.7498
 3812SOL    HW222899   3.792   1.979  15.865 -2.6308 -0.9493 -3.5633
 3813SOL     OW22900   1.463   3.624   4.082 -1.1101  0.0494  0.3226
 3813SOL    HW122901   1.414   3.703   4.059  0.1005  0.4792 -0.8144
 3813SOL    HW222902   1.544   3.631   4.031 -0.3743 -0.2175  1.4541
 3814SOL     OW22903   4.702   0.863   5.746 -0.6086  0.4401  0.1280
 3814SOL    HW122904   0.037   0.795   5.782  0.6140  2.3022  1.6473
 3814SOL    HW222905   4.694   0.823   5.659 -0.9962 -3.1030  1.7691
 3815SOL     OW22906   3.682   2.767  16.611  0.0647 -0.2097  0.2131
 3815SOL    HW122907   3.642   2.724  16.686 -2.3515 -0.1551 -1.0151
 3815SOL    HW222908   3.614   2.750  16.545 -0.4472  0.5168  0.5591
 3816SOL     OW22909   0.212   2.733  12.367 -0.3259 -0.2073  0.6070
 3816SOL    HW122910   0.216   2.827  12.385  0.7891  0.2317 -1.8538
 3816SOL    HW222911   0.307   2.725  12.376  0.1101  1.4311 -2.4629
 3817SOL     OW22912   1.716   3.485   2.905  0.1643  0.4036 -0.0752
 3817SOL    HW122913   1.689   3.547   2.973  0.8984 -0.7538  1.2808
 3817SOL    HW222914   1.772   3.428   2.957 -0.0557 -0.0086 -0.2984
 3818SOL     OW22915   1.062   2.382   7.599  0.1886 -0.1780  0.6872
 3818SOL    HW122916   1.051   2.354   7.690 -4.8789 -0.9616 -0.1224
 3818SOL    HW222917   1.125   2.318   7.566  0.8305  1.2155 -0.7518
 3819SOL     OW22918   4.418   2.867   0.414  0.1527  0.1691 -0.1423
 3819SOL    HW122919   4.425   2.835   0.324  1.3730  0.7073 -0.2359
 3819SOL    HW222920   4.506   2.903   0.406  1.3905 -2.5769  1.0405
 3820SOL     OW22921   1.989   0.387  11.200  0.2283  0.3677  0.4560
 3820SOL    HW122922   2.073   0.429  11.221  1.3086 -1.5141 -0.1288
 3820SOL    HW222923   1.972   0.362  11.291  0.0508 -1.0059  0.0532
 3821SOL     OW22924   0.405   2.708   6.291  0.0703  0.2572  0.2784
 3821SOL    HW122925   0.403   2.618   6.324  2.2688  0.0489 -0.1592
 3821SOL    HW222926   0.430   2.693   6.199  0.7861  0.8982  0.3675
 3822SOL     OW22927   4.364   2.723   1.055 -0.4386 -0.0480 -1.1318
 3822SOL    HW122928   4.351   2.661   1.126 -0.8759  2.5807  1.0522
 3822SOL    HW222929   4.362   2.652   0.991  1.3428 -3.0372  2.1667
 3823SOL     OW22930   2.739   3.307   3.943 -0.3225  0.8214 -0.1437
 3823SOL    HW122931   2.646   3.324   3.933 -0.1134  2.1607  0.2115
 3823SOL    HW222932   2.754   3.334   4.033 -3.3011  1.3776  0.1750
 3824SOL     OW22933   3.118   4.415   2.848 -0.6702  0.3605  0.1863
 3824SOL    HW122934   3.106   4.410   2.943  1.9236  0.9617  0.5569
 3824SOL    HW222935   3.193   4.475   2.842  0.2880 -1.0999 -2.3331
 3825SOL     OW22936   0.413   2.654   6.680 -0.5469 -0.3355 -0.4350
 3825SOL    HW122937   0.504   2.667   6.652 -0.6557 -1.8058 -1.5168
 3825SOL    HW222938   0.396   2.572   6.633  1.3735 -0.3755 -1.0847
 3826SOL     OW22939   0.129   3.591   4.585 -0.1762 -0.3469  0.6519
 3826SOL    HW122940   0.196   3.543   4.633 -0.2632 -0.4314  0.6900
 3826SOL    HW222941   0.049   3.539   4.590  0.5234 -1.5321 -0.4012
 3827SOL     OW22942   2.361   2.032   5.375  0.0837  0.0047  0.2670
 3827SOL    HW122943   2.316   2.097   5.321 -0.7383 -0.6064  0.2186
 3827SOL    HW222944   2.343   1.957   5.319  1.2695 -0.1586  0.1111
 3828SOL     OW22945   3.271   0.178   7.890 -0.7906 -0.3977 -0.5782
 3828SOL    HW122946   3.300   0.087   7.894  0.9824  0.1922  0.3717
 3828SOL    HW222947   3.217   0.175   7.811 -0.5869  0.4344 -0.7519
 3829SOL     OW22948   2.828   0.815   3.023  0.4457  0.1367 -0.0095
 3829SOL    HW122949   2.856   0.906   3.032 -2.8404  1.3484 -1.7010
 3829SOL    HW222950   2.741   0.832   2.987  0.2618 -0.7081  0.0309
 3830SOL     OW22951   0.320   2.997   7.203  0.4724 -0.0766  0.0052
 3830SOL    HW122952   0.254   2.997   7.272 -0.3450  2.0288 -0.7879
 3830SOL    HW222953   0.277   2.952   7.130 -1.6230 -1.5327  2.1693
 3831SOL     OW22954   4.465   4.641   4.287 -0.5514  0.1958  0.4880
 3831SOL    HW122955   4.406   4.565   4.284  0.3776 -0.5094  0.1603
 3831SOL    HW222956   4.508   4.637   4.202 -3.3987  1.0086 -1.0040
 3832SOL     OW22957   3.670   1.311   0.181 -0.1960  0.2573  0.2549
 3832SOL    HW122958   3.745   1.253   0.179 -0.0075  0.4176  2.6624
 3832SOL    HW222959   3.699   1.372   0.113 -0.0437 -0.4248 -0.2886
 3833SOL     OW22960   3.628   0.130  17.070 -0.3795  0.1057  0.2108
 3833SOL    HW122961   3.615   0.035  17.074  1.8523 -0.1706  0.4764
 3833SOL    HW222962   3.641   0.131  16.975  0.2747  0.5006  0.3071
 3834SOL     OW22963   1.846   0.943   7.268  0.2132 -0.6031 -0.4231
 3834SOL    HW122964   1.817   0.995   7.343 -0.3342 -0.8227 -0.4840
 3834SOL    HW222965   1.886   1.002   7.205 -0.0947  0.5303  0.4513
 3835SOL     OW22966   0.128   1.488   6.453 -0.4710  0.5550  0.1812
 3835SOL    HW122967   0.221   1.510   6.453  0.1780 -2.1990 -1.9002
 3835SOL    HW222968   0.124   1.441   6.370  3.2344  3.1435 -1.4720
 3836SOL     OW22969   0.364   4.633  17.119 -0.4385  0.0513 -0.3640
 3836SOL    HW122970   0.271   4.630  17.139 -0.2446  1.5614  0.7640
 3836SOL    HW222971   0.394   4.601  17.204 -0.8115  1.3502  0.2543
 3837SOL     OW22972   0.763   1.278   5.717 -0.5313 -0.6271  0.6264
 3837SOL    HW122973   0.782   1.303   5.807  0.2380  1.6757 -0.1934
 3837SOL    HW222974   0.679   1.322   5.704 -1.5562 -2.5058  0.8581
 3838SOL     OW22975   2.670   2.919   1.566  0.4739  0.4288  0.1473
 3838SOL    HW122976   2.719   2.862   1.508  0.4973  0.2115  0.3810
 3838SOL    HW222977   2.737   2.987   1.570  0.0926  0.7686  0.7224
 3839SOL     OW22978   3.649   1.631   2.439  0.1150 -0.0046 -0.0169
 3839SOL    HW122979   3.605   1.605   2.358 -0.8764 -1.5826  1.0387
 3839SOL    HW222980   3.595   1.703   2.472  1.9079  1.0113  0.6867
 3840SOL     OW22981   4.594   2.680   1.350 -0.2282  0.0203 -0.0229
 3840SOL    HW122982   4.561   2.686   1.440  1.3325 -1.6707  0.6611
 3840SOL    HW222983   4.564   2.591   1.332 -1.2061 -0.1982  2.6483
 3841SOL     OW22984   2.252   4.465   7.334 -0.3165 -0.1729  0.4496
 3841SOL    HW122985   2.270   4.542   7.388  2.4151 -1.7913  1.8410
 3841SOL    HW222986   2.338   4.424   7.338 -0.4440 -0.6247 -1.2918
 3842SOL     OW22987   4.002   4.348   4.907 -0.2894 -0.3263  0.0160
 3842SOL    HW122988   4.017   4.442   4.898 -0.7595 -0.2185  0.3455
 3842SOL    HW222989   3.932   4.340   4.842 -0.7770  0.5983  0.4310
 3843SOL     OW22990   0.201   1.096  12.479  0.4234  0.0319 -0.0609
 3843SOL    HW122991   0.115   1.055  12.469  1.8331 -2.8947 -0.1172
 3843SOL    HW222992   0.174   1.153  12.551 -0.0231 -0.8959  0.5103
 3844SOL     OW22993   3.522   4.299   2.578  0.4518  0.0666  0.0268
 3844SOL    HW122994   3.565   4.339   2.503 -0.3374 -0.4676 -0.7234
 3844SOL    HW222995   3.596   4.248   2.610  1.2876  1.4067  0.1788
 3845SOL     OW22996   3.016   3.795   4.614  0.0936 -0.5212 -0.0099
 3845SOL    HW122997   2.924   3.770   4.613 -0.0461  0.0138 -0.4700
 3845SOL    HW222998   3.053   3.725   4.668 -0.8029  0.0554  1.3632
 3846SOL     OW22999   1.387   3.059   6.092  0.2217 -0.2399 -0.4889
 3846SOL    HW123000   1.342   3.050   6.175 -2.4091  0.5358 -1.8417
 3846SOL    HW223001   1.421   3.148   6.101  2.4658 -1.0389 -0.9795
 3847SOL     OW23002   0.458   2.488   8.319  0.0360 -0.0198 -0.0265
 3847SOL    HW123003   0.497   2.493   8.231  1.3389 -1.4907  0.4849
 3847SOL    HW223004   0.471   2.581   8.336 -0.7987 -0.5873  3.6265
 3848SOL     OW23005   0.623   0.037   5.997 -0.3624 -0.2200 -0.3609
 3848SOL    HW123006   0.644   4.700   6.068 -0.1062 -0.6348 -0.7808
 3848SOL    HW223007   0.555   0.086   6.042  1.8504  1.3431  1.2339
 3849SOL     OW23008   2.015   1.994  11.538 -0.0294 -0.1697  0.3798
 3849SOL    HW123009   2.050   1.964  11.454 -2.0612  0.1256 -0.5690
 3849SOL    HW223010   1.994   2.085  11.519  1.7319  0.1432 -0.0980
 3850SOL     OW23011   4.629   4.261  16.720  1.1719  0.0578  0.8585
 3850SOL    HW123012   4.601   4.315  16.646  0.6630  0.1260  1.1034
 3850SOL    HW223013   4.555   4.277  16.779  0.8691 -1.5459  0.8955
 3851SOL     OW23014   3.949   4.168   7.117 -0.6324  0.1246  0.1673
 3851SOL    HW123015   3.857   4.172   7.094 -0.4528 -0.2867 -0.6103
 3851SOL    HW223016   3.996   4.183   7.035 -0.3467  1.4120  0.5672
 3852SOL     OW23017   2.242   4.490  14.679  0.1963  0.5400 -0.6985
 3852SOL    HW123018   2.230   4.415  14.736 -1.0043  0.1036 -1.5274
 3852SOL    HW223019   2.327   4.525  14.707  0.5651 -1.0225  0.1651
 3853SOL     OW23020   3.809   4.545  10.969  0.4323 -0.6534 -0.0299
 3853SOL    HW123021   3.870   4.615  10.947  1.3014 -1.4280 -0.1221
 3853SOL    HW223022   3.873   4.491  11.016 -2.9135 -2.4887  2.4466
 3854SOL     OW23023   0.762   0.188   7.999 -0.3420 -0.2386  0.1898
 3854SOL    HW123024   0.703   0.263   7.993 -0.4531 -0.4715 -1.5694
 3854SOL    HW223025   0.817   0.193   7.921 -0.0480 -1.8284  0.2916
 3855SOL     OW23026   0.606   2.543   5.144 -0.7082  0.2818  0.2477
 3855SOL    HW123027   0.650   2.495   5.214  0.2270  1.3129  0.3709
 3855SOL    HW223028   0.522   2.569   5.182 -0.3000  1.9056  0.0303
 3856SOL     OW23029   3.217   2.337   6.619 -0.2453  0.2800 -0.1292
 3856SOL    HW123030   3.232   2.266   6.557  3.3988  0.3179  0.7356
 3856SOL    HW223031   3.285   2.401   6.601  0.1144  0.5065  2.0464
 3857SOL     OW23032   3.923   1.537   0.960  0.2775  0.6023  0.8189
 3857SOL    HW123033   3.983   1.581   1.021 -0.0004  0.6845  1.0346
 3857SOL    HW223034   3.900   1.456   1.005 -0.1889  0.0528 -0.4360
 3858SOL     OW23035   0.939   2.930   4.936  0.3184 -0.2179 -0.0861
 3858SOL    HW123036   0.890   2.998   4.982  1.3716  0.8791 -0.5653
 3858SOL    HW223037   0.885   2.852   4.945  1.4755 -0.7260  2.5480
 3859SOL     OW23038   0.947   1.716   3.837 -0.3944 -0.4802 -0.4323
 3859SOL    HW123039   0.932   1.663   3.916  0.7992 -1.7801 -1.0648
 3859SOL    HW223040   0.988   1.793   3.876  0.0067 -0.7173 -0.3810
 3860SOL     OW23041   4.539   4.182  11.723 -0.2328 -0.6060 -0.0080
 3860SOL    HW123042   4.614   4.240  11.708  0.5434 -1.4691  0.5444
 3860SOL    HW223043   4.567   4.091  11.724  0.1790 -0.4925 -2.1997
 3861SOL     OW23044   0.924   0.633   7.433  0.1296  0.2346  0.3358
 3861SOL    HW123045   0.975   0.605   7.357 -1.0114 -1.0375  0.0302
 3861SOL    HW223046   0.913   0.548   7.477 -0.5086  1.0657  1.7954
 3862SOL     OW23047   0.307   4.616   8.310 -0.3675  0.2971  0.2874
 3862SOL    HW123048   0.380   4.567   8.272 -1.1516 -1.2444  0.7886
 3862SOL    HW223049   0.344   4.658   8.388  2.2482 -0.0962 -0.7352
 3863SOL     OW23050   2.071   4.284   3.623 -0.1795 -0.1180  0.1928
 3863SOL    HW123051   2.072   4.376   3.598  3.3205  0.0273  0.8922
 3863SOL    HW223052   2.147   4.241   3.584 -1.1130 -1.8774  0.2627
 3864SOL     OW23053   3.528   3.249   2.674  0.0042  0.6055  0.3491
 3864SOL    HW123054   3.488   3.247   2.761 -0.4620  1.3082  0.1545
 3864SOL    HW223055   3.568   3.335   2.669  0.9853  0.0904 -0.5457
 3865SOL     OW23056   3.711   3.132   8.679 -0.1511 -0.5582  0.3207
 3865SOL    HW123057   3.806   3.144   8.684 -0.1562  0.3156 -1.8822
 3865SOL    HW223058   3.684   3.189   8.751  0.5024 -2.9691  2.5295
 3866SOL     OW23059   0.458   0.992   2.728  0.1348 -0.3022  0.4179
 3866SOL    HW123060   0.499   0.909   2.701  1.7734  0.7894 -0.4804
 3866SOL    HW223061   0.382   0.951   2.769 -0.9878  1.9664  0.5902
 3867SOL     OW23062   4.263   0.647   6.077 -0.0018  0.0960  0.0767
 3867SOL    HW123063   4.287   0.644   6.169  0.9193 -2.1353 -0.2437
 3867SOL    HW223064   4.183   0.594   6.083  1.7360 -2.8655 -2.8740
 3868SOL     OW23065   3.459   2.175   8.675 -0.5799 -0.4651 -0.2511
 3868SOL    HW123066   3.488   2.172   8.766 -0.2509  2.4680 -0.2502
 3868SOL    HW223067   3.500   2.260   8.659 -2.8580  0.5398 -0.6987
 3869SOL     OW23068   2.862   2.761   8.332 -0.2763  0.4696  0.6529
 3869SOL    HW123069   2.939   2.810   8.362  1.4617 -0.2356 -2.6723
 3869SOL    HW223070   2.793   2.775   8.396 -0.5407  1.8457  0.0655
 3870SOL     OW23071   3.020   0.369  11.024  0.0236  0.5079  0.5854
 3870SOL    HW123072   3.029   0.408  10.936 -0.3260 -0.6640  0.0326
 3870SOL    HW223073   3.080   0.296  11.011 -1.0472 -0.0346 -1.4479
 3871SOL     OW23074   3.042   3.560   3.263 -0.0771 -0.5569 -0.4465
 3871SOL    HW123075   3.006   3.565   3.352 -0.5122  0.1188 -0.6581
 3871SOL    HW223076   2.985   3.628   3.226  0.2855 -0.7941 -1.4476
 3872SOL     OW23077   3.142   0.867   8.466  0.4315  0.0350 -0.0813
 3872SOL    HW123078   3.194   0.800   8.511  1.2503  2.5062  2.6402
 3872SOL    HW223079   3.199   0.943   8.462  1.0374 -0.3919  0.3946
 3873SOL     OW23080   1.408   4.494   8.395 -0.2792 -0.0689 -0.1188
 3873SOL    HW123081   1.487   4.463   8.351 -0.9235 -2.6089  0.5141
 3873SOL    HW223082   1.336   4.488   8.332 -0.5998 -2.0180  0.4347
 3874SOL     OW23083   0.425   2.103   2.369 -0.3116  0.4346  0.2012
 3874SOL    HW123084   0.499   2.163   2.359 -0.8610  0.8977 -1.0521
 3874SOL    HW223085   0.436   2.078   2.460  2.0912 -0.3533 -0.3031
 3875SOL     OW23086   1.517   3.447   6.778  0.2539  0.8149 -0.0637
 3875SOL    HW123087   1.559   3.482   6.700  0.3704  2.2780  0.6442
 3875SOL    HW223088   1.556   3.515   6.833 -1.0042 -0.3858  2.3161
 3876SOL     OW23089   3.720   1.098  14.821  0.1666  0.0025  0.1391
 3876SOL    HW123090   3.814   1.102  14.841 -0.1532 -1.9221  1.9322
 3876SOL    HW223091   3.679   1.079  14.905 -0.6879 -0.8729 -0.4815
 3877SOL     OW23092   2.911   3.789   1.503  0.1138 -0.2949  0.6187
 3877SOL    HW123093   2.867   3.704   1.495  0.9026 -0.6949  0.5861
 3877SOL    HW223094   2.879   3.804   1.592 -0.4063 -1.0416  0.5549
 3878SOL     OW23095   0.962   2.057  11.819 -0.1590 -0.0132  0.2401
 3878SOL    HW123096   0.978   2.141  11.862 -1.0348  0.6745 -0.7785
 3878SOL    HW223097   0.944   2.095  11.733  1.2348  0.7840  0.2991
 3879SOL     OW23098   2.282   2.961   3.688  0.5187 -0.2062  0.2415
 3879SOL    HW123099   2.205   3.017   3.691 -0.6717 -1.7729 -0.7635
 3879SOL    HW223100   2.295   2.962   3.593  4.6732  1.5347  0.8539
 3880SOL     OW23101   4.108   3.519  15.906  0.0897  0.1697 -0.2387
 3880SOL    HW123102   4.093   3.533  16.000 -0.2502  1.5087 -0.4933
 3880SOL    HW223103   4.184   3.573  15.886 -0.5607  0.4982 -1.8695
 3881SOL     OW23104   1.155   0.284   6.237 -0.4316 -0.0942  0.5856
 3881SOL    HW123105   1.149   0.263   6.330  0.2855 -2.5718  0.0750
 3881SOL    HW223106   1.115   0.371   6.226 -2.2652 -1.0360 -0.2288
 3882SOL     OW23107   3.759   0.757   5.476  0.0910  0.6250 -0.4360
 3882SOL    HW123108   3.806   0.736   5.557  2.0431  2.9757 -0.9687
 3882SOL    HW223109   3.677   0.782   5.520  0.0869  0.4569 -0.3501
 3883SOL     OW23110   2.473   4.501   1.649  0.0571  0.0047  0.1909
 3883SOL    HW123111   2.502   4.554   1.723  2.5828 -0.5794 -0.3454
 3883SOL    HW223112   2.541   4.434   1.639 -0.7451 -0.9686  1.2582
 3884SOL     OW23113   3.590   0.562   4.009 -0.3498 -0.1904 -0.3329
 3884SOL    HW123114   3.533   0.597   4.078  1.2019  0.6704  0.5246
 3884SOL    HW223115   3.562   0.471   4.014  0.4728 -0.4879 -1.2343
 3885SOL     OW23116   2.628   4.108  13.848 -0.1603  0.5527 -1.0052
 3885SOL    HW123117   2.640   4.092  13.755 -1.8092  0.4378 -1.1945
 3885SOL    HW223118   2.615   4.203  13.857 -2.0715  0.2912 -0.9350
 3886SOL     OW23119   2.955   3.098   1.103  0.0512 -0.0593  0.0834
 3886SOL    HW123120   2.929   3.053   1.023 -1.1035 -0.1420  0.5046
 3886SOL    HW223121   2.944   3.030   1.169 -0.9070  1.1531  1.1865
 3887SOL     OW23122   2.654   0.057   7.442 -0.3471  0.7503  0.6779
 3887SOL    HW123123   2.687   4.710   7.498  1.2395  2.2206  1.6253
 3887SOL    HW223124   2.725   0.122   7.440  2.1610 -2.0882 -1.4315
 3888SOL     OW23125   3.343   0.117   5.046 -0.2517 -0.7135  0.4412
 3888SOL    HW123126   3.318   0.036   5.090 -1.6817 -0.3295  0.3255
 3888SOL    HW223127   3.435   0.127   5.071  0.2721  0.4031 -1.9240
 3889SOL     OW23128   2.878   0.821   5.823 -0.0523 -0.0106 -0.1768
 3889SOL    HW123129   2.960   0.772   5.829 -0.1549 -0.1121  0.4119
 3889SOL    HW223130   2.889   0.895   5.883  1.0689 -0.4124  0.1111
 3890SOL     OW23131   2.360   2.013  16.573 -0.2704 -0.4489 -0.0247
 3890SOL    HW123132   2.405   2.019  16.657 -1.2399  1.3902  0.3501
 3890SOL    HW223133   2.290   2.079  16.578 -1.0431 -1.3077  0.5639
 3891SOL     OW23134   1.561   3.363   2.529 -0.4287  0.2530 -0.4309
 3891SOL    HW123135   1.620   3.294   2.497  3.9758  2.9399  1.8166
 3891SOL    HW223136   1.615   3.440   2.549 -1.0101 -0.1153  2.4869
 3892SOL     OW23137   3.299   2.881   2.616  0.3473  0.1495  0.2151
 3892SOL    HW123138   3.217   2.834   2.633 -1.1893  3.7524  2.7713
 3892SOL    HW223139   3.360   2.821   2.574  2.8490  1.7983  1.4475
 3893SOL     OW23140   3.763   2.588   0.449 -0.4429  1.0924 -0.1411
 3893SOL    HW123141   3.684   2.571   0.398  0.0252  1.2866 -0.9337
 3893SOL    HW223142   3.795   2.510   0.493 -0.4091 -0.9947 -3.8280
 3894SOL     OW23143   2.081   3.068   1.562 -0.1397  0.4746  0.2564
 3894SOL    HW123144   2.131   3.016   1.498  1.8240 -0.1445  2.2812
 3894SOL    HW223145   2.019   3.003   1.596  0.6865 -0.6083 -0.2721
 3895SOL     OW23146   4.410   2.882   6.763  0.0608 -0.2639  0.2848
 3895SOL    HW123147   4.336   2.940   6.746 -1.1787 -1.3318  2.0402
 3895SOL    HW223148   4.389   2.870   6.856  3.9459  2.4259  1.5077
 3896SOL     OW23149   2.807   3.604   9.065  0.1532  0.0557 -0.0022
 3896SOL    HW123150   2.805   3.691   9.103  1.4615  0.5700 -1.1083
 3896SOL    HW223151   2.780   3.544   9.135  0.2428  0.7676  0.6320
 3897SOL     OW23152   1.348   2.318   3.170 -0.1496 -0.3791 -0.2523
 3897SOL    HW123153   1.366   2.289   3.260 -0.3843  1.3028  0.3393
 3897SOL    HW223154   1.319   2.234   3.133  0.2478 -1.5022  1.9668
 3898SOL     OW23155   0.463   0.442  14.073 -0.5252  0.2877 -0.2641
 3898SOL    HW123156   0.550   0.413  14.100 -0.4928  1.4547  0.9072
 3898SOL    HW223157   0.477   0.536  14.074  0.7239  0.1064 -0.6450
 3899SOL     OW23158   1.152   0.055   8.534 -0.9735 -0.0883 -0.2908
 3899SOL    HW123159   1.239   0.082   8.561 -1.5505  1.5287 -0.0328
 3899SOL    HW223160   1.133   4.694   8.576  0.7297  0.2124  1.0836
 3900SOL     OW23161   2.768   2.482   4.989  0.0740 -0.4043  0.4735
 3900SOL    HW123162   2.721   2.400   4.975 -1.3308  0.6147 -0.7782
 3900SOL    HW223163   2.700   2.535   5.030 -1.9160 -2.0813 -0.7187
 3901SOL     OW23164   0.134   1.697  17.361 -0.4163 -0.0293 -0.3180
 3901SOL    HW123165   0.206   1.653  17.404 -1.8386 -1.9874  0.0418
 3901SOL    HW223166   0.134   1.665  17.270  0.8204 -0.3716 -0.1974
 3902SOL     OW23167   4.610   1.685   7.629 -0.3511 -0.7207  0.0474
 3902SOL    HW123168   4.701   1.659   7.643  0.0545  1.1166  0.8928
 3902SOL    HW223169   4.585   1.629   7.556  1.1200 -0.7349 -0.4658
 3903SOL     OW23170   3.028   2.400   2.878 -0.1667  0.5996  0.0111
 3903SOL    HW123171   2.997   2.475   2.928  2.3366  1.0630  0.8624
 3903SOL    HW223172   3.102   2.438   2.831  1.6506  0.0572  2.4439
 3904SOL     OW23173   2.716   4.494  11.733 -0.1284 -0.4841 -0.0708
 3904SOL    HW123174   2.657   4.569  11.741 -1.1797 -1.1251 -1.7550
 3904SOL    HW223175   2.781   4.513  11.800 -0.3319 -1.4795  0.4110
 3905SOL     OW23176   1.215   0.569   4.553  0.2086  0.1349 -0.4130
 3905SOL    HW123177   1.295   0.599   4.509 -0.8604 -0.6108 -2.8495
 3905SOL    HW223178   1.245   0.483   4.583  0.6721  0.4079 -0.0999
 3906SOL     OW23179   1.253   3.634   8.626  0.0468  0.0725 -0.5475
 3906SOL    HW123180   1.199   3.687   8.684  0.1694 -1.7675  1.2679
 3906SOL    HW223181   1.213   3.547   8.619  0.8764 -0.4322  0.9082
 3907SOL     OW23182   1.754   3.825   5.462  0.2277 -0.1986  0.5792
 3907SOL    HW123183   1.671   3.786   5.491 -0.2861  0.1006 -0.5013
 3907SOL    HW223184   1.776   3.795   5.374  1.0691 -0.0686  0.7454
 3908SOL     OW23185   3.391   3.794   4.376  0.3798  0.1433 -0.3176
 3908SOL    HW123186   3.411   3.790   4.282  0.7393  0.1387 -0.2429
 3908SOL    HW223187   3.478   3.809   4.412  0.7357 -2.2935 -0.1607
 3909SOL     OW23188   2.059   4.151  11.254  0.5512  0.3905  0.8152
 3909SOL    HW123189   2.123   4.222  11.260  1.2238 -0.2401  1.1495
 3909SOL    HW223190   2.095   4.085  11.313 -2.0814 -1.0746  0.7911
 3910SOL     OW23191   4.430   3.822  10.089 -0.3065  0.2993  0.4903
 3910SOL    HW123192   4.517   3.782  10.089  0.6026  2.2820 -0.8178
 3910SOL    HW223193   4.370   3.754  10.119 -1.8770  1.7688  0.6653
 3911SOL     OW23194   0.168   4.300   8.803 -0.2706 -0.5698  0.0957
 3911SOL    HW123195   0.169   4.236   8.732  0.7002 -1.1081  0.5943
 3911SOL    HW223196   0.257   4.295   8.839  0.1031 -2.3277 -1.0529
 3912SOL     OW23197   1.916   0.455   1.771  0.3324  0.1955 -0.1848
 3912SOL    HW123198   1.886   0.476   1.683  1.2400 -0.4246 -0.6400
 3912SOL    HW223199   2.006   0.425   1.760  1.1553  2.8545 -0.7095
 3913SOL     OW23200   2.225   2.951   2.121  0.3320 -1.5149 -0.1920
 3913SOL    HW123201   2.234   2.866   2.079 -1.5615 -1.4565 -0.7061
 3913SOL    HW223202   2.278   3.007   2.064 -0.9821  0.3528  0.4150
 3914SOL     OW23203   4.534   2.719  15.286 -0.2536 -0.2612 -0.3631
 3914SOL    HW123204   4.566   2.672  15.209  0.3961  0.1706 -0.3594
 3914SOL    HW223205   4.527   2.808  15.251 -1.4968 -0.3870 -0.4422
 3915SOL     OW23206   3.334   0.943   2.972 -0.0143  0.1776  0.0591
 3915SOL    HW123207   3.290   1.026   2.952  1.6258  0.5564 -1.9239
 3915SOL    HW223208   3.387   0.930   2.894 -2.0098 -0.8910 -1.1139
 3916SOL     OW23209   2.108   1.833   7.678 -0.2764  0.7377 -0.3943
 3916SOL    HW123210   2.179   1.786   7.634 -0.0437  0.2298  0.5210
 3916SOL    HW223211   2.135   1.829   7.770 -2.3562  0.6943  0.2074
 3917SOL     OW23212   2.927   3.307  14.120  0.2802  0.3474  0.1694
 3917SOL    HW123213   2.991   3.337  14.056  0.7204 -0.4169  0.2569
 3917SOL    HW223214   2.859   3.375  14.119  1.4554  1.4780 -1.2957
 3918SOL     OW23215   2.754   3.926  16.201 -0.2467 -0.0956  0.0592
 3918SOL    HW123216   2.740   3.835  16.175  2.7345 -0.1484 -1.4410
 3918SOL    HW223217   2.670   3.971  16.198  1.4749  3.0650 -0.9026
 3919SOL     OW23218   2.563   0.077   5.849 -0.7808 -0.3428 -0.2936
 3919SOL    HW123219   2.484   0.057   5.899 -0.5313  0.7095  0.5032
 3919SOL    HW223220   2.533   0.072   5.758  1.0699 -1.5229 -0.8602
 3920SOL     OW23221   4.262   1.371   7.980 -0.1260  0.2689 -0.3124
 3920SOL    HW123222   4.275   1.374   7.886  3.0960 -3.1917 -0.0011
 3920SOL    HW223223   4.300   1.285   7.998  0.7746  1.2456  2.4944
 3921SOL     OW23224   3.187   1.938  10.182 -0.2162  0.5043  0.0100
 3921SOL    HW123225   3.210   1.919  10.273  1.2872  1.4322 -0.1599
 3921SOL    HW223226   3.218   2.029  10.181  2.7292 -0.4722  1.7792
 3922SOL     OW23227   3.153   3.596   7.778 -0.3593 -0.1985 -0.3076
 3922SOL    HW123228   3.236   3.644   7.768 -0.1529 -0.3248  0.8039
 3922SOL    HW223229   3.166   3.546   7.858 -0.3173  0.1486 -0.0966
 3923SOL     OW23230   0.781   0.950  15.162  0.2146 -0.1314  0.3644
 3923SOL    HW123231   0.759   0.860  15.188 -1.2053 -0.2875 -1.3778
 3923SOL    HW223232   0.691   0.972  15.138  0.6875  0.0304 -1.2633
 3924SOL     OW23233   0.702   4.044   7.046  0.3732  0.1122  0.0509
 3924SOL    HW123234   0.705   4.139   7.043  0.0271  0.0629 -1.5420
 3924SOL    HW223235   0.609   4.034   7.025  0.3890  0.6473 -0.2697
 3925SOL     OW23236   2.319   4.607  14.983  0.4163 -0.1635 -0.4584
 3925SOL    HW123237   2.306   4.697  14.954  0.5650  0.3800  1.1574
 3925SOL    HW223238   2.374   4.574  14.912  2.8550  2.3247  0.2875
 3926SOL     OW23239   2.002   1.915   4.500  0.1120  0.1938 -0.2829
 3926SOL    HW123240   1.995   1.908   4.595  1.1340 -0.4829 -0.2472
 3926SOL    HW223241   1.931   1.978   4.489  0.5431  1.0111  1.5986
 3927SOL     OW23242   2.256   4.588   9.579 -1.0518 -0.3604  0.3123
 3927SOL    HW123243   2.176   4.587   9.527 -0.2181 -0.7822 -0.9859
 3927SOL    HW223244   2.249   4.507   9.630 -1.2066 -0.0566  0.7705
 3928SOL     OW23245   0.901   2.891  10.765  0.1648 -0.1172  0.2511
 3928SOL    HW123246   0.956   2.969  10.755  0.2663 -0.4590 -1.9521
 3928SOL    HW223247   0.874   2.923  10.851 -1.1468  0.8340 -0.5273
 3929SOL     OW23248   1.367   2.151   6.382  0.4033 -0.2903  0.0182
 3929SOL    HW123249   1.449   2.140   6.333  0.9631 -3.5853  1.7425
 3929SOL    HW223250   1.391   2.191   6.465  0.2143 -0.9799  0.3991
 3930SOL     OW23251   1.012   4.362   7.441 -0.0022  0.6083  0.8089
 3930SOL    HW123252   1.057   4.278   7.428 -1.2649  0.5896 -3.3722
 3930SOL    HW223253   0.948   4.328   7.503 -1.7944 -0.6705 -1.7406
 3931SOL     OW23254   0.925   3.533   1.711  0.0767  0.2337  0.0996
 3931SOL    HW123255   0.845   3.516   1.662  0.9695 -1.0757 -0.8920
 3931SOL    HW223256   0.951   3.447   1.745 -1.1769 -0.2817 -0.2454
 3932SOL     OW23257   4.101   1.142   9.503  0.3335 -0.0417  0.7173
 3932SOL    HW123258   4.189   1.117   9.474  0.6209 -0.6854  2.1268
 3932SOL    HW223259   4.128   1.222   9.548 -0.5982 -0.5486  2.1751
 3933SOL     OW23260   4.145   1.953   3.065  0.1203  0.4186  0.3351
 3933SOL    HW123261   4.098   1.924   2.987  2.7191 -0.6518 -0.8371
 3933SOL    HW223262   4.234   1.975   3.038  0.2356  1.4191  1.5391
 3934SOL     OW23263   4.160   1.202  11.922 -0.3781 -0.1304  0.2983
 3934SOL    HW123264   4.121   1.201  12.010  1.2378  1.6389  1.0452
 3934SOL    HW223265   4.234   1.145  11.939 -0.4609 -0.4585 -0.4401
 3935SOL     OW23266   4.104   3.148   1.723  0.3293 -0.5730 -0.4493
 3935SOL    HW123267   4.100   3.171   1.816  0.7267  0.8719 -0.7930
 3935SOL    HW223268   4.166   3.209   1.684  1.0769 -0.8758  0.2668
 3936SOL     OW23269   3.103   3.852   2.850 -0.1266  0.0388  0.2763
 3936SOL    HW123270   3.149   3.863   2.767 -0.8042  2.1566  0.1665
 3936SOL    HW223271   3.149   3.920   2.900 -2.3940  0.9482  1.1488
 3937SOL     OW23272   1.132   3.678   7.411  0.1933  0.2254  0.2012
 3937SOL    HW123273   1.220   3.715   7.410  0.3331 -0.1098  0.1821
 3937SOL    HW223274   1.155   3.589   7.385  0.7967 -0.1415  1.9703
 3938SOL     OW23275   4.296   1.152   3.974 -0.1487  0.1989 -0.3564
 3938SOL    HW123276   4.359   1.126   4.041 -0.0033 -1.3097 -1.0720
 3938SOL    HW223277   4.307   1.242   3.943 -1.1177 -0.0151 -1.3235
 3939SOL     OW23278   1.997   0.330   2.264  0.1074  0.1862  0.1547
 3939SOL    HW123279   1.965   0.309   2.177 -0.4186 -2.3922  0.9944
 3939SOL    HW223280   1.945   0.410   2.275 -1.2881 -0.6746 -0.3393
 3940SOL     OW23281   4.292   1.909   8.585  0.2798  0.6446  0.1211
 3940SOL    HW123282   4.208   1.955   8.590 -1.7175 -3.2554  2.1146
 3940SOL    HW223283   4.261   1.825   8.550  1.9405  1.2986 -2.9281
 3941SOL     OW23284   4.518   3.098   6.435  0.0644 -0.2168 -0.0459
 3941SOL    HW123285   4.574   3.028   6.469 -0.3517  0.5775  2.3006
 3941SOL    HW223286   4.580   3.170   6.428 -1.9268  1.6968  1.9531
 3942SOL     OW23287   2.251   1.770  16.457 -0.1620 -0.1367 -1.1007
 3942SOL    HW123288   2.280   1.844  16.510 -1.8475  0.4843 -1.0464
 3942SOL    HW223289   2.285   1.698  16.510 -0.5574 -1.0734 -2.1120
 3943SOL     OW23290   3.309   3.167   2.530  0.0935  0.0443  0.3442
 3943SOL    HW123291   3.389   3.196   2.574  0.9259 -1.2853 -0.2873
 3943SOL    HW223292   3.292   3.084   2.575  1.4889 -1.3365 -1.6805
 3944SOL     OW23293   1.123   0.049   8.233  0.0309  0.0258  0.3037
 3944SOL    HW123294   1.209   0.092   8.234 -0.2891  0.7265 -1.7047
 3944SOL    HW223295   1.124   0.035   8.328  0.6276 -0.7682  0.1860
 3945SOL     OW23296   0.368   0.524  13.556 -0.2227 -0.1439 -0.2383
 3945SOL    HW123297   0.439   0.507  13.494 -0.8959  0.5881 -1.2025
 3945SOL    HW223298   0.310   0.451  13.535  0.2804 -1.4725  2.8622
 3946SOL     OW23299   0.400   2.920   4.438 -0.4786  0.1057  0.0513
 3946SOL    HW123300   0.382   2.855   4.505 -2.3458  0.3801 -0.1602
 3946SOL    HW223301   0.441   2.859   4.376 -2.5218 -0.6194 -0.5903
 3947SOL     OW23302   0.910   4.189  14.807 -0.1370 -0.0747 -0.3458
 3947SOL    HW123303   0.825   4.149  14.792  0.2469 -0.8879 -0.3755
 3947SOL    HW223304   0.914   4.262  14.745  0.5912 -0.1521 -0.3927
 3948SOL     OW23305   3.877   4.468   8.614  0.1946 -0.0503  0.5243
 3948SOL    HW123306   3.825   4.491   8.537  1.7642  1.1637 -0.1713
 3948SOL    HW223307   3.807   4.489   8.677 -1.0736 -1.4476 -0.4201
 3949SOL     OW23308   1.511   4.596   6.615  0.3471 -0.1581 -0.1161
 3949SOL    HW123309   1.533   4.504   6.597  1.2301  0.4798 -2.2741
 3949SOL    HW223310   1.426   4.578   6.657  0.7934 -1.3948  0.2742
 3950SOL     OW23311   4.528   0.597   6.217  0.0260  0.0713  0.1783
 3950SOL    HW123312   4.550   0.623   6.128 -0.7162  0.8060  0.2102
 3950SOL    HW223313   4.597   0.636   6.271 -1.8568  0.2298  2.4884
 3951SOL     OW23314   2.153   4.607   9.868  0.1341  0.0732  0.0957
 3951SOL    HW123315   2.176   4.684   9.815  0.6209  0.4071  0.7838
 3951SOL    HW223316   2.223   4.545   9.845  0.4182  0.4962 -0.2006
 3952SOL     OW23317   4.116   4.203   4.370 -0.2783 -0.3857 -0.3260
 3952SOL    HW123318   4.135   4.120   4.414 -0.0976  0.0127  0.3330
 3952SOL    HW223319   4.022   4.192   4.357 -0.0128 -2.3316 -0.5659
 3953SOL     OW23320   2.404   1.460  17.466  0.0958 -0.2740  0.1828
 3953SOL    HW123321   2.356   1.543  17.461  0.4999 -0.1084 -1.0796
 3953SOL    HW223322   2.404   1.441  17.559 -0.5591 -2.6834 -0.3058
 3954SOL     OW23323   4.662   3.676   7.573 -0.0968  0.4704  0.7157
 3954SOL    HW123324   0.003   3.631   7.628 -1.7507 -0.7419  1.6402
 3954SOL    HW223325   4.723   3.702   7.504 -2.5783 -0.3601 -1.7425
 3955SOL     OW23326   3.857   1.148  15.943  0.3909  0.0711 -0.0322
 3955SOL    HW123327   3.768   1.114  15.932 -0.0207  0.2832  2.5526
 3955SOL    HW223328   3.904   1.067  15.966  2.2783  2.0819  3.0777
 3956SOL     OW23329   0.044   4.433  14.333 -0.4857  0.0972 -0.3584
 3956SOL    HW123330   0.037   4.351  14.382 -2.0851  0.5856  0.2148
 3956SOL    HW223331   0.098   4.397  14.263 -1.4171 -0.8451 -0.5837
 3957SOL     OW23332   0.868   1.528   8.502  0.4535 -0.4314 -0.0205
 3957SOL    HW123333   0.882   1.441   8.539  1.9536 -0.4411 -0.6337
 3957SOL    HW223334   0.840   1.580   8.577  2.5132 -0.2332  0.5990
 3958SOL     OW23335   4.586   2.219   4.524 -0.5321 -0.3327 -0.3525
 3958SOL    HW123336   4.499   2.209   4.563 -1.2953  1.6487 -1.5392
 3958SOL    HW223337   4.645   2.176   4.585  0.1319 -0.4597 -1.0921
 3959SOL     OW23338   3.731   1.770   0.912  0.2342  0.1975  0.5961
 3959SOL    HW123339   3.695   1.727   0.989 -1.4834  2.1750  0.8876
 3959SOL    HW223340   3.822   1.739   0.915  0.1254 -0.2569 -0.8014
 3960SOL     OW23341   2.082   1.913  15.104 -0.6234  0.2492 -0.2993
 3960SOL    HW123342   2.163   1.964  15.110  0.7113 -1.7604 -1.0883
 3960SOL    HW223343   2.094   1.867  15.021 -2.1988  1.2830 -1.0968
 3961SOL     OW23344   1.759   2.334  15.308  0.0993  0.7929 -0.1092
 3961SOL    HW123345   1.743   2.262  15.369 -1.6616 -1.2559 -2.9730
 3961SOL    HW223346   1.718   2.294  15.231 -0.9670 -0.2213  0.9883
 3962SOL     OW23347   2.969   0.203   9.986 -0.1160 -0.0938  0.7121
 3962SOL    HW123348   2.903   0.149   9.943  0.3975 -2.5689  3.0789
 3962SOL    HW223349   3.005   0.267   9.924  0.1961  0.5859  1.5990
 3963SOL     OW23350   1.004   2.531   7.993 -0.6088 -0.7492  0.4065
 3963SOL    HW123351   1.097   2.512   8.007 -0.4016 -0.2141 -0.1865
 3963SOL    HW223352   0.985   2.575   8.075  2.5418  1.8472 -0.2379
 3964SOL     OW23353   3.906   1.069  12.551  0.1667 -0.1715 -0.8999
 3964SOL    HW123354   3.820   1.085  12.591  0.3152  3.1913 -1.9871
 3964SOL    HW223355   3.877   1.029  12.469 -1.7362  0.5941 -0.6157
 3965SOL     OW23356   0.741   0.900  13.548  0.3061  0.0906  0.2682
 3965SOL    HW123357   0.745   0.964  13.619  1.9880 -1.0492  1.1846
 3965SOL    HW223358   0.656   0.862  13.570  0.7730 -0.7718  0.5679
 3966SOL     OW23359   0.731   4.332   7.048  0.4423  0.2376 -0.1779
 3966SOL    HW123360   0.808   4.389   7.042  0.1640  0.4326 -1.8763
 3966SOL    HW223361   0.683   4.384   7.112  2.5793  1.2778  0.5969
 3967SOL     OW23362   0.334   1.945  15.059  0.2809 -0.3224  0.0656
 3967SOL    HW123363   0.295   1.984  14.980  0.8928 -0.1736 -0.1576
 3967SOL    HW223364   0.263   1.905  15.109  0.0231  2.0663  1.6169
 3968SOL     OW23365   1.090   2.197   8.762  0.6311  0.2604 -0.3327
 3968SOL    HW123366   1.078   2.288   8.788 -2.3589 -0.2049 -0.1188
 3968SOL    HW223367   1.087   2.203   8.666 -0.5217  0.6902 -0.2683
 3969SOL     OW23368   0.071   2.021   8.100 -0.0305  0.0676  0.0019
 3969SOL    HW123369   4.702   2.033   8.077 -0.2779  1.8635  1.9691
 3969SOL    HW223370   0.055   1.933   8.135 -0.5153  0.7052  1.3707
 3970SOL     OW23371   1.304   2.891   6.938 -0.0357  0.2271  0.5098
 3970SOL    HW123372   1.227   2.945   6.955  0.0780 -0.0309  1.8048
 3970SOL    HW223373   1.275   2.834   6.867 -0.8524  2.5086 -1.0052
 3971SOL     OW23374   4.665   1.411   8.407 -0.5275 -0.1500 -0.2246
 3971SOL    HW123375   4.588   1.408   8.463  0.3732 -2.4975  0.9275
 3971SOL    HW223376   4.685   1.318   8.392  5.1753  1.2556 -1.6453
 3972SOL     OW23377   3.037   4.477   4.428 -0.2600 -0.3869  0.2983
 3972SOL    HW123378   3.024   4.543   4.496  0.9913 -0.6621  0.7986
 3972SOL    HW223379   3.118   4.432   4.450  0.0459  0.3860  0.7540
 3973SOL     OW23380   0.066   0.621  11.805  0.1220  0.2746 -0.1964
 3973SOL    HW123381   4.705   0.660  11.830  0.1904  0.0200  0.4489
 3973SOL    HW223382   0.033   0.533  11.820 -1.8212  0.7352 -1.8583
 3974SOL     OW23383   3.754   1.968   9.597 -0.0064  0.0670  0.0417
 3974SOL    HW123384   3.683   1.961   9.662  0.2055 -2.3279  0.0117
 3974SOL    HW223385   3.745   2.051   9.550 -0.1070  0.4940  0.8144
 3975SOL     OW23386   0.634   2.075  14.895  0.0368  0.2355  0.1853
 3975SOL    HW123387   0.573   2.057  14.824  0.6438 -0.5874 -0.1424
 3975SOL    HW223388   0.685   2.146  14.857  0.5634  0.5518  1.4751
 3976SOL     OW23389   2.186   1.665   8.910 -0.2781 -0.5085  0.2910
 3976SOL    HW123390   2.109   1.715   8.881 -0.6687 -0.4622  1.3904
 3976SOL    HW223391   2.155   1.579   8.883 -0.0319 -0.0696 -1.4312
 3977SOL     OW23392   4.095   2.759   6.865  0.5242 -0.6743  0.4747
 3977SOL    HW123393   4.097   2.673   6.822 -0.2687 -0.1469 -0.6420
 3977SOL    HW223394   4.093   2.820   6.791 -0.7887 -1.7248 -0.3638
 3978SOL     OW23395   0.435   3.346   2.628  0.7008 -0.6889  0.0838
 3978SOL    HW123396   0.420   3.252   2.614 -0.3771 -0.3319 -1.2029
 3978SOL    HW223397   0.352   3.379   2.592  0.7031  0.6861  1.3308
 3979SOL     OW23398   2.557   3.775   8.006 -0.4295 -0.0232 -0.0795
 3979SOL    HW123399   2.490   3.749   8.070 -0.8817  1.0417 -0.1235
 3979SOL    HW223400   2.595   3.850   8.051 -1.3052 -0.2317  1.0071
 3980SOL     OW23401   2.639   0.342   4.244  0.1071 -0.5532  0.5013
 3980SOL    HW123402   2.673   0.419   4.198  0.9824 -1.6433 -0.6573
 3980SOL    HW223403   2.714   0.325   4.301  1.1344  3.7043  0.4487
 3981SOL     OW23404   1.535   2.276   5.161 -0.3592  0.1913 -0.1434
 3981SOL    HW123405   1.479   2.350   5.139 -1.3367  0.2432  2.5180
 3981SOL    HW223406   1.489   2.229   5.230  0.0786 -2.0074 -1.3775
 3982SOL     OW23407   4.312   3.905   7.158 -0.4535 -0.5845  0.4448
 3982SOL    HW123408   4.344   3.886   7.070 -3.7220  1.9479 -1.3123
 3982SOL    HW223409   4.232   3.853   7.172 -1.3462  0.3809 -1.0751
 3983SOL     OW23410   1.063   2.426   3.139 -0.4179  0.4212  0.8528
 3983SOL    HW123411   1.099   2.499   3.089 -0.7623  0.8856  1.2801
 3983SOL    HW223412   1.136   2.369   3.163 -0.4535 -0.1601 -0.4304
 3984SOL     OW23413   2.071   2.894   5.414  0.2464 -0.3948  0.0116
 3984SOL    HW123414   1.981   2.893   5.446  0.7263 -0.2332  1.3743
 3984SOL    HW223415   2.104   2.822   5.467 -0.2458 -1.9355 -1.7882
 3985SOL     OW23416   2.900   0.285  15.583  0.2418 -0.1136 -0.5536
 3985SOL    HW123417   2.914   0.240  15.667 -0.5933 -1.9249 -1.3837
 3985SOL    HW223418   2.950   0.366  15.596 -0.9309  0.6111 -0.5840
 3986SOL     OW23419   1.693   0.406   5.991 -0.0236  0.1301  0.4647
 3986SOL    HW123420   1.669   0.364   6.074 -0.4621  0.1962  0.3705
 3986SOL    HW223421   1.771   0.355   5.967  0.1403  0.2561  0.7227
 3987SOL     OW23422   3.065   1.741   4.798 -0.3643  0.1623 -0.0838
 3987SOL    HW123423   3.082   1.827   4.837  0.8999 -0.0245 -0.2220
 3987SOL    HW223424   3.154   1.707   4.790  0.3962  2.0383  0.2229
 3988SOL     OW23425   1.644   3.882  12.833 -0.5886 -0.0090 -0.4671
 3988SOL    HW123426   1.623   3.802  12.881 -1.8643  1.3679  1.3040
 3988SOL    HW223427   1.679   3.846  12.752  0.5947 -0.6103  0.3133
 3989SOL     OW23428   2.178   2.642   3.435  0.2768  0.1916  0.0923
 3989SOL    HW123429   2.271   2.629   3.457  0.2785 -0.2244 -0.1513
 3989SOL    HW223430   2.149   2.554   3.458 -2.2455  1.5096  1.8207
 3990SOL     OW23431   4.082   1.730   4.911  0.0822 -0.2712 -0.1820
 3990SOL    HW123432   4.089   1.685   4.827  0.8668  3.4926 -2.1388
 3990SOL    HW223433   4.084   1.658   4.974 -0.6512  0.0777  0.2321
 3991SOL     OW23434   2.356   2.202  13.567  0.2656 -0.3509 -0.5750
 3991SOL    HW123435   2.270   2.243  13.571  0.7521  0.6866 -0.6743
 3991SOL    HW223436   2.404   2.275  13.527 -2.4599  0.8029 -1.7130
 3992SOL     OW23437   1.751   0.031   8.621  0.1291  0.4737  0.2232
 3992SOL    HW123438   1.711   0.018   8.535 -0.1957 -1.2188  0.6398
 3992SOL    HW223439   1.699   4.694   8.675  0.5904 -2.0968 -2.1808
 3993SOL     OW23440   1.970   1.017   6.011  0.5235 -0.2632 -0.0099
 3993SOL    HW123441   1.876   1.000   5.998  0.4884  0.8359 -1.1495
 3993SOL    HW223442   1.954   1.097   6.061 -1.3559  0.4629 -1.7833
 3994SOL     OW23443   4.076   3.376  10.330  0.2257  0.1963 -1.0887
 3994SOL    HW123444   4.016   3.417  10.267  0.9839  2.9908 -0.0034
 3994SOL    HW223445   4.146   3.441  10.329  0.4617 -0.0342  0.8051
 3995SOL     OW23446   2.887   2.998  13.805  0.2531  0.3744  0.2381
 3995SOL    HW123447   2.954   2.979  13.871  0.6616  1.6820  0.1921
 3995SOL    HW223448   2.920   3.079  13.768  3.1057  0.1563  2.3574
 3996SOL     OW23449   2.180   3.667   8.465  0.1744 -0.4594 -0.5853
 3996SOL    HW123450   2.108   3.604   8.467  1.3741 -1.8585 -0.5366
 3996SOL    HW223451   2.150   3.732   8.528  0.7059 -0.6317 -0.1547
 3997SOL     OW23452   1.579   3.764   1.765 -0.0132 -0.2699  0.7767
 3997SOL    HW123453   1.597   3.744   1.673 -2.1169 -0.1803  0.3496
 3997SOL    HW223454   1.496   3.716   1.767  0.8293 -1.7299  1.1284
 3998SOL     OW23455   3.163   4.332  12.495  0.8399 -0.2236 -0.5682
 3998SOL    HW123456   3.098   4.351  12.428  0.8316  0.8520 -0.2617
 3998SOL    HW223457   3.124   4.257  12.540  2.1087  1.1682  2.8312
 3999SOL     OW23458   3.656   3.109   7.357  0.4898 -0.4703  0.0404
 3999SOL    HW123459   3.643   3.201   7.375 -0.4538 -0.1532 -2.2545
 3999SOL    HW223460   3.610   3.065   7.428  0.7685 -0.4226  0.2496
 4000SOL     OW23461   0.307   4.614   5.963  0.6081 -0.0088 -0.1664
 4000SOL    HW123462   0.248   4.552   5.921 -0.2209 -0.3939  1.5489
 4000SOL    HW223463   0.394   4.584   5.937  0.4209  1.1656 -2.1052
 4001SOL     OW23464   0.448   1.077   3.289 -0.4271 -0.5621  0.1513
 4001SOL    HW123465   0.372   1.127   3.259  0.5040  0.3048 -0.7934
 4001SOL    HW223466   0.518   1.117   3.237 -0.5442 -0.2994  0.1972
 4002SOL     OW23467   4.653   2.879   4.333  0.1062  0.8585 -0.4429
 4002SOL    HW123468   4.602   2.876   4.252 -0.9154 -0.5818  0.2492
 4002SOL    HW223469   0.022   2.895   4.312  0.2484 -0.8831 -1.1388
 4003SOL     OW23470   4.525   1.212   3.522 -0.7182  0.1953 -0.0836
 4003SOL    HW123471   4.451   1.272   3.507 -1.5799 -0.9789 -0.5389
 4003SOL    HW223472   4.535   1.169   3.437 -0.9567  0.5555 -0.2985
 4004SOL     OW23473   2.994   0.505  11.254 -0.4377 -0.1189 -0.1711
 4004SOL    HW123474   3.062   0.572  11.248 -0.5462 -0.0060 -0.1455
 4004SOL    HW223475   2.994   0.465  11.168 -3.3716  0.8059 -0.6116
 4005SOL     OW23476   0.073   1.426   6.193  0.7000 -0.5280 -0.1355
 4005SOL    HW123477   0.105   1.355   6.138 -0.6340  0.4316 -2.1395
 4005SOL    HW223478   0.065   1.498   6.130  0.7705 -0.1822  0.2468
 4006SOL     OW23479   0.138   3.583   6.060 -0.2539 -0.1157  0.0313
 4006SOL    HW123480   0.078   3.643   6.104 -0.1548  1.0975 -1.4877
 4006SOL    HW223481   0.072   3.534   6.011  1.3024 -0.4957 -1.7148
 4007SOL     OW23482   3.421   0.119   4.212  0.5322  0.2100  0.6375
 4007SOL    HW123483   3.497   0.112   4.270  0.9794  1.8094  0.2435
 4007SOL    HW223484   3.389   0.030   4.221 -2.9630  1.6158  2.2243
 4008SOL     OW23485   2.709   3.382   9.231 -0.4005 -0.1592 -0.2117
 4008SOL    HW123486   2.626   3.386   9.184 -0.9472 -2.5131  0.5421
 4008SOL    HW223487   2.735   3.292   9.210 -0.0412 -0.3633  1.1424
 4009SOL     OW23488   1.825   4.579   2.984  0.9443 -0.3294 -0.1960
 4009SOL    HW123489   1.786   4.600   3.069 -2.2505  0.0476 -1.7582
 4009SOL    HW223490   1.748   4.559   2.931  1.1221 -1.9738  0.1966
 4010SOL     OW23491   1.965   4.033   8.200  0.8644  0.8734  0.0859
 4010SOL    HW123492   2.050   4.056   8.162  1.5553 -1.2276  0.3703
 4010SOL    HW223493   1.926   4.019   8.113  0.5957  2.2002 -0.0038
 4011SOL     OW23494   3.706   0.812   3.221  0.0640  0.3997  0.1845
 4011SOL    HW123495   3.619   0.786   3.251  0.1492 -0.9358 -0.7162
 4011SOL    HW223496   3.718   0.881   3.286 -0.6874  0.4849  0.2247
 4012SOL     OW23497   0.680   1.713  11.590  0.1580  0.2029 -0.4848
 4012SOL    HW123498   0.612   1.776  11.612 -1.3109 -1.0693 -1.4185
 4012SOL    HW223499   0.729   1.763  11.525  2.9492 -0.0138  1.4592
 4013SOL     OW23500   4.379   2.320   9.072 -0.0394  0.0500 -0.2901
 4013SOL    HW123501   4.352   2.232   9.047 -1.3091  0.5516 -0.6498
 4013SOL    HW223502   4.344   2.371   8.999  0.3015 -0.4654 -0.8038
 4014SOL     OW23503   3.346   2.867   5.453  0.1723  0.3063  0.4181
 4014SOL    HW123504   3.377   2.946   5.410  1.2788 -0.7504 -0.7305
 4014SOL    HW223505   3.251   2.868   5.441  0.3119  0.2626 -0.6431
 4015SOL     OW23506   2.687   3.632   8.814 -0.1630  0.3224 -0.6345
 4015SOL    HW123507   2.709   3.612   8.905 -0.1590  2.0490 -0.2566
 4015SOL    HW223508   2.702   3.727   8.818  0.5590 -0.0258  4.6812
 4016SOL     OW23509   1.551   2.774   6.047 -0.1172  0.0935  0.4274
 4016SOL    HW123510   1.616   2.803   6.112  0.5764  2.4364 -1.3211
 4016SOL    HW223511   1.523   2.692   6.088  0.4121 -0.6142 -0.6345
 4017SOL     OW23512   3.229   3.698   6.936 -0.2717  0.2629 -0.7836
 4017SOL    HW123513   3.255   3.611   6.969 -0.8663  0.1018 -0.7414
 4017SOL    HW223514   3.139   3.673   6.914  0.0836 -0.8298 -1.0291
 4018SOL     OW23515   2.885   4.505   5.773 -0.7648 -0.5258 -0.2321
 4018SOL    HW123516   2.838   4.573   5.821 -0.5175 -1.3262  1.1389
 4018SOL    HW223517   2.849   4.422   5.805  0.9915 -0.4617  1.8938
 4019SOL     OW23518   2.311   0.957   7.544  0.0239  0.2223  0.2730
 4019SOL    HW123519   2.262   0.996   7.471  1.0618  2.2974  0.6971
 4019SOL    HW223520   2.305   1.019   7.616 -1.7831 -2.0123  2.0480
 4020SOL     OW23521   4.665   0.186   9.168  1.1110 -0.2229  0.0380
 4020SOL    HW123522   4.591   0.168   9.111  0.8973 -0.6264  0.4391
 4020SOL    HW223523   4.722   0.241   9.115  1.7671  0.3038  1.2705
 4021SOL     OW23524   1.010   1.318   1.997 -0.3320 -0.8330 -0.4258
 4021SOL    HW123525   0.924   1.281   2.018 -0.1920 -0.6024  0.5817
 4021SOL    HW223526   1.037   1.265   1.922  0.4781 -0.2050 -0.5821
 4022SOL     OW23527   1.901   0.692  11.141 -0.8336 -0.6101 -0.3616
 4022SOL    HW123528   1.948   0.611  11.125  1.2773 -0.3042  4.1812
 4022SOL    HW223529   1.928   0.710  11.231 -1.3793 -1.8928  0.0565
 4023SOL     OW23530   1.530   1.790   4.317  0.9095 -0.0212 -0.7096
 4023SOL    HW123531   1.565   1.753   4.398 -0.7843  3.9274  1.8522
 4023SOL    HW223532   1.479   1.718   4.280  0.3470  0.7758 -1.5110
 4024SOL     OW23533   3.129   3.555  12.982  0.3606 -0.5214  0.5264
 4024SOL    HW123534   3.102   3.604  12.904 -1.6483 -1.5864  0.5486
 4024SOL    HW223535   3.185   3.619  13.026  1.3275 -0.3985 -0.8866
 4025SOL     OW23536   4.139   2.976   0.246 -0.0083 -0.1728  0.2546
 4025SOL    HW123537   4.121   2.882   0.235  1.3474 -0.1927 -1.9869
 4025SOL    HW223538   4.049   3.007   0.250 -0.1975 -0.6013 -0.5918
 4026SOL     OW23539   0.070   2.418   7.480  0.4406  0.6172  0.0240
 4026SOL    HW123540   4.718   2.382   7.432  1.0213 -0.0578 -0.3771
 4026SOL    HW223541   0.062   2.509   7.450  1.4995  1.2964  1.7854
 4027SOL     OW23542   1.898   3.617   0.286 -0.1766  0.8156  0.1490
 4027SOL    HW123543   1.805   3.595   0.281 -0.4826  2.4660 -1.4463
 4027SOL    HW223544   1.889   3.702   0.327  2.3786  1.2304 -0.1417
 4028SOL     OW23545   1.124   1.571   6.776  0.4822  0.3052  0.0976
 4028SOL    HW123546   1.038   1.533   6.760  1.3838 -2.2830  1.3249
 4028SOL    HW223547   1.148   1.580   6.684  1.7497  0.4859  0.4381
 4029SOL     OW23548   2.909   0.874  14.440 -0.3207 -0.3314  0.1236
 4029SOL    HW123549   2.956   0.956  14.424  1.2113 -1.1355  0.4518
 4029SOL    HW223550   2.828   0.898  14.395 -0.4117 -1.9620 -0.5958
 4030SOL     OW23551   2.821   4.360  11.079  0.4469 -0.5000  0.4863
 4030SOL    HW123552   2.792   4.304  11.007  0.6266 -0.9046  0.7222
 4030SOL    HW223553   2.811   4.307  11.159  1.8699 -0.4253  0.7143
 4031SOL     OW23554   2.240   2.188   0.364  0.5994  0.5110 -0.1872
 4031SOL    HW123555   2.233   2.187   0.460 -1.6846  0.9857 -0.3330
 4031SOL    HW223556   2.174   2.256   0.349 -1.0353 -0.5295  2.2954
 4032SOL     OW23557   0.534   2.695  11.681 -0.0456  0.3179 -0.3836
 4032SOL    HW123558   0.594   2.657  11.745 -0.5434  1.4325  0.7385
 4032SOL    HW223559   0.456   2.645  11.704 -1.0232  0.6462 -2.9997
 4033SOL     OW23560   0.057   3.666   0.323 -0.0561  0.2629 -0.0338
 4033SOL    HW123561   0.087   3.753   0.295 -3.2917  0.7833 -1.9008
 4033SOL    HW223562   0.019   3.623   0.247 -0.0682  0.0280  0.1066
 4034SOL     OW23563   1.461   1.185   4.444 -0.0338  0.0381  0.7592
 4034SOL    HW123564   1.545   1.205   4.484 -0.2781  2.5969 -0.0330
 4034SOL    HW223565   1.433   1.264   4.398  0.5545  0.6765  1.5024
 4035SOL     OW23566   4.682   3.950  13.138 -0.3716 -0.2611 -0.0183
 4035SOL    HW123567   4.598   3.960  13.093  0.3141 -0.1603 -1.2722
 4035SOL    HW223568   0.000   3.884  13.083 -1.2080 -1.3150  0.6147
 4036SOL     OW23569   3.205   4.243   1.074 -0.1064  0.5617  0.2167
 4036SOL    HW123570   3.131   4.202   1.031 -0.8421  2.0700  0.0420
 4036SOL    HW223571   3.177   4.225   1.164 -1.5329 -1.3650 -0.6369
 4037SOL     OW23572   4.442   0.186   4.772 -0.3980 -0.4720 -0.1974
 4037SOL    HW123573   4.433   0.106   4.721 -0.8372  0.6096 -1.8182
 4037SOL    HW223574   4.525   0.215   4.734 -0.5539  1.6461  1.0620
 4038SOL     OW23575   2.260   2.470   7.894 -0.1454  0.6515  0.0344
 4038SOL    HW123576   2.305   2.494   7.975  0.2317 -2.0711  0.6322
 4038SOL    HW223577   2.255   2.375   7.897  0.3101  0.5700 -2.2294
 4039SOL     OW23578   1.387   0.277   3.311  0.2937 -0.4174  0.1460
 4039SOL    HW123579   1.401   0.246   3.222  3.3965 -0.1561  0.5242
 4039SOL    HW223580   1.294   0.297   3.321  0.3201 -1.4203  2.4969
 4040SOL     OW23581   0.426   1.450   5.961  0.0968 -0.3124  0.4536
 4040SOL    HW123582   0.347   1.431   5.911  0.3329  2.1190 -0.8411
 4040SOL    HW223583   0.422   1.542   5.984 -0.1328  0.5645 -3.0428
 4041SOL     OW23584   2.165   1.570   2.910  0.7778 -0.0283  0.0136
 4041SOL    HW123585   2.209   1.575   2.995 -1.4289  2.0909  1.0409
 4041SOL    HW223586   2.172   1.658   2.873 -1.5066 -0.0979 -0.5737
 4042SOL     OW23587   3.395   2.585   3.905  0.5636  0.0144  0.0789
 4042SOL    HW123588   3.403   2.676   3.933 -0.3500 -0.3461  1.5013
 4042SOL    HW223589   3.485   2.554   3.915  0.4001  0.4017  2.6533
 4043SOL     OW23590   0.637   3.885   7.421 -0.8228 -0.0846 -0.0318
 4043SOL    HW123591   0.659   3.930   7.503 -1.9669  3.4845 -1.6921
 4043SOL    HW223592   0.712   3.907   7.366 -0.5369 -0.8344  0.0646
 4044SOL     OW23593   0.604   2.746   2.160 -0.4333 -0.3551  0.6196
 4044SOL    HW123594   0.550   2.766   2.083 -0.3453 -1.8686  0.1642
 4044SOL    HW223595   0.659   2.819   2.190 -2.6006  1.2627  0.6479
 4045SOL     OW23596   2.627   1.278  10.209 -0.4611 -0.3386 -0.1214
 4045SOL    HW123597   2.596   1.246  10.294 -2.0838  1.4273 -0.0346
 4045SOL    HW223598   2.668   1.358  10.241  0.0642 -0.3735 -0.7051
 4046SOL     OW23599   2.287   3.586   9.171  0.1646  0.1176  0.2370
 4046SOL    HW123600   2.276   3.652   9.103 -0.5289 -0.9019 -0.6465
 4046SOL    HW223601   2.204   3.539   9.166  0.0135  0.2450  1.7280
 4047SOL     OW23602   4.621   2.492   2.537 -0.5940  0.7277 -0.4660
 4047SOL    HW123603   4.558   2.494   2.465  0.0184 -0.7149 -1.0322
 4047SOL    HW223604   4.682   2.421   2.518 -2.0090 -0.7164  0.2969
 4048SOL     OW23605   1.398   3.263  13.931 -0.0699 -0.0370  0.1357
 4048SOL    HW123606   1.484   3.304  13.930 -1.2252  2.3652 -0.8082
 4048SOL    HW223607   1.414   3.188  13.874  1.4834  0.8008 -0.5295
 4049SOL     OW23608   3.214   1.650   3.835  0.3054  0.4481 -0.7196
 4049SOL    HW123609   3.183   1.640   3.925  0.7656  0.8358 -0.5151
 4049SOL    HW223610   3.134   1.642   3.783 -0.1715  0.5613 -0.0035
 4050SOL     OW23611   3.939   3.901   6.179 -0.6723 -0.7712  0.6531
 4050SOL    HW123612   3.910   3.884   6.089  0.9413 -0.8949  0.1526
 4050SOL    HW223613   3.961   3.810   6.198 -0.6521 -1.3665 -2.3084
 4051SOL     OW23614   2.592   2.321   9.145  0.0672 -0.0519 -0.9272
 4051SOL    HW123615   2.546   2.342   9.226  2.8294 -0.6186  0.7675
 4051SOL    HW223616   2.599   2.228   9.168 -0.3277  0.4001  0.9806
 4052SOL     OW23617   3.110   1.621   1.944  0.2846 -0.3722 -0.2606
 4052SOL    HW123618   3.022   1.603   1.909  1.1016  0.8976 -2.9696
 4052SOL    HW223619   3.090   1.630   2.037  0.2549 -1.9936 -0.1007
 4053SOL     OW23620   4.352   3.321  14.012 -0.0618 -0.6943  0.5121
 4053SOL    HW123621   4.440   3.305  14.045  0.5769  4.1715  1.1062
 4053SOL    HW223622   4.301   3.295  14.088  0.1172 -1.2398  0.4499
 4054SOL     OW23623   4.083   3.018   6.264 -0.8327  0.2874 -0.2308
 4054SOL    HW123624   4.047   2.933   6.240 -1.0830  0.5710 -0.8655
 4054SOL    HW223625   4.178   3.006   6.256 -0.9576 -0.9628  0.1987
 4055SOL     OW23626   1.459   0.672   4.498 -0.4751  0.2242  0.1876
 4055SOL    HW123627   1.430   0.729   4.569 -2.2013  1.1715 -1.2761
 4055SOL    HW223628   1.491   0.737   4.435 -1.8250 -1.7193 -2.5296
 4056SOL     OW23629   3.262   2.685   8.994 -0.0774  0.3209 -0.0162
 4056SOL    HW123630   3.263   2.749   9.065  1.6022  2.4424 -1.9403
 4056SOL    HW223631   3.347   2.643   9.005 -0.8333 -1.4283 -0.8609
 4057SOL     OW23632   0.548   1.491  16.523  0.6837 -0.5290  0.0383
 4057SOL    HW123633   0.604   1.431  16.572 -1.4299 -2.2140  0.3830
 4057SOL    HW223634   0.616   1.541  16.478 -2.5456  2.2206 -1.7719
 4058SOL     OW23635   2.678   1.083   2.561  0.2063  0.5883  0.5546
 4058SOL    HW123636   2.644   1.168   2.587 -1.8922 -0.2945  0.7329
 4058SOL    HW223637   2.652   1.083   2.469 -0.3319 -4.3601  0.6885
 4059SOL     OW23638   4.427   2.709   3.782  0.2742  0.3379 -0.0812
 4059SOL    HW123639   4.434   2.787   3.726 -1.3279  0.7235  0.2508
 4059SOL    HW223640   4.512   2.669   3.763  0.7654  1.1374  0.4120
 4060SOL     OW23641   3.289   3.913   3.054  0.6198  0.0639 -0.6890
 4060SOL    HW123642   3.373   3.959   3.046  1.2940 -0.7679  1.7988
 4060SOL    HW223643   3.321   3.823   3.047  1.8259  0.3912  0.7234
 4061SOL     OW23644   3.935   2.612   0.065  0.8405  0.2162 -0.6622
 4061SOL    HW123645   3.928   2.536   0.123 -0.4244 -1.4795 -3.0435
 4061SOL    HW223646   4.015   2.593   0.015  0.4631  0.1578 -1.2503
 4062SOL     OW23647   0.070   2.034   5.339 -0.6468  0.5996 -0.7676
 4062SOL    HW123648   4.704   2.020   5.371 -0.5944  2.2644  0.0958
 4062SOL    HW223649   0.065   2.074   5.252  1.8911 -0.5726 -1.4336
 4063SOL     OW23650   0.068   1.709   6.634 -0.0436 -0.1377 -0.1608
 4063SOL    HW123651   0.079   1.645   6.564  3.1956  0.6479 -0.3675
 4063SOL    HW223652   4.699   1.731   6.651 -0.3644 -2.4574  1.0640
 4064SOL     OW23653   1.552   3.078   7.901  0.3367  0.3854 -0.0006
 4064SOL    HW123654   1.611   3.027   7.846 -0.6754  0.5445 -1.2388
 4064SOL    HW223655   1.567   3.165   7.863 -2.2759  0.7814 -0.1841
 4065SOL     OW23656   0.762   0.959   3.535 -0.5800 -0.0295  0.8882
 4065SOL    HW123657   0.715   0.876   3.526 -0.9971  0.3962 -0.7550
 4065SOL    HW223658   0.682   1.012   3.543 -0.9654 -0.4273 -0.2937
 4066SOL     OW23659   2.183   0.009   4.564 -0.1525 -0.0489 -0.1162
 4066SOL    HW123660   2.185   0.100   4.593  0.0890  0.2687 -1.1472
 4066SOL    HW223661   2.156   0.016   4.472  3.2216  2.5325 -0.8976
 4067SOL     OW23662   0.737   4.648   5.166 -0.3083  0.4222 -0.0652
 4067SOL    HW123663   0.672   4.636   5.236  0.3385 -0.2703  0.4046
 4067SOL    HW223664   0.786   4.566   5.163  0.0784  0.5868  1.5107
 4068SOL     OW23665   3.304   1.237   7.704 -0.1235 -0.7326 -0.4193
 4068SOL    HW123666   3.398   1.246   7.688  0.1470  1.0023  2.2157
 4068SOL    HW223667   3.273   1.210   7.617  3.7719 -2.6928 -1.2075
 4069SOL     OW23668   3.101   0.160   3.616 -0.6717 -0.6094 -0.0984
 4069SOL    HW123669   3.027   0.166   3.677  0.0027 -2.1310  0.8739
 4069SOL    HW223670   3.054   0.141   3.535  1.6729 -0.7699 -1.4154
 4070SOL     OW23671   1.203   1.968   1.425  0.0459 -0.0379  0.1484
 4070SOL    HW123672   1.128   1.971   1.366  1.5747 -0.5729 -1.8412
 4070SOL    HW223673   1.264   1.917   1.371 -1.8774 -1.3045 -0.8060
 4071SOL     OW23674   1.089   1.342   7.207  0.7917  0.7915  0.3606
 4071SOL    HW123675   1.043   1.258   7.208 -0.0150  1.2322  0.9691
 4071SOL    HW223676   1.132   1.336   7.121 -0.6781 -1.6352 -0.2116
 4072SOL     OW23677   4.199   2.312   5.699  0.5671 -0.1528 -0.1893
 4072SOL    HW123678   4.257   2.274   5.765  1.3155 -0.2566 -0.8913
 4072SOL    HW223679   4.247   2.392   5.676 -0.1321  0.1386 -0.6181
 4073SOL     OW23680   2.853   1.313   8.003  0.3030 -0.0517  0.6446
 4073SOL    HW123681   2.790   1.299   8.075 -0.9472 -1.9816 -0.8166
 4073SOL    HW223682   2.902   1.232   8.017  0.2390 -0.7477 -3.3148
 4074SOL     OW23683   4.289   0.390   2.773 -0.1432  0.4492 -0.2796
 4074SOL    HW123684   4.372   0.342   2.767  0.5887  1.8799 -1.8669
 4074SOL    HW223685   4.315   0.483   2.771 -3.2156  1.3089  0.2093
 4075SOL     OW23686   1.540   0.627   3.640 -0.0521  0.0923  0.1190
 4075SOL    HW123687   1.552   0.611   3.546  1.0943  0.2875  0.2228
 4075SOL    HW223688   1.464   0.572   3.659  0.4646 -0.5197  0.4109
 4076SOL     OW23689   3.164   4.429  10.853  0.2989 -0.2077  0.3272
 4076SOL    HW123690   3.237   4.382  10.893  0.4224 -0.7527 -0.5326
 4076SOL    HW223691   3.113   4.357  10.815 -0.0364 -0.9842  2.2773
 4077SOL     OW23692   2.365   1.156  12.557 -0.5564 -0.1679 -0.0280
 4077SOL    HW123693   2.449   1.200  12.547 -0.5050  0.2612  2.1854
 4077SOL    HW223694   2.312   1.219  12.607 -0.9351  0.8640 -1.7217
 4078SOL     OW23695   2.612   0.871   2.875 -0.0396 -0.5427  0.0981
 4078SOL    HW123696   2.551   0.937   2.908  1.0830  0.7543 -0.4413
 4078SOL    HW223697   2.551   0.831   2.813  0.7613 -3.1469  0.9843
 4079SOL     OW23698   3.525   4.271  14.376  0.4840 -0.1027  0.3014
 4079SOL    HW123699   3.521   4.318  14.293  1.9114  0.2594  0.4436
 4079SOL    HW223700   3.485   4.323  14.446 -1.2891 -0.8715 -0.1610
 4080SOL     OW23701   1.332   1.043  10.026 -0.3735 -0.2404 -0.5150
 4080SOL    HW123702   1.298   0.960  10.058 -0.9143  0.7514  1.5028
 4080SOL    HW223703   1.407   1.013   9.975  0.3735  1.4347 -0.4074
 4081SOL     OW23704   2.890   4.105  10.070 -0.2895 -0.2698 -0.3742
 4081SOL    HW123705   2.796   4.118  10.068 -0.1024  1.0310 -0.6080
 4081SOL    HW223706   2.915   4.128  10.160 -0.1125  1.2599 -0.8203
 4082SOL     OW23707   2.917   0.532   6.365  0.4445  0.0489 -0.5454
 4082SOL    HW123708   2.923   0.627   6.358  0.0139  0.1979  1.1240
 4082SOL    HW223709   2.932   0.507   6.274  1.1302 -2.4923  0.2657
 4083SOL     OW23710   4.400   2.376  11.130 -0.2298  0.2342 -0.1187
 4083SOL    HW123711   4.488   2.376  11.092 -0.0145 -1.7431  0.3907
 4083SOL    HW223712   4.393   2.280  11.126 -0.9692  0.2681  0.3300
 4084SOL     OW23713   2.098   3.801   6.125  0.2002 -0.1082 -0.4600
 4084SOL    HW123714   2.100   3.851   6.207 -0.9268 -1.2856  0.2889
 4084SOL    HW223715   2.134   3.717   6.152 -0.8167  0.7878  3.6157
 4085SOL     OW23716   0.868   4.304  13.614  0.3835  0.0350  0.2291
 4085SOL    HW123717   0.942   4.366  13.611  0.3681 -0.0140 -1.4403
 4085SOL    HW223718   0.795   4.361  13.637 -1.7647 -2.2730 -0.7981
 4086SOL     OW23719   1.079   1.097   8.766 -0.6638  0.5148 -0.2922
 4086SOL    HW123720   1.113   1.025   8.712  1.1437  0.7543  0.5219
 4086SOL    HW223721   1.125   1.074   8.848  1.0280 -1.5866 -1.8279
 4087SOL     OW23722   4.061   2.265   2.951 -0.3865 -0.2344  0.4854
 4087SOL    HW123723   4.126   2.274   2.880 -0.8641  1.2056  0.2324
 4087SOL    HW223724   4.126   2.251   3.020 -0.5469 -1.5190  0.3620
 4088SOL     OW23725   2.077   0.160   3.723 -0.1288 -0.0401  0.4511
 4088SOL    HW123726   2.135   0.086   3.708  0.9423  0.6593  1.0567
 4088SOL    HW223727   2.117   0.194   3.803  1.0125  0.8307 -0.4828
 4089SOL     OW23728   3.569   0.874   2.038  0.1727 -0.1349 -0.2327
 4089SOL    HW123729   3.635   0.933   2.073  0.8930 -0.7902 -0.4751
 4089SOL    HW223730   3.607   0.792   2.069  0.8314  0.6295  0.9964
 4090SOL     OW23731   2.481   1.585  12.587 -0.0601 -0.2368 -0.3966
 4090SOL    HW123732   2.427   1.614  12.514 -0.7748  0.3771  0.3737
 4090SOL    HW223733   2.437   1.501  12.596  1.9883 -1.2156  0.5829
 4091SOL     OW23734   3.165   0.437   2.970  0.1117 -0.0491 -0.3134
 4091SOL    HW123735   3.186   0.436   3.064 -1.3145 -2.7888 -0.0228
 4091SOL    HW223736   3.252   0.459   2.939  0.5303 -0.3885  0.6093
 4092SOL     OW23737   1.127   0.885   8.583 -0.6571  0.2881 -0.0783
 4092SOL    HW123738   1.160   0.798   8.561 -1.6334  0.9770 -4.1801
 4092SOL    HW223739   1.036   0.859   8.594 -0.1750 -1.5603 -0.4580
 4093SOL     OW23740   2.005   4.594   8.402 -0.1154 -0.4048  0.4537
 4093SOL    HW123741   2.088   4.588   8.353 -1.3448 -0.7874 -1.5998
 4093SOL    HW223742   1.951   4.624   8.328  0.7665  1.5725  0.6154
 4094SOL     OW23743   2.338   2.702  15.925 -0.1778 -0.2264  0.0580
 4094SOL    HW123744   2.335   2.615  15.886 -2.1187  0.0395 -0.3975
 4094SOL    HW223745   2.352   2.675  16.016  0.6324  0.0374  0.0193
 4095SOL     OW23746   2.573   0.383   3.528 -0.2206  0.3320  0.1832
 4095SOL    HW123747   2.502   0.355   3.584 -1.1600  1.5702 -0.3844
 4095SOL    HW223748   2.580   0.308   3.468  2.5101  0.7027  0.0316
 4096SOL     OW23749   4.012   3.795   9.574  0.1991 -0.1249  0.4108
 4096SOL    HW123750   4.009   3.773   9.667  0.6315  1.3691  0.7790
 4096SOL    HW223751   3.942   3.860   9.565  0.0962  0.2759  4.1607
 4097SOL     OW23752   3.567   4.332  13.844  0.3769 -0.3488 -0.0988
 4097SOL    HW123753   3.487   4.281  13.830 -0.5955  1.0431  0.3802
 4097SOL    HW223754   3.630   4.267  13.875  2.0384  0.3808 -1.8964
 4098SOL     OW23755   3.690   4.261   7.403 -0.0369 -0.0193  0.1041
 4098SOL    HW123756   3.623   4.290   7.341 -2.6463 -0.5337  2.7171
 4098SOL    HW223757   3.773   4.275   7.357  0.3419  0.6507  0.9969
 4099SOL     OW23758   1.340   3.161  12.892 -0.4789  0.0256 -0.0137
 4099SOL    HW123759   1.363   3.254  12.895  0.6227 -0.2608  0.0488
 4099SOL    HW223760   1.325   3.128  12.981 -1.5752 -1.2934 -0.6939
 4100SOL     OW23761   4.183   1.267   5.655  0.3596 -0.0159  0.0318
 4100SOL    HW123762   4.156   1.226   5.738 -1.0597  1.8374  0.4682
 4100SOL    HW223763   4.099   1.275   5.611  0.1928  1.3892  0.6279
 4101SOL     OW23764   0.293   0.277   6.471  0.0143  0.3446 -0.4304
 4101SOL    HW123765   0.343   0.331   6.411  0.3502  2.0082  1.3401
 4101SOL    HW223766   0.347   0.268   6.550 -0.9696 -1.1042  0.0792
 4102SOL     OW23767   3.725   2.673   1.216 -0.1941  0.1055 -0.1994
 4102SOL    HW123768   3.760   2.617   1.146  0.0013  2.1626 -1.7648
 4102SOL    HW223769   3.648   2.707   1.169 -1.0229  0.5806  1.5024
 4103SOL     OW23770   3.187   4.154  15.103  0.2358  0.1297  0.1707
 4103SOL    HW123771   3.235   4.233  15.126 -2.1179  1.8499 -0.8276
 4103SOL    HW223772   3.260   4.099  15.077 -0.1071  0.0100 -0.5573
 4104SOL     OW23773   3.353   1.130  16.836  0.1922  0.0899 -0.0615
 4104SOL    HW123774   3.338   1.039  16.861  1.0343  0.0240  0.2193
 4104SOL    HW223775   3.264   1.165  16.834  0.5927  1.0542 -0.9044
 4105SOL     OW23776   2.573   3.202   0.527 -0.3051  0.5147  0.2662
 4105SOL    HW123777   2.621   3.264   0.583  1.0452 -0.6272  0.3612
 4105SOL    HW223778   2.570   3.254   0.447 -1.7593  1.1311  0.7072
 4106SOL     OW23779   3.796   1.797  11.295  0.2335 -0.0071 -0.1411
 4106SOL    HW123780   3.869   1.810  11.235  0.8507 -2.3467  0.0961
 4106SOL    HW223781   3.728   1.769  11.233  2.2461  2.0732 -3.2850
 4107SOL     OW23782   2.871   2.224   9.807 -0.1072  0.2805 -0.1406
 4107SOL    HW123783   2.834   2.309   9.833 -0.0540  0.6891 -1.4105
 4107SOL    HW223784   2.884   2.192   9.897 -2.2652 -1.0606 -0.3186
 4108SOL     OW23785   2.043   3.579   5.321  0.1001  0.1301  0.5374
 4108SOL    HW123786   2.080   3.610   5.238 -0.3318  0.0059  0.3007
 4108SOL    HW223787   2.119   3.573   5.379 -0.0384 -1.6371  0.5251
 4109SOL     OW23788   3.485   3.389   5.434 -0.3884 -0.1744 -0.2495
 4109SOL    HW123789   3.482   3.454   5.364 -2.8756  1.5832  1.5312
 4109SOL    HW223790   3.478   3.305   5.388 -1.7141  0.9350 -2.0418
 4110SOL     OW23791   3.144   2.690   3.849  0.4832  0.1221  0.0254
 4110SOL    HW123792   3.227   2.647   3.872 -0.4556 -1.4965  0.3674
 4110SOL    HW223793   3.150   2.777   3.889 -0.6099  1.0878 -1.9235
 4111SOL     OW23794   3.959   3.102   6.023 -0.2641  0.3020  0.2893
 4111SOL    HW123795   3.983   3.071   6.110  0.6563  1.0116  0.2874
 4111SOL    HW223796   3.864   3.088   6.020 -0.5876  2.5141  0.1862
 4112SOL     OW23797   2.364   1.695   8.492  0.2478 -0.1499 -0.1493
 4112SOL    HW123798   2.300   1.765   8.500  0.5075  0.1776 -0.9662
 4112SOL    HW223799   2.430   1.726   8.554 -0.3262 -2.5888  1.7089
 4113SOL     OW23800   4.543   2.332  14.462  0.1303 -0.7454 -0.1528
 4113SOL    HW123801   4.476   2.370  14.519 -1.3028 -1.2609 -1.4973
 4113SOL    HW223802   4.496   2.253  14.436 -1.0983  0.2212 -0.9111
 4114SOL     OW23803   1.408   3.036  10.292 -0.0758 -0.4220  0.0616
 4114SOL    HW123804   1.496   3.028  10.255 -0.2486  0.5582 -0.5410
 4114SOL    HW223805   1.430   3.073  10.378 -1.5714  1.3731 -0.3432
 4115SOL     OW23806   2.860   0.740   2.465 -0.0341  0.1948 -0.0159
 4115SOL    HW123807   2.831   0.725   2.555 -0.2220  0.8556  0.0317
 4115SOL    HW223808   2.779   0.722   2.418  0.7748 -0.3487 -1.2153
 4116SOL     OW23809   4.145   3.949   8.348  0.0540 -0.3993  0.2464
 4116SOL    HW123810   4.099   4.030   8.330 -2.9582 -2.4879 -1.3343
 4116SOL    HW223811   4.139   3.955   8.444 -2.8379 -2.9349  0.2117
 4117SOL     OW23812   2.076   3.671   0.814  0.1972 -0.0797  0.1356
 4117SOL    HW123813   2.140   3.715   0.758  2.3829 -1.7577  1.2973
 4117SOL    HW223814   2.016   3.744   0.829  0.6292  0.5109 -1.0890
 4118SOL     OW23815   0.238   1.058   3.676 -0.1434 -0.8698 -0.1210
 4118SOL    HW123816   0.248   1.066   3.770 -1.8431 -1.8851  0.1491
 4118SOL    HW223817   0.203   1.142   3.649 -1.0405 -0.6806  1.6472
 4119SOL     OW23818   0.385   4.679  11.659 -0.3384  0.0472 -0.0459
 4119SOL    HW123819   0.407   4.625  11.735  0.3976  1.4784  0.7602
 4119SOL    HW223820   0.474   4.712  11.644  0.2966 -1.1945  1.0643
 4120SOL     OW23821   1.644   0.646   3.910  0.2964 -0.1642  0.0647
 4120SOL    HW123822   1.627   0.665   3.818  1.3124 -0.0042 -0.0901
 4120SOL    HW223823   1.663   0.552   3.902 -1.6247 -0.6472  1.4058
 4121SOL     OW23824   0.408   3.488   4.199 -0.0122 -0.5289 -0.3196
 4121SOL    HW123825   0.363   3.550   4.256  0.9795 -1.5809  1.6392
 4121SOL    HW223826   0.447   3.554   4.142 -2.6507  0.2995 -1.1525
 4122SOL     OW23827   1.779   1.876  11.949 -0.1674  0.2129  0.4495
 4122SOL    HW123828   1.827   1.836  12.022 -2.9942 -0.7068  1.7899
 4122SOL    HW223829   1.697   1.827  11.948 -0.1987  0.2696  0.2484
 4123SOL     OW23830   1.492   2.882   5.248 -0.1297  0.8808  0.4506
 4123SOL    HW123831   1.522   2.941   5.317 -2.9821  1.3592  1.2959
 4123SOL    HW223832   1.397   2.873   5.261 -0.1609  0.4025 -0.0872
 4124SOL     OW23833   0.653   3.336   7.438  0.2222  0.2336 -0.2547
 4124SOL    HW123834   0.582   3.314   7.498  0.1895 -0.5939 -0.6054
 4124SOL    HW223835   0.606   3.397   7.381  1.3582  1.1267 -0.2347
 4125SOL     OW23836   4.138   3.680   4.497 -0.2069 -0.1226 -0.6772
 4125SOL    HW123837   4.233   3.672   4.506 -0.0862  0.6164 -1.3035
 4125SOL    HW223838   4.111   3.615   4.561 -2.9434  2.9749  1.3270
 4126SOL     OW23839   4.027   2.957   5.744  0.4364 -0.1464 -0.0042
 4126SOL    HW123840   3.987   3.002   5.819  0.8846 -0.7795  0.6140
 4126SOL    HW223841   4.084   2.891   5.783  1.4768  0.5074 -0.4049
 4127SOL     OW23842   3.921   0.060   9.912  0.4400  0.2149  0.1542
 4127SOL    HW123843   3.923   4.706   9.969 -2.2078 -0.3499 -0.5203
 4127SOL    HW223844   3.969   0.023   9.838 -1.0659 -3.0656  0.8312
 4128SOL     OW23845   3.175   0.649   1.936 -0.4276  0.2649 -0.5188
 4128SOL    HW123846   3.147   0.643   2.027  0.9302 -3.1678 -0.3055
 4128SOL    HW223847   3.112   0.706   1.892  1.0934 -0.2487 -3.4246
 4129SOL     OW23848   1.282   1.995  12.637 -0.7293 -0.3673  0.3109
 4129SOL    HW123849   1.315   2.083  12.620 -0.1870 -0.6777 -0.2276
 4129SOL    HW223850   1.277   1.962  12.547 -1.8649 -1.8092  0.9038
 4130SOL     OW23851   0.987   1.403   7.724  0.4449 -0.1345 -0.3795
 4130SOL    HW123852   0.915   1.441   7.773  0.1616  0.9208 -1.6425
 4130SOL    HW223853   0.936   1.354   7.659  0.9156  1.1671 -1.7371
 4131SOL     OW23854   0.812   2.701   0.835  0.2012  0.0192  0.6214
 4131SOL    HW123855   0.845   2.633   0.893  2.7860  0.4278 -0.3360
 4131SOL    HW223856   0.896   2.731   0.800  0.3424 -0.7172  0.3420
 4132SOL     OW23857   4.270   4.066   9.139  0.2350  0.0282  0.2807
 4132SOL    HW123858   4.355   4.049   9.099 -1.4072  0.8714 -3.5124
 4132SOL    HW223859   4.212   4.006   9.094  0.5947  1.6653 -2.3236
 4133SOL     OW23860   2.527   2.337   9.415  0.2155  0.1597 -0.3713
 4133SOL    HW123861   2.468   2.312   9.486  1.5597 -1.8849  0.0073
 4133SOL    HW223862   2.612   2.345   9.459 -0.1929  1.8543  0.1257
 4134SOL     OW23863   2.638   1.773   6.507 -0.1139  0.7793 -0.0075
 4134SOL    HW123864   2.650   1.806   6.418 -1.3645 -0.3850 -0.6173
 4134SOL    HW223865   2.561   1.715   6.506  1.6306 -1.6112  2.6618
 4135SOL     OW23866   3.137   4.604   9.480 -0.4434  0.4236 -0.1509
 4135SOL    HW123867   3.196   4.661   9.529  0.9060 -0.1505 -1.0920
 4135SOL    HW223868   3.165   4.623   9.390 -0.4190  0.9373 -0.0326
 4136SOL     OW23869   4.703   2.708   1.761 -0.0216 -0.1794  0.0953
 4136SOL    HW123870   4.628   2.766   1.747  1.8039  2.6296  2.0232
 4136SOL    HW223871   0.053   2.751   1.716 -0.6566  1.8598  1.0044
 4137SOL     OW23872   0.769   3.280   9.153 -0.5409  0.2544 -0.5748
 4137SOL    HW123873   0.720   3.217   9.100 -3.8015  2.0856  0.2427
 4137SOL    HW223874   0.854   3.280   9.111  0.4887 -1.0375  1.4941
 4138SOL     OW23875   2.127   3.798  13.472 -0.1569 -0.2850  0.2531
 4138SOL    HW123876   2.193   3.867  13.481  1.2671 -1.3701 -1.8850
 4138SOL    HW223877   2.171   3.725  13.516  1.6961  0.7634  0.1398
 4139SOL     OW23878   0.192   4.244   7.433  0.3913 -0.1566  0.2377
 4139SOL    HW123879   0.105   4.212   7.455  0.5797 -0.0200  1.1789
 4139SOL    HW223880   0.250   4.174   7.461 -1.6278 -0.6337  3.1156
 4140SOL     OW23881   2.824   4.258   2.980  0.2463  0.9143  0.3357
 4140SOL    HW123882   2.891   4.202   3.019 -0.1343 -0.4865 -1.0164
 4140SOL    HW223883   2.821   4.234   2.887 -0.6575 -3.5906  1.5175
 4141SOL     OW23884   4.307   0.199   4.998 -0.3021  0.6694  0.0539
 4141SOL    HW123885   4.331   0.207   4.906  3.3497 -0.6404  0.8985
 4141SOL    HW223886   4.288   0.105   5.005  1.6773  0.2694  0.0242
 4142SOL     OW23887   3.445   4.483  13.001 -0.2100 -1.2026 -0.4068
 4142SOL    HW123888   3.491   4.536  13.066  0.5192 -3.6711  1.1019
 4142SOL    HW223889   3.518   4.470  12.941 -0.7213  0.1380 -1.3207
 4143SOL     OW23890   2.364   3.267   2.967 -0.0877  0.4264 -0.0035
 4143SOL    HW123891   2.313   3.220   2.901  1.3907 -0.2717 -0.6508
 4143SOL    HW223892   2.451   3.287   2.931  0.0736 -2.4119 -1.1645
 4144SOL     OW23893   1.248   4.019  14.142  0.1760 -0.0113  0.1829
 4144SOL    HW123894   1.342   4.008  14.154 -0.0842 -1.1466  1.1934
 4144SOL    HW223895   1.218   3.928  14.148 -0.4859  0.2302  0.5496
 4145SOL     OW23896   1.034   2.304   6.020 -0.2632  0.4269 -0.4183
 4145SOL    HW123897   0.954   2.251   6.027 -2.2329  3.2245 -1.6936
 4145SOL    HW223898   1.079   2.274   6.098 -0.2289  0.8549 -0.2733
 4146SOL     OW23899   0.134   1.486  11.241  0.1051 -0.0993  0.2359
 4146SOL    HW123900   0.095   1.432  11.310 -0.6333 -0.4064 -0.4245
 4146SOL    HW223901   0.057   1.529  11.203 -0.4475  0.8510  2.4543
 4147SOL     OW23902   2.628   2.643  12.345  0.0790 -0.2352  0.0203
 4147SOL    HW123903   2.598   2.611  12.430  0.8526  0.8763  0.7224
 4147SOL    HW223904   2.546   2.647  12.296  1.4074 -0.9401 -2.2443
 4148SOL     OW23905   3.840   2.531   6.028  0.2690 -0.0097  0.0840
 4148SOL    HW123906   3.795   2.472   5.968 -0.9804  1.1989 -0.1751
 4148SOL    HW223907   3.912   2.565   5.974 -1.8983  0.0436 -2.7462
 4149SOL     OW23908   0.970   1.195   0.325  0.7744 -0.4115  0.0104
 4149SOL    HW123909   0.881   1.210   0.356  0.6112  0.8401 -1.0602
 4149SOL    HW223910   1.014   1.271   0.364  0.0714  0.4700 -0.9118
 4150SOL     OW23911   1.949   3.210  12.649  0.1164 -0.5181 -0.1782
 4150SOL    HW123912   1.966   3.184  12.739 -2.2809  0.4518  0.5594
 4150SOL    HW223913   2.039   3.229  12.622 -0.0291 -0.1403 -0.3940
 4151SOL     OW23914   2.769   1.974   9.673 -0.0139 -0.1522 -0.0954
 4151SOL    HW123915   2.810   2.045   9.723  0.3323  1.1408 -2.2205
 4151SOL    HW223916   2.835   1.905   9.675 -0.0701 -0.1504  2.1371
 4152SOL     OW23917   0.269   4.384   8.535 -0.3512 -0.2518  0.4001
 4152SOL    HW123918   0.348   4.391   8.589 -0.0560  1.1634 -0.2148
 4152SOL    HW223919   0.314   4.410   8.455 -0.1449 -0.0731  0.5719
 4153SOL     OW23920   3.394   4.259   9.164 -0.2625  0.0596  0.4750
 4153SOL    HW123921   3.429   4.187   9.217 -1.3876 -0.9143 -0.1065
 4153SOL    HW223922   3.465   4.282   9.104 -1.0260 -1.1992 -0.8888
 4154SOL     OW23923   1.161   1.261   2.495 -0.4046  0.4946 -0.3156
 4154SOL    HW123924   1.193   1.261   2.404  2.2091  0.3256  0.6252
 4154SOL    HW223925   1.228   1.209   2.539 -1.8021  0.1547  1.3858
 4155SOL     OW23926   1.189   2.487  15.919 -0.4182 -0.3819 -0.3202
 4155SOL    HW123927   1.107   2.441  15.939  0.5033 -0.7071  2.7089
 4155SOL    HW223928   1.202   2.446  15.833 -0.6512 -1.2951  0.0801
 4156SOL     OW23929   1.642   1.369   8.032  0.3048 -0.6632  0.4509
 4156SOL    HW123930   1.719   1.339   8.080  0.2974 -0.1662  0.7848
 4156SOL    HW223931   1.578   1.299   8.042  1.2239 -1.5762 -0.0556
 4157SOL     OW23932   4.322   0.590   4.347  0.2527 -0.2292 -0.0381
 4157SOL    HW123933   4.372   0.619   4.424  0.7842  2.0283 -1.2360
 4157SOL    HW223934   4.299   0.498   4.359 -1.4059  0.3195  0.9429
 4158SOL     OW23935   0.708   1.853   4.748 -0.3337  0.3116  0.2123
 4158SOL    HW123936   0.738   1.865   4.657 -0.5951 -0.5238  0.0145
 4158SOL    HW223937   0.626   1.902   4.750  0.0901  1.0749 -1.0417
 4159SOL     OW23938   2.261   0.547   8.043  0.4404  0.8315 -0.4796
 4159SOL    HW123939   2.250   0.575   8.134  1.5583 -0.0514 -0.0764
 4159SOL    HW223940   2.324   0.477   8.057  1.4095  1.7938 -0.0553
 4160SOL     OW23941   1.587   4.047   6.499 -0.0235  0.1951  0.3046
 4160SOL    HW123942   1.507   3.994   6.490  1.2008 -1.7727  1.1664
 4160SOL    HW223943   1.639   4.006   6.429  0.2609  2.0841 -0.5747
 4161SOL     OW23944   3.954   3.446   8.374 -0.1000  0.2936  0.0587
 4161SOL    HW123945   4.023   3.475   8.433 -1.1534 -1.0890  1.9393
 4161SOL    HW223946   4.011   3.410   8.306  0.0139 -0.4748  0.5703
 4162SOL     OW23947   0.397   3.796  12.275 -0.3532 -0.7661  0.2483
 4162SOL    HW123948   0.322   3.855  12.278  0.1625 -0.1427  1.0249
 4162SOL    HW223949   0.407   3.776  12.182  2.0104 -0.1323  0.3658
 4163SOL     OW23950   0.854   4.227   4.221 -0.3046  0.3796  0.4776
 4163SOL    HW123951   0.908   4.305   4.209  1.9056 -1.0682  0.9359
 4163SOL    HW223952   0.771   4.268   4.196  0.4204  0.1905 -2.2370
 4164SOL     OW23953   3.346   2.398  17.156  0.0922 -0.7406  0.2819
 4164SOL    HW123954   3.385   2.457  17.221  1.8302 -0.7549 -0.7568
 4164SOL    HW223955   3.321   2.454  17.082 -0.0034  0.2371  1.0637
 4165SOL     OW23956   0.718   3.088   5.622 -0.2883 -0.1399  0.1939
 4165SOL    HW123957   0.666   3.163   5.651  0.8051  0.4337  0.6349
 4165SOL    HW223958   0.789   3.134   5.577  0.7333 -2.1341 -0.2328
 4166SOL     OW23959   3.652   3.354  14.026 -0.6207 -0.0799  0.3229
 4166SOL    HW123960   3.698   3.282  14.069  2.0218  1.1254 -0.5296
 4166SOL    HW223961   3.711   3.429  14.028 -1.9940  1.0248 -0.3126
 4167SOL     OW23962   4.470   1.107   3.272  0.2379  0.3679  0.0295
 4167SOL    HW123963   4.553   1.134   3.232  0.2434  0.0809 -0.1484
 4167SOL    HW223964   4.408   1.153   3.216  0.4776  0.8524  0.1675
 4168SOL     OW23965   4.596   2.273  10.194  0.2036 -0.2904  0.3865
 4168SOL    HW123966   4.505   2.302  10.190  0.6711  0.8244 -1.9674
 4168SOL    HW223967   4.587   2.178  10.185  1.2496 -0.3075 -0.4204
 4169SOL     OW23968   0.485   0.142   3.983  0.0441  0.3634 -0.1825
 4169SOL    HW123969   0.436   0.126   3.902  0.7076 -1.4795 -0.2015
 4169SOL    HW223970   0.414   0.178   4.036 -0.3923 -0.4822 -0.2003
 4170SOL     OW23971   3.452   2.296   9.591  0.5943 -0.4877  0.1119
 4170SOL    HW123972   3.411   2.210   9.604  1.3496 -1.2516 -2.3927
 4170SOL    HW223973   3.470   2.300   9.497  1.8997  0.6753  0.4069
 4171SOL     OW23974   3.487   2.739  16.442 -0.0138 -0.0475 -0.5419
 4171SOL    HW123975   3.497   2.676  16.371  1.8573 -0.7724  0.3486
 4171SOL    HW223976   3.416   2.795  16.412 -0.3311  0.0698  0.4314
 4172SOL     OW23977   4.125   4.715   7.798 -0.5544  0.5346  0.3460
 4172SOL    HW123978   4.181   0.057   7.839 -0.1344  0.6184 -0.3817
 4172SOL    HW223979   4.069   0.048   7.745 -3.4227 -1.9012  0.7864
 4173SOL     OW23980   0.979   3.802   5.982  0.2848  0.3563  0.1695
 4173SOL    HW123981   1.059   3.786   5.932 -0.6327  0.6621 -1.3888
 4173SOL    HW223982   0.954   3.881   5.934 -0.6861 -0.0982 -0.0683
 4174SOL     OW23983   2.585   3.298   4.951  0.0585  0.0965  0.4309
 4174SOL    HW123984   2.523   3.273   5.020  0.5038  0.1514  0.8501
 4174SOL    HW223985   2.547   3.262   4.871  0.0441  0.1528  0.4125
 4175SOL     OW23986   2.360   4.642   1.441 -0.0017 -0.4053 -0.4342
 4175SOL    HW123987   2.395   4.583   1.508  0.8946 -1.7844 -2.0967
 4175SOL    HW223988   2.359   0.004   1.484  0.2158 -0.3594 -0.5164
 4176SOL     OW23989   0.500   2.114  16.404  0.0682  0.0552 -0.2882
 4176SOL    HW123990   0.502   2.208  16.421 -0.1036 -0.1917  1.1257
 4176SOL    HW223991   0.527   2.108  16.313 -0.6553 -0.7580 -0.4463
 4177SOL     OW23992   1.347   0.734   5.978  0.6559 -0.0411  0.4058
 4177SOL    HW123993   1.264   0.689   5.994  0.3107 -0.8207 -3.5133
 4177SOL    HW223994   1.415   0.674   5.946 -0.6696 -0.5025 -1.5733
 4178SOL     OW23995   2.556   1.060  10.030  0.2480 -0.2747 -0.1876
 4178SOL    HW123996   2.466   1.075  10.060 -0.5427 -1.0833 -2.1740
 4178SOL    HW223997   2.597   1.141  10.061  0.1630 -0.9327  1.6902
 4179SOL     OW23998   0.531   0.218  11.333  0.2528 -0.6297  0.1076
 4179SOL    HW123999   0.599   0.272  11.293  0.5825 -1.0272  0.1283
 4179SOL    HW224000   0.499   0.175  11.254  0.7227 -2.1653  0.7543
 4180SOL     OW24001   2.852   3.927  12.347  0.0311  0.2161 -0.2880
 4180SOL    HW124002   2.788   3.952  12.413 -0.0831  0.3513 -0.4475
 4180SOL    HW224003   2.894   3.849  12.383 -0.8839 -0.7244 -1.2257
 4181SOL     OW24004   3.139   3.711   8.400  0.0018 -0.2226 -0.4953
 4181SOL    HW124005   3.119   3.715   8.493 -0.3870 -0.7723 -0.5601
 4181SOL    HW224006   3.067   3.666   8.356 -0.7579  1.2654 -0.7813
 4182SOL     OW24007   3.368   3.099   6.105  0.9655 -0.0253  0.2568
 4182SOL    HW124008   3.407   3.015   6.131  3.6014  0.9445 -0.5394
 4182SOL    HW224009   3.384   3.097   6.011 -2.4822  2.3027 -0.3727
 4183SOL     OW24010   3.555   4.065   6.811  0.3853 -0.1220 -0.1208
 4183SOL    HW124011   3.536   3.982   6.854 -0.4853  0.4927  0.6655
 4183SOL    HW224012   3.546   4.029   6.722 -0.7109  0.9655 -0.4400
 4184SOL     OW24013   0.890   2.885  12.726 -0.2739  0.2056  0.0859
 4184SOL    HW124014   0.978   2.854  12.746  0.6419  2.1276 -1.0120
 4184SOL    HW224015   0.840   2.809  12.755 -0.0363  0.0627  0.1163
 4185SOL     OW24016   3.886   1.442   3.867  0.2122 -0.3049  0.1866
 4185SOL    HW124017   3.874   1.348   3.859 -0.4409 -0.3435  1.6357
 4185SOL    HW224018   3.963   1.453   3.812 -0.7225  0.4909 -0.9739
 4186SOL     OW24019   3.843   1.848   3.330  0.5371  0.0059 -0.3214
 4186SOL    HW124020   3.774   1.812   3.275  1.2925 -1.2592 -0.4263
 4186SOL    HW224021   3.795   1.845   3.413  0.0843  0.5551 -0.5681
 4187SOL     OW24022   3.443   4.022  15.034  0.3927  0.0421  0.3628
 4187SOL    HW124023   3.452   3.961  15.107  2.7795 -2.0685 -1.6922
 4187SOL    HW224024   3.502   3.979  14.972  1.2654 -0.6227  1.6586
 4188SOL     OW24025   4.572   3.144   9.269 -0.5448 -0.3613  0.7241
 4188SOL    HW124026   4.485   3.150   9.229  0.0586  0.5740 -0.4313
 4188SOL    HW224027   4.620   3.213   9.223 -0.5842  0.1532  1.4640
 4189SOL     OW24028   3.838   4.291  12.386 -0.2512 -0.7305  0.7614
 4189SOL    HW124029   3.766   4.234  12.415 -2.1545 -0.1787 -2.8559
 4189SOL    HW224030   3.798   4.376  12.405 -0.6183 -0.6473 -0.3477
 4190SOL     OW24031   1.419   4.293   8.751 -0.3134  0.9865 -0.2721
 4190SOL    HW124032   1.338   4.290   8.701 -0.2230 -0.9526 -0.3042
 4190SOL    HW224033   1.442   4.201   8.762 -0.2209  1.1934  1.2436
 4191SOL     OW24034   0.104   3.005  14.298  0.3894  0.1874 -0.1030
 4191SOL    HW124035   0.086   2.935  14.360 -1.1843 -0.5916 -1.4439
 4191SOL    HW224036   0.032   2.993  14.236 -0.2752 -1.0437  0.9067
 4192SOL     OW24037   3.544   1.214   4.727  0.2101 -0.0887  0.2207
 4192SOL    HW124038   3.614   1.242   4.668 -0.9120  2.5410  0.1265
 4192SOL    HW224039   3.467   1.227   4.672  0.1087  2.0427  0.8683
 4193SOL     OW24040   1.288   3.775   4.817  0.0379 -0.2037  0.6995
 4193SOL    HW124041   1.296   3.785   4.912 -1.3956  2.4521  0.5480
 4193SOL    HW224042   1.198   3.743   4.813 -0.2623  0.8524 -0.7742
 4194SOL     OW24043   2.417   2.569   9.305  0.5106 -0.0209  0.3115
 4194SOL    HW124044   2.465   2.489   9.327 -1.2212 -0.6069  1.9518
 4194SOL    HW224045   2.379   2.592   9.389  0.3771 -0.5753  0.4026
 4195SOL     OW24046   0.096   3.956   9.164 -0.0228  0.3786 -0.3089
 4195SOL    HW124047   0.033   4.022   9.134  0.1775  1.6569  2.0637
 4195SOL    HW224048   0.038   3.895   9.208 -0.8396 -0.0719 -1.9793
 4196SOL     OW24049   4.584   0.694  15.477  0.6468 -0.5763 -0.2041
 4196SOL    HW124050   4.570   0.621  15.417  0.4685 -0.6041 -0.1306
 4196SOL    HW224051   4.640   0.648  15.539  1.1646  0.6855  0.2475
 4197SOL     OW24052   1.878   0.869   6.969  0.0710 -0.2711  0.1756
 4197SOL    HW124053   1.925   0.810   6.910  1.8465  1.1958  0.1122
 4197SOL    HW224054   1.788   0.842   6.950  0.6095 -0.9157 -1.4892
 4198SOL     OW24055   4.215   3.649   9.127 -0.4884 -0.1826  0.2279
 4198SOL    HW124056   4.155   3.611   9.062 -0.4004 -2.7940  1.6849
 4198SOL    HW224057   4.168   3.679   9.204  1.3782  0.7908  0.9743
 4199SOL     OW24058   1.729   0.128   4.819  0.8877 -0.2909 -0.4450
 4199SOL    HW124059   1.772   0.070   4.881  1.8330 -0.7947 -1.5701
 4199SOL    HW224060   1.762   0.088   4.738  2.7782  0.2856  0.0371
 4200SOL     OW24061   1.459   4.390   9.003  0.2298 -0.3200  0.0373
 4200SOL    HW124062   1.554   4.392   8.991  0.1611  2.5310 -0.0382
 4200SOL    HW224063   1.426   4.411   8.915  2.0518  2.2008 -0.0364
 4201SOL     OW24064   4.510   1.385   1.563 -0.5473  0.1269 -0.1855
 4201SOL    HW124065   4.595   1.346   1.585 -1.6267 -0.7838  2.4074
 4201SOL    HW224066   4.536   1.459   1.508  1.5457 -0.6113 -0.2007
 4202SOL     OW24067   1.494   3.878   6.117  0.4167 -0.2243 -0.0407
 4202SOL    HW124068   1.557   3.856   6.048  0.3835 -0.9468  0.1578
 4202SOL    HW224069   1.415   3.831   6.091  0.7542 -0.2076 -1.0861
 4203SOL     OW24070   0.456   0.783  13.946  0.2732 -0.1218  0.1159
 4203SOL    HW124071   0.510   0.850  13.987  0.9342  0.0840 -1.0657
 4203SOL    HW224072   0.378   0.794  14.000 -1.1485 -0.6078 -1.8357
 4204SOL     OW24073   1.689   0.324   1.382  0.0631 -0.0373  0.0202
 4204SOL    HW124074   1.707   0.353   1.293  0.5636  0.2518  0.2144
 4204SOL    HW224075   1.767   0.272   1.404 -0.0837 -0.5671 -0.7013
 4205SOL     OW24076   1.414   1.347  17.374 -0.0854 -1.1092 -0.2601
 4205SOL    HW124077   1.416   1.347  17.278 -1.1971 -2.9806 -0.2838
 4205SOL    HW224078   1.337   1.404  17.377 -0.3027 -1.3988 -0.4094
 4206SOL     OW24079   4.254   3.565   1.382 -0.2917  0.4102  0.1323
 4206SOL    HW124080   4.245   3.561   1.287 -0.0207  0.9066  0.0882
 4206SOL    HW224081   4.215   3.652   1.395  0.5720  0.3739  2.9188
 4207SOL     OW24082   4.047   1.252  10.428 -0.3100  0.1306 -0.3348
 4207SOL    HW124083   4.068   1.248  10.521 -2.3997 -0.8264  0.0818
 4207SOL    HW224084   3.966   1.301  10.439 -0.6047 -0.1882 -1.0821
 4208SOL     OW24085   3.628   2.597   4.488  0.5837  0.0718 -0.3945
 4208SOL    HW124086   3.652   2.654   4.561 -2.6978  0.6483  0.2629
 4208SOL    HW224087   3.585   2.655   4.425  1.2870  2.5295  1.3918
 4209SOL     OW24088   3.337   4.408  17.162 -0.1912 -0.4046  0.1373
 4209SOL    HW124089   3.357   4.493  17.201 -1.0415 -0.0048 -0.3099
 4209SOL    HW224090   3.386   4.419  17.080  0.3128  2.3246  0.7918
 4210SOL     OW24091   3.446   1.143  16.128 -0.4280  0.1817  0.1036
 4210SOL    HW124092   3.387   1.092  16.072  1.0178  1.0104 -2.1763
 4210SOL    HW224093   3.441   1.229  16.087  2.2053  0.6074  0.6676
 4211SOL     OW24094   2.625   2.940   0.657 -0.1453  0.4485  0.0527
 4211SOL    HW124095   2.684   2.968   0.587 -0.2660 -2.8363 -1.3163
 4211SOL    HW224096   2.566   3.015   0.646 -1.6820 -1.0401 -1.8552
 4212SOL     OW24097   0.001   4.127   6.281 -0.1413 -0.4433 -0.2439
 4212SOL    HW124098   4.643   4.088   6.312 -1.0444  1.0318 -0.7679
 4212SOL    HW224099   0.055   4.132   6.360 -0.7785  2.8517 -0.0464
 4213SOL     OW24100   3.217   1.262   6.700 -0.5168 -0.5621 -0.0758
 4213SOL    HW124101   3.276   1.218   6.761 -0.4462 -3.1726 -2.0165
 4213SOL    HW224102   3.137   1.284   6.749 -0.2622 -1.4783  0.7546
 4214SOL     OW24103   1.935   3.428   0.822 -0.0556 -0.3924 -0.1073
 4214SOL    HW124104   1.991   3.505   0.830 -0.4843  0.1129 -2.0185
 4214SOL    HW224105   2.000   3.366   0.789  2.0461  0.4445  2.4953
 4215SOL     OW24106   2.870   3.592   5.274 -0.1770 -0.0270  0.0453
 4215SOL    HW124107   2.802   3.606   5.339 -0.2706 -1.1281  0.1866
 4215SOL    HW224108   2.833   3.630   5.194  1.2548 -2.2450 -1.6932
 4216SOL     OW24109   3.770   0.859   5.953 -0.0585 -0.5045  0.0860
 4216SOL    HW124110   3.767   0.863   6.049  1.6403  0.6462  0.0910
 4216SOL    HW224111   3.681   0.889   5.931  0.7204  0.6068 -1.5613
 4217SOL     OW24112   1.357   1.782   2.909 -0.0355  0.0031  0.8047
 4217SOL    HW124113   1.271   1.742   2.896 -0.9147  2.0795  0.1082
 4217SOL    HW224114   1.406   1.749   2.834  0.2690  1.7352  0.2363
 4218SOL     OW24115   3.211   3.533   0.809 -0.3245 -0.5183  0.6616
 4218SOL    HW124116   3.125   3.528   0.851 -1.0336  1.8554 -0.5105
 4218SOL    HW224117   3.254   3.449   0.823  1.5645 -0.1361 -2.7067
 4219SOL     OW24118   1.151   3.721   5.325  0.5036 -0.4672 -0.0675
 4219SOL    HW124119   1.096   3.769   5.386  1.2497  1.6235 -1.0379
 4219SOL    HW224120   1.236   3.753   5.357  0.2779 -0.4634  0.5248
 4220SOL     OW24121   4.029   1.455   9.782  0.3114 -0.5055 -0.2809
 4220SOL    HW124122   3.943   1.467   9.741  0.8022 -1.7131 -1.6762
 4220SOL    HW224123   4.014   1.388   9.848  0.4649 -0.5673 -0.3089
 4221SOL     OW24124   0.210   4.136   3.415 -0.2592  0.3641  0.1479
 4221SOL    HW124125   0.241   4.058   3.462 -1.1961 -1.9171 -3.0763
 4221SOL    HW224126   0.294   4.181   3.414 -1.0003  1.6834 -2.0785
 4222SOL     OW24127   1.150   4.269   6.817  0.1001 -1.0667 -0.0200
 4222SOL    HW124128   1.235   4.303   6.848 -0.7719  0.5738  0.5818
 4222SOL    HW224129   1.137   4.328   6.743  0.6199 -2.8678 -1.5500
 4223SOL     OW24130   3.150   3.093   7.965  0.0958 -0.5020 -0.0768
 4223SOL    HW124131   3.166   3.166   8.025 -0.6004 -1.0543  0.7845
 4223SOL    HW224132   3.142   3.021   8.028  0.4197 -2.0372 -1.7690
 4224SOL     OW24133   3.970   3.047  15.664 -0.5140  0.1626 -0.9706
 4224SOL    HW124134   4.012   3.131  15.683 -1.2756  0.2621  0.2904
 4224SOL    HW224135   3.994   3.001  15.745 -2.4992  1.1741  0.2042
 4225SOL     OW24136   3.747   3.706   0.445 -0.1655  0.0590 -0.6111
 4225SOL    HW124137   3.787   3.762   0.378 -0.6109  0.8898 -0.1940
 4225SOL    HW224138   3.797   3.731   0.523 -0.7177  2.5207 -1.0298
 4226SOL     OW24139   0.806   4.411   2.813 -0.3213 -0.0237  0.6765
 4226SOL    HW124140   0.862   4.401   2.736 -0.2237  2.7139  0.3853
 4226SOL    HW224141   0.791   4.318   2.831  2.4820 -0.8196 -1.0663
 4227SOL     OW24142   4.469   0.683   8.058 -0.2731  0.3325  0.0343
 4227SOL    HW124143   4.409   0.653   8.127  0.0322 -1.8941 -0.6497
 4227SOL    HW224144   4.554   0.688   8.103 -0.9234  0.5100  1.2368
 4228SOL     OW24145   0.483   0.007   9.411  0.2740 -0.3136  0.1516
 4228SOL    HW124146   0.459   0.073   9.346 -2.9674 -1.6671  0.0152
 4228SOL    HW224147   0.562   0.049   9.445 -1.7438  2.0471  1.9322
 4229SOL     OW24148   3.130   2.741  17.631  0.0313  0.6357  0.0424
 4229SOL    HW124149   3.072   2.721   0.011  0.4179  0.2684  0.2491
 4229SOL    HW224150   3.147   2.653  17.597  0.4783  0.8565 -0.3026
 4230SOL     OW24151   0.125   0.551   8.073 -0.1947  0.2316  0.3010
 4230SOL    HW124152   0.202   0.541   8.017  1.0130 -0.1126  2.0072
 4230SOL    HW224153   0.058   0.495   8.034  1.3043 -0.7683 -0.8338
 4231SOL     OW24154   1.256   2.218   9.053 -0.0292 -0.1252 -0.2405
 4231SOL    HW124155   1.172   2.254   9.082  0.1548 -1.5440  2.0856
 4231SOL    HW224156   1.301   2.290   9.009  0.6132 -0.4475 -0.1155
 4232SOL     OW24157   1.363   0.057  14.155 -0.3908  0.5196  0.5795
 4232SOL    HW124158   1.459   0.068  14.152 -0.5624  1.7737 -0.5038
 4232SOL    HW224159   1.328   0.146  14.145  1.3483  1.1760  0.1524
 4233SOL     OW24160   0.132   3.314   5.530 -0.3036 -0.3470 -0.1144
 4233SOL    HW124161   0.056   3.257   5.518  0.3479 -0.6880 -2.5508
 4233SOL    HW224162   0.160   3.315   5.622 -0.4949  1.9083 -0.0609
 4234SOL     OW24163   3.742   0.235   7.554  0.0857 -0.4035  0.4349
 4234SOL    HW124164   3.680   0.247   7.626  2.1955  3.3546  1.6509
 4234SOL    HW224165   3.690   0.275   7.484  0.1993 -0.9838  0.0201
 4235SOL     OW24166   1.365   3.167   9.842 -0.2055  0.4577 -0.0413
 4235SOL    HW124167   1.423   3.119   9.901 -2.6898 -0.7509  1.4019
 4235SOL    HW224168   1.343   3.244   9.895  3.6083  1.1037  0.6601
 4236SOL     OW24169   3.596   0.321   4.612 -0.0411 -0.0737  0.6572
 4236SOL    HW124170   3.632   0.280   4.690 -0.8806 -1.2693  0.4271
 4236SOL    HW224171   3.634   0.406   4.631 -0.7165  0.5700 -0.8946
 4237SOL     OW24172   4.373   4.343  10.117 -0.5568 -0.5593  0.2647
 4237SOL    HW124173   4.340   4.255  10.137 -0.1019 -0.3897  1.7623
 4237SOL    HW224174   4.376   4.372  10.208  2.0298 -1.0310  0.3305
 4238SOL     OW24175   4.034   2.189   7.606 -0.1583  0.4995  0.4215
 4238SOL    HW124176   4.040   2.117   7.669  1.1829  0.3878  0.1465
 4238SOL    HW224177   3.989   2.254   7.662  1.1368  2.6944 -1.1101
 4239SOL     OW24178   2.604   3.914   8.469  0.9748 -0.1397 -0.1391
 4239SOL    HW124179   2.662   3.841   8.450  1.1615  0.8261 -3.2823
 4239SOL    HW224180   2.670   3.984   8.467  0.8011 -0.0528 -3.1773
 4240SOL     OW24181   0.767   1.727   5.871  0.1667  0.0434 -0.3038
 4240SOL    HW124182   0.812   1.775   5.801  1.0627 -1.1613 -0.5391
 4240SOL    HW224183   0.771   1.782   5.949  0.6662 -1.0265  0.4316
 4241SOL     OW24184   4.706   2.418   1.732 -0.3464 -0.4387 -0.2726
 4241SOL    HW124185   4.675   2.509   1.732 -2.5899 -1.2112 -0.6156
 4241SOL    HW224186   0.062   2.432   1.679 -0.9378  1.3979 -0.6754
 4242SOL     OW24187   4.648   2.583   3.842 -0.0642 -0.0603 -0.0752
 4242SOL    HW124188   4.714   2.650   3.856 -0.5337  0.4664 -0.3583
 4242SOL    HW224189   4.701   2.504   3.832 -0.1751 -0.3266  1.4878
 4243SOL     OW24190   3.725   1.073   7.961 -0.1167  0.6523  0.4436
 4243SOL    HW124191   3.732   1.166   7.982  0.5655  0.8461 -0.6398
 4243SOL    HW224192   3.728   1.026   8.045  0.9140 -2.8067 -1.5281
 4244SOL     OW24193   1.181   0.959   4.730  0.5448 -0.0711  0.7586
 4244SOL    HW124194   1.136   0.875   4.737 -2.3282  1.4553  0.9932
 4244SOL    HW224195   1.232   0.959   4.649 -1.9835 -1.3207 -0.8475
 4245SOL     OW24196   4.155   3.013   8.178 -0.1859  0.3790  0.0107
 4245SOL    HW124197   4.218   2.962   8.126 -0.7814 -0.0279 -0.3178
 4245SOL    HW224198   4.159   3.086   8.116 -1.6673 -1.9844 -2.8710
 4246SOL     OW24199   3.603   2.500   2.186 -0.5296 -0.1291 -0.5186
 4246SOL    HW124200   3.553   2.557   2.128 -2.0362  1.2540  2.0901
 4246SOL    HW224201   3.601   2.411   2.151  0.3273 -1.0338  1.7282
 4247SOL     OW24202   0.069   2.118  13.099  0.1104  0.0352  0.2211
 4247SOL    HW124203   0.121   2.057  13.047 -1.1596 -0.9298  0.0612
 4247SOL    HW224204   0.014   2.057  13.148 -0.4199  0.3754  0.0498
 4248SOL     OW24205   4.652   4.210   2.015  0.0644  0.2533 -0.5721
 4248SOL    HW124206   4.627   4.286   2.068 -0.7687 -0.5578  0.1943
 4248SOL    HW224207   4.650   4.138   2.077 -1.8742  0.8833  0.1181
 4249SOL     OW24208   4.110   2.260   0.597 -0.1314  0.6935 -0.4945
 4249SOL    HW124209   4.201   2.262   0.568 -0.1354  0.6804 -0.5080
 4249SOL    HW224210   4.111   2.168   0.622  1.8909  0.4762 -1.3267
 4250SOL     OW24211   2.533   3.393   5.420  0.2155  0.3430  0.6391
 4250SOL    HW124212   2.497   3.358   5.339  0.4882  2.4355 -0.3964
 4250SOL    HW224213   2.533   3.311   5.469 -0.6944 -0.6200 -0.9850
 4251SOL     OW24214   4.265   1.978   7.246  0.4921 -0.1730  0.2464
 4251SOL    HW124215   4.281   1.915   7.177  0.3567  1.2545 -1.0979
 4251SOL    HW224216   4.175   1.992   7.215 -0.1777 -1.0168  1.7921
 4252SOL     OW24217   3.967   1.437  10.695 -0.3235  0.1422 -0.4913
 4252SOL    HW124218   3.889   1.403  10.738 -0.1105 -0.2621 -0.4194
 4252SOL    HW224219   3.945   1.439  10.602  1.7843 -2.6678 -1.0784
 4253SOL     OW24220   3.988   0.231   8.139  0.2417 -0.3223 -0.6672
 4253SOL    HW124221   3.932   0.178   8.195 -0.2004 -0.8637 -1.6191
 4253SOL    HW224222   4.063   0.249   8.196 -0.8377 -1.5002  1.1393
 4254SOL     OW24223   1.062   4.242   5.117 -0.0185 -0.1746 -0.1184
 4254SOL    HW124224   1.114   4.232   5.037  0.9179 -0.3122  0.5147
 4254SOL    HW224225   1.043   4.150   5.136 -2.8786  0.1364 -1.4813
 4255SOL     OW24226   1.357   2.819   5.537 -0.4589 -0.5538 -0.6687
 4255SOL    HW124227   1.432   2.802   5.594 -0.2428  1.0557 -0.4782
 4255SOL    HW224228   1.330   2.727   5.535  1.5965 -1.1486 -0.6664
 4256SOL     OW24229   3.971   3.686  11.338 -0.0637  0.0439 -0.0491
 4256SOL    HW124230   3.888   3.646  11.314 -1.4502  1.5154  2.2462
 4256SOL    HW224231   3.980   3.752  11.269  2.6178 -0.7224 -0.4240
 4257SOL     OW24232   0.895   4.077   3.606  0.4833  0.2462 -0.5534
 4257SOL    HW124233   0.972   4.125   3.636  1.1745 -0.0763 -1.8116
 4257SOL    HW224234   0.888   4.103   3.514 -2.4613  2.1309  0.1870
 4258SOL     OW24235   1.953   2.799  14.087  0.7357  0.2485  0.0059
 4258SOL    HW124236   1.962   2.824  14.178  0.9939  1.1330 -0.2623
 4258SOL    HW224237   1.969   2.705  14.092  0.1742  0.2853  2.2703
 4259SOL     OW24238   1.012   4.552   6.859  0.5622  0.4339 -0.5570
 4259SOL    HW124239   0.960   4.631   6.876 -0.9108 -0.3282 -1.4875
 4259SOL    HW224240   1.038   4.527   6.948 -0.0777 -0.8227 -0.7337
 4260SOL     OW24241   2.529   4.554  14.413 -0.3398 -0.1188 -0.2070
 4260SOL    HW124242   2.570   4.589  14.335 -0.5003  3.5956  1.3683
 4260SOL    HW224243   2.454   4.614  14.408 -1.0665 -0.9772  0.2665
 4261SOL     OW24244   1.155   2.779   8.770 -0.0321 -0.1695 -0.0886
 4261SOL    HW124245   1.223   2.845   8.757 -0.5402  0.1914 -0.8821
 4261SOL    HW224246   1.079   2.822   8.732 -0.3385  2.0918  3.0924
 4262SOL     OW24247   0.459   3.362   8.760 -0.6498 -0.0169  1.0079
 4262SOL    HW124248   0.479   3.271   8.783  0.2483 -0.8321 -2.9016
 4262SOL    HW224249   0.466   3.407   8.844  0.5679 -0.5574  1.1973
 4263SOL     OW24250   1.296   0.321  17.541  0.0062  0.2953  0.1293
 4263SOL    HW124251   1.267   0.411  17.557  0.9050  0.8044 -1.0691
 4263SOL    HW224252   1.215   0.286  17.506 -0.9019  0.0575  2.4896
 4264SOL     OW24253   4.488   2.341  15.349  0.6500 -0.2693 -0.0145
 4264SOL    HW124254   4.466   2.252  15.378  0.6535 -0.3635 -0.2988
 4264SOL    HW224255   4.481   2.386  15.433 -0.0047 -0.0640 -0.1776
 4265SOL     OW24256   4.603   1.327   6.424  0.6824  0.4824 -0.1569
 4265SOL    HW124257   4.664   1.348   6.495  1.2529 -2.6331  0.2576
 4265SOL    HW224258   4.669   1.308   6.357 -1.4508  0.2529 -2.1918
 4266SOL     OW24259   4.195   3.061   6.782  0.0470  1.1151 -0.2412
 4266SOL    HW124260   4.113   3.028   6.745  0.5039  1.5838 -1.6656
 4266SOL    HW224261   4.165   3.089   6.869 -0.6176 -0.3879  0.0095
 4267SOL     OW24262   4.063   1.918  15.919  0.0663 -0.3552 -0.6179
 4267SOL    HW124263   4.133   1.972  15.954  0.2903 -1.3100  0.4028
 4267SOL    HW224264   4.020   1.979  15.858 -1.2598 -1.8547 -1.1735
 4268SOL     OW24265   3.299   3.816   8.058  0.0946  0.1701  0.0472
 4268SOL    HW124266   3.218   3.797   8.011 -0.8036  0.9879  1.2499
 4268SOL    HW224267   3.317   3.906   8.030 -1.8481 -0.0864 -2.0042
 4269SOL     OW24268   3.875   3.723   5.598 -0.1987 -0.1958 -0.5400
 4269SOL    HW124269   3.799   3.778   5.580  0.7429  1.0265 -0.7554
 4269SOL    HW224270   3.830   3.638   5.603  1.6165 -1.1661 -0.7045
 4270SOL     OW24271   2.067   0.196   2.771  0.1301  0.0699  0.0827
 4270SOL    HW124272   1.972   0.203   2.775  0.2254  0.8211  1.1821
 4270SOL    HW224273   2.079   0.104   2.749  1.0629 -0.5289  3.0750
 4271SOL     OW24274   0.347   1.009   6.980  0.4146 -0.1387  0.4328
 4271SOL    HW124275   0.269   1.063   6.994 -1.0492 -2.8683  2.5991
 4271SOL    HW224276   0.321   0.919   6.998 -0.1407  0.2380  1.4868
 4272SOL     OW24277   0.478   1.800   3.997  0.7304  0.5535  0.2908
 4272SOL    HW124278   0.464   1.858   3.922 -0.2479  1.3846  1.1192
 4272SOL    HW224279   0.498   1.717   3.952  0.5914  0.8269 -0.2749
 4273SOL     OW24280   2.142   2.198  15.290 -0.4550  0.2239  0.1096
 4273SOL    HW124281   2.129   2.238  15.204 -0.6954 -0.2573 -0.0794
 4273SOL    HW224282   2.107   2.266  15.347 -2.9027  0.6048 -1.8622
 4274SOL     OW24283   3.171   0.651   3.795  0.4984 -0.4127 -0.1862
 4274SOL    HW124284   3.160   0.610   3.709 -0.7773  0.4917 -0.4521
 4274SOL    HW224285   3.148   0.578   3.852 -0.6042  1.5471  1.8694
 4275SOL     OW24286   2.510   3.448   9.057 -0.4192  0.0087  0.2891
 4275SOL    HW124287   2.438   3.400   9.017 -0.4621 -0.0855  0.4807
 4275SOL    HW224288   2.465   3.517   9.106 -0.8766 -0.9508  1.1967
 4276SOL     OW24289   3.475   0.482   9.424  0.3240 -0.0808  0.4723
 4276SOL    HW124290   3.401   0.536   9.397 -2.1115 -3.2085  0.8574
 4276SOL    HW224291   3.438   0.437   9.500  1.5232 -0.6891  0.6840
 4277SOL     OW24292   4.004   4.264  17.544  0.0925 -0.3411  0.3927
 4277SOL    HW124293   4.042   4.177  17.532 -0.1702  0.1629 -3.9624
 4277SOL    HW224294   4.081   4.321  17.532 -0.8525  0.5667 -1.3450
 4278SOL     OW24295   1.465   1.346  11.536  0.6384  0.5562 -0.3452
 4278SOL    HW124296   1.496   1.437  11.532 -1.0703  1.2609  2.1873
 4278SOL    HW224297   1.431   1.343  11.625  2.2025 -1.9402  0.1719
 4279SOL     OW24298   2.662   4.177   8.059 -0.1763 -0.0167  0.3989
 4279SOL    HW124299   2.711   4.113   8.008  0.1052  2.5802 -2.5552
 4279SOL    HW224300   2.731   4.210   8.118 -1.4301 -1.6522  2.7943
 4280SOL     OW24301   1.133   0.211   1.083  0.1411  0.1911  0.2305
 4280SOL    HW124302   1.041   0.232   1.098  0.6963  2.3510  0.6457
 4280SOL    HW224303   1.140   0.201   0.988 -1.3008 -1.2164  0.2674
 4281SOL     OW24304   0.768   2.217   3.403  0.0033  0.7313 -0.0698
 4281SOL    HW124305   0.776   2.148   3.337  1.0167 -2.3988  3.2839
 4281SOL    HW224306   0.797   2.295   3.357  0.9453 -2.1093 -4.3032
 4282SOL     OW24307   0.897   3.104   3.722 -0.5510  0.1322  0.4446
 4282SOL    HW124308   0.958   3.074   3.655  0.2281  2.0634  0.2998
 4282SOL    HW224309   0.941   3.180   3.762 -1.0737 -0.1416  1.5354
 4283SOL     OW24310   0.282   0.913   8.096 -0.0670  0.4552 -0.1978
 4283SOL    HW124311   0.361   0.883   8.051 -0.9925 -1.2385 -0.6853
 4283SOL    HW224312   0.224   0.921   8.021 -0.4833 -0.4350  0.0289
 4284SOL     OW24313   3.879   3.775   8.291  0.0596  0.6591 -0.1304
 4284SOL    HW124314   3.857   3.848   8.233  0.2283  0.5463 -0.3351
 4284SOL    HW224315   3.968   3.805   8.307 -0.1280  1.0144  0.2544
 4285SOL     OW24316   4.322   2.920   4.563 -0.1837  0.4099 -0.4231
 4285SOL    HW124317   4.332   2.885   4.475  0.1369 -2.2115  0.6699
 4285SOL    HW224318   4.409   2.888   4.588 -1.0663 -1.2190  0.5317
 4286SOL     OW24319   0.084   2.393  13.024  0.1462  0.2334  0.2243
 4286SOL    HW124320   0.121   2.436  13.101  1.2847 -0.8353  0.2856
 4286SOL    HW224321   0.102   2.303  13.053 -1.2801 -0.9083 -2.4864
 4287SOL     OW24322   3.640   1.604  12.231  0.0861 -0.5562 -0.2382
 4287SOL    HW124323   3.658   1.670  12.297  1.1943  0.7489 -1.8439
 4287SOL    HW224324   3.633   1.532  12.293 -0.0680 -1.9420 -1.8491
 4288SOL     OW24325   1.910   1.752   2.305 -0.5194  0.1201  0.3016
 4288SOL    HW124326   1.862   1.669   2.304 -0.1842 -0.0696 -0.0095
 4288SOL    HW224327   1.869   1.792   2.228 -0.4341 -3.0065 -1.3809
 4289SOL     OW24328   3.348   4.137  13.835 -0.4575 -0.2836  0.3328
 4289SOL    HW124329   3.268   4.086  13.820  0.0029 -0.7569 -0.5591
 4289SOL    HW224330   3.377   4.090  13.913  0.5693  0.8269  0.6082
 4290SOL     OW24331   2.251   0.909  10.034  0.1196 -0.7663 -0.4648
 4290SOL    HW124332   2.156   0.901  10.032  0.0337  0.1470  0.2043
 4290SOL    HW224333   2.272   0.999  10.056  1.6187 -0.3790 -3.3904
 4291SOL     OW24334   0.394   3.709   0.561  0.2138 -0.4649 -0.1300
 4291SOL    HW124335   0.371   3.654   0.636  1.0451  0.1890  0.6077
 4291SOL    HW224336   0.428   3.644   0.500  1.8875  0.0828  0.2097
 4292SOL     OW24337   3.715   0.277   6.668 -0.5920  0.1278 -0.2086
 4292SOL    HW124338   3.809   0.262   6.678 -0.6451 -0.9882 -1.3616
 4292SOL    HW224339   3.706   0.217   6.594  0.3290  0.3158 -0.4807
 4293SOL     OW24340   0.260   2.159   1.197 -0.1786  0.1418  0.5470
 4293SOL    HW124341   0.321   2.189   1.130 -2.0727  0.4686 -1.0142
 4293SOL    HW224342   0.247   2.244   1.239 -1.8965 -0.7849  1.9104
 4294SOL     OW24343   2.709   0.168   1.848 -0.0564 -0.1237  0.6351
 4294SOL    HW124344   2.757   0.229   1.793  1.4293 -0.8565  1.1230
 4294SOL    HW224345   2.775   0.121   1.900  0.7320  0.2496 -0.0486
 4295SOL     OW24346   0.488   4.486  10.939 -0.0466 -0.1526  0.1836
 4295SOL    HW124347   0.546   4.463  11.012  1.5841  0.8352 -0.8046
 4295SOL    HW224348   0.456   4.399  10.915 -0.1277 -0.5017  1.5746
 4296SOL     OW24349   4.420   2.653   6.629 -0.5829 -0.1228 -0.7361
 4296SOL    HW124350   4.515   2.649   6.639 -0.4936  0.6600 -1.2510
 4296SOL    HW224351   4.400   2.736   6.672 -1.1654 -1.4867  1.6248
 4297SOL     OW24352   1.722   4.522  11.486  0.0364  0.2753  0.0055
 4297SOL    HW124353   1.769   4.479  11.557  3.4925  2.8529 -0.7209
 4297SOL    HW224354   1.751   4.472  11.410  2.4523  2.3864 -0.4656
 4298SOL     OW24355   0.796   4.378  17.035 -0.1386  0.1957  0.4219
 4298SOL    HW124356   0.868   4.316  17.025  0.1150  0.1453  2.4416
 4298SOL    HW224357   0.767   4.376  16.944  0.0161 -1.7537  0.4217
 4299SOL     OW24358   4.025   0.415  10.556  0.3118  0.5970  0.2126
 4299SOL    HW124359   4.077   0.423  10.477  0.6458  0.9702  0.4702
 4299SOL    HW224360   4.030   0.320  10.568  0.3912  0.7181  1.1553
 4300SOL     OW24361   1.318   1.476   3.338 -0.4809  0.0056  0.0565
 4300SOL    HW124362   1.295   1.533   3.264 -0.5274 -0.5567 -0.3625
 4300SOL    HW224363   1.251   1.489   3.406 -1.1387  1.4353 -0.8511
 4301SOL     OW24364   3.350   1.185   9.863 -0.1401 -0.1097  0.3507
 4301SOL    HW124365   3.327   1.144   9.947 -0.8093  0.2154  0.3302
 4301SOL    HW224366   3.398   1.257   9.904  2.2007 -1.8043  0.5324
 4302SOL     OW24367   2.842   0.880   8.726 -0.4741  0.0772 -0.4548
 4302SOL    HW124368   2.909   0.845   8.784  0.6306  0.5618 -1.4286
 4302SOL    HW224369   2.824   0.963   8.770  0.5949 -0.6728  1.4181
 4303SOL     OW24370   0.392   0.422   3.433  0.1302  0.1629  0.3091
 4303SOL    HW124371   0.423   0.332   3.444  0.2817  0.0365 -1.0684
 4303SOL    HW224372   0.388   0.457   3.521 -0.0584 -1.4154  0.9313
 4304SOL     OW24373   0.138   1.198   7.715  0.3146 -0.0063  0.4939
 4304SOL    HW124374   0.119   1.132   7.782  0.2655  1.5558  2.0208
 4304SOL    HW224375   0.168   1.271   7.769 -1.5762 -0.4355  2.1196
 4305SOL     OW24376   1.851   3.467   5.021 -0.2914 -0.1688 -0.3710
 4305SOL    HW124377   1.771   3.437   4.978 -1.5557  1.1028  1.0688
 4305SOL    HW224378   1.819   3.491   5.108 -0.2395 -2.2166  0.2131
 4306SOL     OW24379   2.465   4.188   4.475  0.0972 -0.4090 -0.1196
 4306SOL    HW124380   2.464   4.169   4.382  0.8572  0.6986 -0.3457
 4306SOL    HW224381   2.447   4.105   4.520 -1.3908 -0.2126 -0.3251
 4307SOL     OW24382   0.242   3.275   4.234 -0.0560  0.2918 -0.5205
 4307SOL    HW124383   0.293   3.203   4.196  2.8899  0.2351  3.5371
 4307SOL    HW224384   0.307   3.343   4.213 -1.0922  0.8293 -1.9986
 4308SOL     OW24385   2.221   2.985   6.640 -0.5312 -0.0821 -0.2025
 4308SOL    HW124386   2.228   3.073   6.677  0.9938  0.4178 -1.7031
 4308SOL    HW224387   2.232   2.930   6.718 -1.1748  0.2007  0.0869
 4309SOL     OW24388   4.292   0.576   8.220 -0.5861  0.4544 -0.0133
 4309SOL    HW124389   4.249   0.493   8.238 -1.3952  0.9014  0.1031
 4309SOL    HW224390   4.231   0.606   8.152  0.6442 -2.1435 -2.2682
 4310SOL     OW24391   3.533   4.656   4.594 -0.4264 -0.0530  0.0676
 4310SOL    HW124392   3.484   4.709   4.656  0.0670  0.0810  0.3409
 4310SOL    HW224393   3.555   0.000   4.529  0.3940 -0.6306 -0.2610
 4311SOL     OW24394   3.915   0.265   6.978  0.2761 -0.1647 -0.0490
 4311SOL    HW124395   3.859   0.193   7.006  2.2984 -1.4659  0.6665
 4311SOL    HW224396   4.002   0.236   7.008 -0.3203 -2.4018 -0.4715
 4312SOL     OW24397   0.116   1.827   3.610  0.2877 -0.6283  0.1643
 4312SOL    HW124398   0.060   1.753   3.587 -0.6224 -0.4237  1.7467
 4312SOL    HW224399   0.053   1.898   3.615  0.4033 -0.6091  1.2673
 4313SOL     OW24400   0.448   0.038   4.795  0.0907 -0.1059  0.2510
 4313SOL    HW124401   0.370   0.077   4.834 -2.2462 -2.5070 -2.0569
 4313SOL    HW224402   0.407   4.704   4.731 -1.8628  1.1877  0.3619
 4314SOL     OW24403   1.929   2.413   5.667  0.3128  0.5429  0.2838
 4314SOL    HW124404   1.891   2.325   5.665  0.5122  0.5035 -1.6870
 4314SOL    HW224405   1.901   2.457   5.586 -1.2932 -1.7493 -0.3947
 4315SOL     OW24406   4.118   0.948   8.499  0.2194 -0.3558  0.1109
 4315SOL    HW124407   4.052   0.954   8.430  0.3577 -1.2982 -0.0965
 4315SOL    HW224408   4.088   1.007   8.569 -2.3259  0.0746 -1.3386
 4316SOL     OW24409   4.454   4.369  17.371  0.2738 -0.3021 -0.6520
 4316SOL    HW124410   4.528   4.361  17.431  1.2033 -0.3964 -1.7969
 4316SOL    HW224411   4.479   4.428  17.300 -2.6123 -0.4214 -1.7743
 4317SOL     OW24412   3.884   2.904   8.584  0.1181  0.8119  0.4838
 4317SOL    HW124413   3.929   2.830   8.543  0.5100  2.4813 -2.0931
 4317SOL    HW224414   3.897   2.979   8.525  3.2986 -1.4147 -1.6456
 4318SOL     OW24415   2.896   3.654   7.771 -0.1592 -0.1382  0.3173
 4318SOL    HW124416   2.990   3.655   7.785 -0.4762  1.4070  2.2101
 4318SOL    HW224417   2.890   3.695   7.684 -1.6581 -0.4588  0.2721
 4319SOL     OW24418   4.252   4.442   4.443 -0.0762  0.8133 -0.6822
 4319SOL    HW124419   4.322   4.406   4.498  0.4686 -0.0280 -1.9420
 4319SOL    HW224420   4.197   4.366   4.423  1.1735 -0.6168  1.2983
 4320SOL     OW24421   0.883   3.212   6.215  0.5080 -0.6510 -0.4753
 4320SOL    HW124422   0.810   3.152   6.229  1.5424 -1.4620  1.4577
 4320SOL    HW224423   0.861   3.255   6.132 -1.9394 -1.4457 -0.2518
 4321SOL     OW24424   0.472   4.028   7.800 -0.2227  0.1087 -0.1005
 4321SOL    HW124425   0.438   3.958   7.856  0.1161 -0.4196 -0.5611
 4321SOL    HW224426   0.408   4.097   7.819 -1.5965 -1.6972  1.8221
 4322SOL     OW24427   4.374   2.283   0.505  0.6937 -0.1046  0.1606
 4322SOL    HW124428   4.360   2.352   0.439  2.3318  1.5147  1.4996
 4322SOL    HW224429   4.451   2.312   0.554 -0.1358  3.4722 -0.6701
 4323SOL     OW24430   3.211   2.481   8.658  0.0049  0.8673 -0.1673
 4323SOL    HW124431   3.195   2.388   8.639  2.2436  0.2615  0.8684
 4323SOL    HW224432   3.148   2.518   8.597  0.7068  0.4342 -1.1468
 4324SOL     OW24433   4.676   2.145  11.207  0.1118  0.0802  0.2411
 4324SOL    HW124434   4.614   2.132  11.136  0.6321  4.4036 -0.9973
 4324SOL    HW224435   4.686   2.240  11.215  0.7164  0.2298 -2.2309
 4325SOL     OW24436   3.669   2.760  13.482 -0.4940 -0.3287 -0.2368
 4325SOL    HW124437   3.753   2.725  13.452 -0.2373  0.0147  0.0745
 4325SOL    HW224438   3.663   2.724  13.570 -0.3111 -0.8049 -0.4177
 4326SOL     OW24439   3.686   3.326  10.269 -0.4644 -0.0512  0.1820
 4326SOL    HW124440   3.700   3.232  10.254  2.6596 -0.0143  2.8749
 4326SOL    HW224441   3.704   3.331  10.363 -1.7378  2.6667  0.2699
 4327SOL     OW24442   1.623   0.767   2.923  0.3257 -0.2865 -0.6386
 4327SOL    HW124443   1.576   0.732   2.999  0.5373 -0.1142 -0.4310
 4327SOL    HW224444   1.658   0.851   2.950 -0.2222 -0.7128  1.3860
 4328SOL     OW24445   1.811   4.316   7.525  0.5424 -0.6777  0.1246
 4328SOL    HW124446   1.877   4.313   7.456  1.3656 -0.0105  0.8876
 4328SOL    HW224447   1.827   4.405   7.556  0.4426 -0.4110 -0.5828
 4329SOL     OW24448   0.719   4.347   1.527 -0.2644  0.3826 -0.4433
 4329SOL    HW124449   0.688   4.323   1.614  1.6989 -1.2596 -0.2191
 4329SOL    HW224450   0.737   4.440   1.535 -0.2097  0.4921 -1.8340
 4330SOL     OW24451   3.964   3.134  11.892 -0.2297  0.0573 -0.1646
 4330SOL    HW124452   3.909   3.188  11.836  2.0775  1.6517 -0.9114
 4330SOL    HW224453   3.951   3.050  11.848 -0.5126  1.1962 -2.2678
 4331SOL     OW24454   2.256   4.321   4.341 -0.2284  0.5721  0.1837
 4331SOL    HW124455   2.221   4.232   4.344  0.6800  0.2428  1.2028
 4331SOL    HW224456   2.333   4.308   4.396  0.5397  0.8262 -0.8348
 4332SOL     OW24457   3.195   2.681  13.899 -0.4642  0.1584 -0.8314
 4332SOL    HW124458   3.229   2.649  13.982  0.4949  2.6427 -0.2918
 4332SOL    HW224459   3.236   2.614  13.843 -0.6736  0.2109 -1.0484
 4333SOL     OW24460   2.826   1.100   6.307  0.2345  0.0007 -0.1112
 4333SOL    HW124461   2.759   1.157   6.270  0.7610  1.1809  0.7680
 4333SOL    HW224462   2.902   1.156   6.321  1.4802 -1.9746  0.9663
 4334SOL     OW24463   1.711   4.690   2.258 -0.3408 -0.3786  0.6901
 4334SOL    HW124464   1.714   4.696   2.163 -0.9215  0.0842  0.6998
 4334SOL    HW224465   1.787   4.635   2.278 -1.7684 -2.0426  1.6837
 4335SOL     OW24466   4.383   1.895   8.053 -0.0854 -0.2671 -0.0175
 4335SOL    HW124467   4.330   1.892   8.133 -0.0361  2.1027  0.1108
 4335SOL    HW224468   4.342   1.827   8.001  0.2927 -0.2842 -0.2940
 4336SOL     OW24469   2.261   0.670   3.274 -0.1351  0.1901 -0.0866
 4336SOL    HW124470   2.215   0.593   3.240 -0.3303  0.9903 -1.6299
 4336SOL    HW224471   2.351   0.673   3.242  0.4132  1.1104  1.5813
 4337SOL     OW24472   3.296   2.061  10.870 -0.0501  0.0845  0.0357
 4337SOL    HW124473   3.325   2.031  10.784 -0.4300 -2.5334  0.8137
 4337SOL    HW224474   3.357   2.009  10.922 -0.1725  1.0714  1.1584
 4338SOL     OW24475   4.268   3.311   5.367  0.3492 -0.0091  0.6247
 4338SOL    HW124476   4.354   3.348   5.389  0.4066  0.5261 -0.4717
 4338SOL    HW224477   4.260   3.355   5.282  1.0551 -1.9802 -0.4756
 4339SOL     OW24478   0.727   3.003   6.371  0.2657  0.0670  0.3555
 4339SOL    HW124479   0.643   2.990   6.414  0.1459  1.8693  0.6691
 4339SOL    HW224480   0.778   3.047   6.439 -1.6715  1.6288  0.7969
 4340SOL     OW24481   0.178   2.841   7.546  0.2769 -0.3099 -0.0222
 4340SOL    HW124482   0.200   2.787   7.470  1.8857  0.3937 -0.0409
 4340SOL    HW224483   0.143   2.920   7.505 -2.1635 -1.5964 -0.3987
 4341SOL     OW24484   1.922   3.748  14.236 -0.2299 -0.0514 -0.1556
 4341SOL    HW124485   1.923   3.841  14.217 -0.1648 -0.3027 -1.3380
 4341SOL    HW224486   1.926   3.717  14.146  0.3134 -0.3553 -0.0286
 4342SOL     OW24487   3.349   4.075   5.833  0.2011  0.5796  0.0424
 4342SOL    HW124488   3.308   4.064   5.747 -0.7867  0.4786  0.5280
 4342SOL    HW224489   3.442   4.059   5.815 -0.1774 -0.7567 -0.7619
 4343SOL     OW24490   1.128   1.319   4.496  0.2085  0.3420  0.0367
 4343SOL    HW124491   1.157   1.345   4.408 -1.5467  1.5960 -0.1739
 4343SOL    HW224492   1.173   1.388   4.545 -0.7594  0.9598  0.0427
 4344SOL     OW24493   0.190   1.789   3.111 -0.5906  0.5733 -0.2771
 4344SOL    HW124494   0.261   1.775   3.048 -0.7075  1.2593 -0.5612
 4344SOL    HW224495   0.235   1.760   3.190 -0.7548  2.2960  0.4310
 4345SOL     OW24496   2.592   1.716   5.967 -0.4663  0.1789  0.1819
 4345SOL    HW124497   2.612   1.747   5.878  1.1191 -1.4091 -0.0113
 4345SOL    HW224498   2.671   1.663   5.978  0.6181  1.6100 -0.6545
 4346SOL     OW24499   2.201   1.899   3.824 -0.0224  0.1939 -0.2037
 4346SOL    HW124500   2.254   1.961   3.874  0.2938 -1.4676  1.5145
 4346SOL    HW224501   2.176   1.957   3.752 -1.9030 -1.9917 -1.3144
 4347SOL     OW24502   4.473   1.479   6.659 -0.2170 -0.0033 -0.3848
 4347SOL    HW124503   4.481   1.565   6.618 -0.2891 -1.2232 -2.9796
 4347SOL    HW224504   4.379   1.459   6.654 -0.2942  0.6818 -1.7525
 4348SOL     OW24505   1.641   4.512  17.129 -0.0567  0.1584  0.1666
 4348SOL    HW124506   1.726   4.467  17.135 -1.9646 -2.9341  3.6136
 4348SOL    HW224507   1.587   4.466  17.192 -0.7330 -0.0551 -0.5709
 4349SOL     OW24508   1.087   3.352   6.346  0.0642 -0.6281 -0.1195
 4349SOL    HW124509   1.017   3.416   6.360  1.1997  1.0322 -2.1628
 4349SOL    HW224510   1.045   3.289   6.287 -2.9590  1.0228  0.2738
 4350SOL     OW24511   2.093   3.931  17.239  0.0502 -0.0471 -0.2028
 4350SOL    HW124512   2.173   3.941  17.187 -1.0626 -1.0377 -2.0966
 4350SOL    HW224513   2.117   3.978  17.319 -1.0953 -0.0799  0.1606
 4351SOL     OW24514   1.259   4.275   9.458 -0.8258 -0.0663 -0.0817
 4351SOL    HW124515   1.341   4.230   9.437  0.1405  2.2504 -1.2669
 4351SOL    HW224516   1.262   4.350   9.398 -1.1756 -1.5989 -2.0045
 4352SOL     OW24517   2.031   3.454   7.048  0.2028  0.8278  0.5135
 4352SOL    HW124518   1.975   3.530   7.032 -1.2567 -0.4695 -0.5104
 4352SOL    HW224519   1.994   3.436   7.135 -0.0674  0.8273  0.3981
 4353SOL     OW24520   2.995   2.878   1.273  0.3073  0.1708 -0.5936
 4353SOL    HW124521   3.041   2.926   1.341  1.5489 -1.8786 -0.0005
 4353SOL    HW224522   3.072   2.829   1.245 -0.3701 -0.9685 -0.4708
 4354SOL     OW24523   3.872   1.501  11.084  0.3131 -0.0006 -0.1182
 4354SOL    HW124524   3.799   1.480  11.143  1.5100 -1.4632  0.8455
 4354SOL    HW224525   3.875   1.416  11.040  0.8741 -0.5871  1.0606
 4355SOL     OW24526   4.167   0.604   5.325 -0.5282 -0.0418 -0.1057
 4355SOL    HW124527   4.180   0.530   5.266  0.3120 -1.1120  1.4049
 4355SOL    HW224528   4.072   0.616   5.330 -0.7016 -1.2848 -0.6102
 4356SOL     OW24529   3.167   0.860  13.266 -0.2785 -0.3592  0.5348
 4356SOL    HW124530   3.142   0.768  13.263  1.5241 -0.7884 -0.9184
 4356SOL    HW224531   3.078   0.895  13.260  0.1839  0.7438  0.0608
 4357SOL     OW24532   1.134   2.452  10.291  0.0199 -0.6440 -0.3883
 4357SOL    HW124533   1.087   2.376  10.256 -1.1465 -0.1409  0.0972
 4357SOL    HW224534   1.216   2.431  10.246  2.1879 -0.6608  3.5490
 4358SOL     OW24535   2.501   1.270  14.757 -0.0347  0.4010 -0.0451
 4358SOL    HW124536   2.411   1.263  14.787 -0.7651  0.9409 -2.1232
 4358SOL    HW224537   2.551   1.226  14.826 -0.8045 -0.0002  0.2470
 4359SOL     OW24538   4.370   3.807   0.915  0.5145  0.4327 -0.2841
 4359SOL    HW124539   4.313   3.831   0.843  1.2664 -1.0042 -1.3677
 4359SOL    HW224540   4.428   3.753   0.861  0.4714 -0.4379  0.5411
 4360SOL     OW24541   0.683   0.675   7.854  0.1629 -0.0128  0.4197
 4360SOL    HW124542   0.737   0.710   7.925  1.2965 -0.2852 -0.2942
 4360SOL    HW224543   0.683   0.582   7.874 -1.2647 -0.1019 -0.0043
 4361SOL     OW24544   2.982   3.765  12.503 -0.4003  0.1361  0.3530
 4361SOL    HW124545   3.050   3.824  12.538  1.2664 -0.9146 -1.1065
 4361SOL    HW224546   3.037   3.686  12.494 -1.6594 -0.4348 -2.2255
 4362SOL     OW24547   3.501   4.039  11.009  0.8372  0.5069 -0.5181
 4362SOL    HW124548   3.435   4.106  11.028  0.2869 -0.5752  1.3284
 4362SOL    HW224549   3.518   4.062  10.917 -0.2431 -0.3386 -0.9340
 4363SOL     OW24550   3.965   1.946  16.769 -0.4327  0.2060 -0.1034
 4363SOL    HW124551   3.921   2.028  16.746 -1.1589 -0.9915 -3.0170
 4363SOL    HW224552   3.983   1.919  16.679 -0.0084 -0.8720  0.3058
 4364SOL     OW24553   0.929   4.027   2.319 -0.3342  0.2293 -0.4971
 4364SOL    HW124554   0.892   4.114   2.333 -4.0141 -1.7048  1.8115
 4364SOL    HW224555   0.889   4.001   2.236 -0.0451  1.3652 -0.9940
 4365SOL     OW24556   3.502   2.441   1.863 -0.0101  0.3067  0.0137
 4365SOL    HW124557   3.557   2.384   1.915 -0.3098  1.3722  1.4933
 4365SOL    HW224558   3.510   2.397   1.778 -0.9379  1.7422 -0.8345
 4366SOL     OW24559   3.931   2.397   2.431 -0.2121  0.4108  0.3521
 4366SOL    HW124560   3.943   2.317   2.482  0.6849  0.4744  0.2476
 4366SOL    HW224561   4.017   2.439   2.439  0.5032 -0.9980  0.0742
 4367SOL     OW24562   0.834   4.283   8.912 -0.0741  0.5385 -0.0778
 4367SOL    HW124563   0.908   4.276   8.973 -0.6309 -1.3708  0.3980
 4367SOL    HW224564   0.882   4.320   8.838 -0.6677  1.9714  0.2635
 4368SOL     OW24565   2.002   3.280   6.839  0.1977  0.2139 -0.0699
 4368SOL    HW124566   2.018   3.351   6.901 -1.3773  1.3069 -0.9253
 4368SOL    HW224567   1.910   3.271   6.864  0.8129  0.7336  2.4266
 4369SOL     OW24568   3.825   0.417   1.644 -0.1311  0.2811  0.6698
 4369SOL    HW124569   3.903   0.461   1.609 -0.3328  0.7749  0.8349
 4369SOL    HW224570   3.861   0.408   1.732 -0.1659  0.2889  0.6848
 4370SOL     OW24571   3.700   1.159   6.288 -0.1040 -0.5412 -0.0248
 4370SOL    HW124572   3.752   1.235   6.315  0.6332 -1.1259  0.2201
 4370SOL    HW224573   3.615   1.200   6.277  0.5478  0.2553 -1.9263
 4371SOL     OW24574   0.024   4.629   7.630  0.0286 -0.0460  0.1758
 4371SOL    HW124575   4.722   4.536   7.630  2.1273 -0.6004  1.9907
 4371SOL    HW224576   0.052   4.646   7.720  0.8193  1.9099 -0.4616
 4372SOL     OW24577   3.732   3.452   1.245  0.0928  0.7591  0.8837
 4372SOL    HW124578   3.676   3.496   1.180  0.2763 -1.3823 -0.7062
 4372SOL    HW224579   3.680   3.404   1.309  0.4588  0.4393  0.9398
 4373SOL     OW24580   4.269   4.179   1.044  0.4155 -0.8483  0.7113
 4373SOL    HW124581   4.283   4.170   0.949 -1.9204 -1.0476  0.3867
 4373SOL    HW224582   4.356   4.160   1.080  0.7441  0.3293  0.5377
 4374SOL     OW24583   4.690   1.425   7.142 -0.0554 -0.3767 -0.1059
 4374SOL    HW124584   4.623   1.372   7.100 -1.0115  0.7021  0.0460
 4374SOL    HW224585   4.643   1.465   7.216 -2.3189 -2.0489 -0.6346
 4375SOL     OW24586   4.281   0.080  10.879 -0.3860  0.2013 -0.4517
 4375SOL    HW124587   4.349   0.059  10.943 -0.7578  3.5131  1.0320
 4375SOL    HW224588   4.326   0.044  10.802  0.2213 -1.0915  0.4917
 4376SOL     OW24589   2.346   1.835  12.374  0.8060 -0.4872 -0.4420
 4376SOL    HW124590   2.331   1.741  12.367 -2.4140 -0.1852  2.5056
 4376SOL    HW224591   2.365   1.867  12.286  1.4192 -1.1429 -0.5457
 4377SOL     OW24592   0.195   3.058   5.879  0.1012 -0.3561  0.0385
 4377SOL    HW124593   0.282   3.068   5.840 -0.0535 -2.0521 -0.7335
 4377SOL    HW224594   0.160   2.991   5.821 -1.4241 -0.6328  1.2680
 4378SOL     OW24595   3.373   4.244   6.073  0.2188 -0.0449  0.1884
 4378SOL    HW124596   3.399   4.172   6.131  0.9930  1.2952  1.4961
 4378SOL    HW224597   3.339   4.196   5.997 -0.3954  1.3707 -0.4230
 4379SOL     OW24598   1.061   4.620   7.616  0.1108  0.2542  0.1964
 4379SOL    HW124599   1.152   4.620   7.587 -0.2593  0.4512 -0.9348
 4379SOL    HW224600   1.014   4.554   7.566  1.0427 -0.2014 -0.0776
 4380SOL     OW24601   1.313   0.527  11.559 -0.2651 -0.5983 -0.0919
 4380SOL    HW124602   1.371   0.579  11.504  0.2191 -0.8048  0.2258
 4380SOL    HW224603   1.276   0.467  11.494 -0.1336 -2.9954  2.0340
 4381SOL     OW24604   3.254   2.076   5.931 -0.0105  0.0552  0.0557
 4381SOL    HW124605   3.209   2.044   5.852 -0.8857  1.5387 -0.0562
 4381SOL    HW224606   3.341   2.039   5.920 -0.6022 -1.3212 -0.1011
 4382SOL     OW24607   3.451   1.552   2.228 -1.0529 -0.0315  0.0512
 4382SOL    HW124608   3.465   1.506   2.145 -1.4189 -1.5849  0.8470
 4382SOL    HW224609   3.370   1.504   2.247 -1.8487  1.6683  0.9490
 4383SOL     OW24610   0.835   0.032  10.710 -0.3435  0.2546 -0.1367
 4383SOL    HW124611   0.801   0.042  10.799 -2.5085  0.9097 -1.0407
 4383SOL    HW224612   0.835   4.659  10.710  2.1977  0.2507 -0.7651
 4384SOL     OW24613   4.591   2.564  15.485 -0.0606  0.7166 -0.5813
 4384SOL    HW124614   4.684   2.543  15.484  0.0373  1.0284  1.5009
 4384SOL    HW224615   4.573   2.624  15.413  1.1499  2.2888  0.4390
 4385SOL     OW24616   0.474   2.005  14.663 -0.2247  0.7648 -0.0833
 4385SOL    HW124617   0.422   2.060  14.604  1.8269  1.0833 -1.5894
 4385SOL    HW224618   0.410   1.952  14.710 -1.2276  1.8815 -0.1763
 4386SOL     OW24619   0.147   3.962   7.105  0.1661 -0.1048 -0.7581
 4386SOL    HW124620   0.213   4.013   7.152 -1.3690  2.2421 -1.1819
 4386SOL    HW224621   0.098   4.033   7.065 -1.0938  0.7253  2.3035
 4387SOL     OW24622   0.667   3.519  15.259 -0.5898 -0.2086  0.1420
 4387SOL    HW124623   0.577   3.549  15.275 -0.5058 -0.8803  1.8876
 4387SOL    HW224624   0.672   3.529  15.164 -1.3245  0.9116  0.2221
 4388SOL     OW24625   0.116   0.187   7.811 -0.2215 -0.5477 -0.0537
 4388SOL    HW124626   0.119   0.102   7.857  3.0028 -1.5182 -2.0411
 4388SOL    HW224627   0.048   0.167   7.747  1.2461 -0.7381 -1.5641
 4389SOL     OW24628   4.307   3.214   1.321  0.5788  0.0515  0.4744
 4389SOL    HW124629   4.223   3.233   1.363  0.0290  1.4490 -1.2507
 4389SOL    HW224630   4.306   3.259   1.237  0.6338 -0.2783  0.2991
 4390SOL     OW24631   1.332   1.981  13.175  0.1345 -0.1169 -0.1399
 4390SOL    HW124632   1.309   1.889  13.182  0.6580 -0.3501 -1.5087
 4390SOL    HW224633   1.349   2.004  13.267  0.4502  1.2092 -0.5194
 4391SOL     OW24634   0.050   4.081   3.705 -0.0729  0.0379 -0.3184
 4391SOL    HW124635   0.005   4.036   3.776  0.9431 -1.8204 -0.8331
 4391SOL    HW224636   0.062   4.166   3.746  0.7071  0.0749 -0.6259
 4392SOL     OW24637   1.857   3.792  17.045 -0.2068  0.4031 -0.0089
 4392SOL    HW124638   1.858   3.704  17.082 -1.2680  0.3779 -0.0588
 4392SOL    HW224639   1.927   3.837  17.093  0.7293 -1.0073 -0.0466
 4393SOL     OW24640   2.218   0.460   6.509 -0.4048 -0.3891 -0.0592
 4393SOL    HW124641   2.172   0.379   6.535 -1.3670  0.6985  1.6283
 4393SOL    HW224642   2.300   0.422   6.478  0.9855  1.7229  1.0404
 4394SOL     OW24643   0.290   3.263   6.523 -0.3046 -0.0443 -0.2323
 4394SOL    HW124644   0.295   3.299   6.435 -1.3165  1.5086  0.3585
 4394SOL    HW224645   0.384   3.250   6.538 -0.7490 -1.4184  1.4004
 4395SOL     OW24646   0.130   1.143   7.441  0.4149  0.5668 -0.5455
 4395SOL    HW124647   0.143   1.171   7.532 -1.5245  1.8529 -0.6817
 4395SOL    HW224648   0.193   1.071   7.434  1.8371  1.6519  1.1469
 4396SOL     OW24649   1.958   2.929  15.592 -0.2684  0.3827  0.3364
 4396SOL    HW124650   1.989   3.020  15.596 -0.6145  0.4893  0.6118
 4396SOL    HW224651   1.879   2.945  15.540  1.1636  0.4144 -1.8275
 4397SOL     OW24652   3.786   1.202   8.677 -0.0566 -0.0759  0.3169
 4397SOL    HW124653   3.875   1.171   8.661  0.3523  1.5314 -0.5681
 4397SOL    HW224654   3.773   1.256   8.599 -1.3828 -0.8937 -0.0201
 4398SOL     OW24655   4.080   0.104   5.743  0.0988  0.1461  0.0849
 4398SOL    HW124656   4.122   0.111   5.829  1.6351  0.4932 -0.6972
 4398SOL    HW224657   3.999   0.068   5.778  0.8652 -0.2930  1.4059
 4399SOL     OW24658   2.871   4.564   8.807  0.4648 -0.8368 -0.0811
 4399SOL    HW124659   2.939   4.586   8.743 -0.4978  0.6005 -0.6176
 4399SOL    HW224660   2.891   4.612   8.888 -3.6688 -0.4014  0.6540
 4400SOL     OW24661   2.328   4.212   9.490 -0.6164 -0.3295  0.2981
 4400SOL    HW124662   2.316   4.257   9.573 -2.2119 -0.0899 -0.0588
 4400SOL    HW224663   2.308   4.279   9.424 -0.7602 -1.4918 -0.8415
 4401SOL     OW24664   0.490   2.777   8.259 -0.1207 -0.2911  0.6332
 4401SOL    HW124665   0.400   2.808   8.262 -0.1004 -0.1917  0.2078
 4401SOL    HW224666   0.539   2.832   8.320 -1.1029  0.3996  0.8004
 4402SOL     OW24667   2.286   1.753  11.962 -0.1028  0.0581  0.2652
 4402SOL    HW124668   2.307   1.824  12.023  0.2262  0.3157 -0.1528
 4402SOL    HW224669   2.347   1.770  11.890 -1.7514 -0.2312 -1.1909
 4403SOL     OW24670   0.523   3.590   7.081 -0.2034 -0.2042  0.2791
 4403SOL    HW124671   0.504   3.519   7.143  0.1819 -2.6150 -2.3713
 4403SOL    HW224672   0.603   3.556   7.041 -0.1209 -1.6513  1.6630
 4404SOL     OW24673   1.304   0.661  10.464 -0.1987 -0.1096  0.0485
 4404SOL    HW124674   1.300   0.580  10.412  2.2094 -0.1125 -0.1687
 4404SOL    HW224675   1.249   0.722  10.415  0.3140  2.0466  2.1459
 4405SOL     OW24676   0.340   1.796   6.947 -0.4454  0.5265  0.6911
 4405SOL    HW124677   0.396   1.855   6.897  1.1771 -2.3119 -0.8703
 4405SOL    HW224678   0.313   1.738   6.876  0.9807  0.8103 -0.0821
 4406SOL     OW24679   2.323   2.901  15.580 -0.0096 -0.0758 -0.1632
 4406SOL    HW124680   2.370   2.957  15.642 -0.8347 -2.5148  2.7170
 4406SOL    HW224681   2.311   2.962  15.507  0.1856  0.8401  0.5705
 4407SOL     OW24682   4.214   1.910   8.262  0.5998 -0.5530  0.0704
 4407SOL    HW124683   4.154   1.888   8.334  0.9117  1.1020  0.8361
 4407SOL    HW224684   4.172   1.980   8.211  0.1282 -0.9215 -0.0461
 4408SOL     OW24685   4.447   2.556  17.676  0.0657  0.6172  0.1161
 4408SOL    HW124686   4.509   2.493   0.018  0.9717 -0.6311 -3.6087
 4408SOL    HW224687   4.458   2.526  17.586  1.1808  0.2691  0.3672
 4409SOL     OW24688   2.910   4.254   3.276  0.0193  0.4076  0.5007
 4409SOL    HW124689   2.939   4.164   3.261  1.6703  1.2854 -1.6803
 4409SOL    HW224690   2.850   4.234   3.347 -0.3375  2.0781  0.6644
 4410SOL     OW24691   2.536   2.909   5.666 -0.0383  0.2664  0.2819
 4410SOL    HW124692   2.549   2.815   5.676  0.3892  0.4344  1.3126
 4410SOL    HW224693   2.617   2.940   5.706  0.1626 -0.5282  0.4944
 4411SOL     OW24694   4.115   3.423   3.666  0.3157 -0.1041 -0.2394
 4411SOL    HW124695   4.174   3.439   3.593 -0.4693 -0.5318 -0.9705
 4411SOL    HW224696   4.115   3.505   3.714  0.2412  1.2243 -2.5188
 4412SOL     OW24697   2.261   1.875   8.684 -0.5082 -0.2920 -0.0562
 4412SOL    HW124698   2.223   1.809   8.742  4.3282 -3.5963 -0.6429
 4412SOL    HW224699   2.259   1.946   8.748 -0.0090  0.1575 -0.5415
 4413SOL     OW24700   4.608   1.221   0.009  0.0552  0.5576  0.2572
 4413SOL    HW124701   4.589   1.314   0.024 -0.8968  1.1063 -4.2065
 4413SOL    HW224702   4.531   1.179   0.049  1.2253 -0.2693  1.6449
 4414SOL     OW24703   3.623   3.793   6.122  0.0099  0.0129  0.3411
 4414SOL    HW124704   3.599   3.781   6.030 -0.1569 -0.9058  0.4965
 4414SOL    HW224705   3.691   3.727   6.134 -0.0336 -0.1425 -0.2607
 4415SOL     OW24706   4.480   4.453  16.619 -0.1498 -0.6216 -0.0529
 4415SOL    HW124707   4.390   4.482  16.606  0.7354  1.7446 -0.9630
 4415SOL    HW224708   4.520   4.539  16.629 -0.2756 -0.4755 -0.7973
 4416SOL     OW24709   2.075   4.520   3.047 -0.3032 -0.3915  0.0221
 4416SOL    HW124710   1.986   4.555   3.034 -0.1252 -0.6131 -1.7976
 4416SOL    HW224711   2.118   4.602   3.074 -1.2652 -0.4242  1.6837
 4417SOL     OW24712   0.734   2.784   2.810 -0.1771  0.7476 -0.4431
 4417SOL    HW124713   0.775   2.706   2.848 -2.6732 -0.9074 -1.0961
 4417SOL    HW224714   0.736   2.752   2.719 -0.6953  0.3195 -0.3071
 4418SOL     OW24715   4.487   3.891   5.620  0.0932  0.1690  1.1113
 4418SOL    HW124716   4.519   3.808   5.583 -0.3542  2.2559 -3.9969
 4418SOL    HW224717   4.478   3.946   5.542 -1.2209 -1.3504  0.1966
 4419SOL     OW24718   4.692   1.860  12.053 -0.4600 -0.1672 -0.1851
 4419SOL    HW124719   4.718   1.951  12.036 -1.0955 -0.3264 -2.1320
 4419SOL    HW224720   4.605   1.868  12.014 -0.7488  0.7038  0.6506
 4420SOL     OW24721   2.435   3.073   6.270  0.7323  0.2290  0.1268
 4420SOL    HW124722   2.395   2.988   6.254  1.5180 -0.3064  0.9545
 4420SOL    HW224723   2.480   3.087   6.186  0.6002 -1.9744 -0.3203
 4421SOL     OW24724   4.159   3.275   6.969 -0.1256  0.2062 -0.1992
 4421SOL    HW124725   4.100   3.350   6.976  0.6082  0.6618  1.2018
 4421SOL    HW224726   4.225   3.298   6.904  0.6365  0.6674  0.7310
 4422SOL     OW24727   3.147   0.661   7.514 -0.0091  0.5199  0.2163
 4422SOL    HW124728   3.122   0.746   7.479 -0.3103 -0.3300 -1.6240
 4422SOL    HW224729   3.121   0.677   7.604  0.6021  0.9610  0.3141
 4423SOL     OW24730   4.545   4.702   8.389 -0.4214  0.2452  0.1574
 4423SOL    HW124731   4.629   4.687   8.344 -1.4583 -3.2333 -0.5770
 4423SOL    HW224732   4.564   4.708   8.483 -0.1332 -0.1811  0.1258
 4424SOL     OW24733   3.182   3.025  14.867  0.2775  0.2640  0.4850
 4424SOL    HW124734   3.224   3.089  14.924 -0.8397  1.4959 -0.0712
 4424SOL    HW224735   3.254   3.013  14.806  1.0241 -1.4178  1.6910
 4425SOL     OW24736   0.980   1.183  14.965 -0.0875  0.5902 -0.4709
 4425SOL    HW124737   0.897   1.213  15.002  0.7926  0.7278  1.3853
 4425SOL    HW224738   1.044   1.182  15.036  0.3280 -2.7438 -0.8714
 4426SOL     OW24739   3.143   4.523  10.234  0.1507 -0.1663 -0.1661
 4426SOL    HW124740   3.161   4.434  10.205  0.8422 -0.2121  0.4187
 4426SOL    HW224741   3.062   4.530  10.184 -0.4997 -1.9749  0.6694
 4427SOL     OW24742   0.122   4.044   0.201 -0.2550  0.3153 -0.6473
 4427SOL    HW124743   0.181   4.115   0.174  2.2290 -2.1838 -1.8109
 4427SOL    HW224744   0.174   3.977   0.245  0.6449  2.7330  1.9551
 4428SOL     OW24745   1.596   3.915   5.160  0.2079  0.3206  0.6521
 4428SOL    HW124746   1.547   3.963   5.227  1.1772  2.1706  0.0352
 4428SOL    HW224747   1.620   3.984   5.099 -1.3086  1.4307  1.2832
 4429SOL     OW24748   4.006   0.345  11.778 -0.2583  0.4475 -0.1257
 4429SOL    HW124749   3.950   0.305  11.712  0.8794 -1.7911  0.2742
 4429SOL    HW224750   3.952   0.370  11.854  1.6021 -0.8072  1.6042
 4430SOL     OW24751   0.279   1.030  12.017  0.3646 -0.3663  0.1060
 4430SOL    HW124752   0.244   0.994  11.935  1.3784  1.2862 -1.0505
 4430SOL    HW224753   0.369   1.050  11.990 -0.0778  1.2381 -0.1372
 4431SOL     OW24754   3.690   0.641   9.905  0.1035 -0.5070 -0.2454
 4431SOL    HW124755   3.734   0.698   9.841  0.2494 -0.9472 -0.5401
 4431SOL    HW224756   3.659   0.575   9.843 -1.8253 -0.9936  1.2570
 4432SOL     OW24757   4.506   4.002   9.382 -0.2204 -0.0928 -0.1401
 4432SOL    HW124758   4.503   4.096   9.367 -0.1946 -0.2159 -0.9261
 4432SOL    HW224759   4.422   3.977   9.421 -0.4625 -1.4131 -1.5152
 4433SOL     OW24760   4.037   0.075   3.414 -0.3402 -0.2233  0.2442
 4433SOL    HW124761   3.998   0.162   3.425  0.3348  0.0511  0.4299
 4433SOL    HW224762   3.956   0.024   3.404 -0.0129 -0.4028 -1.5921
 4434SOL     OW24763   3.295   2.649   1.616 -0.1839  0.1294 -0.4321
 4434SOL    HW124764   3.341   2.717   1.567  1.5266 -0.7887 -0.1066
 4434SOL    HW224765   3.354   2.659   1.690  2.3204 -4.6254 -1.7926
 4435SOL     OW24766   4.070   1.758   3.251  0.0484  0.4789  0.0153
 4435SOL    HW124767   4.085   1.834   3.195  0.1633 -0.9633 -1.9165
 4435SOL    HW224768   3.979   1.770   3.279  0.5204  0.0724  1.6828
 4436SOL     OW24769   3.062   1.024   5.743 -0.6584 -0.2545 -0.0316
 4436SOL    HW124770   3.088   1.085   5.813 -3.0204  0.3744  0.3174
 4436SOL    HW224771   3.122   0.950   5.755  1.1557  1.3848  1.0015
 4437SOL     OW24772   0.480   4.602   9.103 -0.1571 -0.1697  0.1894
 4437SOL    HW124773   0.536   4.526   9.088 -0.5838 -0.4664  0.0712
 4437SOL    HW224774   0.526   4.674   9.144  0.2392 -0.5010  0.3231
 4438SOL     OW24775   1.662   2.191   6.755 -0.1913  0.2822 -0.0459
 4438SOL    HW124776   1.593   2.193   6.689 -0.2558  0.6810  0.0348
 4438SOL    HW224777   1.634   2.112   6.800 -0.1465  0.4527  0.2820
 4439SOL     OW24778   3.380   3.268   4.342  0.0537  0.2761  0.6495
 4439SOL    HW124779   3.420   3.354   4.329 -1.1758  0.8587  0.7102
 4439SOL    HW224780   3.339   3.249   4.258 -0.4335 -1.0396  1.1754
 4440SOL     OW24781   0.081   2.023  11.733  0.0739 -0.5982  0.2987
 4440SOL    HW124782   0.074   2.075  11.653  1.2086  1.0873  1.3040
 4440SOL    HW224783   0.040   1.937  11.719  1.8140 -1.4347  0.3981
 4441SOL     OW24784   3.410   0.670   3.632  0.3802 -0.2190  0.1812
 4441SOL    HW124785   3.395   0.698   3.541  2.1993  1.9582  0.5565
 4441SOL    HW224786   3.356   0.590   3.630  1.1425 -0.7646  2.0877
 4442SOL     OW24787   0.021   2.222   5.590 -0.5938  0.5497 -0.4598
 4442SOL    HW124788   0.046   2.141   5.633 -0.2636 -0.2491 -2.1387
 4442SOL    HW224789   4.666   2.195   5.541  0.3148  0.7287 -2.0307
 4443SOL     OW24790   4.595   2.159   0.262 -0.4222 -0.7584  0.1244
 4443SOL    HW124791   4.625   2.159   0.353 -2.5816 -3.9354  0.8509
 4443SOL    HW224792   4.619   2.068   0.246 -1.5910 -1.4639  2.3806
 4444SOL     OW24793   1.421   3.746  15.889  0.2235 -0.0943 -0.2191
 4444SOL    HW124794   1.371   3.826  15.907  0.3029 -0.3692  1.2646
 4444SOL    HW224795   1.373   3.714  15.813  0.7869  0.5214 -0.8343
 4445SOL     OW24796   1.622   4.014   1.824 -0.5191  0.0522 -0.0060
 4445SOL    HW124797   1.605   3.923   1.799 -0.3520 -0.5718  2.1343
 4445SOL    HW224798   1.560   4.024   1.896 -1.4610 -1.3711 -0.6351
 4446SOL     OW24799   2.547   2.865   2.893 -0.5260  0.3680 -0.4710
 4446SOL    HW124800   2.541   2.849   2.798  0.7602 -0.3784 -0.4176
 4446SOL    HW224801   2.452   2.860   2.909 -0.8137  0.6534 -2.0452
 4447SOL     OW24802   1.400   1.280   5.735 -0.9786  0.0764 -0.5532
 4447SOL    HW124803   1.405   1.195   5.779  1.1943  0.0844 -0.8162
 4447SOL    HW224804   1.494   1.294   5.728 -1.0281  0.1378 -1.0836
 4448SOL     OW24805   1.407   1.580   2.697  0.5801 -0.0920  0.2555
 4448SOL    HW124806   1.422   1.625   2.613  0.4545 -0.8331 -0.1629
 4448SOL    HW224807   1.500   1.571   2.717  0.6065 -2.5023 -1.0109
 4449SOL     OW24808   2.082   0.136   8.253 -0.0665 -0.0784 -0.0812
 4449SOL    HW124809   2.001   0.153   8.301 -0.4560 -1.4703 -0.2460
 4449SOL    HW224810   2.136   0.126   8.331  0.6915 -1.0492 -0.7385
 4450SOL     OW24811   1.849   3.188   7.942 -0.0920  0.0489 -0.2680
 4450SOL    HW124812   1.852   3.156   7.852  0.2786  0.3587 -0.3609
 4450SOL    HW224813   1.794   3.265   7.931 -1.4755 -1.1882 -1.9809
 4451SOL     OW24814   0.281   4.170  12.967  0.3170 -0.0681  0.0175
 4451SOL    HW124815   0.310   4.153  13.057  3.6063  3.5672 -0.3394
 4451SOL    HW224816   0.335   4.109  12.918  2.2782  0.2392  1.7682
 4452SOL     OW24817   2.663   1.282   6.895 -0.5865  0.3519  0.0896
 4452SOL    HW124818   2.665   1.310   6.986  0.4487  0.5468  0.0064
 4452SOL    HW224819   2.633   1.369   6.866  1.3653  1.5660  1.7522
 4453SOL     OW24820   0.255   0.766   3.438 -0.1321  0.5959 -0.6987
 4453SOL    HW124821   0.216   0.766   3.350  0.7077  0.8166 -1.0676
 4453SOL    HW224822   0.346   0.761   3.410  0.6462 -0.7773  2.1329
 4454SOL     OW24823   2.065   3.769  16.270  0.7755  0.5259 -0.3699
 4454SOL    HW124824   2.060   3.787  16.176 -1.4554  0.5800 -0.2346
 4454SOL    HW224825   1.976   3.736  16.280  2.2578 -3.6970 -0.9947
 4455SOL     OW24826   2.152   3.783   2.328  0.4721 -0.0178  0.2695
 4455SOL    HW124827   2.075   3.759   2.276 -0.1157 -0.9140  1.5392
 4455SOL    HW224828   2.217   3.792   2.258  0.5181 -0.0186  0.3123
 4456SOL     OW24829   4.253   0.971   4.636 -0.4931 -0.2317  0.0933
 4456SOL    HW124830   4.310   0.960   4.712  0.2685  1.3260 -0.2536
 4456SOL    HW224831   4.233   0.884   4.602 -2.0030  1.0086 -2.1566
 4457SOL     OW24832   4.008   2.932   1.537 -0.3155 -0.1859 -0.5767
 4457SOL    HW124833   4.026   2.868   1.606  0.8972  1.6635  0.8219
 4457SOL    HW224834   4.019   3.003   1.601  0.3113 -2.5576  1.9474
 4458SOL     OW24835   1.321   3.396  14.545 -0.1011  0.3291 -0.4396
 4458SOL    HW124836   1.226   3.390  14.551 -0.3355  2.3021 -2.1364
 4458SOL    HW224837   1.348   3.354  14.627  1.6216  0.7023 -0.8217
 4459SOL     OW24838   2.342   1.726   6.046  0.3463  0.4709 -0.0910
 4459SOL    HW124839   2.433   1.715   6.017  0.9526  2.4698  1.0445
 4459SOL    HW224840   2.358   1.801   6.103  0.3793  1.3239 -1.2181
 4460SOL     OW24841   0.453   1.865   7.768 -0.5439 -0.4813  0.1566
 4460SOL    HW124842   0.467   1.791   7.828  0.2988  0.7606  1.4892
 4460SOL    HW224843   0.454   1.935   7.834 -0.1632 -1.7870  1.5508
 4461SOL     OW24844   3.053   1.962   8.876 -0.2069  0.2952  0.3896
 4461SOL    HW124845   3.101   1.880   8.867 -0.8057 -0.1129  0.8258
 4461SOL    HW224846   3.002   1.950   8.956 -0.5627  2.9525  0.5831
 4462SOL     OW24847   3.582   1.233   8.248 -0.0154 -0.3771  0.2017
 4462SOL    HW124848   3.616   1.276   8.170 -1.6358 -0.3197 -0.4725
 4462SOL    HW224849   3.533   1.165   8.202  1.3832 -0.7017 -0.7929
 4463SOL     OW24850   2.522   3.454   4.585  0.3332 -0.3972  0.2056
 4463SOL    HW124851   2.480   3.418   4.663  0.8089 -3.6053 -1.0376
 4463SOL    HW224852   2.509   3.379   4.527 -0.7680  0.3158 -0.4725
 4464SOL     OW24853   4.050   3.291   9.946 -0.0428  0.3243  0.0310
 4464SOL    HW124854   4.059   3.252   9.859 -1.5501 -1.4896  0.6878
 4464SOL    HW224855   4.066   3.217  10.004 -0.2635  0.6218  0.4667
 4465SOL     OW24856   0.042   1.726  10.460 -0.1744 -0.1423 -0.5923
 4465SOL    HW124857   0.113   1.789  10.472  0.7395 -1.0600 -1.2044
 4465SOL    HW224858   0.082   1.644  10.490  2.1692  0.6387 -1.5886
 4466SOL     OW24859   0.465   3.402   5.079  0.0817 -0.8226  0.2810
 4466SOL    HW124860   0.515   3.357   5.147  1.1554  1.6745  1.1369
 4466SOL    HW224861   0.464   3.491   5.115 -0.7259 -0.6403 -0.1968
 4467SOL     OW24862   2.060   2.309   8.883  0.1639 -0.4951 -0.3572
 4467SOL    HW124863   1.974   2.343   8.910  0.9636  2.7100 -1.7393
 4467SOL    HW224864   2.049   2.240   8.818 -0.3199 -0.4941 -0.2792
 4468SOL     OW24865   2.741   4.230  13.335 -0.0734  0.1265  0.1220
 4468SOL    HW124866   2.811   4.292  13.352 -1.2661  1.1420  1.3332
 4468SOL    HW224867   2.674   4.293  13.310 -0.6191 -0.6868 -0.4874
 4469SOL     OW24868   4.168   3.617   7.557  0.6657 -0.9564 -0.2283
 4469SOL    HW124869   4.247   3.642   7.605  0.4123 -0.7255  0.0656
 4469SOL    HW224870   4.128   3.554   7.618 -0.3597 -0.7624 -0.6988
 4470SOL     OW24871   2.720   3.596   3.753 -0.6807 -0.4112  0.3307
 4470SOL    HW124872   2.663   3.520   3.741  0.0118 -0.5700 -1.8799
 4470SOL    HW224873   2.793   3.551   3.796  1.8073  1.3876 -2.0490
 4471SOL     OW24874   1.239   3.608   2.777 -0.4930  0.1639  0.4282
 4471SOL    HW124875   1.212   3.593   2.686  1.2070 -0.0777 -0.0377
 4471SOL    HW224876   1.232   3.522   2.818  0.9763  0.3036  0.9676
 4472SOL     OW24877   3.756   3.442   0.432  0.1342 -0.4432 -0.0684
 4472SOL    HW124878   3.753   3.538   0.422  1.2431 -0.6439 -2.3616
 4472SOL    HW224879   3.803   3.446   0.515 -1.3667  0.5498  0.7357
 4473SOL     OW24880   2.172   1.497   7.315  0.2921 -0.0756  0.0821
 4473SOL    HW124881   2.172   1.465   7.225 -1.2459 -1.0186  0.4131
 4473SOL    HW224882   2.079   1.503   7.333 -0.0559 -2.3232 -0.9386
 4474SOL     OW24883   3.747   2.678   3.659 -0.0521 -0.5409  0.6301
 4474SOL    HW124884   3.842   2.670   3.667  0.0072  1.4832  1.8524
 4474SOL    HW224885   3.729   2.681   3.565 -0.0442  0.7140  0.6675
 4475SOL     OW24886   2.524   1.756   3.892 -0.2982 -0.3179  0.3667
 4475SOL    HW124887   2.610   1.795   3.877  0.4297 -1.1456  2.3586
 4475SOL    HW224888   2.547   1.701   3.967 -2.2856 -3.1166 -1.0748
 4476SOL     OW24889   1.930   4.397   1.170  0.1882  0.8221 -0.1091
 4476SOL    HW124890   1.858   4.347   1.131 -0.6683  1.7081  0.3188
 4476SOL    HW224891   1.891   4.394   1.258 -2.0337  1.4903 -1.0581
 4477SOL     OW24892   1.458   1.574  10.132 -0.0990  0.0324  0.1039
 4477SOL    HW124893   1.545   1.541  10.154 -0.6828 -1.1136  0.7287
 4477SOL    HW224894   1.439   1.557  10.040 -0.3988  0.9344 -0.0024
 4478SOL     OW24895   0.949   1.455   5.637 -0.0237 -0.3260 -0.1500
 4478SOL    HW124896   1.020   1.391   5.636  0.8038  0.5898  0.4299
 4478SOL    HW224897   0.875   1.396   5.655  0.6408 -1.2303 -0.4074
 4479SOL     OW24898   3.350   2.859   9.209  0.6325  0.1570 -0.2664
 4479SOL    HW124899   3.394   2.911   9.142  1.4667  0.2356  0.3433
 4479SOL    HW224900   3.365   2.919   9.283 -0.7210 -0.7640  0.7570
 4480SOL     OW24901   2.458   1.782  11.737  0.1054  0.5713  0.0546
 4480SOL    HW124902   2.448   1.715  11.670 -0.6695  0.0115  0.7378
 4480SOL    HW224903   2.479   1.865  11.693  1.8977 -0.3311 -0.7751
 4481SOL     OW24904   3.292   1.749  11.026 -0.3689  0.6585 -0.0464
 4481SOL    HW124905   3.311   1.699  11.105 -0.0499  0.6178 -0.1500
 4481SOL    HW224906   3.373   1.800  11.019 -0.8214  1.4642  0.5700
 4482SOL     OW24907   2.717   3.461   3.366 -0.3237  0.5053 -0.2503
 4482SOL    HW124908   2.654   3.405   3.319 -0.9218  1.4410 -0.5612
 4482SOL    HW224909   2.689   3.543   3.326 -3.0823  0.8879  2.4157
 4483SOL     OW24910   0.575   3.708   4.456 -0.0359  0.0840 -0.4158
 4483SOL    HW124911   0.506   3.713   4.390  1.6749 -0.9262 -2.2735
 4483SOL    HW224912   0.618   3.625   4.434 -0.2605 -0.3451  0.7786
 4484SOL     OW24913   1.371   3.284   5.120  0.1736  0.1714  0.5007
 4484SOL    HW124914   1.385   3.300   5.213 -0.2888  0.1265  0.5757
 4484SOL    HW224915   1.314   3.358   5.102 -0.0933 -0.6755 -2.0616
 4485SOL     OW24916   1.806   0.008  12.330 -0.2584 -0.7544 -0.4327
 4485SOL    HW124917   1.891   4.717  12.371 -0.2268  1.2991  0.2181
 4485SOL    HW224918   1.755   0.006  12.411 -0.0181  2.2066 -0.2300
 4486SOL     OW24919   4.276   1.203   6.757  0.3871  0.3484 -0.4918
 4486SOL    HW124920   4.316   1.117   6.766  0.1091  0.3721  1.0410
 4486SOL    HW224921   4.274   1.234   6.848  1.9779 -1.2508  0.0895
 4487SOL     OW24922   3.309   4.603  14.502 -0.0519  0.0969 -0.1865
 4487SOL    HW124923   3.358   4.659  14.562 -1.7687 -1.1118  2.3698
 4487SOL    HW224924   3.313   4.527  14.560 -0.0695  0.1315 -0.1406
 4488SOL     OW24925   4.079   1.487  11.961  0.7710 -0.0792  0.2940
 4488SOL    HW124926   4.119   1.464  12.044 -0.1468  0.4912  0.9038
 4488SOL    HW224927   4.029   1.563  11.992  1.0191  1.3517 -2.8109
 4489SOL     OW24928   1.199   1.886   3.601 -0.4398  0.2190  0.7978
 4489SOL    HW124929   1.105   1.874   3.604 -0.9172  3.8430  0.2452
 4489SOL    HW224930   1.218   1.962   3.657  0.4372  0.9690 -0.5094
 4490SOL     OW24931   0.309   1.160  15.891  0.1956 -0.1474  0.4050
 4490SOL    HW124932   0.362   1.221  15.840 -0.4889 -1.0023 -1.2906
 4490SOL    HW224933   0.221   1.190  15.869  0.1199 -0.6919 -0.0013
 4491SOL     OW24934   4.343   1.360   4.345 -0.6141 -0.0997  0.1769
 4491SOL    HW124935   4.355   1.393   4.434  2.4713 -2.2365  0.5753
 4491SOL    HW224936   4.374   1.435   4.295 -1.0306  1.3163  2.0687
 4492SOL     OW24937   0.913   3.335  12.598  0.5878  0.1764 -0.2929
 4492SOL    HW124938   0.857   3.292  12.662 -0.9839  0.4627 -1.4744
 4492SOL    HW224939   0.870   3.308  12.516 -1.7199  2.1531  0.2739
 4493SOL     OW24940   3.438   0.397  14.767  0.1965  0.1480 -0.6403
 4493SOL    HW124941   3.468   0.412  14.856 -0.2606 -0.6007 -0.3618
 4493SOL    HW224942   3.382   0.320  14.775  1.0781 -0.2929  1.2198
 4494SOL     OW24943   3.115   2.923  13.951  0.3589 -0.5466  0.1133
 4494SOL    HW124944   3.078   2.894  14.035  0.0346 -1.2884 -0.2863
 4494SOL    HW224945   3.134   2.837  13.914  1.6890 -0.8658  1.5609
 4495SOL     OW24946   2.930   1.002   7.336  0.3030 -0.4720  0.1982
 4495SOL    HW124947   2.897   0.930   7.390 -0.0846  0.4269  1.1781
 4495SOL    HW224948   3.018   0.974   7.311  0.6227  0.9381 -0.2526
 4496SOL     OW24949   4.175   0.287   7.454  0.2352  0.3597  0.3221
 4496SOL    HW124950   4.106   0.280   7.388  1.2868  0.1284 -0.7383
 4496SOL    HW224951   4.159   0.379   7.478  1.0894  0.0530  2.0291
 4497SOL     OW24952   4.309   0.637  14.433 -0.1196  0.0575 -0.3594
 4497SOL    HW124953   4.300   0.546  14.404 -4.0908 -0.1928  1.6869
 4497SOL    HW224954   4.221   0.673  14.420 -1.4161 -1.9694  2.7884
 4498SOL     OW24955   3.664   3.198   0.847  0.1752 -0.2264  0.1659
 4498SOL    HW124956   3.702   3.113   0.823 -2.7261 -1.3686 -0.3563
 4498SOL    HW224957   3.673   3.193   0.942  1.8053 -0.5854  0.0002
 4499SOL     OW24958   3.922   1.674  15.905 -0.3022 -0.3968 -0.5944
 4499SOL    HW124959   4.007   1.650  15.943 -0.9667 -0.0859  1.0784
 4499SOL    HW224960   3.938   1.765  15.881 -0.3056  0.0809  1.2275
 4500SOL     OW24961   3.690   4.044  16.013 -0.5141  0.4269 -0.0143
 4500SOL    HW124962   3.600   4.058  15.983 -0.4739 -1.5261 -1.0286
 4500SOL    HW224963   3.729   4.128  15.990 -0.3283  0.3685  0.0855
 4501SOL     OW24964   3.502   3.991   4.871  0.4207  0.2266  0.0858
 4501SOL    HW124965   3.578   3.963   4.820  1.9085  0.6592  2.0440
 4501SOL    HW224966   3.444   3.919   4.844  1.4578 -0.7892  0.5502
 4502SOL     OW24967   3.535   2.337   4.095 -0.4018 -0.4898 -0.2892
 4502SOL    HW124968   3.571   2.389   4.024 -0.2926  2.5783  2.0481
 4502SOL    HW224969   3.492   2.406   4.146  1.0269 -1.8774  2.8443
 4503SOL     OW24970   1.341   1.117   3.730 -0.8337 -0.3038 -0.4390
 4503SOL    HW124971   1.253   1.127   3.693 -0.7620  0.4071 -0.4176
 4503SOL    HW224972   1.344   1.021   3.729  0.8993 -0.2622  1.5084
 4504SOL     OW24973   4.355   1.109   9.367  0.8424  0.3518 -0.6462
 4504SOL    HW124974   4.386   1.039   9.310 -0.0413 -0.4447 -0.1618
 4504SOL    HW224975   4.406   1.084   9.444  0.7832  2.0004 -0.0691
 4505SOL     OW24976   2.287   0.741   5.176 -0.0498  0.3358 -0.0826
 4505SOL    HW124977   2.320   0.651   5.180  1.7960  0.9144 -2.3585
 4505SOL    HW224978   2.337   0.788   5.243  0.5122  0.2265 -0.4251
 4506SOL     OW24979   0.795   0.799   1.099  0.3140 -0.3993  0.0423
 4506SOL    HW124980   0.713   0.751   1.084  0.7543 -1.3232  0.6044
 4506SOL    HW224981   0.855   0.728   1.120  0.8467  0.1668  0.4384
 4507SOL     OW24982   1.609   3.184  12.774 -0.5890  0.5799 -0.2543
 4507SOL    HW124983   1.526   3.174  12.819  0.3221 -1.6168  0.9732
 4507SOL    HW224984   1.630   3.263  12.823 -1.6729 -0.0837  1.2552
 4508SOL     OW24985   3.513   1.342   6.207  0.8559  0.1472  0.1414
 4508SOL    HW124986   3.543   1.331   6.117 -1.7595  1.3072 -0.8779
 4508SOL    HW224987   3.426   1.377   6.188  1.1426  0.5784 -0.3667
 4509SOL     OW24988   3.132   4.286   4.654 -0.1461 -0.4473  0.7742
 4509SOL    HW124989   3.102   4.347   4.722 -1.1829  1.4473 -1.3542
 4509SOL    HW224990   3.046   4.257   4.624  0.2993 -1.3767  0.4146
 4510SOL     OW24991   3.654   2.665   8.930  0.2652  0.6669  0.0550
 4510SOL    HW124992   3.693   2.732   8.875 -0.7264  0.2781 -1.1243
 4510SOL    HW224993   3.601   2.629   8.860  1.2619 -0.9088  0.1077
 4511SOL     OW24994   1.032   3.200   4.479  0.5079  0.2543 -0.3091
 4511SOL    HW124995   1.093   3.240   4.542 -0.5833 -0.1150  0.9899
 4511SOL    HW224996   1.008   3.283   4.437  0.4895  0.6588  0.4929
 4512SOL     OW24997   3.359   4.414   7.040  1.1282  0.7966 -0.5678
 4512SOL    HW124998   3.397   4.369   6.965  2.9399 -1.0558  1.4654
 4512SOL    HW224999   3.269   4.416   7.006  0.8359  0.9176  0.1871
 4513SOL     OW25000   1.154   3.553  12.648  0.2441 -0.1603  0.4729
 4513SOL    HW125001   1.104   3.597  12.716  1.0643  0.4409  0.6842
 4513SOL    HW225002   1.110   3.468  12.652  0.2664 -0.1591  0.7193
 4514SOL     OW25003   0.103   0.629   2.101  0.4093  0.8157 -0.0259
 4514SOL    HW125004   0.132   0.650   2.013  0.1222 -0.8455 -0.5069
 4514SOL    HW225005   0.135   0.539   2.104 -1.0548  0.2713 -0.4414
 4515SOL     OW25006   0.155   4.655   2.492 -0.5438  0.8690 -0.2788
 4515SOL    HW125007   0.180   4.651   2.585  2.1617 -2.1525 -1.1016
 4515SOL    HW225008   0.129   4.564   2.476 -0.1328  0.8292 -0.7280
 4516SOL     OW25009   4.610   0.730   1.082 -0.3186 -0.3452 -0.3560
 4516SOL    HW125010   4.566   0.645   1.087  1.6899 -1.3458  0.4952
 4516SOL    HW225011   4.583   0.764   1.167 -0.0912 -0.6131 -0.1729
 4517SOL     OW25012   0.207   3.914   8.202  0.2851  0.2784 -0.2018
 4517SOL    HW125013   0.300   3.915   8.177  0.5902 -0.7080  0.8869
 4517SOL    HW225014   0.167   3.994   8.169 -0.7598 -0.5351 -0.9182
 4518SOL     OW25015   4.211   2.863  12.312  0.2223  0.4246  0.4442
 4518SOL    HW125016   4.182   2.918  12.240 -1.8229  0.6484  1.4317
 4518SOL    HW225017   4.205   2.778  12.269 -2.2687  0.2514  1.1409
 4519SOL     OW25018   0.273   1.754   3.394 -0.1131  0.4935  0.0542
 4519SOL    HW125019   0.198   1.774   3.450  1.2225 -0.8488  2.3321
 4519SOL    HW225020   0.269   1.658   3.389 -0.1874  0.4727  0.4999
 4520SOL     OW25021   2.359   2.371   2.645 -0.1198  0.0373  0.1494
 4520SOL    HW125022   2.339   2.396   2.555  0.9347 -1.1778 -0.4271
 4520SOL    HW225023   2.455   2.370   2.643 -0.0763  1.5083  1.5604
 4521SOL     OW25024   3.899   1.615   5.365  0.1387 -0.0501  0.0110
 4521SOL    HW125025   3.881   1.559   5.290  1.6109  1.3062 -1.3806
 4521SOL    HW225026   3.904   1.701   5.321  0.3127  0.1992  0.5164
 4522SOL     OW25027   2.022   1.325   3.979  0.1395  0.3886  0.1369
 4522SOL    HW125028   1.975   1.274   3.913 -0.6150 -0.4325  1.3032
 4522SOL    HW225029   1.963   1.401   3.977 -0.6778 -0.2378  0.4878
 4523SOL     OW25030   4.185   0.769  11.527  0.3878 -0.1948 -0.1414
 4523SOL    HW125031   4.183   0.854  11.572 -1.1225 -0.0428 -0.4692
 4523SOL    HW225032   4.106   0.727  11.561 -0.0903  0.1508 -0.8188
 4524SOL     OW25033   4.408   4.604   1.210  0.2098  0.1837 -0.0953
 4524SOL    HW125034   4.416   4.665   1.137 -0.6253  1.3708  0.8211
 4524SOL    HW225035   4.356   4.657   1.270  0.3796 -0.4961  0.6461
 4525SOL     OW25036   3.859   3.539  14.002 -0.1296 -0.5930  0.4604
 4525SOL    HW125037   3.919   3.508  14.070  2.3789  1.5700 -0.7592
 4525SOL    HW225038   3.869   3.633  14.019 -0.7362 -0.2868 -0.8780
 4526SOL     OW25039   0.875   0.608   3.304  0.5159  0.3200 -0.2941
 4526SOL    HW125040   0.847   0.675   3.242 -1.9416  1.6185  2.2350
 4526SOL    HW225041   0.808   0.541   3.295 -0.1402  1.3716 -3.2090
 4527SOL     OW25042   2.794   0.750   5.579 -0.5076 -0.4973  0.1598
 4527SOL    HW125043   2.835   0.825   5.536  0.1881  0.1610  1.9596
 4527SOL    HW225044   2.828   0.763   5.668  0.4591  0.5399 -0.3688
 4528SOL     OW25045   2.929   0.036   4.260  0.2054  0.1429 -0.2660
 4528SOL    HW125046   2.998   4.701   4.228  0.2087 -0.7967  1.4212
 4528SOL    HW225047   2.967   0.085   4.334 -2.0566  0.6148  0.5909
 4529SOL     OW25048   1.968   4.021  11.585  0.3035 -0.1693 -0.7431
 4529SOL    HW125049   2.031   4.064  11.642 -1.0497  0.8654 -0.0261
 4529SOL    HW225050   2.028   4.005  11.512  2.0884 -0.0866  0.7244
 4530SOL     OW25051   3.319   1.556   1.398  0.3625 -0.1319 -0.3347
 4530SOL    HW125052   3.293   1.643   1.429 -3.1397 -1.4162  0.2441
 4530SOL    HW225053   3.358   1.514   1.475  0.9260  3.2489  1.2298
 4531SOL     OW25054   0.957   1.203   6.565 -0.2239 -0.1799 -0.2423
 4531SOL    HW125055   0.910   1.175   6.643  0.6509 -0.7269  0.0831
 4531SOL    HW225056   0.895   1.189   6.494 -2.0268 -1.2719  1.5354
 4532SOL     OW25057   1.503   3.472  12.702 -0.2924  0.1303 -0.2066
 4532SOL    HW125058   1.528   3.445  12.790 -0.9007  3.3263  0.9150
 4532SOL    HW225059   1.587   3.467  12.655 -1.1821 -2.1800 -1.5508
 4533SOL     OW25060   2.959   0.623   6.909 -0.2164  0.4674 -0.3548
 4533SOL    HW125061   2.900   0.553   6.878  1.1821 -1.3559  1.0784
 4533SOL    HW225062   2.915   0.706   6.889 -2.6069 -0.6822  0.0603
 4534SOL     OW25063   2.916   4.599   7.500  0.0055  0.1724  0.1738
 4534SOL    HW125064   2.978   4.585   7.571 -0.1551  2.9516  0.8603
 4534SOL    HW225065   2.980   4.638   7.439 -2.2761  3.0448 -0.4074
 4535SOL     OW25066   3.604   2.479   0.818  0.4401 -0.8860 -0.7789
 4535SOL    HW125067   3.509   2.468   0.808  0.5605 -3.0388  0.4461
 4535SOL    HW225068   3.619   2.572   0.800 -0.2245 -0.3589  1.4538
 4536SOL     OW25069   4.570   1.526   5.698  0.0270 -0.0404 -0.6395
 4536SOL    HW125070   4.511   1.490   5.632 -2.0715  0.2565  1.0766
 4536SOL    HW225071   4.572   1.466   5.772  1.3001  0.9105  0.1019
 4537SOL     OW25072   2.091   2.255  13.584 -0.4600 -0.8852  0.1070
 4537SOL    HW125073   2.050   2.291  13.505  1.0235 -0.4986 -0.4930
 4537SOL    HW225074   2.063   2.312  13.656 -1.9286  0.4468 -1.5138
 4538SOL     OW25075   3.150   4.089  11.071 -0.4292  0.1913 -0.6221
 4538SOL    HW125076   3.168   4.155  11.138  1.5904  1.5812 -2.5086
 4538SOL    HW225077   3.082   4.126  11.015 -1.6523 -0.2655  0.5412
 4539SOL     OW25078   1.363   1.023   2.923  0.3489  0.4941 -0.1675
 4539SOL    HW125079   1.331   0.985   3.005  1.2537  3.0212  1.3585
 4539SOL    HW225080   1.435   1.074   2.960  1.1479 -0.4512 -0.4051
 4540SOL     OW25081   3.201   3.433  17.420 -0.0425  0.1525 -0.1502
 4540SOL    HW125082   3.114   3.402  17.394  0.5050  1.1021 -3.2081
 4540SOL    HW225083   3.174   3.455  17.509 -0.2866 -0.8833  0.0345
 4541SOL     OW25084   0.466   3.750  14.937 -0.4176 -0.2362 -0.1286
 4541SOL    HW125085   0.435   3.730  14.849 -2.1675 -1.5930  0.8085
 4541SOL    HW225086   0.393   3.754  14.999  0.8202  1.8653  1.2243
 4542SOL     OW25087   1.595   3.093   5.045  0.0503 -0.2910 -1.0607
 4542SOL    HW125088   1.588   3.019   5.105 -2.7923  0.9594  0.1314
 4542SOL    HW225089   1.533   3.154   5.084  0.0674  0.0286 -1.5295
 4543SOL     OW25090   4.229   0.327   6.326 -0.6125  0.2277 -0.1789
 4543SOL    HW125091   4.205   0.408   6.371  3.5411  1.1715  0.3881
 4543SOL    HW225092   4.324   0.335   6.339 -0.5911  2.3125 -1.5838
 4544SOL     OW25093   3.734   3.630  11.197  0.1737 -0.2029  0.0531
 4544SOL    HW125094   3.769   3.704  11.148  0.2401  0.5937  1.3134
 4544SOL    HW225095   3.669   3.600  11.134 -1.1508 -1.7393  2.1470
 4545SOL     OW25096   0.701   4.613   2.479 -0.0902 -0.4060  0.0662
 4545SOL    HW125097   0.718   4.607   2.384 -1.9711 -0.3726 -0.2707
 4545SOL    HW225098   0.759   4.684   2.507 -2.0481  0.7743  1.1294
 4546SOL     OW25099   0.988   0.733   0.689 -0.2134 -0.1779  0.5192
 4546SOL    HW125100   0.906   0.742   0.640  0.9514  0.3477 -1.3466
 4546SOL    HW225101   0.961   0.657   0.740  2.0155 -0.4152  1.3306
 4547SOL     OW25102   1.342   1.894  11.267  0.3865 -0.3052  0.2666
 4547SOL    HW125103   1.358   1.897  11.173  0.5101  2.5751  0.3924
 4547SOL    HW225104   1.294   1.811  11.276  3.0189 -1.7737  0.9069
 4548SOL     OW25105   3.878   1.719   0.259 -0.3411  0.0470 -0.0110
 4548SOL    HW125106   3.812   1.718   0.328 -2.8230 -0.2934 -2.3810
 4548SOL    HW225107   3.842   1.778   0.193  0.2770  0.3047 -0.1170
 4549SOL     OW25108   1.965   1.021  13.869  0.0609  0.1234 -0.6473
 4549SOL    HW125109   1.995   1.111  13.857  0.3650  0.0788 -0.2573
 4549SOL    HW225110   2.047   0.988  13.908 -0.0702  1.1258  0.4722
 4550SOL     OW25111   1.675   2.164  15.485 -0.4534 -0.6731 -0.1479
 4550SOL    HW125112   1.697   2.188  15.575  1.2039  1.1633 -1.0470
 4550SOL    HW225113   1.678   2.069  15.490  3.0398 -0.4832  1.1328
 4551SOL     OW25114   0.180   0.572   9.327  0.1446  0.2614  0.2251
 4551SOL    HW125115   0.186   0.489   9.281 -3.1417  0.1424  0.0136
 4551SOL    HW225116   0.218   0.557   9.414  0.1897 -1.9734 -0.1804
 4552SOL     OW25117   1.069   3.463   4.379 -0.0605 -0.0410  0.4005
 4552SOL    HW125118   1.133   3.523   4.340  1.2443 -1.9614 -0.4033
 4552SOL    HW225119   0.988   3.500   4.344 -1.1651 -1.6436  1.3054
 4553SOL     OW25120   4.073   3.474  15.167  0.4444 -0.4970 -0.6256
 4553SOL    HW125121   4.167   3.491  15.167  0.7839 -2.3729 -0.7337
 4553SOL    HW225122   4.060   3.419  15.244 -0.7185  1.2359  0.4212
 4554SOL     OW25123   3.170   2.933   8.171 -0.3997  0.0018 -0.4420
 4554SOL    HW125124   3.141   2.928   8.263  0.3319  0.4466 -0.1911
 4554SOL    HW225125   3.248   2.877   8.176 -1.5108 -1.4671  0.7237
 4555SOL     OW25126   4.403   1.837  10.977 -0.2426 -0.0543  0.4638
 4555SOL    HW125127   4.431   1.752  10.943 -1.7018 -0.2152 -0.3460
 4555SOL    HW225128   4.406   1.882  10.892  0.4359 -0.4050  0.3022
 4556SOL     OW25129   3.820   1.893   6.408 -0.3171 -0.0813 -0.1620
 4556SOL    HW125130   3.845   1.806   6.376 -1.9756 -1.1453  1.4262
 4556SOL    HW225131   3.745   1.866   6.461 -1.4812  0.8597 -1.3192
 4557SOL     OW25132   2.525   0.812  15.738  0.5530 -0.6233 -0.2137
 4557SOL    HW125133   2.521   0.724  15.775  0.0807 -0.2507  0.6074
 4557SOL    HW225134   2.607   0.847  15.773  0.2738  1.2980 -1.4575
 4558SOL     OW25135   4.172   2.877  10.690  0.1751  0.1146 -0.6779
 4558SOL    HW125136   4.250   2.832  10.656  2.0640  3.0404 -0.1824
 4558SOL    HW225137   4.196   2.881  10.782 -0.9840  2.2588 -0.4855
 4559SOL     OW25138   1.415   1.416  17.113  0.3784  0.0043  0.0005
 4559SOL    HW125139   1.501   1.437  17.076 -0.8198  2.9259 -1.1079
 4559SOL    HW225140   1.369   1.498  17.093  3.1319  0.9023 -2.7261
 4560SOL     OW25141   4.639   0.596   9.331 -0.6639 -0.3729 -0.1106
 4560SOL    HW125142   4.608   0.665   9.390 -1.7665  0.2319 -1.3798
 4560SOL    HW225143   0.006   0.582   9.358 -0.3496  3.5289  0.8978
 4561SOL     OW25144   4.496   0.570   2.096 -0.1455  0.1272 -0.3968
 4561SOL    HW125145   4.540   0.509   2.038  1.8711 -0.6671  1.9675
 4561SOL    HW225146   4.413   0.585   2.051 -0.5015 -3.4083 -0.8586
 4562SOL     OW25147   2.345   1.146   7.750  0.0238 -0.0856 -0.3888
 4562SOL    HW125148   2.298   1.200   7.814 -1.1658 -1.0624 -0.4536
 4562SOL    HW225149   2.431   1.143   7.793  1.1337  2.2040 -2.4872
 4563SOL     OW25150   2.205   0.853  15.356  0.8136 -0.1740  0.5911
 4563SOL    HW125151   2.249   0.910  15.293  0.8173 -0.0714  0.6871
 4563SOL    HW225152   2.289   0.823  15.391  1.2254 -0.5401 -0.7213
 4564SOL     OW25153   0.691   2.522   9.065  0.1840  0.1558 -0.1264
 4564SOL    HW125154   0.741   2.548   9.143 -1.7692  1.5455  0.6850
 4564SOL    HW225155   0.694   2.427   9.060  2.1458  0.1435  1.5957
 4565SOL     OW25156   2.647   0.226  10.433 -0.3836 -0.0212  0.3968
 4565SOL    HW125157   2.719   0.165  10.418  0.2472  0.7125  0.4673
 4565SOL    HW225158   2.612   0.191  10.515 -3.0612  1.6337 -0.0024
 4566SOL     OW25159   1.400   2.326  11.764 -0.1144  0.5401 -0.0330
 4566SOL    HW125160   1.454   2.346  11.688 -0.8710  2.6209 -0.0535
 4566SOL    HW225161   1.404   2.232  11.780 -1.5385  0.7098  1.3925
 4567SOL     OW25162   2.555   1.442   3.842 -0.1802  0.3660 -0.0945
 4567SOL    HW125163   2.486   1.502   3.816 -0.3602  0.8770  1.5691
 4567SOL    HW225164   2.585   1.481   3.924  0.4342 -1.4101  0.5323
 4568SOL     OW25165   2.415   1.220   4.176 -0.0947  0.8308  0.1366
 4568SOL    HW125166   2.507   1.204   4.154 -0.9103  0.5170 -3.0384
 4568SOL    HW225167   2.384   1.288   4.116  0.4969  0.3698 -0.6958
 4569SOL     OW25168   2.774   0.406   6.772 -0.0291  0.0751 -0.3065
 4569SOL    HW125169   2.838   0.457   6.722 -1.6401  0.2781 -2.1457
 4569SOL    HW225170   2.720   0.370   6.702 -2.4486  0.6669  1.2244
 4570SOL     OW25171   2.047   2.859   8.909  0.3219  0.2207  0.0009
 4570SOL    HW125172   2.135   2.886   8.937 -0.1487  1.7793 -0.0269
 4570SOL    HW225173   2.070   2.775   8.869  1.8035  0.3073  0.6575
 4571SOL     OW25174   3.453   4.229   4.965 -0.0969 -0.2021  0.0592
 4571SOL    HW125175   3.464   4.134   4.956 -0.4079 -0.4141  1.9501
 4571SOL    HW225176   3.471   4.262   4.877  0.3741 -3.6977 -1.1497
 4572SOL     OW25177   4.056   4.706  11.269 -0.1179 -0.2214  0.4077
 4572SOL    HW125178   4.030   0.073  11.288  1.3124  0.1830  0.3913
 4572SOL    HW225179   4.030   4.701  11.177  1.6285 -0.7340 -0.0595
 4573SOL     OW25180   4.259   1.978   7.507  0.3139 -0.5484 -0.6211
 4573SOL    HW125181   4.257   1.976   7.412 -0.1342 -1.8662 -0.5865
 4573SOL    HW225182   4.337   2.033   7.514  0.2330 -0.5046 -0.0239
 4574SOL     OW25183   1.623   0.884   9.392 -0.2556  0.4823  0.4460
 4574SOL    HW125184   1.632   0.796   9.430 -1.1581  1.2792  2.4809
 4574SOL    HW225185   1.687   0.884   9.321 -1.2854 -2.4987 -0.5009
 4575SOL     OW25186   1.913   0.874   0.978  0.0488  0.7231 -0.4784
 4575SOL    HW125187   1.923   0.786   1.012 -1.2336  0.8295  0.1761
 4575SOL    HW225188   1.973   0.922   1.034  0.0097 -1.1265  1.1324
 4576SOL     OW25189   3.297   1.141   9.373 -0.3409  0.6543 -0.4713
 4576SOL    HW125190   3.357   1.120   9.444 -2.2775 -1.6237  0.4718
 4576SOL    HW225191   3.302   1.237   9.373 -0.2831  0.6453  0.3329
 4577SOL     OW25192   3.583   2.878   4.023  0.2565  0.1574  0.7979
 4577SOL    HW125193   3.571   2.850   3.933 -0.2386 -3.9687  2.1232
 4577SOL    HW225194   3.629   2.960   4.005 -0.2809  0.3109  0.1699
 4578SOL     OW25195   4.249   2.384   6.062 -0.6751  0.3434  0.2132
 4578SOL    HW125196   4.211   2.311   6.110  2.5575 -1.0704  0.5821
 4578SOL    HW225197   4.270   2.343   5.979 -0.5189 -1.6752  1.2445
 4579SOL     OW25198   2.584   2.341   1.836  0.2259 -0.3612  0.1919
 4579SOL    HW125199   2.676   2.363   1.851  0.4762  0.3307 -2.3048
 4579SOL    HW225200   2.589   2.257   1.791  2.4890 -0.0085 -0.1991
 4580SOL     OW25201   4.494   2.264  16.876 -0.0584  0.0542  0.0230
 4580SOL    HW125202   4.556   2.266  16.803  0.6757 -0.6416  0.6237
 4580SOL    HW225203   4.476   2.357  16.888 -0.5031 -0.0967  0.5462
 4581SOL     OW25204   2.727   4.551   7.246  0.3827  0.2136 -0.0416
 4581SOL    HW125205   2.822   4.560   7.253  0.5421 -1.8225  0.4582
 4581SOL    HW225206   2.693   4.631   7.287 -0.6115  1.1700 -2.7327
 4582SOL     OW25207   0.177   3.981  11.861  0.0272 -0.1026  0.2410
 4582SOL    HW125208   0.136   3.897  11.838  1.7538 -0.9210  0.1560
 4582SOL    HW225209   0.193   4.010  11.771 -1.6327  1.6547  0.5164
 4583SOL     OW25210   0.099   3.746  12.173 -0.3639 -0.7729  0.3777
 4583SOL    HW125211   0.059   3.747  12.086  0.6655  0.1699 -0.0872
 4583SOL    HW225212   0.189   3.725  12.152 -0.3062 -0.4391  0.2832
 4584SOL     OW25213   2.816   1.649  15.529 -0.6776  0.0470 -0.1583
 4584SOL    HW125214   2.726   1.630  15.557 -1.0987  1.5599 -0.4763
 4584SOL    HW225215   2.811   1.724  15.469  0.0509 -0.3678 -0.7306
 4585SOL     OW25216   0.006   0.585   4.425  0.0600 -0.3063  0.0267
 4585SOL    HW125217   4.708   0.676   4.403  0.1081 -0.1315  0.6902
 4585SOL    HW225218   4.674   0.584   4.503  0.2320 -1.1778  0.1291
 4586SOL     OW25219   4.621   0.331   3.980  0.0785 -0.3231 -0.1709
 4586SOL    HW125220   4.659   0.418   3.968 -1.5293 -0.0791 -3.7277
 4586SOL    HW225221   4.588   0.341   4.069 -0.0169 -0.8409 -0.1457
 4587SOL     OW25222   0.030   4.023   7.784  1.0673 -0.0634  0.0712
 4587SOL    HW125223   0.044   4.020   7.689  3.1557  2.0599  0.3279
 4587SOL    HW225224   0.090   3.950   7.800  0.6560 -0.7457 -1.4519
 4588SOL     OW25225   2.528   2.026   3.658 -0.2549  0.1193 -0.3557
 4588SOL    HW125226   2.614   2.003   3.694  0.1136 -1.3605 -2.1690
 4588SOL    HW225227   2.492   2.068   3.737 -0.0952 -1.1569  0.3986
 4589SOL     OW25228   2.823   4.324   4.301 -0.4063  0.2427  0.2483
 4589SOL    HW125229   2.884   4.258   4.336  1.7659  3.0857  1.7721
 4589SOL    HW225230   2.849   4.395   4.358 -0.1482 -0.1910  0.6714
 4590SOL     OW25231   0.648   3.725  17.451  0.3300  0.2524 -0.1258
 4590SOL    HW125232   0.559   3.702  17.425 -0.1300  1.3690  0.4949
 4590SOL    HW225233   0.637   3.732  17.546  0.7489 -0.1826 -0.0429
 4591SOL     OW25234   2.404   3.401   2.698  0.1098 -0.1989 -0.6887
 4591SOL    HW125235   2.482   3.391   2.753 -1.8936 -1.9728  1.7897
 4591SOL    HW225236   2.447   3.406   2.612  1.2440 -1.7829 -0.2068
 4592SOL     OW25237   2.335   3.575   4.814  0.4762  1.0511  0.4371
 4592SOL    HW125238   2.246   3.541   4.822  1.1955 -1.0959 -0.4981
 4592SOL    HW225239   2.369   3.568   4.903  4.6019 -0.1340 -1.1884
 4593SOL     OW25240   0.366   4.419   5.574  0.3956  0.4964  0.2289
 4593SOL    HW125241   0.417   4.448   5.650 -0.8519 -1.0112  1.6468
 4593SOL    HW225242   0.385   4.497   5.522  0.8963  1.4764  1.8881
 4594SOL     OW25243   2.263   3.519   6.879  0.1868 -0.6343  0.9005
 4594SOL    HW125244   2.253   3.608   6.845  3.6959 -0.6200 -0.0930
 4594SOL    HW225245   2.196   3.542   6.943  1.8615  0.6543  2.1724
 4595SOL     OW25246   3.227   3.203   4.108  0.4898  0.3213 -0.1767
 4595SOL    HW125247   3.296   3.146   4.073  0.2634 -1.2187  1.9181
 4595SOL    HW225248   3.245   3.287   4.064 -2.1218 -0.8343 -3.4439
 4596SOL     OW25249   3.464   4.023   9.230 -0.3755 -0.3217 -0.2021
 4596SOL    HW125250   3.371   4.003   9.239 -0.6121 -0.0591 -2.1056
 4596SOL    HW225251   3.484   3.962   9.158 -1.4454  0.2237 -0.9611
 4597SOL     OW25252   2.966   3.245   6.146  0.2266  0.1814  0.0249
 4597SOL    HW125253   2.992   3.156   6.170  1.1338  0.7145  1.0423
 4597SOL    HW225254   2.877   3.226   6.117 -0.2699  0.5407  1.3073
 4598SOL     OW25255   4.116   2.828   4.143  0.3624  0.2783  0.4150
 4598SOL    HW125256   4.148   2.767   4.076  1.0657  0.9226  0.1622
 4598SOL    HW225257   4.036   2.858   4.099  0.6495  1.2907  0.5817
 4599SOL     OW25258   2.831   1.264   2.872  0.1040  0.2155 -0.2371
 4599SOL    HW125259   2.848   1.207   2.797  0.7613  0.9409 -0.6366
 4599SOL    HW225260   2.831   1.339   2.811 -1.1539  0.1303 -0.3480
 4600SOL     OW25261   0.513   2.315   2.895  0.1475  0.4771 -0.4224
 4600SOL    HW125262   0.593   2.329   2.946  0.8637 -1.8068 -0.9200
 4600SOL    HW225263   0.481   2.238   2.941  0.0948 -0.0200 -1.3149
 4601SOL     OW25264   4.359   0.700   5.555 -0.4840 -0.5198  0.2416
 4601SOL    HW125265   4.285   0.688   5.494  1.2402  0.6812 -2.0757
 4601SOL    HW225266   4.348   0.613   5.594 -0.7460  0.2430  1.8402
 4602SOL     OW25267   3.306   1.272   4.219 -0.3978 -0.7523  0.1169
 4602SOL    HW125268   3.335   1.291   4.129  1.0335  1.1216  0.9734
 4602SOL    HW225269   3.240   1.204   4.214 -1.3254  0.1284  0.5374
 4603SOL     OW25270   3.538   0.651   1.628  0.1759  0.0556 -0.3541
 4603SOL    HW125271   3.521   0.646   1.722 -0.4702 -0.9310 -0.5376
 4603SOL    HW225272   3.452   0.637   1.589  0.4127 -0.4175 -0.7036
 4604SOL     OW25273   1.290   1.842   6.786 -0.3813 -0.9108 -0.1893
 4604SOL    HW125274   1.224   1.780   6.816  0.4472 -0.9228  1.5950
 4604SOL    HW225275   1.238   1.892   6.723  0.7297 -0.7480 -0.9871
 4605SOL     OW25276   2.004   3.055   7.053  0.4903 -0.3992 -0.2865
 4605SOL    HW125277   2.032   2.968   7.024 -1.2560 -1.0790  0.0994
 4605SOL    HW225278   2.039   3.106   6.980 -0.2778 -1.8804 -1.7073
 4606SOL     OW25279   2.738   0.098   3.115 -0.3923  0.3027 -0.4164
 4606SOL    HW125280   2.787   0.103   3.034  3.2554 -0.0897  1.7589
 4606SOL    HW225281   2.769   0.018   3.157  1.1413  1.2310  0.2367
 4607SOL     OW25282   1.884   1.040   8.655  0.2998 -0.6044  0.0898
 4607SOL    HW125283   1.892   1.118   8.710  0.0701 -1.4674  1.3605
 4607SOL    HW225284   1.789   1.027   8.653 -0.0211  1.5205  1.0787
 4608SOL     OW25285   3.623   2.522  11.890 -0.6307 -0.5057 -0.4719
 4608SOL    HW125286   3.554   2.456  11.888 -1.7753  0.7376 -2.2060
 4608SOL    HW225287   3.664   2.482  11.967 -1.1557 -0.5894 -0.2392
 4609SOL     OW25288   2.190   0.216  15.962 -0.0855  0.1194 -0.6094
 4609SOL    HW125289   2.283   0.225  15.943  0.0735 -0.4683 -0.0877
 4609SOL    HW225290   2.162   0.307  15.974  0.4667 -0.0544  1.9453
 4610SOL     OW25291   2.285   2.016   8.954 -0.1479 -0.1907 -0.1138
 4610SOL    HW125292   2.228   2.012   9.031  3.0488  0.9095  2.3302
 4610SOL    HW225293   2.313   2.107   8.954  1.9236 -0.8291 -0.4046
 4611SOL     OW25294   3.043   2.756   0.998  0.3617 -0.2142  0.3374
 4611SOL    HW125295   3.135   2.746   1.022  1.1961  0.5089 -2.6292
 4611SOL    HW225296   3.039   2.784   0.907  0.0073 -0.8692  0.1476
 4612SOL     OW25297   1.649   1.022   5.907 -0.6208  0.3657 -0.3846
 4612SOL    HW125298   1.621   1.098   5.857 -2.0157 -1.4847 -2.3932
 4612SOL    HW225299   1.675   0.965   5.835  0.1026 -0.0718  0.2121
 4613SOL     OW25300   3.713   3.845   6.391  0.1600 -0.1791  0.4677
 4613SOL    HW125301   3.764   3.764   6.396 -1.1608 -1.0343 -0.1384
 4613SOL    HW225302   3.664   3.822   6.312  1.8560 -1.1264 -0.3119
 4614SOL     OW25303   2.884   3.430  12.906  0.6486  0.3487  0.0363
 4614SOL    HW125304   2.821   3.427  12.977  1.1074 -1.4462  0.3639
 4614SOL    HW225305   2.968   3.454  12.944  0.7651  0.9306 -0.5833
 4615SOL     OW25306   1.360   0.415  15.569 -0.3704  0.3992  0.1814
 4615SOL    HW125307   1.414   0.356  15.622  0.5934  2.5937  1.6439
 4615SOL    HW225308   1.330   0.476  15.636 -2.1017 -0.9568  0.6474
 4616SOL     OW25309   1.019   0.694   4.722 -0.3540 -0.9111 -0.2071
 4616SOL    HW125310   1.007   0.678   4.629 -2.4276 -0.1796 -0.0644
 4616SOL    HW225311   1.101   0.649   4.741 -1.0431 -1.1935  2.1158
 4617SOL     OW25312   2.542   4.521  10.120  0.0390 -0.1709 -0.3704
 4617SOL    HW125313   2.463   4.470  10.139 -0.3476  0.7669  0.5217
 4617SOL    HW225314   2.603   4.485  10.184  1.0679 -0.5833 -1.5938
 4618SOL     OW25315   2.986   0.813   9.291  0.2159 -0.1686 -0.2878
 4618SOL    HW125316   2.900   0.842   9.260  0.0643 -1.0871 -0.7590
 4618SOL    HW225317   3.012   0.752   9.221  2.8261  1.0340 -0.3421
 4619SOL     OW25318   4.030   3.305  15.738 -0.1344 -0.0389 -0.3866
 4619SOL    HW125319   4.037   3.338  15.648 -0.9542 -0.4484 -0.5974
 4619SOL    HW225320   4.058   3.379  15.792 -1.0861 -1.2746  1.7963
 4620SOL     OW25321   2.389   3.221   0.875 -0.7024 -0.0607  1.0992
 4620SOL    HW125322   2.386   3.309   0.837 -3.4491 -0.0452  1.3202
 4620SOL    HW225323   2.469   3.228   0.928  0.4342  0.0532 -0.6421
 4621SOL     OW25324   3.927   0.446   5.909  0.2718  0.0418  0.3351
 4621SOL    HW125325   3.998   0.456   5.845 -1.1844  0.7006 -1.1591
 4621SOL    HW225326   3.971   0.471   5.991 -2.4047 -0.2882  1.8674
 4622SOL     OW25327   0.431   1.471   5.162  0.3999  0.1158  0.3957
 4622SOL    HW125328   0.364   1.403   5.159 -0.1430  0.6730 -0.1348
 4622SOL    HW225329   0.428   1.493   5.069 -1.7120 -1.2875  0.1371
 4623SOL     OW25330   4.011   0.262   2.323  0.2024  0.1283  0.1997
 4623SOL    HW125331   4.028   0.249   2.416  0.5643  1.7622  0.3581
 4623SOL    HW225332   3.962   0.186   2.290 -0.2171  0.7751 -0.6802
 4624SOL     OW25333   0.203   4.558   7.201 -0.0966 -0.5820 -0.2261
 4624SOL    HW125334   0.240   4.541   7.288 -0.0386 -0.3052 -0.1947
 4624SOL    HW225335   0.272   4.611   7.159 -0.8927  0.4623 -0.2190
 4625SOL     OW25336   3.535   0.525   8.524  0.4086 -0.0935 -0.1494
 4625SOL    HW125337   3.465   0.486   8.471 -0.0855  1.1807 -0.4170
 4625SOL    HW225338   3.604   0.459   8.516 -0.0969 -0.6728  0.2293
 4626SOL     OW25339   1.499   4.025   8.788 -0.3854  0.1885 -0.1986
 4626SOL    HW125340   1.514   3.932   8.808  1.6618  0.5510 -0.0664
 4626SOL    HW225341   1.450   4.003   8.709 -0.6286  1.2318 -0.3305
 4627SOL     OW25342   3.672   3.573   8.826 -0.5332  0.1074  0.0571
 4627SOL    HW125343   3.612   3.586   8.753  0.8492 -0.4739 -1.1709
 4627SOL    HW225344   3.751   3.620   8.800 -0.0650 -0.7574 -0.0604
 4628SOL     OW25345   0.758   1.904   3.380 -0.5242 -0.3905  0.2176
 4628SOL    HW125346   0.717   1.850   3.313  0.8137 -2.4281  1.0435
 4628SOL    HW225347   0.678   1.903   3.433 -1.2344  0.7263 -0.8289
 4629SOL     OW25348   3.651   2.570  15.974  0.3893 -0.2751 -0.8208
 4629SOL    HW125349   3.715   2.607  16.036 -2.5027 -0.4384  2.2496
 4629SOL    HW225350   3.604   2.646  15.940 -1.1561 -0.4678  0.9059
 4630SOL     OW25351   2.060   1.984   8.135  0.8609 -0.5429  0.1446
 4630SOL    HW125352   2.025   2.072   8.139 -0.9430 -1.1821 -1.2499
 4630SOL    HW225353   2.071   1.964   8.228  0.1193 -0.1433  0.3188
 4631SOL     OW25354   2.025   4.479   1.996 -0.1575 -0.0260 -0.5089
 4631SOL    HW125355   2.023   4.412   2.064 -1.6256  0.1024 -0.4382
 4631SOL    HW225356   2.079   4.444   1.924 -0.4977 -0.4921 -0.5424
 4632SOL     OW25357   3.075   0.831   5.342 -0.5319  0.0091  0.1613
 4632SOL    HW125358   3.015   0.884   5.394 -0.5434 -0.4572  0.6111
 4632SOL    HW225359   3.158   0.828   5.389 -0.0190  1.2221 -0.6435
 4633SOL     OW25360   0.068   0.094  12.200 -0.0676  0.3250  0.2723
 4633SOL    HW125361   0.031   0.164  12.146  2.2627 -0.0498 -1.8236
 4633SOL    HW225362   0.117   0.038  12.139 -0.6027  0.2583 -0.0898
 4634SOL     OW25363   3.910   1.178   0.146  0.1046  0.1299  0.3000
 4634SOL    HW125364   3.979   1.128   0.101 -0.3584  0.5379 -0.8384
 4634SOL    HW225365   3.950   1.263   0.129  1.3795 -0.5449 -0.0866
 4635SOL     OW25366   1.941   2.059   5.996 -0.4851 -0.5380  0.1534
 4635SOL    HW125367   1.865   2.002   5.987 -1.9159  1.9661 -3.7689
 4635SOL    HW225368   2.013   1.997   5.995 -1.5946 -1.8070 -1.4616
 4636SOL     OW25369   0.593   3.243   5.269 -0.3654 -0.4560  0.2628
 4636SOL    HW125370   0.575   3.153   5.241  2.5586 -0.6232 -1.1246
 4636SOL    HW225371   0.685   3.227   5.290  0.0210  0.5937 -0.6595
 4637SOL     OW25372   3.788   3.765   0.959 -0.4103 -0.4702 -0.1306
 4637SOL    HW125373   3.767   3.855   0.984 -1.4662 -0.6032 -0.5356
 4637SOL    HW225374   3.722   3.717   1.010 -1.4260  0.8805 -0.1789
 4638SOL     OW25375   0.160   4.135   2.334 -0.3820 -0.1598 -0.3084
 4638SOL    HW125376   0.196   4.112   2.249 -0.1249 -0.1990 -0.1876
 4638SOL    HW225377   0.242   4.158   2.377  0.0193  0.4455 -1.3852
 4639SOL     OW25378   3.381   0.793   3.881 -0.5073 -0.4635 -0.1602
 4639SOL    HW125379   3.307   0.738   3.857  0.1106 -1.8380  1.0679
 4639SOL    HW225380   3.432   0.755   3.810  0.6711 -0.6502  0.7836
 4640SOL     OW25381   3.143   4.265   6.766  0.1989  0.2374 -0.3253
 4640SOL    HW125382   3.157   4.185   6.816  2.2854  2.3498  2.5033
 4640SOL    HW225383   3.230   4.265   6.726 -0.4188  0.4789 -1.6811
 4641SOL     OW25384   2.268   4.642   5.621 -0.2137  0.8528 -0.4174
 4641SOL    HW125385   2.331   4.710   5.598  2.2948 -2.1612 -2.3784
 4641SOL    HW225386   2.318   4.576   5.669 -0.8615  0.4037 -0.3590
 4642SOL     OW25387   0.515   0.376   9.332 -0.1985  0.2257 -0.1953
 4642SOL    HW125388   0.564   0.454   9.308  1.9389 -0.5702  1.6248
 4642SOL    HW225389   0.540   0.359   9.423  2.3588 -0.4487 -1.0184
 4643SOL     OW25390   3.454   3.147   5.297 -0.1478 -0.5142 -0.3770
 4643SOL    HW125391   3.417   3.125   5.212  0.6772  0.1123 -0.9054
 4643SOL    HW225392   3.544   3.117   5.285  1.0264  2.8637 -0.0329
 4644SOL     OW25393   2.966   3.328   1.700  0.0539  0.0104 -0.0241
 4644SOL    HW125394   2.971   3.407   1.754 -1.8436  1.3152 -1.7676
 4644SOL    HW225395   3.056   3.303   1.678 -0.5518 -0.7662 -1.6016
 4645SOL     OW25396   0.282   1.716   2.103 -0.5287 -0.3187 -0.3659
 4645SOL    HW125397   0.266   1.806   2.132  1.0121 -0.3286  0.5189
 4645SOL    HW225398   0.378   1.712   2.106 -0.7554 -3.5520  2.4091
 4646SOL     OW25399   4.386   1.048  11.988  0.0218  0.1781  0.2993
 4646SOL    HW125400   4.435   1.028  12.068  0.5404  1.2839  0.2551
 4646SOL    HW225401   4.445   1.008  11.924 -1.6552  0.9619 -1.7102
 4647SOL     OW25402   2.892   2.481   9.239 -0.1400 -0.1787  0.1865
 4647SOL    HW125403   2.986   2.468   9.253 -0.1352 -0.5374 -0.1785
 4647SOL    HW225404   2.854   2.451   9.322 -0.2623 -2.1830 -0.5934
 4648SOL     OW25405   2.208   4.064   6.750 -0.1847 -0.1274 -0.1459
 4648SOL    HW125406   2.244   4.053   6.662 -2.8430 -0.9122 -1.1575
 4648SOL    HW225407   2.259   4.137   6.784  0.6997 -1.1952  0.7983
 4649SOL     OW25408   2.229   3.380   2.018  0.4637 -0.1278  0.0030
 4649SOL    HW125409   2.232   3.385   1.922  0.0112  0.8651  0.0475
 4649SOL    HW225410   2.146   3.425   2.034  0.5154 -0.8477  2.3424
 4650SOL     OW25411   2.191   3.573   6.295  0.5163  0.3291  0.6949
 4650SOL    HW125412   2.232   3.515   6.231 -0.8140  0.7352 -0.5381
 4650SOL    HW225413   2.122   3.513   6.321 -0.7852  1.6789  0.3809
 4651SOL     OW25414   1.270   1.711  13.170 -1.3919 -0.1315  0.4162
 4651SOL    HW125415   1.314   1.684  13.089 -1.8533  0.6903 -0.1074
 4651SOL    HW225416   1.223   1.629  13.189 -0.9933 -0.2773  0.7667
 4652SOL     OW25417   1.698   3.466   5.555 -0.7798 -0.3360 -0.1556
 4652SOL    HW125418   1.755   3.389   5.554 -0.9402 -0.4498 -0.6264
 4652SOL    HW225419   1.730   3.513   5.631 -1.6325 -1.3441  0.8248
 4653SOL     OW25420   1.788   0.907   6.269 -0.2270 -0.1029  0.0614
 4653SOL    HW125421   1.803   0.851   6.192  0.9016 -1.1434  1.0518
 4653SOL    HW225422   1.822   0.854   6.341 -1.9949 -1.0564  0.2135
 4654SOL     OW25423   4.280   4.691   3.423 -0.2571 -0.0424  0.2959
 4654SOL    HW125424   4.189   4.721   3.422 -1.0356 -2.4360  0.3939
 4654SOL    HW225425   4.326   0.045   3.389  1.5772 -1.8882 -1.3868
 4655SOL     OW25426   2.340   0.452   8.893  0.1760  0.2744 -0.3020
 4655SOL    HW125427   2.430   0.429   8.915 -0.3570 -0.0485  1.5419
 4655SOL    HW225428   2.351   0.511   8.819 -1.8372 -2.1504 -2.5296
 4656SOL     OW25429   0.141   4.594   8.669 -0.3704 -0.5116  1.2351
 4656SOL    HW125430   0.188   4.526   8.620 -0.6315  0.3776 -0.2515
 4656SOL    HW225431   0.163   4.583   8.762  0.0653  1.9361  1.4079
 4657SOL     OW25432   2.147   3.609   5.751 -0.0026  0.0246  0.5130
 4657SOL    HW125433   2.088   3.680   5.726  0.8201  1.3446  2.3573
 4657SOL    HW225434   2.088   3.535   5.768 -0.4347  0.7134  1.9467
 4658SOL     OW25435   3.101   2.569   8.428 -0.2924 -0.2683 -0.0671
 4658SOL    HW125436   3.023   2.519   8.406 -1.5301  0.5308  2.4845
 4658SOL    HW225437   3.171   2.525   8.380 -0.7590 -1.8824  0.7333
 4659SOL     OW25438   3.810   2.370   4.839 -0.4571 -0.2116  0.0423
 4659SOL    HW125439   3.726   2.344   4.876 -1.0726 -0.5338 -1.5936
 4659SOL    HW225440   3.811   2.305   4.768 -2.2856  0.6114 -0.7159
 4660SOL     OW25441   1.975   3.436   8.453  0.3387  0.1910  0.6669
 4660SOL    HW125442   1.880   3.443   8.445  0.2884 -0.8148  0.4525
 4660SOL    HW225443   1.993   3.441   8.359 -1.0374  1.5843  0.4722
 4661SOL     OW25444   3.674   2.811   9.183  0.0615 -0.2628 -0.6083
 4661SOL    HW125445   3.676   2.745   9.253 -0.8677  0.0840 -0.2616
 4661SOL    HW225446   3.660   2.747   9.113 -2.1335  1.7107 -1.9473
 4662SOL     OW25447   1.413   2.271   6.632  0.5439  0.0405  0.5514
 4662SOL    HW125448   1.343   2.231   6.684  0.4647 -1.1284 -0.4529
 4662SOL    HW225449   1.400   2.365   6.640 -0.1160  0.0528 -0.5929
 4663SOL     OW25450   0.238   0.048   9.199  0.2869 -0.0003  0.3792
 4663SOL    HW125451   0.166   4.709   9.189 -0.1444  0.2973  1.6463
 4663SOL    HW225452   0.308   4.712   9.226  1.6883  1.3775 -0.1916
 4664SOL     OW25453   1.462   3.610   8.377  0.0664  0.6584  0.0507
 4664SOL    HW125454   1.380   3.650   8.406 -0.4679  1.0149 -1.9787
 4664SOL    HW225455   1.520   3.685   8.385  0.0883  0.9781 -3.2205
 4665SOL     OW25456   2.491   1.659   3.546 -0.1754 -0.3665  0.5472
 4665SOL    HW125457   2.447   1.689   3.626 -0.7711  1.0447 -0.3244
 4665SOL    HW225458   2.548   1.735   3.533  0.0431 -0.4603  0.9394
 4666SOL     OW25459   4.492   2.474   4.122 -0.0904  0.0272 -0.0484
 4666SOL    HW125460   4.563   2.410   4.113  1.3809  1.1881  3.0589
 4666SOL    HW225461   4.505   2.486   4.217 -0.8000 -1.5723  0.2520
 4667SOL     OW25462   0.603   1.440   1.736 -0.0065 -0.2301 -0.7133
 4667SOL    HW125463   0.508   1.433   1.735 -0.2602  2.9198  2.9842
 4667SOL    HW225464   0.623   1.453   1.829 -0.7088 -1.5306 -0.3865
 4668SOL     OW25465   4.229   4.442   2.243  0.3691  0.5864 -0.6011
 4668SOL    HW125466   4.211   4.367   2.300 -1.2872 -0.0710 -1.9733
 4668SOL    HW225467   4.320   4.447   2.270  0.1758  1.1160 -0.0546
 4669SOL     OW25468   4.590   3.708   5.953 -0.3974 -0.1499  0.1195
 4669SOL    HW125469   4.515   3.761   5.979 -0.0175  0.1988  0.4936
 4669SOL    HW225470   4.661   3.772   5.960  2.8916 -3.8144  0.1642
 4670SOL     OW25471   3.542   4.185   1.097  0.0193  0.2851 -0.0439
 4670SOL    HW125472   3.538   4.269   1.144 -0.9593 -0.0454  0.4687
 4670SOL    HW225473   3.448   4.168   1.106  0.2146 -1.1154 -0.7647
 4671SOL     OW25474   0.918   1.263   8.608 -0.2989  0.4399  0.2126
 4671SOL    HW125475   0.980   1.265   8.535  2.1319 -1.6543  2.2226
 4671SOL    HW225476   0.967   1.206   8.667  0.6606  0.9582 -0.0845
 4672SOL     OW25477   2.412   3.676   5.830  0.3846  0.1163  0.4462
 4672SOL    HW125478   2.326   3.643   5.805 -0.0503  1.4312  0.2089
 4672SOL    HW225479   2.402   3.678   5.925 -3.0185 -0.3256  0.0889
 4673SOL     OW25480   4.348   1.755  15.697  0.3254 -0.4866  0.7320
 4673SOL    HW125481   4.375   1.665  15.715 -1.7282 -1.4190 -0.8352
 4673SOL    HW225482   4.411   1.778  15.628 -0.7302  0.6260  0.1508
 4674SOL     OW25483   0.388   3.496   5.720 -0.1494 -0.2404  0.0654
 4674SOL    HW125484   0.304   3.462   5.751 -0.1413  1.0578  1.4930
 4674SOL    HW225485   0.414   3.549   5.795  0.3979  0.9759 -0.9804
 4675SOL     OW25486   2.476   0.537   3.943 -0.3185  0.0143 -0.5632
 4675SOL    HW125487   2.424   0.484   4.003  3.4617  0.1615  2.9020
 4675SOL    HW225488   2.444   0.510   3.858  1.8502 -2.3545 -0.6328
 4676SOL     OW25489   4.532   2.774   4.087  0.2701  0.2502  0.0653
 4676SOL    HW125490   4.548   2.814   4.002 -0.4686  2.8145  1.1038
 4676SOL    HW225491   4.546   2.681   4.070  0.7966  0.5283 -1.0425
 4677SOL     OW25492   2.254   2.546   9.086  0.2896  0.2024 -0.4772
 4677SOL    HW125493   2.318   2.540   9.157 -1.6249  0.7860  1.2909
 4677SOL    HW225494   2.198   2.620   9.110 -0.8525 -1.4473  1.8581
 4678SOL     OW25495   4.063   1.020   3.977  0.1912 -0.5206  0.3998
 4678SOL    HW125496   4.088   0.943   3.926  0.0845 -0.0017 -0.4380
 4678SOL    HW225497   4.147   1.064   3.989 -0.8762  1.4083  0.8076
 4679SOL     OW25498   3.142   3.670   5.314  0.2455 -0.1628  0.0880
 4679SOL    HW125499   3.057   3.694   5.350  0.2508  1.4903 -1.0236
 4679SOL    HW225500   3.181   3.757   5.302 -0.6312  0.5158  2.1262
 4680SOL     OW25501   3.065   1.827  10.560  0.1661 -0.4719 -0.1089
 4680SOL    HW125502   3.102   1.819  10.649  2.0194  0.8706 -0.7527
 4680SOL    HW225503   3.132   1.866  10.503  0.5662 -1.9582 -0.6688
 4681SOL     OW25504   4.662   2.560   6.512 -0.2941  0.1442  0.3120
 4681SOL    HW125505   4.660   2.530   6.421 -2.9977  3.4530 -0.7218
 4681SOL    HW225506   0.010   2.624   6.515  0.4052 -0.5143 -2.1638
 4682SOL     OW25507   3.779   0.184   2.722 -0.3932  0.0845 -0.3017
 4682SOL    HW125508   3.851   0.214   2.667 -1.2516 -0.0521 -1.4984
 4682SOL    HW225509   3.806   0.092   2.725  0.1239  0.2569  0.5451
 4683SOL     OW25510   1.027   4.704   7.881  0.4538  0.1880  0.2231
 4683SOL    HW125511   1.110   4.675   7.919  0.5461  1.3357  0.8845
 4683SOL    HW225512   1.031   4.684   7.788  0.7146 -1.7339  0.6445
 4684SOL     OW25513   0.245   3.137   2.993 -0.1071  0.8648 -0.1369
 4684SOL    HW125514   0.313   3.203   2.981  1.0202 -0.4259 -0.7719
 4684SOL    HW225515   0.224   3.146   3.086 -1.6779 -1.7028 -0.2351
 4685SOL     OW25516   1.933   0.551   0.683 -0.6354 -0.0113 -0.1259
 4685SOL    HW125517   2.005   0.490   0.669 -1.4747 -0.8732 -0.6586
 4685SOL    HW225518   1.871   0.517   0.619 -1.0090  0.1595  0.1459
 4686SOL     OW25519   4.687   1.187   3.138 -0.2791  0.4638  0.6932
 4686SOL    HW125520   4.692   1.117   3.072  2.2934  2.1860 -0.9496
 4686SOL    HW225521   4.650   1.259   3.087  1.9107 -0.3734 -2.1173
 4687SOL     OW25522   3.108   2.169   1.834  0.0259 -0.3175 -0.2903
 4687SOL    HW125523   3.098   2.102   1.902 -0.7783 -0.2323 -0.3177
 4687SOL    HW225524   3.153   2.235   1.887  2.3378 -1.7182 -0.5025
 4688SOL     OW25525   1.638   4.072   3.258 -0.3190 -0.5729  0.0221
 4688SOL    HW125526   1.662   4.014   3.329 -1.9820  0.1536  1.1621
 4688SOL    HW225527   1.678   4.023   3.186 -0.4053  0.4445 -0.7296
 4689SOL     OW25528   1.148   2.578   2.870 -0.0467  0.5661  0.4742
 4689SOL    HW125529   1.173   2.494   2.831 -2.1956 -1.2082  2.9560
 4689SOL    HW225530   1.186   2.638   2.805 -0.1324 -1.8517 -1.8123
 4690SOL     OW25531   2.891   2.658   0.531 -0.3287  0.5735  0.3332
 4690SOL    HW125532   2.798   2.681   0.537 -0.2480  1.5968 -2.5351
 4690SOL    HW225533   2.890   2.567   0.504  0.1841  1.0768 -1.3881
 4691SOL     OW25534   4.438   1.457   6.084  0.3595  0.4154 -0.6357
 4691SOL    HW125535   4.475   1.394   6.022 -1.5621 -1.8398  0.4736
 4691SOL    HW225536   4.376   1.506   6.029  0.2772  0.9073 -0.1009
 4692SOL     OW25537   3.397   0.352   6.404 -0.3814 -0.6115  0.1949
 4692SOL    HW125538   3.322   0.295   6.389 -1.0500  0.0130  1.1598
 4692SOL    HW225539   3.477   0.304   6.384 -0.4750 -0.0046 -1.6012
 4693SOL     OW25540   3.852   2.857   0.503  0.3356 -0.1214 -0.0949
 4693SOL    HW125541   3.801   2.843   0.423  1.3540 -2.6127 -0.3215
 4693SOL    HW225542   3.843   2.769   0.539  3.3091 -1.0708 -1.6314
 4694SOL     OW25543   2.462   1.986   7.405  0.6297 -0.1380  0.3713
 4694SOL    HW125544   2.523   1.922   7.442  0.1531  0.5202  2.3375
 4694SOL    HW225545   2.469   2.043   7.482 -1.2548 -0.4503  0.7728
 4695SOL     OW25546   2.359   4.521  12.610 -0.7953  0.2389  0.8577
 4695SOL    HW125547   2.280   4.514  12.663  0.5686  0.0201  2.8555
 4695SOL    HW225548   2.342   4.455  12.542  0.2488  0.7732  0.0799
 4696SOL     OW25549   0.645   2.197   2.015  0.2187  0.3543 -0.0468
 4696SOL    HW125550   0.661   2.263   1.947 -0.6017 -0.2744 -0.8554
 4696SOL    HW225551   0.552   2.213   2.030  0.2181  1.5341 -1.3279
 4697SOL     OW25552   4.364   3.119   8.359  0.1403 -0.2610  0.1387
 4697SOL    HW125553   4.327   3.109   8.271  0.6667  0.7003 -0.1907
 4697SOL    HW225554   4.292   3.149   8.414  1.1602 -0.3165  1.5088
 4698SOL     OW25555   3.411   4.463  12.554 -0.0694 -0.4528 -0.4600
 4698SOL    HW125556   3.361   4.525  12.607 -1.5012  0.0987 -2.4297
 4698SOL    HW225557   3.333   4.423  12.516  0.2368 -1.4439 -0.0325
 4699SOL     OW25558   2.735   3.172   3.054  0.0901  0.0185 -0.3689
 4699SOL    HW125559   2.800   3.173   3.125 -0.7742 -0.2785  0.4312
 4699SOL    HW225560   2.738   3.083   3.021 -1.6155 -0.1356 -0.0971
 4700SOL     OW25561   2.405   3.687   6.115 -0.4565 -0.5618 -0.2120
 4700SOL    HW125562   2.429   3.756   6.177 -0.4080  0.3405 -1.2340
 4700SOL    HW225563   2.379   3.618   6.176 -0.2068 -1.0703 -0.6888
 4701SOL     OW25564   0.766   3.849  17.254  0.1999  0.1196 -0.2753
 4701SOL    HW125565   0.697   3.833  17.189  1.4559  2.0144 -2.0427
 4701SOL    HW225566   0.721   3.805  17.327  2.5455 -1.9629 -0.0811
 4702SOL     OW25567   0.703   4.030   8.810  0.1427 -0.0962  0.2994
 4702SOL    HW125568   0.742   3.987   8.887  1.5344  0.6481  0.0226
 4702SOL    HW225569   0.738   4.118   8.823  1.9362 -1.4118  4.5378
 4703SOL     OW25570   2.197   1.663  10.795 -0.7065 -0.7615 -0.2437
 4703SOL    HW125571   2.246   1.687  10.716  0.6339 -0.5205  0.6465
 4703SOL    HW225572   2.135   1.596  10.768 -0.2842 -1.5811  0.8275
 4704SOL     OW25573   0.790   0.194  16.046 -0.1346  0.2654  0.2530
 4704SOL    HW125574   0.825   0.109  16.020 -1.4509 -0.5576  1.1346
 4704SOL    HW225575   0.704   0.172  16.083 -2.0641  1.6598 -3.4064
 4705SOL     OW25576   3.378   2.363   1.267 -0.5936  0.0896 -0.2710
 4705SOL    HW125577   3.381   2.410   1.184  1.0761  1.0058  0.3106
 4705SOL    HW225578   3.470   2.337   1.262 -1.1076 -1.9507  0.8414
 4706SOL     OW25579   2.051   0.037  17.525  0.0172 -0.3589  0.2477
 4706SOL    HW125580   2.030   4.681  17.576 -0.8588  1.4711  2.7049
 4706SOL    HW225581   2.146   0.028  17.535 -0.0924 -1.9472 -0.0171
 4707SOL     OW25582   3.016   4.357   9.873 -0.1115  0.1080 -0.4694
 4707SOL    HW125583   2.951   4.291   9.846  1.1983 -0.8941 -1.1890
 4707SOL    HW225584   3.079   4.337   9.804 -0.0046 -1.7976  0.1767
 4708SOL     OW25585   3.054   3.902  15.097 -0.1037  0.0316 -0.0147
 4708SOL    HW125586   2.968   3.942  15.102  1.4308  3.3455  0.1560
 4708SOL    HW225587   3.107   3.976  15.066 -0.9071  1.4203  1.9537
 4709SOL     OW25588   1.705   0.141   5.161 -0.0096 -0.3051 -0.0669
 4709SOL    HW125589   1.620   0.131   5.202  0.5576 -1.2941  0.8562
 4709SOL    HW225590   1.747   0.056   5.173  1.2297  0.4912  1.3423
 4710SOL     OW25591   2.727   4.173   2.718 -0.6635 -0.3031 -0.0187
 4710SOL    HW125592   2.712   4.204   2.629  0.0116  2.2542  0.7676
 4710SOL    HW225593   2.695   4.083   2.724 -2.0621  0.3292  2.1452
 4711SOL     OW25594   0.739   1.031   2.678  0.2114  0.5521  0.0713
 4711SOL    HW125595   0.646   1.027   2.698  0.2278 -2.6920 -0.5046
 4711SOL    HW225596   0.733   1.101   2.613 -0.4548 -0.1784 -0.6589
 4712SOL     OW25597   1.841   0.037  13.329  0.1609  0.4018 -0.3066
 4712SOL    HW125598   1.750   0.038  13.302  0.5967  0.0905 -1.8006
 4712SOL    HW225599   1.829   0.103  13.398 -1.1251 -1.2296  1.0274
 4713SOL     OW25600   1.157   1.356  14.819 -0.0483 -0.4535  0.0212
 4713SOL    HW125601   1.229   1.310  14.861  2.9857  2.5104 -1.8904
 4713SOL    HW225602   1.089   1.324  14.878 -0.6736 -1.5185 -1.2872
 4714SOL     OW25603   1.838   4.334  12.003  0.0114  0.2412 -0.1561
 4714SOL    HW125604   1.872   4.423  11.995  0.0931  0.2670  0.4536
 4714SOL    HW225605   1.804   4.349  12.092  0.2312 -0.4404  0.0460
 4715SOL     OW25606   0.632   3.871   6.115  0.4311 -0.3157 -0.0314
 4715SOL    HW125607   0.707   3.917   6.153  0.3165  0.3852 -0.6451
 4715SOL    HW225608   0.560   3.932   6.130 -0.4940 -1.8953  1.9381
 4716SOL     OW25609   4.148   0.719   2.858  0.3965  0.3164 -0.2872
 4716SOL    HW125610   4.241   0.707   2.839  0.5316  1.7048 -0.5036
 4716SOL    HW225611   4.106   0.670   2.787 -0.2191 -2.3045  1.8987
 4717SOL     OW25612   4.572   2.693   5.721  0.5589 -0.0059 -0.2140
 4717SOL    HW125613   4.523   2.651   5.791  0.4909 -0.8441 -0.7572
 4717SOL    HW225614   4.645   2.632   5.711  1.0786  0.3378  1.5359
 4718SOL     OW25615   0.306   1.209   8.304 -0.1470  0.4969 -0.2556
 4718SOL    HW125616   0.372   1.273   8.330  0.8955  0.5697 -3.0264
 4718SOL    HW225617   0.360   1.130   8.302  1.2922  1.5173 -1.4419
 4719SOL     OW25618   0.941   2.116   6.462  0.0384  0.2803  0.1668
 4719SOL    HW125619   0.881   2.077   6.525  1.4789 -2.0227  0.1321
 4719SOL    HW225620   0.878   2.142   6.395  1.4473  0.1456 -1.2093
 4720SOL     OW25621   4.315   3.141   0.113 -0.3619 -0.5736 -0.1514
 4720SOL    HW125622   4.261   3.082   0.166  0.0210  0.6424  1.5836
 4720SOL    HW225623   4.327   3.217   0.170 -0.9180  0.2514 -1.1362
 4721SOL     OW25624   0.988   1.101   4.567  0.0869  0.5993  0.5523
 4721SOL    HW125625   1.040   1.180   4.552  0.9338 -0.3416 -1.3712
 4721SOL    HW225626   1.051   1.049   4.618  0.8542  0.7072 -0.2820
 4722SOL     OW25627   4.402   0.210   3.015 -0.3504 -0.2423  0.2301
 4722SOL    HW125628   4.318   0.168   3.033 -0.5956  0.0429 -0.2372
 4722SOL    HW225629   4.423   0.165   2.933  1.2872  1.9186 -0.5583
 4723SOL     OW25630   1.495   1.393  16.763  0.0740  0.0143  0.4872
 4723SOL    HW125631   1.412   1.429  16.794  0.2477  0.5756  0.2915
 4723SOL    HW225632   1.560   1.442  16.814  1.4557  1.5800 -2.8338
 4724SOL     OW25633   2.345   4.214   3.037 -0.3946 -0.0348  0.2843
 4724SOL    HW125634   2.391   4.263   2.969 -0.3254  1.4527  1.4201
 4724SOL    HW225635   2.383   4.127   3.046 -1.3763 -0.6702 -1.5750
 4725SOL     OW25636   2.520   2.644  11.942 -0.3834 -0.7477  0.2180
 4725SOL    HW125637   2.591   2.580  11.929  0.9503  0.8688 -0.4233
 4725SOL    HW225638   2.512   2.627  12.036  1.1648  0.3227  0.5597
 4726SOL     OW25639   4.610   2.893   5.559 -0.3949 -0.1448  0.2280
 4726SOL    HW125640   4.581   2.816   5.607 -1.3582 -1.6868 -2.8571
 4726SOL    HW225641   4.699   2.865   5.537 -0.2648 -0.5249  1.2099
 4727SOL     OW25642   3.284   2.167  17.287  0.1888 -0.4749  0.2085
 4727SOL    HW125643   3.314   2.237  17.229 -0.4752 -1.1640 -0.9636
 4727SOL    HW225644   3.221   2.120  17.232  0.1169 -1.3780  1.0731
 4728SOL     OW25645   0.718   3.416   1.562  0.2929 -0.0092 -0.3318
 4728SOL    HW125646   0.712   3.323   1.540  0.1619 -0.5723  2.0937
 4728SOL    HW225647   0.638   3.425   1.614  1.0750  0.5301  0.7925
 4729SOL     OW25648   3.684   0.619   2.059 -0.6577  0.0549 -0.0589
 4729SOL    HW125649   3.763   0.575   2.092 -0.0006 -0.4377 -2.3439
 4729SOL    HW225650   3.631   0.608   2.139 -1.6779 -0.2123 -0.7772
 4730SOL     OW25651   2.093   0.194   9.357  0.2114  0.4080 -0.5290
 4730SOL    HW125652   2.139   0.250   9.420 -0.0917  0.5056 -0.3907
 4730SOL    HW225653   2.033   0.155   9.420  0.0781  2.3095  0.5367
 4731SOL     OW25654   3.256   4.141   8.635  0.5557  0.4773  0.3061
 4731SOL    HW125655   3.161   4.145   8.643  0.8395  1.5671  3.4878
 4731SOL    HW225656   3.269   4.220   8.689 -0.7000  1.3649 -0.6947
 4732SOL     OW25657   1.554   1.633   6.035 -0.2250  0.2990 -0.3123
 4732SOL    HW125658   1.597   1.618   6.120  0.3542  1.6598 -0.3660
 4732SOL    HW225659   1.518   1.546   6.018  1.8796 -0.4406 -0.9000
 4733SOL     OW25660   3.112   4.543   4.156 -0.2454  0.0406  0.0918
 4733SOL    HW125661   3.203   4.565   4.174 -0.5903 -0.6888  2.6904
 4733SOL    HW225662   3.081   4.524   4.245 -1.7453 -2.9838 -1.0787
 4734SOL     OW25663   4.475   0.328   6.775 -0.1374 -0.1990  0.7064
 4734SOL    HW125664   4.427   0.367   6.849  0.6270  0.2244  0.9765
 4734SOL    HW225665   4.435   0.242   6.786 -0.3655  0.0039  1.4469
 4735SOL     OW25666   2.434   3.326  15.597  0.1014  0.5221 -0.6417
 4735SOL    HW125667   2.453   3.403  15.543  0.6327 -0.7495 -2.2777
 4735SOL    HW225668   2.416   3.363  15.683  1.7251  0.9794 -0.5087
 4736SOL     OW25669   1.427   0.411   1.335 -0.1582  0.1566  0.1939
 4736SOL    HW125670   1.438   0.435   1.243  0.3720  0.3929  0.3217
 4736SOL    HW225671   1.494   0.345   1.355  1.5155  1.3368 -1.5002
 4737SOL     OW25672   0.502   3.266   7.711  0.0762 -0.2152  0.4632
 4737SOL    HW125673   0.483   3.183   7.755 -0.8253  0.2170  0.9136
 4737SOL    HW225674   0.418   3.311   7.727  0.1422 -0.0421  0.3241
 4738SOL     OW25675   0.559   1.840   3.680  0.2129 -0.0838 -0.7414
 4738SOL    HW125676   0.625   1.900   3.716  1.2822 -0.5310 -1.9336
 4738SOL    HW225677   0.509   1.896   3.620 -1.6843  1.0553  1.8957
 4739SOL     OW25678   4.620   1.329   1.077  0.2601  0.0840  0.4820
 4739SOL    HW125679   4.548   1.386   1.106  0.2939 -0.1449  1.0134
 4739SOL    HW225680   4.679   1.338   1.152 -1.0798  1.1654  1.4217
 4740SOL     OW25681   2.388   0.269   9.760 -0.0619 -0.4802  0.2274
 4740SOL    HW125682   2.343   0.282   9.676 -1.0184  0.9004  0.9435
 4740SOL    HW225683   2.319   0.217   9.801  0.4185 -1.6244 -0.4241
 4741SOL     OW25684   2.885   2.757   6.498  0.3902 -0.1778  0.3576
 4741SOL    HW125685   2.922   2.693   6.558  0.8820  0.8482  1.1433
 4741SOL    HW225686   2.842   2.820   6.557  2.8833  2.6966 -0.9233
 4742SOL     OW25687   4.309   1.231  15.056 -0.7424  0.9065  0.0588
 4742SOL    HW125688   4.297   1.280  15.138  0.3411  1.1823  0.0489
 4742SOL    HW225689   4.390   1.279  15.041 -0.5128  0.5569  0.1850
 4743SOL     OW25690   3.451   4.658   9.661 -0.3693 -0.2409  0.1819
 4743SOL    HW125691   3.515   4.706   9.714 -1.2313 -0.8574  1.7888
 4743SOL    HW225692   3.417   4.594   9.724  1.3668 -0.9461  0.4342
 4744SOL     OW25693   2.164   1.526  17.111  0.3090 -0.6102 -0.1134
 4744SOL    HW125694   2.256   1.526  17.137  0.0320 -2.0036  0.8965
 4744SOL    HW225695   2.163   1.560  17.022 -1.0179 -0.1995  0.0582
 4745SOL     OW25696   3.210   2.060   7.096 -0.6566 -0.9235 -0.3542
 4745SOL    HW125697   3.226   2.118   7.021 -0.9985 -0.8602 -0.3804
 4745SOL    HW225698   3.132   2.109   7.123 -1.0863  0.2000 -3.5429
 4746SOL     OW25699   2.002   0.031   6.260 -0.4721  0.2930  0.5227
 4746SOL    HW125700   2.017   4.674   6.312 -0.1254 -1.1393 -1.7698
 4746SOL    HW225701   2.087   0.071   6.276 -0.3015  0.3792 -0.5866
 4747SOL     OW25702   2.957   4.261  12.991  0.2471 -0.2031  0.2315
 4747SOL    HW125703   3.046   4.294  12.998  0.8705 -1.7819 -0.1349
 4747SOL    HW225704   2.977   4.168  13.006  0.8158  0.1447  1.5852
 4748SOL     OW25705   2.014   2.675   1.710  0.3020  0.1735  0.5154
 4748SOL    HW125706   2.070   2.752   1.697  0.7591 -0.1136  0.7815
 4748SOL    HW225707   1.986   2.668   1.619  0.7322  2.9862  0.1644
 4749SOL     OW25708   1.486   3.368   8.479 -0.0420  0.1734 -0.2476
 4749SOL    HW125709   1.515   3.333   8.395 -2.1657  0.3034 -1.0285
 4749SOL    HW225710   1.479   3.460   8.455  1.6805  0.4274  0.1726
 4750SOL     OW25711   2.041   2.024   3.614  0.2108  0.4187  0.4746
 4750SOL    HW125712   1.959   1.981   3.592  1.4961 -2.7102  1.7346
 4750SOL    HW225713   2.065   2.059   3.528 -0.6859 -1.7671 -0.6740
 4751SOL     OW25714   1.973   2.948   2.812  0.5094  0.4297 -0.1254
 4751SOL    HW125715   1.971   2.937   2.717  2.6792 -0.9343 -0.0230
 4751SOL    HW225716   1.930   2.865   2.834 -0.0918  1.0942  1.1923
 4752SOL     OW25717   3.294   3.748   4.952  0.4578 -0.2118  0.0604
 4752SOL    HW125718   3.224   3.786   4.899 -1.1945 -3.8555 -0.4307
 4752SOL    HW225719   3.246   3.685   5.006  2.2818 -2.6271 -1.1198
 4753SOL     OW25720   0.741   0.854   5.424 -0.1954  0.1627 -0.0417
 4753SOL    HW125721   0.665   0.798   5.408 -0.6506  1.7727 -3.5392
 4753SOL    HW225722   0.734   0.866   5.519 -0.3538 -1.6776  0.1772
 4754SOL     OW25723   2.953   3.321   2.887 -0.1150  0.1795 -0.2902
 4754SOL    HW125724   2.905   3.312   2.969 -0.0362  1.0886 -0.1359
 4754SOL    HW225725   2.973   3.415   2.888  2.8037 -0.4341  0.3234
 4755SOL     OW25726   1.100   4.068   8.565  0.5121 -0.1121  0.1168
 4755SOL    HW125727   1.008   4.092   8.565  0.4716 -0.3081 -1.7463
 4755SOL    HW225728   1.097   3.988   8.512 -3.3383  0.1148  0.0375
 4756SOL     OW25729   3.343   1.127   7.129  0.1491  0.4230 -0.1394
 4756SOL    HW125730   3.304   1.213   7.117  0.4958  0.6594  0.4359
 4756SOL    HW225731   3.265   1.072   7.122  1.5557 -1.7702  1.1402
 4757SOL     OW25732   4.124   0.405   6.763 -0.2096 -0.3540  0.3006
 4757SOL    HW125733   4.173   0.421   6.844 -2.0854 -1.7430  1.6957
 4757SOL    HW225734   4.041   0.449   6.781  1.3990  1.9540  2.0056
 4758SOL     OW25735   3.489   1.996   1.199 -0.0150  0.1431 -0.0699
 4758SOL    HW125736   3.463   2.008   1.108  0.3994 -1.0900 -0.3495
 4758SOL    HW225737   3.413   2.034   1.243 -1.9549 -4.0676  0.1854
 4759SOL     OW25738   1.274   0.758  11.808 -0.1058 -0.5263 -0.0893
 4759SOL    HW125739   1.361   0.787  11.780 -0.8242  1.5924 -0.0576
 4759SOL    HW225740   1.280   0.781  11.901  2.6855  1.3252 -0.7411
 4760SOL     OW25741   2.705   0.870   8.463  0.0371 -0.1697 -0.1597
 4760SOL    HW125742   2.766   0.868   8.536 -1.4814  2.1816  1.1333
 4760SOL    HW225743   2.696   0.965   8.458 -0.3157 -0.2048 -0.2052
 4761SOL     OW25744   4.557   1.014   2.978 -0.3563 -0.3452 -0.0350
 4761SOL    HW125745   4.488   0.949   2.990 -0.9229  0.8955  3.3824
 4761SOL    HW225746   4.507   1.074   2.923  0.1541 -0.7675 -0.9646
 4762SOL     OW25747   0.225   1.895   2.640  0.1914 -0.2276  0.3489
 4762SOL    HW125748   0.163   1.852   2.699 -0.7896  0.8466  0.0923
 4762SOL    HW225749   0.169   1.952   2.588  1.9258  0.6153 -0.6233
 4763SOL     OW25750   0.005   0.784   4.922 -0.2888  0.4898 -0.2941
 4763SOL    HW125751   0.048   0.713   4.972 -1.1021 -0.6705 -1.2549
 4763SOL    HW225752   0.032   0.781   4.830 -0.5970  0.2480 -0.3753
 4764SOL     OW25753   2.492   1.911   4.283  0.0212  0.0330 -0.4797
 4764SOL    HW125754   2.484   2.003   4.260  2.3669  0.5287  0.6103
 4764SOL    HW225755   2.499   1.908   4.379 -1.9935 -0.1766 -0.3469
 4765SOL     OW25756   2.430   0.572  10.853  0.1366  0.2125  0.0237
 4765SOL    HW125757   2.437   0.487  10.896 -1.2764 -1.0000 -2.1680
 4765SOL    HW225758   2.487   0.556  10.778 -1.6120 -3.3096 -0.5357
 4766SOL     OW25759   4.012   0.820  13.208  0.1992  0.4257 -0.1835
 4766SOL    HW125760   3.998   0.823  13.114  0.1699  0.2456 -0.1845
 4766SOL    HW225761   4.010   0.726  13.229  3.1420  0.8838  2.2200
 4767SOL     OW25762   4.641   2.171   6.668 -0.2914 -0.3250  0.3342
 4767SOL    HW125763   4.689   2.108   6.723  1.8845  1.6165  0.6621
 4767SOL    HW225764   4.654   2.131   6.582 -1.9250  0.2790 -0.1927
 4768SOL     OW25765   3.538   1.274  14.047  0.0416  0.3283  0.0374
 4768SOL    HW125766   3.443   1.288  14.041 -0.0769 -0.2887  0.4278
 4768SOL    HW225767   3.566   1.364  14.034  0.6474  0.3940  1.7701
 4769SOL     OW25768   3.018   3.827   0.834 -0.2033 -0.6801  0.2784
 4769SOL    HW125769   2.923   3.823   0.830 -0.1468 -0.4005 -1.4035
 4769SOL    HW225770   3.031   3.743   0.791 -0.7577 -0.1659 -0.8896
 4770SOL     OW25771   3.604   0.789  12.758 -0.2060 -0.3126 -0.2415
 4770SOL    HW125772   3.650   0.770  12.676  4.1674  2.1536  1.6158
 4770SOL    HW225773   3.520   0.748  12.741 -0.3042  0.1517 -0.8515
 4771SOL     OW25774   4.625   4.177   9.113  0.2079 -0.0657  0.4567
 4771SOL    HW125775   4.581   4.222   9.041 -0.8891  2.0881  2.4867
 4771SOL    HW225776   4.559   4.201   9.178  1.1150  0.0242  1.3495
 4772SOL     OW25777   3.012   4.020   6.211 -0.2709  0.5233  0.2805
 4772SOL    HW125778   2.917   4.012   6.216 -0.1489 -1.6629 -0.9935
 4772SOL    HW225779   3.041   3.929   6.220  0.6033  0.8954  1.1656
 4773SOL     OW25780   3.814   0.259   1.992 -0.1724  0.1042 -0.5684
 4773SOL    HW125781   3.834   0.212   1.910 -1.2386  0.6151 -1.1201
 4773SOL    HW225782   3.723   0.268   1.963 -0.1761  2.4636  0.2337
 4774SOL     OW25783   0.303   2.658   5.571  0.2427 -0.1574  0.5948
 4774SOL    HW125784   0.362   2.732   5.554  2.4099 -2.0906 -0.2528
 4774SOL    HW225785   0.368   2.588   5.576  1.5389  1.0436  0.9223
 4775SOL     OW25786   2.093   3.382   8.169  0.7520  0.2495 -0.3458
 4775SOL    HW125787   2.123   3.311   8.113  0.7806 -1.0060  1.2614
 4775SOL    HW225788   2.171   3.430   8.198  0.7656  1.1521 -1.8996
 4776SOL     OW25789   3.560   2.371   8.310  0.1312  0.5040  0.4105
 4776SOL    HW125790   3.490   2.363   8.375 -0.3842 -0.4375 -0.2780
 4776SOL    HW225791   3.600   2.284   8.317 -1.3455 -0.0858  1.6017
 4777SOL     OW25792   0.644   4.141   5.962 -0.1924  0.3229  0.1544
 4777SOL    HW125793   0.587   4.103   5.895  0.5973 -0.7826  0.1199
 4777SOL    HW225794   0.587   4.139   6.039 -0.6764 -1.5688 -0.2538
 4778SOL     OW25795   3.890   1.972   2.456 -0.5737  0.3324 -0.2998
 4778SOL    HW125796   3.906   1.877   2.453  0.7359  0.5733 -0.7600
 4778SOL    HW225797   3.823   1.971   2.524  1.4678 -1.3427  1.7128
 4779SOL     OW25798   0.823   2.125   0.216  0.4264 -0.2104  0.1082
 4779SOL    HW125799   0.890   2.147   0.281  1.6940  3.8233 -2.5111
 4779SOL    HW225800   0.865   2.043   0.191 -1.2841 -0.5919 -1.4854
 4780SOL     OW25801   0.242   4.601   1.637 -0.2347  0.2736  0.6567
 4780SOL    HW125802   0.326   4.646   1.631 -1.0860  1.8431  0.2842
 4780SOL    HW225803   0.273   4.511   1.637 -1.5119 -0.1702  0.6186
 4781SOL     OW25804   3.499   2.427   6.759 -0.1792  0.0994 -0.7660
 4781SOL    HW125805   3.496   2.384   6.673 -1.2798 -0.4564 -0.4599
 4781SOL    HW225806   3.584   2.408   6.797 -0.5243 -0.0415 -0.0707
 4782SOL     OW25807   4.006   0.639  10.702 -0.1225 -0.1012 -0.0496
 4782SOL    HW125808   4.042   0.565  10.654  1.0282  0.6612 -0.3469
 4782SOL    HW225809   3.912   0.628  10.689  0.0762  1.3097 -2.5276
 4783SOL     OW25810   2.415   0.709   6.246 -0.2694  0.1210  0.1556
 4783SOL    HW125811   2.338   0.751   6.208 -1.8232 -1.1641  1.8561
 4783SOL    HW225812   2.471   0.786   6.244  0.6159 -0.5839 -1.7251
 4784SOL     OW25813   2.679   1.418   7.409  0.0324 -0.8189  0.2943
 4784SOL    HW125814   2.620   1.402   7.482  0.4006  0.3865  0.8594
 4784SOL    HW225815   2.760   1.443   7.455  0.3507 -0.5467 -0.4168
 4785SOL     OW25816   3.852   2.373   7.316  0.3008 -0.2466  0.8049
 4785SOL    HW125817   3.785   2.408   7.374  0.9382  1.3341  0.5928
 4785SOL    HW225818   3.818   2.398   7.230  0.5781  1.0519  1.0763
 4786SOL     OW25819   2.067   1.282   4.766 -0.1580 -0.1246  0.1011
 4786SOL    HW125820   2.110   1.280   4.681 -1.4346  0.9654 -0.5779
 4786SOL    HW225821   2.117   1.219   4.818  2.7811  1.0450 -1.3653
 4787SOL     OW25822   1.859   0.568   4.410 -0.2335 -0.0594 -0.0567
 4787SOL    HW125823   1.791   0.531   4.354 -1.0909  0.6807  0.5075
 4787SOL    HW225824   1.909   0.628   4.354 -2.4506 -0.1756 -2.1563
 4788SOL     OW25825   0.095   0.883   1.825  0.0416  0.2973 -0.0655
 4788SOL    HW125826   0.129   0.793   1.834 -0.3748 -0.1767 -3.1462
 4788SOL    HW225827   4.723   0.880   1.830  0.0920 -1.0516  0.0497
 4789SOL     OW25828   2.219   2.285   9.111 -0.5565  0.0280 -0.3412
 4789SOL    HW125829   2.239   2.378   9.099 -0.0038  0.0666  0.7909
 4789SOL    HW225830   2.178   2.272   9.026 -0.8165  2.2004 -0.5644
 4790SOL     OW25831   0.217   2.599   4.822 -0.1993 -0.1550 -0.2322
 4790SOL    HW125832   0.224   2.562   4.911  1.4372  0.5821 -0.0486
 4790SOL    HW225833   0.170   2.542   4.761 -0.6827 -0.0151  0.0067
 4791SOL     OW25834   2.489   3.378   3.884  0.5164 -0.5413  0.1823
 4791SOL    HW125835   2.480   3.314   3.813 -1.3553  0.3636 -0.3893
 4791SOL    HW225836   2.401   3.368   3.920  1.0999 -0.6069  1.5903
 4792SOL     OW25837   2.057   3.478   9.199  0.0565  0.1202  0.6031
 4792SOL    HW125838   1.975   3.436   9.172  0.7849 -2.4930  2.4318
 4792SOL    HW225839   2.025   3.553   9.249 -0.3312 -0.6308  1.4770
 4793SOL     OW25840   3.859   3.972  16.735  0.8765 -0.4094  0.1166
 4793SOL    HW125841   3.804   3.986  16.657 -0.5846 -0.0067  1.2266
 4793SOL    HW225842   3.796   3.943  16.800  0.7079  2.7345  1.3397
 4794SOL     OW25843   2.676   2.291   1.472  0.0686 -0.5094 -0.5460
 4794SOL    HW125844   2.657   2.222   1.409 -0.3879  0.6341 -1.6476
 4794SOL    HW225845   2.701   2.236   1.547  1.4340 -0.0824 -0.6946
 4795SOL     OW25846   1.447   1.952   3.497  0.2150 -0.0798  0.2469
 4795SOL    HW125847   1.487   2.002   3.568 -0.6304 -1.4403  1.6890
 4795SOL    HW225848   1.382   1.897   3.541  0.3429  0.1538  0.7397
 4796SOL     OW25849   0.368   3.065   8.715 -0.0702 -0.2374 -0.1275
 4796SOL    HW125850   0.358   2.989   8.659  1.4925 -1.6828  1.5326
 4796SOL    HW225851   0.421   3.035   8.789  0.7840  0.9366 -0.2650
 4797SOL     OW25852   1.516   1.290   6.994 -0.0736  0.2237  0.0451
 4797SOL    HW125853   1.425   1.315   7.009  0.9023  3.4387  0.7034
 4797SOL    HW225854   1.515   1.246   6.909  0.1973  2.9085 -1.3393
 4798SOL     OW25855   2.754   2.521   6.880  0.1976  0.0313 -0.2030
 4798SOL    HW125856   2.806   2.441   6.886  0.5985  0.1265 -2.4539
 4798SOL    HW225857   2.682   2.492   6.825 -0.0782  1.6809 -0.6960
 4799SOL     OW25858   4.246   3.557   1.121 -0.2726 -0.5467  0.2818
 4799SOL    HW125859   4.206   3.470   1.118  0.8922 -1.0360 -1.1904
 4799SOL    HW225860   4.214   3.597   1.040 -0.4259 -0.1333  0.5450
 4800SOL     OW25861   3.947   3.646   7.978 -0.1880  0.0858 -0.0232
 4800SOL    HW125862   4.038   3.624   7.999  0.3583 -0.2170 -2.6841
 4800SOL    HW225863   3.953   3.741   7.990 -1.5919 -0.0871  1.9625
 4801SOL     OW25864   3.443   4.235  10.012  0.3229  0.4982  0.0205
 4801SOL    HW125865   3.363   4.247  10.063  0.0016  1.7915 -0.7916
 4801SOL    HW225866   3.409   4.237   9.923  2.4036 -0.9249 -0.7971
 4802SOL     OW25867   2.107   3.332   5.478  0.0184  0.4635  0.2446
 4802SOL    HW125868   2.050   3.326   5.554 -1.0149  1.3664 -0.4461
 4802SOL    HW225869   2.161   3.409   5.497  0.7763  0.1969 -0.8158
 4803SOL     OW25870   1.527   4.129   5.351  0.2891  0.3778  0.2220
 4803SOL    HW125871   1.508   4.191   5.280 -0.5624  0.3299  0.4177
 4803SOL    HW225872   1.610   4.167   5.382  0.0062  0.2684  1.1059
 4804SOL     OW25873   0.739   2.861  14.366  0.0366 -0.2211  0.0842
 4804SOL    HW125874   0.822   2.891  14.405  0.9192  1.0720 -2.7771
 4804SOL    HW225875   0.689   2.943  14.370 -2.3442 -1.6653 -0.1865
 4805SOL     OW25876   3.101   0.421   2.481 -0.5288  0.2583 -0.4796
 4805SOL    HW125877   3.052   0.378   2.412 -0.3775  0.4323 -0.6955
 4805SOL    HW225878   3.039   0.476   2.528 -0.4916  0.6171 -0.8510
 4806SOL     OW25879   2.186   0.537   4.880 -0.0569 -0.2610  0.2982
 4806SOL    HW125880   2.251   0.494   4.823  1.5336 -0.0715  1.9820
 4806SOL    HW225881   2.243   0.551   4.956 -0.8760  1.2662  0.6270
 4807SOL     OW25882   0.452   1.445   9.734 -0.1986 -0.3035 -0.2033
 4807SOL    HW125883   0.508   1.465   9.659  0.4949 -3.5276 -0.5572
 4807SOL    HW225884   0.416   1.362   9.705 -0.1268 -0.6368  0.6517
 4808SOL     OW25885   0.070   2.060  15.499  0.7590 -0.1588 -0.5489
 4808SOL    HW125886   0.079   2.154  15.481  0.2225 -0.1903 -0.9562
 4808SOL    HW225887   0.163   2.037  15.500  0.9382  0.5924  0.6027
 4809SOL     OW25888   0.061   3.537   0.747 -0.0477 -0.2043  0.3918
 4809SOL    HW125889   0.154   3.558   0.758  0.4436 -3.3316  2.2794
 4809SOL    HW225890   0.024   3.604   0.805  0.1319 -0.7351  1.1206
 4810SOL     OW25891   1.703   0.020   8.000  0.2513  0.0268  0.3034
 4810SOL    HW125892   1.655   4.682   7.943 -0.6860  1.7806 -0.7675
 4810SOL    HW225893   1.746   0.078   7.938 -0.8531  2.7061  2.0412
 4811SOL     OW25894   2.983   0.104   2.958 -0.0453 -0.1960  0.1964
 4811SOL    HW125895   3.077   0.112   2.940 -0.4427  2.3599 -0.6755
 4811SOL    HW225896   2.940   0.100   2.873  1.9239  1.7025 -0.8926
 4812SOL     OW25897   3.169   0.065   5.381  0.1206 -0.1291  0.2249
 4812SOL    HW125898   3.095   0.117   5.348  1.1260  1.0875 -0.0926
 4812SOL    HW225899   3.142   4.696   5.375 -0.2895  0.0847 -1.1373
 4813SOL     OW25900   0.521   3.095   4.273  0.0143  0.0537 -0.0317
 4813SOL    HW125901   0.472   3.062   4.348 -0.0359  0.0338 -0.0737
 4813SOL    HW225902   0.608   3.074   4.308  0.0834 -0.9205 -0.7738
 4814SOL     OW25903   2.091   2.568   9.993  0.4731  0.5517 -0.5630
 4814SOL    HW125904   2.031   2.517  10.047  1.6400 -1.1137 -0.8458
 4814SOL    HW225905   2.039   2.646   9.971 -0.9747 -0.3351 -0.2945
 4815SOL     OW25906   3.265   1.985   9.187  0.3331 -0.3049  0.3429
 4815SOL    HW125907   3.267   2.070   9.142  3.2840 -0.5111  0.1315
 4815SOL    HW225908   3.171   1.979   9.205  0.4352 -0.1200  0.9273
 4816SOL     OW25909   4.500   2.170   9.352 -0.2454  0.4198  0.1255
 4816SOL    HW125910   4.443   2.247   9.348  1.2943  1.4419 -2.0630
 4816SOL    HW225911   4.447   2.095   9.380  0.0477  0.4299  0.7055
 4817SOL     OW25912   2.789   0.123   9.800  0.5589 -0.4009  0.2351
 4817SOL    HW125913   2.742   0.161   9.725 -1.1261 -0.1350  1.4415
 4817SOL    HW225914   2.823   0.044   9.758  2.7955  1.8829 -2.3349
 4818SOL     OW25915   1.311   2.045  11.774  0.0415  0.2549  0.2609
 4818SOL    HW125916   1.217   2.035  11.793  0.5262 -0.3232  2.3462
 4818SOL    HW225917   1.323   1.952  11.759 -1.3792  0.2369 -0.7948
 4819SOL     OW25918   2.759   2.021   6.044  0.1098  0.1998  0.2710
 4819SOL    HW125919   2.849   2.054   6.039 -0.2143  0.2216 -4.8901
 4819SOL    HW225920   2.746   1.983   5.957 -3.0606  2.0962 -0.0755
 4820SOL     OW25921   3.460   3.022   4.372  0.2423 -0.3148 -0.1634
 4820SOL    HW125922   3.370   2.992   4.362 -0.6137  1.8225  0.9500
 4820SOL    HW225923   3.438   3.115   4.381  0.3598 -0.4429  1.5698
 4821SOL     OW25924   2.833   1.628   8.883 -0.1304  0.0384  0.1726
 4821SOL    HW125925   2.787   1.711   8.895 -0.4774 -0.2193  0.6060
 4821SOL    HW225926   2.882   1.616   8.964 -0.4684  0.3401  0.4200
 4822SOL     OW25927   0.890   0.346   1.116 -0.3596 -0.4833  0.3565
 4822SOL    HW125928   0.804   0.371   1.082  0.6276  3.0301  0.3742
 4822SOL    HW225929   0.951   0.405   1.070 -0.7470 -0.8316 -0.6050
 4823SOL     OW25930   3.412   3.602   8.706  0.0205  1.0150 -0.0173
 4823SOL    HW125931   3.460   3.644   8.635  1.9706 -0.8461  0.2027
 4823SOL    HW225932   3.361   3.675   8.741  1.1558  1.6669  0.2644
 4824SOL     OW25933   0.356   2.377   7.916 -0.3525  0.2018  0.3361
 4824SOL    HW125934   0.279   2.387   7.860  1.3832 -0.7064 -2.2060
 4824SOL    HW225935   0.430   2.365   7.856 -0.1169 -1.3384  0.9144
 4825SOL     OW25936   2.256   2.665  10.187 -0.1070  0.4286 -0.0658
 4825SOL    HW125937   2.200   2.719  10.244 -0.3208 -0.9641  1.0420
 4825SOL    HW225938   2.195   2.634  10.121 -0.5680 -0.2405  0.6782
 4826SOL     OW25939   1.214   3.176  13.146 -0.2675 -0.3360  0.0125
 4826SOL    HW125940   1.251   3.088  13.147  4.4538  1.6666 -0.3889
 4826SOL    HW225941   1.293   3.221  13.176  1.3513 -1.8208 -2.0576
 4827SOL     OW25942   0.413   4.447  17.318 -0.8143  0.3251  0.4103
 4827SOL    HW125943   0.394   4.421  17.409 -0.7789 -0.0382  0.3116
 4827SOL    HW225944   0.327   4.424  17.283 -0.8907 -2.2014  2.2253
 4828SOL     OW25945   1.387   0.646   4.883  0.1416 -0.2146  0.6158
 4828SOL    HW125946   1.312   0.626   4.939 -0.7996 -0.2231 -0.6493
 4828SOL    HW225947   1.455   0.589   4.917 -2.7618 -3.6432  0.6391
 4829SOL     OW25948   3.657   4.389   3.736  0.3460  0.4652  0.0074
 4829SOL    HW125949   3.566   4.413   3.719  0.1258  1.3625  2.5769
 4829SOL    HW225950   3.712   4.466   3.729 -1.1335  1.6789  2.0151
 4830SOL     OW25951   1.034   1.671   2.348  0.0791 -0.6846 -0.4357
 4830SOL    HW125952   1.106   1.646   2.291 -1.9077 -2.0072 -2.3517
 4830SOL    HW225953   1.068   1.639   2.431  1.7640 -2.0740 -1.6803
 4831SOL     OW25954   0.359   2.869  16.657  0.2893  0.6555  0.4061
 4831SOL    HW125955   0.433   2.810  16.672 -1.4805 -1.8759 -0.8412
 4831SOL    HW225956   0.387   2.953  16.693 -1.0466  0.3507  2.1454
 4832SOL     OW25957   3.859   0.162   4.714  0.4255 -0.4642  0.7834
 4832SOL    HW125958   3.885   0.070   4.703  2.4315  0.2234 -0.3352
 4832SOL    HW225959   3.874   0.164   4.809  2.3977 -0.9053  0.4771
 4833SOL     OW25960   3.597   0.246   2.921  0.6724  0.3090 -0.0745
 4833SOL    HW125961   3.599   0.158   2.959 -0.0417  1.0751  1.7529
 4833SOL    HW225962   3.674   0.240   2.865 -1.5931  1.7348 -3.3174
 4834SOL     OW25963   1.329   1.411   7.409 -0.2046 -0.0331  0.2662
 4834SOL    HW125964   1.387   1.350   7.364 -0.9627 -0.0493 -0.7041
 4834SOL    HW225965   1.249   1.411   7.356  0.3012 -0.3818 -0.4981
 4835SOL     OW25966   3.406   3.280   2.288 -0.2811 -0.7447 -0.6625
 4835SOL    HW125967   3.388   3.222   2.363 -0.4255 -0.0025 -0.1225
 4835SOL    HW225968   3.497   3.262   2.265 -0.6932 -1.8081 -1.4607
 4836SOL     OW25969   2.310   1.679  11.294 -0.3231  0.0720  0.7123
 4836SOL    HW125970   2.253   1.604  11.312  3.4517 -2.2443  3.0099
 4836SOL    HW225971   2.298   1.689  11.200  1.8769 -1.8335  0.2362
 4837SOL     OW25972   0.099   1.586   6.997  0.5007 -0.0545 -0.4491
 4837SOL    HW125973   0.043   1.524   7.045 -1.8102  1.9325 -0.5572
 4837SOL    HW225974   0.076   1.551   6.911  0.8601  1.0452 -0.9899
 4838SOL     OW25975   4.361   3.351  11.242 -0.0301 -0.0559  0.6386
 4838SOL    HW125976   4.303   3.389  11.308 -1.9145 -2.0880  0.1822
 4838SOL    HW225977   4.333   3.390  11.159  1.0092 -1.8074 -0.5358
 4839SOL     OW25978   2.917   0.562   8.165  0.3265 -0.2685  0.0146
 4839SOL    HW125979   2.889   0.521   8.247  1.0461  0.2970  0.5528
 4839SOL    HW225980   2.829   0.576   8.131 -0.7063 -0.5429  2.5551
 4840SOL     OW25981   2.678   2.006   2.060  0.0891  0.3840  0.4167
 4840SOL    HW125982   2.659   2.099   2.065  0.9982  0.4738  2.2022
 4840SOL    HW225983   2.750   1.996   1.998  0.3416 -1.2157  0.9572
 4841SOL     OW25984   3.209   3.429   6.611  0.1741 -0.1933  0.4140
 4841SOL    HW125985   3.238   3.360   6.552  0.0358 -0.8719  1.1394
 4841SOL    HW225986   3.268   3.409   6.684 -1.1569  2.1772  2.1173
 4842SOL     OW25987   2.286   4.682   5.927 -0.3855  0.8479  0.2380
 4842SOL    HW125988   2.236   0.033   5.893  1.1995  1.1435 -1.4300
 4842SOL    HW225989   2.223   4.610   5.927  1.4077 -0.7316 -1.1456
 4843SOL     OW25990   1.834   0.857  13.144 -0.3599  0.0386 -0.0018
 4843SOL    HW125991   1.820   0.923  13.212 -0.9855  0.3072 -0.3961
 4843SOL    HW225992   1.923   0.827  13.160 -0.0235  0.2360 -1.5841
 4844SOL     OW25993   1.843   0.725  12.546  0.5327 -0.2269 -0.0679
 4844SOL    HW125994   1.928   0.761  12.571 -0.0643  0.7057  0.6132
 4844SOL    HW225995   1.863   0.643  12.502 -1.3354 -0.5241 -0.3683
 4845SOL     OW25996   4.114   1.751   0.428  0.0805  0.1453  0.6710
 4845SOL    HW125997   4.041   1.739   0.367 -1.3460  0.5752  2.2797
 4845SOL    HW225998   4.157   1.831   0.398  0.1352 -0.5431 -1.1095
 4846SOL     OW25999   1.720   3.616   6.651 -0.5105  0.7741  0.6472
 4846SOL    HW126000   1.810   3.648   6.645 -0.0612 -0.2937  1.7629
 4846SOL    HW226001   1.668   3.696   6.655 -0.2245  1.0501 -1.0883
 4847SOL     OW26002   1.524   2.093   5.966  0.4657 -0.0257 -0.1592
 4847SOL    HW126003   1.565   2.122   6.047  0.7965 -1.3162  0.1370
 4847SOL    HW226004   1.579   2.017   5.948  1.7224  0.9031 -0.2153
 4848SOL     OW26005   4.011   0.890   3.367 -0.2828  0.1201 -0.0805
 4848SOL    HW126006   4.070   0.832   3.318 -2.3065 -3.4029  1.6157
 4848SOL    HW226007   4.080   0.949   3.398  0.5426 -0.2915 -1.1228
 4849SOL     OW26008   4.640   4.374   8.751 -0.5657 -0.0753  0.1891
 4849SOL    HW126009   0.002   4.376   8.795 -0.8455  1.6636  0.6494
 4849SOL    HW226010   4.668   4.322   8.675 -1.1740 -0.1029 -0.0191
 4850SOL     OW26011   4.467   3.743   6.548 -0.2629  0.4543 -0.1738
 4850SOL    HW126012   4.480   3.756   6.642  2.0736  0.6834 -0.5218
 4850SOL    HW226013   4.439   3.830   6.521 -0.0180  0.8554  0.8737
 4851SOL     OW26014   2.146   2.608   8.827 -0.3233  0.3088  0.3086
 4851SOL    HW126015   2.207   2.580   8.894  0.3597 -0.0929 -0.4811
 4851SOL    HW226016   2.074   2.544   8.831 -1.1333  1.0396 -2.4857
 4852SOL     OW26017   1.996   4.294   7.931  0.2428  0.0336 -0.9992
 4852SOL    HW126018   2.036   4.269   7.848  0.1464  0.2741 -1.1183
 4852SOL    HW226019   1.938   4.218   7.934  0.2662  0.0310 -0.5943
 4853SOL     OW26020   3.761   2.576   2.619 -0.4184  0.1251 -0.1976
 4853SOL    HW126021   3.703   2.505   2.648 -0.6159  0.1896 -0.4379
 4853SOL    HW226022   3.825   2.531   2.564 -0.1524  1.3567 -0.8830
 4854SOL     OW26023   0.797   3.446   7.048  0.0645 -0.5706  0.2933
 4854SOL    HW126024   0.835   3.512   7.106 -0.7532  1.3737 -1.3841
 4854SOL    HW226025   0.849   3.462   6.970 -1.5547 -1.6024 -0.9968
 4855SOL     OW26026   1.684   3.232  10.320 -0.0608  0.1926  0.4630
 4855SOL    HW126027   1.642   3.194  10.396 -0.6238 -0.2540 -0.0732
 4855SOL    HW226028   1.684   3.156  10.262 -0.5091  1.4175 -1.1632
 4856SOL     OW26029   2.744   2.011  17.104 -0.4038 -0.3677 -0.1654
 4856SOL    HW126030   2.733   2.064  17.183 -0.1234 -0.6352  0.0544
 4856SOL    HW226031   2.700   1.928  17.126 -0.5798 -0.3030 -0.2707
 4857SOL     OW26032   3.833   2.738  16.149  0.2062 -0.2125 -0.0605
 4857SOL    HW126033   3.911   2.766  16.100 -0.1369  0.3283 -0.2871
 4857SOL    HW226034   3.770   2.793  16.103  0.1915 -0.3835 -0.2460
 4858SOL     OW26035   3.037   3.943   9.599 -0.3682 -0.2322  0.3562
 4858SOL    HW126036   3.005   3.957   9.688  0.4159  0.9313  0.4575
 4858SOL    HW226037   2.959   3.907   9.556 -0.7939  0.4927  0.5169
 4859SOL     OW26038   0.624   2.333   7.139  0.1467 -0.5894 -0.0500
 4859SOL    HW126039   0.532   2.359   7.145 -0.1975 -2.0656  1.1989
 4859SOL    HW226040   0.623   2.292   7.226  2.9955  1.5997  0.9903
 4860SOL     OW26041   3.455   0.416   7.197  0.2661 -0.6209  0.8839
 4860SOL    HW126042   3.515   0.433   7.270 -0.3346 -1.3580  1.5388
 4860SOL    HW226043   3.491   0.489   7.147  2.9563 -1.5675  1.4129
 4861SOL     OW26044   1.121   2.205   3.666  0.1884  0.1618 -0.2885
 4861SOL    HW126045   1.201   2.221   3.617  0.2429 -1.0803 -0.6086
 4861SOL    HW226046   1.151   2.211   3.757  0.9651  0.9679 -0.6007
 4862SOL     OW26047   2.175   0.433   2.457  0.1028  0.1437  0.4062
 4862SOL    HW126048   2.216   0.351   2.484  0.1822 -0.4809 -1.6271
 4862SOL    HW226049   2.120   0.406   2.383  1.8917  0.8479 -1.1981
 4863SOL     OW26050   0.253   0.378   3.064  0.5810 -0.3719  0.0671
 4863SOL    HW126051   0.326   0.326   3.030  1.2966 -0.1123  1.2045
 4863SOL    HW226052   0.223   0.431   2.990  2.0195 -0.6218 -0.6866
 4864SOL     OW26053   0.889   1.487   4.610 -0.5287  0.0627  0.0637
 4864SOL    HW126054   0.921   1.400   4.632 -0.7506 -0.1270 -0.3596
 4864SOL    HW226055   0.879   1.480   4.515 -0.2076 -3.8228  0.3216
 4865SOL     OW26056   1.280   4.290   3.962 -0.8435 -0.3086  0.0540
 4865SOL    HW126057   1.355   4.250   3.919 -1.8595 -1.9506 -0.2306
 4865SOL    HW226058   1.319   4.321   4.044 -0.1813 -0.4113 -0.2227
 4866SOL     OW26059   0.648   4.441  14.507 -0.0364  0.4084 -0.2358
 4866SOL    HW126060   0.607   4.379  14.568  0.0903 -0.6688 -1.2262
 4866SOL    HW226061   0.568   4.466  14.460 -0.1934  0.7377  0.2174
 4867SOL     OW26062   1.876   3.877   8.409 -0.4670  0.0853  0.0575
 4867SOL    HW126063   1.903   3.933   8.481 -1.4677 -1.5126  1.6862
 4867SOL    HW226064   1.891   3.933   8.333  0.6424 -0.4147 -0.0841
 4868SOL     OW26065   1.424   0.285  13.440  0.3488 -0.3731 -0.3089
 4868SOL    HW126066   1.393   0.370  13.472  3.8518  1.2009 -0.9880
 4868SOL    HW226067   1.341   0.272  13.395 -0.1895 -1.4789  1.0144
 4869SOL     OW26068   1.323   0.156   6.636  0.3202  0.4543  0.6946
 4869SOL    HW126069   1.397   0.217   6.629 -0.9346  2.0344  0.9793
 4869SOL    HW226070   1.325   0.114   6.550 -1.2004  0.1235  0.8308
 4870SOL     OW26071   2.588   0.086   3.457  0.4122  0.4110 -0.6799
 4870SOL    HW126072   2.681   0.066   3.460  0.5861  1.9469  3.1405
 4870SOL    HW226073   2.563   0.007   3.505  0.0715  0.7741 -0.2669
 4871SOL     OW26074   2.007   0.189  13.675  0.6613 -0.6612 -0.4647
 4871SOL    HW126075   1.989   0.095  13.675  2.2769 -0.9506  3.3190
 4871SOL    HW226076   1.916   0.218  13.669  1.3417  1.4884 -0.6945
 4872SOL     OW26077   3.840   0.662  14.288 -0.5077 -0.1443 -0.0201
 4872SOL    HW126078   3.779   0.589  14.276 -0.4164 -0.3553  0.7660
 4872SOL    HW226079   3.795   0.735  14.246  0.2324  0.1207 -0.3568
 4873SOL     OW26080   0.765   0.327   4.515 -0.3708  0.0941 -0.1819
 4873SOL    HW126081   0.854   0.324   4.551 -0.3908  1.6443 -0.0212
 4873SOL    HW226082   0.774   0.418   4.488  2.1912 -0.4526 -1.0991
 4874SOL     OW26083   3.913   1.719  10.920  0.4250 -0.6840 -0.7294
 4874SOL    HW126084   3.829   1.751  10.953  2.1690  2.0830  1.0182
 4874SOL    HW226085   3.931   1.640  10.970 -4.1464  1.1667  3.8010
 4875SOL     OW26086   4.192   4.401  12.027  0.0483  0.5419  0.4367
 4875SOL    HW126087   4.268   4.368  11.978 -0.1520  0.8118 -0.0490
 4875SOL    HW226088   4.230   4.480  12.065  0.9046 -0.4485  1.6583
 4876SOL     OW26089   1.175   1.382   8.118 -0.3726  0.2288  0.2126
 4876SOL    HW126090   1.151   1.430   8.197  0.8839  0.9906  0.1290
 4876SOL    HW226091   1.230   1.441   8.066 -0.1232  0.3206  0.5855
 4877SOL     OW26092   0.833   4.656   7.147 -0.6912  1.2133 -0.4680
 4877SOL    HW126093   0.858   4.692   7.232  1.4124  2.1485 -1.4670
 4877SOL    HW226094   0.874   4.573   7.123 -0.2910  1.1608  0.4314
 4878SOL     OW26095   4.410   1.154   2.750  0.1054 -0.5726 -0.7339
 4878SOL    HW126096   4.327   1.151   2.796  0.1997 -0.7876 -0.5797
 4878SOL    HW226097   4.380   1.170   2.660  2.0879 -0.8601 -1.4566
 4879SOL     OW26098   2.325   1.876   6.719 -0.1071 -0.4092  0.1458
 4879SOL    HW126099   2.402   1.863   6.775  0.8935 -1.0472 -1.3623
 4879SOL    HW226100   2.354   1.947   6.662  1.9398 -0.2942  1.3095
 4880SOL     OW26101   4.272   1.985  12.595 -0.0601 -0.2964  0.2499
 4880SOL    HW126102   4.220   2.066  12.594  3.4641  2.0502  3.9883
 4880SOL    HW226103   4.217   1.941  12.530 -1.3176  0.7928  0.5621
 4881SOL     OW26104   0.218   0.124  11.819  0.1581  0.5934  0.2596
 4881SOL    HW126105   0.263   0.080  11.747  1.3926  1.2774  0.6018
 4881SOL    HW226106   0.226   0.063  11.892 -1.3797  1.8749  1.4766
 4882SOL     OW26107   0.222   1.383   5.823 -0.1645 -0.1281 -0.0086
 4882SOL    HW126108   0.236   1.360   5.731 -1.3646 -0.0810 -0.2031
 4882SOL    HW226109   0.152   1.324   5.849  0.2967 -0.3103  0.8414
 4883SOL     OW26110   3.582   4.394   1.802 -0.1963  0.2195 -0.4305
 4883SOL    HW126111   3.517   4.433   1.860  1.2735 -0.0900  1.4518
 4883SOL    HW226112   3.649   4.461   1.816 -1.3266  0.2902  4.8264
 4884SOL     OW26113   2.580   2.655  12.632 -0.4517 -0.1260 -0.8115
 4884SOL    HW126114   2.489   2.628  12.618 -0.4827 -0.2161 -0.4516
 4884SOL    HW226115   2.621   2.579  12.673 -0.4749  1.9756  3.1538
 4885SOL     OW26116   0.815   0.830   6.561  0.3852 -0.1347 -0.0777
 4885SOL    HW126117   0.877   0.874   6.502 -1.2442  1.4831 -0.5835
 4885SOL    HW226118   0.752   0.818   6.490  0.4186  0.5995 -0.2390
 4886SOL     OW26119   1.379   0.419   7.893  0.4970 -0.1288 -0.0257
 4886SOL    HW126120   1.473   0.403   7.877  0.8451 -0.6035  2.4775
 4886SOL    HW226121   1.375   0.505   7.852 -0.0566 -0.3926 -0.5362
 4887SOL     OW26122   0.354   1.968  15.558 -0.4535 -0.6111  0.5432
 4887SOL    HW126123   0.318   1.983  15.645 -0.3129  0.6976  0.3724
 4887SOL    HW226124   0.353   1.872  15.557 -0.0854 -0.5794 -2.6416
 4888SOL     OW26125   3.099   3.609   7.478 -0.0203  0.2114  0.0738
 4888SOL    HW126126   3.155   3.581   7.550  2.7210  2.5079 -1.2025
 4888SOL    HW226127   3.168   3.616   7.412 -0.6314 -2.2873 -0.8363
 4889SOL     OW26128   3.759   0.131   8.228  0.2968  0.4716  0.3195
 4889SOL    HW126129   3.695   0.114   8.297  1.4460  2.2128  1.7978
 4889SOL    HW226130   3.708   0.099   8.153  1.3519  0.8126 -0.5526
 4890SOL     OW26131   3.189   3.407   2.013 -0.2438 -0.3670  0.0320
 4890SOL    HW126132   3.172   3.328   2.063  1.0158  1.4829  3.3659
 4890SOL    HW226133   3.250   3.375   1.947 -0.3319  1.1882 -0.8229
 4891SOL     OW26134   2.114   3.888   4.022 -0.6492 -0.0712 -0.0594
 4891SOL    HW126135   2.171   3.964   4.027  0.8737 -1.4422  3.2359
 4891SOL    HW226136   2.114   3.860   4.114 -0.1764  0.8680  0.2210
 4892SOL     OW26137   2.538   2.601   2.428  0.0425 -0.1056  0.1511
 4892SOL    HW126138   2.618   2.550   2.415  0.7821  0.7015  1.5845
 4892SOL    HW226139   2.482   2.579   2.354 -1.4974  0.6995  1.0860
 4893SOL     OW26140   0.016   1.650   4.741  0.4203 -0.7089  0.4327
 4893SOL    HW126141   0.013   1.571   4.686  3.8009  0.3778 -1.3297
 4893SOL    HW226142   4.664   1.699   4.707  1.3236  2.2053  2.6468
 4894SOL     OW26143   4.463   0.425   7.292  0.4877 -0.1742 -0.0887
 4894SOL    HW126144   4.526   0.417   7.364  0.1308  2.5543  0.5430
 4894SOL    HW226145   4.394   0.472   7.339 -0.0497  1.8830 -2.9560
 4895SOL     OW26146   1.608   4.424   8.585  0.2079 -0.5480 -0.2588
 4895SOL    HW126147   1.578   4.378   8.664  2.0908 -2.7037 -0.8243
 4895SOL    HW226148   1.520   4.457   8.566 -0.9243 -2.1770  2.1158
 4896SOL     OW26149   4.610   4.144  12.384 -0.4989  0.0255 -0.1072
 4896SOL    HW126150   4.585   4.089  12.310  2.1376  0.0610 -1.0428
 4896SOL    HW226151   4.550   4.112  12.451 -0.6892  1.0987  0.2250
 4897SOL     OW26152   1.058   1.734   4.599  0.2391 -0.1982  0.5721
 4897SOL    HW126153   1.021   1.647   4.613 -1.4395  0.6179  1.2448
 4897SOL    HW226154   0.989   1.790   4.564  1.0954  1.6383  1.8193
 4898SOL     OW26155   2.185   2.364  16.296  1.0432  0.1585  0.4360
 4898SOL    HW126156   2.228   2.279  16.284 -0.6713 -0.8058  1.0437
 4898SOL    HW226157   2.255   2.428  16.286  2.3428 -1.2778  0.3757
 4899SOL     OW26158   4.556   0.992  14.662  0.4931  0.0395  0.0248
 4899SOL    HW126159   4.555   0.900  14.633 -2.3608 -0.4931  1.7973
 4899SOL    HW226160   4.464   1.013  14.652  1.2077  1.4378 -3.6569
 4900SOL     OW26161   1.500   0.014   3.663  0.1096 -0.0613  0.3983
 4900SOL    HW126162   1.521   4.661   3.718 -2.1435 -0.9525  0.0259
 4900SOL    HW226163   1.432   4.709   3.601  0.6925  1.6534 -1.0254
 4901SOL     OW26164   1.783   1.155   2.595  0.1320 -0.0865 -0.0286
 4901SOL    HW126165   1.879   1.162   2.598  0.2394 -0.6802 -1.9060
 4901SOL    HW226166   1.777   1.059   2.590  1.5908 -0.2031  0.3088
 4902SOL     OW26167   2.628   0.328   6.166 -0.3748 -0.1501 -0.4805
 4902SOL    HW126168   2.570   0.253   6.150  0.8913 -1.0203 -1.0343
 4902SOL    HW226169   2.656   0.351   6.078  1.0219 -1.5139 -0.3918
 4903SOL     OW26170   3.330   0.513   8.782 -0.2000  0.1781  0.1441
 4903SOL    HW126171   3.373   0.544   8.702  0.1217  2.8053  1.3209
 4903SOL    HW226172   3.272   0.445   8.748 -0.4068  1.0788 -1.3418
 4904SOL     OW26173   1.266   4.472   6.068  0.3191 -0.3110 -0.1892
 4904SOL    HW126174   1.172   4.452   6.064  0.5918 -1.3278 -1.6467
 4904SOL    HW226175   1.256   4.566   6.087 -2.1553 -0.1485 -2.2564
 4905SOL     OW26176   0.971   0.610   3.891  0.4602  0.8488  0.9097
 4905SOL    HW126177   0.927   0.664   3.957  1.7177 -0.6181  2.9333
 4905SOL    HW226178   0.941   0.643   3.806 -0.5003  0.0896  0.9631
 4906SOL     OW26179   1.070   3.025   7.037 -0.0052 -0.4276 -0.4583
 4906SOL    HW126180   1.081   3.067   7.121  0.8035 -0.0183 -0.7732
 4906SOL    HW226181   1.009   2.956   7.064 -0.1273 -0.3285 -0.4786
 4907SOL     OW26182   4.470   0.523   5.934  0.0861  0.0836  0.1298
 4907SOL    HW126183   4.423   0.451   5.893 -0.6395  0.5937  0.0637
 4907SOL    HW226184   4.401   0.568   5.984 -1.1745 -1.3653 -0.3140
 4908SOL     OW26185   1.667   0.367   6.270  0.0286  0.3183 -0.5337
 4908SOL    HW126186   1.747   0.321   6.295  0.4088  0.5190 -1.3826
 4908SOL    HW226187   1.626   0.389   6.353  2.1508 -1.6166  1.0100
 4909SOL     OW26188   2.165   2.576   7.221  0.2428 -0.6517 -0.5401
 4909SOL    HW126189   2.145   2.530   7.140  0.5344 -0.2407 -0.8433
 4909SOL    HW226190   2.198   2.517   7.289 -0.6592  1.6505  1.9157
 4910SOL     OW26191   1.512   2.395  12.787  0.4209 -0.4381  0.1574
 4910SOL    HW126192   1.452   2.469  12.797  0.2224 -0.0182 -3.8472
 4910SOL    HW226193   1.598   2.434  12.773  0.2834 -0.6412 -1.2570
 4911SOL     OW26194   1.645   3.344  15.702 -0.6409 -0.3960 -0.0234
 4911SOL    HW126195   1.579   3.370  15.766 -0.8734 -1.2205  0.0697
 4911SOL    HW226196   1.726   3.337  15.753 -1.2577  0.2902  1.0419
 4912SOL     OW26197   3.891   0.893   4.136  0.1429  0.2102  0.1571
 4912SOL    HW126198   3.824   0.858   4.076  0.3908 -1.1462  0.6759
 4912SOL    HW226199   3.933   0.945   4.067 -0.3492 -1.5543 -1.4897
 4913SOL     OW26200   1.017   0.435   4.876 -0.0697 -0.3128 -0.2621
 4913SOL    HW126201   0.930   0.471   4.860 -0.5886 -1.3770  0.1859
 4913SOL    HW226202   1.060   0.502   4.929  0.1091  0.0841 -0.9064
 4914SOL     OW26203   0.956   1.906  10.853  0.0455 -0.8842 -0.0063
 4914SOL    HW126204   1.018   1.950  10.911 -3.3911  0.8864  2.3492
 4914SOL    HW226205   0.987   1.815  10.849  1.5986 -0.3751  0.4252
 4915SOL     OW26206   0.893   1.678   7.817 -0.5518 -0.2003 -0.1337
 4915SOL    HW126207   0.870   1.639   7.733  0.6324  1.7866 -1.3758
 4915SOL    HW226208   0.820   1.665   7.878  0.8842  0.0510  1.6442
 4916SOL     OW26209   1.440   3.825   7.035 -0.1318  0.1365  0.4115
 4916SOL    HW126210   1.363   3.769   7.036 -1.1600  1.5058 -3.5361
 4916SOL    HW226211   1.402   3.903   6.995  2.1281 -0.9877 -3.9320
 4917SOL     OW26212   2.011   2.549   4.567  0.3895  0.1389 -0.2852
 4917SOL    HW126213   2.049   2.473   4.611  1.0244  1.1085  0.8736
 4917SOL    HW226214   2.088   2.603   4.586 -1.9114  1.9746  3.7599
 4918SOL     OW26215   4.608   3.757   6.812  0.0236 -0.0043 -0.2729
 4918SOL    HW126216   4.670   3.807   6.759  3.3143 -2.5375  1.2373
 4918SOL    HW226217   4.674   3.724   6.873  0.1143  0.6672 -0.0099
 4919SOL     OW26218   0.775   1.143   5.281 -0.4113  0.5436  0.1905
 4919SOL    HW126219   0.788   1.053   5.309 -0.4634  0.8070  1.0571
 4919SOL    HW226220   0.728   1.123   5.201 -0.3608  1.1273  0.0109
 4920SOL     OW26221   4.178   2.870   8.439  0.2425 -0.2942 -0.3003
 4920SOL    HW126222   4.188   2.912   8.353 -0.7325  1.1760  0.3127
 4920SOL    HW226223   4.200   2.936   8.504  0.2846 -1.5102  0.9104
 4921SOL     OW26224   2.003   3.362   5.749  0.2644  0.0300 -0.3607
 4921SOL    HW126225   2.002   3.377   5.843  2.0778  0.4408 -0.4038
 4921SOL    HW226226   1.967   3.274   5.743  1.4121 -0.4079 -0.8068
 4922SOL     OW26227   3.899   2.280   6.637  0.1709  0.0279 -0.6104
 4922SOL    HW126228   3.904   2.229   6.556  0.3852  0.9318 -1.1642
 4922SOL    HW226229   3.965   2.248   6.698 -0.0464  1.2440  0.2623
 4923SOL     OW26230   0.657   1.975  14.324 -0.1309 -0.1690 -0.2820
 4923SOL    HW126231   0.647   1.967  14.419 -1.7207  0.2344 -0.4137
 4923SOL    HW226232   0.747   2.008  14.328 -0.5398  0.9757 -0.6561
 4924SOL     OW26233   0.235   0.611   5.065 -0.0786 -0.2113 -0.1219
 4924SOL    HW126234   0.266   0.535   5.015  2.0077 -0.5008  1.6072
 4924SOL    HW226235   0.188   0.575   5.140 -1.4628 -2.0279 -1.8610
 4925SOL     OW26236   1.309   4.204   4.572  0.1539 -0.5823  0.2236
 4925SOL    HW126237   1.277   4.198   4.482 -2.2268  2.6653  0.8416
 4925SOL    HW226238   1.293   4.115   4.605 -2.1989 -0.3709 -0.2965
 4926SOL     OW26239   2.769   3.036   3.548 -0.0633  0.1897  0.3887
 4926SOL    HW126240   2.805   3.032   3.636  0.2252  0.7992  0.3013
 4926SOL    HW226241   2.831   3.086   3.496  0.5948  1.3116  2.2430
 4927SOL     OW26242   4.103   3.539  17.588 -0.5078 -0.5462  0.1211
 4927SOL    HW126243   4.156   3.479  17.535 -1.2645  0.3012 -1.6122
 4927SOL    HW226244   4.074   3.591  17.513  0.7964  1.0936  0.7418
 4928SOL     OW26245   3.765   0.053   7.052  0.3755  0.0296  0.1743
 4928SOL    HW126246   3.686   4.722   7.055 -1.1426  2.1886 -0.2391
 4928SOL    HW226247   3.838   4.715   7.045  0.0430 -0.3582  0.0524
 4929SOL     OW26248   2.309   2.293   1.597 -0.0447  0.7947  0.2783
 4929SOL    HW126249   2.368   2.364   1.571  0.9780 -1.2771 -2.9759
 4929SOL    HW226250   2.246   2.345   1.646 -0.8151  0.5852 -0.5082
 4930SOL     OW26251   2.490   0.409   1.544 -0.3419  0.4540  0.3270
 4930SOL    HW126252   2.535   0.481   1.499 -0.6273  1.4890  1.7063
 4930SOL    HW226253   2.486   0.439   1.634 -1.3352 -1.5463  0.9456
 4931SOL     OW26254   1.336   0.116   2.317 -0.1651  0.6277  0.1498
 4931SOL    HW126255   1.249   0.088   2.344 -0.3787  0.6246 -0.5465
 4931SOL    HW226256   1.312   0.168   2.241 -1.8700 -1.7135 -0.8987
 4932SOL     OW26257   3.919   2.849   8.226  0.1196 -0.0430 -0.5892
 4932SOL    HW126258   3.839   2.882   8.185 -0.7105 -0.0299  1.0235
 4932SOL    HW226259   3.992   2.903   8.196 -1.5795  1.3648 -2.2307
 4933SOL     OW26260   4.054   2.535   7.306 -0.1258  0.0879  0.1188
 4933SOL    HW126261   3.985   2.471   7.324 -1.6149  1.7083  0.1995
 4933SOL    HW226262   4.084   2.549   7.396  0.8203 -0.6706 -0.0813
 4934SOL     OW26263   2.191   3.925   3.759  0.0001  0.1456  0.2161
 4934SOL    HW126264   2.151   3.875   3.830 -0.5830 -0.2297 -0.3779
 4934SOL    HW226265   2.233   3.997   3.806  0.0289  0.6556 -0.5973
 4935SOL     OW26266   4.239   2.842  17.502  0.1413  0.3712 -0.3073
 4935SOL    HW126267   4.302   2.885  17.560  0.0528  0.4460 -0.2658
 4935SOL    HW226268   4.277   2.833  17.415 -0.4345 -0.3981 -0.4766
 4936SOL     OW26269   2.190   3.382   0.630  0.1250 -0.2447  0.3485
 4936SOL    HW126270   2.209   3.298   0.588  0.2606 -1.0344  1.9994
 4936SOL    HW226271   2.266   3.398   0.686  1.2479 -0.2500 -1.1699
 4937SOL     OW26272   0.175   2.802   3.196  0.7194 -0.5302  0.1915
 4937SOL    HW126273   0.231   2.726   3.182  3.0873  0.7506  2.6713
 4937SOL    HW226274   0.227   2.878   3.169  2.4397 -1.9009 -0.3454
 4938SOL     OW26275   4.315   2.076  16.739  0.1096  0.3351  0.1504
 4938SOL    HW126276   4.376   2.104  16.807  2.0347 -2.1255 -0.5609
 4938SOL    HW226277   4.259   2.154  16.741  0.4126  0.5025  1.9062
 4939SOL     OW26278   2.284   3.518   7.929 -0.1852 -0.0393  0.2938
 4939SOL    HW126279   2.282   3.582   8.000 -0.6578 -1.4268  1.5450
 4939SOL    HW226280   2.195   3.529   7.894 -0.5535 -1.3492  0.8080
 4940SOL     OW26281   0.196   1.266   6.726 -0.4304  0.1926  0.0385
 4940SOL    HW126282   0.222   1.206   6.795  0.3515  0.2904 -0.1798
 4940SOL    HW226283   0.104   1.274   6.751 -0.9385  0.9228 -2.0737
 4941SOL     OW26284   2.697   0.079  15.539 -0.4800 -0.3104  0.4154
 4941SOL    HW126285   2.746   0.159  15.520 -1.8438 -0.2370 -2.8130
 4941SOL    HW226286   2.639   0.080  15.463 -0.3365  0.3513  0.3164
 4942SOL     OW26287   1.409   3.843   6.376  0.3646  0.9167  0.1821
 4942SOL    HW126288   1.341   3.901   6.341 -0.8330 -1.7745 -1.9675
 4942SOL    HW226289   1.471   3.856   6.305 -0.4592  2.1906 -0.3156
 4943SOL     OW26290   0.595   2.497   8.061  0.1661 -0.3104  0.1565
 4943SOL    HW126291   0.514   2.492   8.010  0.5416 -1.7058 -0.3140
 4943SOL    HW226292   0.635   2.573   8.020  0.9727 -0.2710  1.0226
 4944SOL     OW26293   3.253   1.894  11.761 -0.5978 -0.2656  0.4906
 4944SOL    HW126294   3.251   1.807  11.801 -1.0163  0.5794  2.3436
 4944SOL    HW226295   3.326   1.933  11.808  0.0838  0.2563 -1.0252
 4945SOL     OW26296   1.700   1.146   7.759 -0.6799 -0.1848 -0.2556
 4945SOL    HW126297   1.678   1.100   7.840 -1.4935  0.4692 -0.1023
 4945SOL    HW226298   1.790   1.171   7.779 -0.9024  0.4675 -0.0705
 4946SOL     OW26299   0.135   3.795   6.363  0.1153 -0.1240  0.1686
 4946SOL    HW126300   0.070   3.729   6.385  1.4241 -0.8043  1.9928
 4946SOL    HW226301   0.213   3.740   6.367 -0.1002 -0.3714  0.9469
 4947SOL     OW26302   0.886   4.693  15.962 -0.1737  0.1162 -0.0194
 4947SOL    HW126303   0.869   4.600  15.977 -0.4947  0.2826  0.6671
 4947SOL    HW226304   0.892   4.687  15.867 -2.9569 -0.0442 -0.1917
 4948SOL     OW26305   1.149   1.833   5.210 -0.2885  0.6282  0.3256
 4948SOL    HW126306   1.130   1.770   5.141 -0.1145 -0.9272  1.6977
 4948SOL    HW226307   1.101   1.781   5.274 -0.2639 -0.3905 -0.4880
 4949SOL     OW26308   2.606   2.943   9.682 -0.2067 -0.3011 -0.1214
 4949SOL    HW126309   2.631   3.023   9.728 -1.8364  0.4833 -0.5837
 4949SOL    HW226310   2.589   2.979   9.595 -2.5985 -1.0451  0.0481
 4950SOL     OW26311   4.084   4.659   4.502 -0.0294  0.1631 -0.0384
 4950SOL    HW126312   4.152   4.594   4.480 -0.3469  0.2533 -1.3094
 4950SOL    HW226313   4.114   0.017   4.462 -0.0647  0.7285  1.0812
 4951SOL     OW26314   1.271   4.282   0.958 -0.6241 -0.3705  0.1083
 4951SOL    HW126315   1.281   4.377   0.954  0.5014 -0.5225 -0.5490
 4951SOL    HW226316   1.278   4.268   0.864  2.2427 -2.9302  0.7026
 4952SOL     OW26317   2.969   3.921   6.905 -0.0849 -0.3938 -0.2936
 4952SOL    HW126318   2.980   3.826   6.909 -1.3876 -0.5952 -1.3758
 4952SOL    HW226319   2.875   3.926   6.887 -0.0103  1.4106 -0.1824
 4953SOL     OW26320   2.823   3.763   6.469  0.3996 -0.0485  0.4971
 4953SOL    HW126321   2.787   3.695   6.412  0.2886  0.9430 -0.6347
 4953SOL    HW226322   2.917   3.746   6.464  0.4416  0.2958  0.0653
 4954SOL     OW26323   3.333   4.103  10.482 -0.4158  0.0960 -0.4287
 4954SOL    HW126324   3.299   4.019  10.513  0.1270  0.3199  0.7461
 4954SOL    HW226325   3.423   4.084  10.454 -0.1095 -0.1003  0.7188
 4955SOL     OW26326   4.690   1.573   4.468  0.3522  0.1383 -0.1682
 4955SOL    HW126327   4.722   1.663   4.476 -0.4921  0.3770  0.5598
 4955SOL    HW226328   0.015   1.540   4.393 -1.1224 -1.2812 -0.4770
 4956SOL     OW26329   3.996   2.308   8.265 -0.4492  0.0278  0.6346
 4956SOL    HW126330   4.074   2.299   8.319  0.3296 -0.9030 -0.6432
 4956SOL    HW226331   3.985   2.402   8.251  0.8405  0.0671 -0.0350
 4957SOL     OW26332   4.292   1.689   0.955  0.2351 -0.5365  0.2252
 4957SOL    HW126333   4.207   1.677   0.913 -0.7356 -1.1814  2.3472
 4957SOL    HW226334   4.296   1.785   0.957  0.3790 -0.5690  1.3133
 4958SOL     OW26335   4.383   1.168   5.354 -0.2823  0.4144 -0.3425
 4958SOL    HW126336   4.461   1.116   5.333 -0.2330  0.0337  0.8076
 4958SOL    HW226337   4.418   1.243   5.401 -3.9939  2.0821 -0.3088
 4959SOL     OW26338   4.198   3.743  10.990  0.3023 -0.4295 -0.2665
 4959SOL    HW126339   4.172   3.816  11.045  2.5082  0.8974 -0.9906
 4959SOL    HW226340   4.189   3.668  11.049  1.2310 -1.2687 -1.1935
 4960SOL     OW26341   4.279   1.403   3.871 -0.2195  0.0586  0.2142
 4960SOL    HW126342   4.272   1.407   3.776 -2.7521 -3.0095  0.2991
 4960SOL    HW226343   4.204   1.457   3.897  0.0141  0.8988 -0.8207
 4961SOL     OW26344   1.482   0.264   1.015  0.4499 -0.2552  0.7081
 4961SOL    HW126345   1.465   0.358   1.019  1.5943 -0.1112  2.1667
 4961SOL    HW226346   1.524   0.250   0.930 -1.3897 -2.1828  0.1244
 4962SOL     OW26347   1.477   1.911  12.839  0.1306  0.1691  0.4343
 4962SOL    HW126348   1.409   1.939  12.778 -0.3150 -0.0668  0.8293
 4962SOL    HW226349   1.482   1.988  12.895 -1.0655  2.1810 -2.2104
 4963SOL     OW26350   2.940   0.127   7.933  0.0140  0.3556  0.2823
 4963SOL    HW126351   3.034   0.122   7.919  0.1815  1.0161  1.1394
 4963SOL    HW226352   2.900   0.148   7.849  0.6013 -1.0993 -0.3547
 4964SOL     OW26353   0.391   4.539   0.276 -0.0218  0.4075  0.3451
 4964SOL    HW126354   0.343   4.469   0.321 -1.4926  0.0725 -1.7646
 4964SOL    HW226355   0.470   4.496   0.243  0.4660  1.1656  0.5136
 4965SOL     OW26356   3.790   4.552   2.110  0.5388  0.4169 -0.6976
 4965SOL    HW126357   3.823   4.465   2.085  1.6750  0.0672  1.9699
 4965SOL    HW226358   3.750   4.582   2.029 -1.2334  1.2329  0.4836
 4966SOL     OW26359   4.285   1.094  11.001  0.3484 -0.4104  0.4248
 4966SOL    HW126360   4.352   1.149  10.962 -2.3801  1.0094 -2.2457
 4966SOL    HW226361   4.273   1.035  10.926 -1.2893 -0.6401  0.8607
 4967SOL     OW26362   3.443   1.050   8.066  0.4707  0.7022  0.1713
 4967SOL    HW126363   3.411   0.960   8.072  1.2610  0.2892 -1.8718
 4967SOL    HW226364   3.533   1.042   8.034 -0.0062 -0.8182 -0.7879
 4968SOL     OW26365   2.147   1.308   2.012  0.5309 -0.2206  0.3927
 4968SOL    HW126366   2.061   1.265   2.014 -1.0035  2.7662 -1.6021
 4968SOL    HW226367   2.190   1.268   1.936 -0.7060  0.5403 -0.7186
 4969SOL     OW26368   4.585   3.230   7.076  0.1055 -0.4239 -0.1298
 4969SOL    HW126369   4.537   3.288   7.135 -0.3502  0.1973 -1.0993
 4969SOL    HW226370   4.569   3.153   7.130  0.8699  0.1780  0.9493
 4970SOL     OW26371   0.584   1.932   1.899  0.4967 -0.1308 -0.3294
 4970SOL    HW126372   0.644   2.005   1.885 -2.3005  1.7229 -2.4442
 4970SOL    HW226373   0.553   1.912   1.811 -2.1018 -1.0845  0.8067
 4971SOL     OW26374   2.602   2.060   5.514 -0.2909  0.6477 -0.2295
 4971SOL    HW126375   2.573   2.128   5.575  0.6077  1.4975 -0.7519
 4971SOL    HW226376   2.518   2.044   5.471 -0.1247 -1.1980  0.1086
 4972SOL     OW26377   1.929   2.214   8.182  0.0347  0.7014 -0.1450
 4972SOL    HW126378   1.939   2.267   8.261 -0.5199 -2.1113  1.8183
 4972SOL    HW226379   1.842   2.247   8.161  0.2563  0.8175 -0.8849
 4973SOL     OW26380   2.104   4.488   6.253  0.0917  0.1030 -0.3451
 4973SOL    HW126381   2.093   4.470   6.347 -1.3495 -0.4891 -0.6204
 4973SOL    HW226382   2.077   4.402   6.221  0.2273  0.7301 -2.1304
 4974SOL     OW26383   2.560   1.627   0.358 -0.0164  0.7534 -0.5399
 4974SOL    HW126384   2.537   1.641   0.266 -1.4433  0.3941 -0.2437
 4974SOL    HW226385   2.540   1.708   0.406 -0.3328 -0.5266  1.4761
 4975SOL     OW26386   3.731   0.932   9.315 -0.3202  0.2330 -0.0125
 4975SOL    HW126387   3.731   0.955   9.408 -0.3626 -2.1765  0.5730
 4975SOL    HW226388   3.717   0.838   9.317  0.1684  0.2129  2.1493
 4976SOL     OW26389   3.974   1.914  12.554 -0.1517 -0.4939  0.5969
 4976SOL    HW126390   3.972   1.819  12.568  2.8004 -0.4036  1.5419
 4976SOL    HW226391   4.017   1.904  12.469 -1.4218  1.9738 -0.3312
 4977SOL     OW26392   4.224   4.042   8.853 -0.1969 -0.0279 -0.2936
 4977SOL    HW126393   4.154   4.001   8.903  0.4958 -2.8073 -1.5947
 4977SOL    HW226394   4.233   4.128   8.893  0.0838 -1.0835  1.8815
 4978SOL     OW26395   2.899   0.939   2.304  0.5224  0.2194  0.3877
 4978SOL    HW126396   2.873   0.879   2.374  0.2853 -2.5662 -2.1068
 4978SOL    HW226397   2.979   0.979   2.339 -0.1350  3.5589 -1.9679
 4979SOL     OW26398   1.983   4.546  17.679  0.3925  0.3406  0.1008
 4979SOL    HW126399   2.048   4.517   0.049 -1.1101  1.1112  1.9955
 4979SOL    HW226400   1.920   4.474  17.682 -1.4520  1.9762  1.2157
 4980SOL     OW26401   4.137   4.252   0.759 -0.1941  0.1622 -0.2155
 4980SOL    HW126402   4.112   4.271   0.669 -0.2537 -0.7457 -0.3932
 4980SOL    HW226403   4.223   4.211   0.746 -0.3989 -0.5839  0.7832
 4981SOL     OW26404   1.139   0.535  17.103  0.2492  0.2148 -0.3564
 4981SOL    HW126405   1.203   0.471  17.071  0.4458 -0.5861  1.6326
 4981SOL    HW226406   1.066   0.477  17.122  2.0544 -2.0554 -0.3382
 4982SOL     OW26407   1.613   3.219   7.156 -0.1042  0.8007  0.5638
 4982SOL    HW126408   1.613   3.169   7.239  0.8989  0.6658  0.4823
 4982SOL    HW226409   1.520   3.212   7.136  0.4954 -2.2813 -1.1352
 4983SOL     OW26410   4.659   3.627   6.399  0.3816 -0.4112  0.4390
 4983SOL    HW126411   4.645   3.553   6.459  0.6407 -2.4335 -1.9640
 4983SOL    HW226412   4.597   3.689   6.437 -0.7973 -0.1063 -2.0448
 4984SOL     OW26413   0.489   2.995   1.587  0.1975 -0.0681 -0.0402
 4984SOL    HW126414   0.421   2.965   1.526  0.0799  0.7445 -0.3105
 4984SOL    HW226415   0.507   2.906   1.617 -3.7481 -1.1378 -0.8061
 4985SOL     OW26416   1.706   3.124   1.839 -0.4918  0.0495  0.3210
 4985SOL    HW126417   1.734   3.081   1.920 -1.2680 -1.9269 -0.4708
 4985SOL    HW226418   1.711   3.051   1.778 -0.3630 -1.1830  1.7899
 4986SOL     OW26419   1.236   3.308   3.285 -0.2264  0.6489 -0.2584
 4986SOL    HW126420   1.298   3.262   3.341 -1.4128  1.1721  1.4903
 4986SOL    HW226421   1.258   3.262   3.205  0.3758 -0.3549  0.4907
 4987SOL     OW26422   3.158   0.677   8.244 -0.1354  0.0888  0.4370
 4987SOL    HW126423   3.134   0.761   8.283  0.2570  0.2845  0.2580
 4987SOL    HW226424   3.074   0.641   8.216 -0.7637  1.8882 -0.0052
 4988SOL     OW26425   0.097   0.531   8.336 -0.3859  0.4952 -0.0192
 4988SOL    HW126426   0.122   0.544   8.245 -1.1523  1.0305 -0.1506
 4988SOL    HW226427   0.002   0.523   8.330 -0.4896  1.0673  0.9732
 4989SOL     OW26428   4.008   0.596  11.640 -0.2774  0.1393 -0.1529
 4989SOL    HW126429   3.927   0.556  11.610 -0.6384  0.2394  0.7120
 4989SOL    HW226430   4.037   0.519  11.689 -2.5672  0.3500  1.5035
 4990SOL     OW26431   1.809   4.246   6.212  0.6321  0.7369 -0.0103
 4990SOL    HW126432   1.791   4.295   6.292  1.1287 -0.8908  1.0978
 4990SOL    HW226433   1.724   4.203   6.212  0.9802  0.0414  0.7276
 4991SOL     OW26434   3.037   4.302  11.796  0.0156 -0.1499  0.2798
 4991SOL    HW126435   3.104   4.366  11.822  0.0461 -0.3284  0.6320
 4991SOL    HW226436   3.004   4.286  11.884 -0.5150 -2.1431 -0.2913
 4992SOL     OW26437   1.032   3.612   3.453  0.4519  0.5444 -0.0051
 4992SOL    HW126438   1.022   3.701   3.487 -0.6252  0.5222 -0.2548
 4992SOL    HW226439   1.126   3.603   3.437  0.5022  1.0330  0.0121
 4993SOL     OW26440   0.288   2.367   5.354 -0.0074 -0.5165  0.3006
 4993SOL    HW126441   0.332   2.441   5.397 -1.8259  0.5750  0.2725
 4993SOL    HW226442   0.347   2.295   5.377  3.1613  1.7051 -0.7411
 4994SOL     OW26443   3.093   0.715   0.589  0.2998  0.4798 -0.3026
 4994SOL    HW126444   3.135   0.705   0.504  0.6436  2.7114 -0.4104
 4994SOL    HW226445   3.135   0.794   0.624 -0.3782  1.4432 -1.6367
 4995SOL     OW26446   1.622   0.574   6.493  0.1239  0.4919  0.1289
 4995SOL    HW126447   1.558   0.638   6.525 -0.8594  0.1079 -1.0454
 4995SOL    HW226448   1.636   0.625   6.414 -1.6612 -0.3930 -0.7796
 4996SOL     OW26449   3.285   3.894   5.285 -0.2255  0.5940 -0.2111
 4996SOL    HW126450   3.361   3.853   5.243 -0.3039  0.5194 -0.2802
 4996SOL    HW226451   3.296   3.988   5.271  2.9802  0.4039  1.0053
 4997SOL     OW26452   3.959   3.843   2.860 -0.3999  0.4577 -0.2054
 4997SOL    HW126453   3.910   3.762   2.874  1.1138 -0.5741 -0.8713
 4997SOL    HW226454   3.904   3.906   2.906  1.6082  1.3875  0.9295
 4998SOL     OW26455   2.976   3.899   5.794  0.0788 -0.0497 -0.2552
 4998SOL    HW126456   3.010   3.984   5.823 -1.0249  1.1310 -2.4858
 4998SOL    HW226457   2.891   3.895   5.837 -1.2140 -0.0436 -2.8215
 4999SOL     OW26458   0.930   3.218  16.691  0.1867 -0.3081  0.1300
 4999SOL    HW126459   0.950   3.277  16.764 -1.1333 -0.5410  0.6857
 4999SOL    HW226460   1.017   3.185  16.669  0.0368 -0.2857 -0.5065
 5000SOL     OW26461   2.301   0.801   2.260 -0.3283 -0.1178 -0.1343
 5000SOL    HW126462   2.322   0.892   2.240  0.5309 -0.5562 -1.2499
 5000SOL    HW226463   2.206   0.813   2.253 -0.2240  0.6356 -0.2863
 5001SOL     OW26464   0.298   1.804  13.589  0.0075  0.2739  0.9301
 5001SOL    HW126465   0.306   1.733  13.653  1.2112  1.0015  1.5782
 5001SOL    HW226466   0.202   1.808  13.591  0.0674  2.8347 -1.9626
 5002SOL     OW26467   1.147   3.363   2.036 -0.5891 -0.3254  0.2020
 5002SOL    HW126468   1.067   3.344   1.986 -1.0128  0.1656  0.6894
 5002SOL    HW226469   1.180   3.439   1.990 -1.7466  0.4877  0.7188
 5003SOL     OW26470   1.847   3.945   7.454 -0.0191  0.9053 -0.5631
 5003SOL    HW126471   1.919   4.007   7.445  0.0059  0.9903  0.2092
 5003SOL    HW226472   1.838   3.917   7.363 -0.0380 -2.5850  0.4795
 5004SOL     OW26473   2.737   3.015  12.688 -0.0118  0.5116  0.0838
 5004SOL    HW126474   2.745   2.954  12.761 -1.8214 -0.6743 -0.7103
 5004SOL    HW226475   2.801   3.086  12.700  0.3746  0.2178 -0.2471
 5005SOL     OW26476   0.091   4.693  15.371 -0.2733  0.5591 -0.0402
 5005SOL    HW126477   0.135   0.054  15.354  3.1114 -1.2726 -0.3629
 5005SOL    HW226478   0.119   4.641  15.296 -0.7251 -1.1873  0.9882
 5006SOL     OW26479   3.589   1.851   8.613  0.1013 -0.3081  0.6886
 5006SOL    HW126480   3.500   1.868   8.583 -0.6772 -1.2161  2.4639
 5006SOL    HW226481   3.598   1.930   8.666  0.9090 -0.7673  1.2300
 5007SOL     OW26482   3.976   4.198   8.765 -0.2501  0.6521  0.4509
 5007SOL    HW126483   3.963   4.245   8.682  2.0372 -0.5537 -0.6072
 5007SOL    HW226484   3.905   4.134   8.766 -0.7525  1.2170  0.7845
 5008SOL     OW26485   2.203   1.383   8.954 -0.3957  0.2309 -0.3649
 5008SOL    HW126486   2.117   1.373   8.995 -0.2270  1.0082  0.1784
 5008SOL    HW226487   2.259   1.337   9.016 -0.8024  1.2671  0.7830
 5009SOL     OW26488   2.458   0.723   4.326 -0.0537 -0.1548 -0.4301
 5009SOL    HW126489   2.434   0.699   4.237  0.7645 -2.4836 -0.0061
 5009SOL    HW226490   2.525   0.790   4.313  1.7734 -1.7391  0.9664
 5010SOL     OW26491   0.819   2.198  17.233 -0.1299  0.4130 -0.3382
 5010SOL    HW126492   0.853   2.284  17.210  1.4812 -0.4905 -1.3002
 5010SOL    HW226493   0.815   2.159  17.146  0.0347  1.4800 -0.8230
 5011SOL     OW26494   4.534   4.197   1.095  0.0638 -0.2396 -0.2800
 5011SOL    HW126495   4.597   4.149   1.042 -1.2318  0.7575 -2.7567
 5011SOL    HW226496   4.568   4.192   1.184  0.8745  0.3955 -0.5462
 5012SOL     OW26497   2.585   0.528   4.560  0.2041  0.0241 -0.1734
 5012SOL    HW126498   2.673   0.496   4.537 -0.3745 -0.6888 -1.4339
 5012SOL    HW226499   2.589   0.621   4.537 -1.2840 -0.0367 -0.6928
 5013SOL     OW26500   1.860   1.618  15.137  0.7099  0.1467 -0.8864
 5013SOL    HW126501   1.882   1.606  15.045 -0.3981 -2.6493 -0.8059
 5013SOL    HW226502   1.837   1.710  15.146  0.4231 -0.0765  0.7975
 5014SOL     OW26503   0.722   4.473   3.828  0.5132  0.2107  0.1131
 5014SOL    HW126504   0.797   4.417   3.849  0.3207 -0.1565 -0.1593
 5014SOL    HW226505   0.672   4.486   3.909 -0.9511  0.2712 -0.7843
 5015SOL     OW26506   2.294   2.282   4.699 -0.2277  0.4824 -0.5208
 5015SOL    HW126507   2.238   2.266   4.623  1.8507 -1.6437 -1.5988
 5015SOL    HW226508   2.348   2.203   4.697 -1.8813 -0.6359 -0.5604
 5016SOL     OW26509   3.376   3.808   1.437 -0.4892 -0.2631 -0.2355
 5016SOL    HW126510   3.418   3.859   1.368 -0.4497 -2.5131 -1.8997
 5016SOL    HW226511   3.429   3.809   1.516 -1.9896  1.6351  0.7359
 5017SOL     OW26512   4.195   1.418   2.971 -0.4451 -0.5640  0.3272
 5017SOL    HW126513   4.127   1.383   2.913 -1.2599  0.0287  0.9253
 5017SOL    HW226514   4.205   1.507   2.939 -2.5659 -1.0371 -1.6164
 5018SOL     OW26515   1.191   0.300  11.735  0.1296 -0.0860 -0.1780
 5018SOL    HW126516   1.217   0.293  11.643 -1.6959 -0.2712 -0.6859
 5018SOL    HW226517   1.127   0.229  11.744 -0.9789  0.6229 -2.4638
 5019SOL     OW26518   0.366   4.536  14.368  0.4182  0.0221  0.4345
 5019SOL    HW126519   0.283   4.497  14.393 -0.1638  1.0321  0.1087
 5019SOL    HW226520   0.389   4.507  14.280 -0.1930 -2.3612  1.0815
 5020SOL     OW26521   1.592   0.001   8.379 -0.1041 -0.4952 -0.3751
 5020SOL    HW126522   1.519   4.667   8.353 -1.2587  1.4808 -1.4515
 5020SOL    HW226523   1.601   0.056   8.301 -2.1098 -0.1323 -0.3584
 5021SOL     OW26524   4.669   3.288   1.299  0.0745 -0.0402 -0.7564
 5021SOL    HW126525   4.633   3.356   1.356  2.1509 -0.7322  1.3582
 5021SOL    HW226526   4.643   3.314   1.211  2.1740  0.0907 -1.3251
 5022SOL     OW26527   4.145   3.020   7.122  0.0271  0.7915  0.2852
 5022SOL    HW126528   4.157   3.103   7.076 -1.8006  0.5546 -0.6457
 5022SOL    HW226529   4.065   3.038   7.173 -0.5165  1.1070 -0.6660
 5023SOL     OW26530   0.430   1.988  14.176  0.2041  0.3989 -0.0176
 5023SOL    HW126531   0.512   2.006  14.223  0.6069  4.2557 -2.1449
 5023SOL    HW226532   0.453   1.949  14.093  0.4487  0.4791  0.0130
 5024SOL     OW26533   1.973   1.680   9.355 -0.1069 -0.3227  0.0461
 5024SOL    HW126534   1.878   1.688   9.343  0.2098  0.0298 -2.2140
 5024SOL    HW226535   1.978   1.629   9.435  0.3696  0.7804  0.7176
 5025SOL     OW26536   2.240   1.242  14.406  0.0209 -0.0913 -0.0305
 5025SOL    HW126537   2.321   1.262  14.359  1.1436  0.5488  2.1850
 5025SOL    HW226538   2.238   1.313  14.471  0.4091 -1.5386  1.5509
 5026SOL     OW26539   4.171   2.236   4.086  0.8259 -0.2209  0.0917
 5026SOL    HW126540   4.224   2.214   4.163 -0.0883  1.5755  1.2283
 5026SOL    HW226541   4.119   2.312   4.112 -0.5328 -0.9583 -0.4763
 5027SOL     OW26542   1.700   0.926   6.642  0.5274 -0.4627 -0.1994
 5027SOL    HW126543   1.789   0.912   6.610  0.0144  0.1485 -1.8852
 5027SOL    HW226544   1.694   1.022   6.650 -1.3914 -0.7753  2.4741
 5028SOL     OW26545   4.212   2.413   7.560 -0.4557 -0.5631  0.5578
 5028SOL    HW126546   4.292   2.400   7.611  0.6670  1.8986 -0.5404
 5028SOL    HW226547   4.160   2.337   7.583  2.3912 -2.3962  0.9318
 5029SOL     OW26548   2.608   3.280  11.991 -0.6807  1.1754  0.3026
 5029SOL    HW126549   2.581   3.205  11.939 -1.5710  1.7431 -0.0607
 5029SOL    HW226550   2.635   3.346  11.927 -0.4411 -0.5211 -1.3275
 5030SOL     OW26551   3.636   0.110   4.418  0.1009  0.0960  0.1528
 5030SOL    HW126552   3.721   0.109   4.373 -0.1491 -3.2516 -0.2690
 5030SOL    HW226553   3.640   0.179   4.484  0.2038  0.3655 -0.1360
 5031SOL     OW26554   1.206   3.797  16.578  0.1228 -0.0721  0.1132
 5031SOL    HW126555   1.233   3.885  16.603 -0.6476 -0.3241  1.8231
 5031SOL    HW226556   1.280   3.756  16.533 -0.5517 -1.8361  0.5932
 5032SOL     OW26557   0.662   1.605   6.877 -0.7485 -1.1149 -0.3601
 5032SOL    HW126558   0.646   1.640   6.965 -4.1426 -2.1341 -0.5740
 5032SOL    HW226559   0.579   1.571   6.843 -2.5894  1.3162  1.7210
 5033SOL     OW26560   1.070   0.601   7.906 -0.3653 -0.0140  0.0960
 5033SOL    HW126561   1.011   0.579   7.835 -1.5614  0.4269  0.9598
 5033SOL    HW226562   1.154   0.571   7.870 -0.0414  1.8411 -0.6800
 5034SOL     OW26563   4.364   1.543  13.209 -0.2938  0.0775  0.7943
 5034SOL    HW126564   4.385   1.473  13.147 -1.0084  0.9744 -0.4362
 5034SOL    HW226565   4.409   1.517  13.290  0.5307  3.0401  1.2907
 5035SOL     OW26566   1.966   1.239   6.169  0.1969 -0.3566 -0.3810
 5035SOL    HW126567   2.038   1.242   6.106  2.0225  0.6231  1.7299
 5035SOL    HW226568   1.955   1.332   6.188  0.0957 -0.6516  1.0418
 5036SOL     OW26569   1.330   4.018   7.327 -0.8062  0.2729 -0.2169
 5036SOL    HW126570   1.411   3.971   7.309 -0.2571  0.0797  2.7374
 5036SOL    HW226571   1.365   4.105   7.308  0.1374  0.1093  0.8256
 5037SOL     OW26572   1.971   2.890   4.043  0.2857 -0.5596 -0.3797
 5037SOL    HW126573   1.900   2.923   3.988 -0.2717  1.5177  1.5783
 5037SOL    HW226574   2.015   2.966   4.081 -0.0515 -0.4606 -0.1823
 5038SOL     OW26575   3.233   0.970  12.264  0.8822  0.2312  0.0878
 5038SOL    HW126576   3.141   0.959  12.241  1.3104 -1.2184 -0.9116
 5038SOL    HW226577   3.264   0.883  12.290 -0.3823 -0.1957  0.1844
 5039SOL     OW26578   2.247   1.314   3.301  0.3148 -0.4587  0.7701
 5039SOL    HW126579   2.282   1.307   3.213  0.0803  4.2164  0.2963
 5039SOL    HW226580   2.268   1.407   3.307  0.2553 -0.4168  0.2887
 5040SOL     OW26581   1.106   0.582  13.298  0.2874 -0.3708 -0.4459
 5040SOL    HW126582   1.048   0.652  13.265  2.5624  0.4133 -2.7521
 5040SOL    HW226583   1.157   0.628  13.365  0.2910  0.7991 -1.2489
 5041SOL     OW26584   1.090   0.773   5.584  0.1507  0.2118  0.4465
 5041SOL    HW126585   1.112   0.827   5.508  0.9519  1.7298  1.7448
 5041SOL    HW226586   1.181   0.773   5.613  0.6013  0.5822 -0.9642
 5042SOL     OW26587   2.639   2.836   8.869  0.3242  0.1773 -0.3466
 5042SOL    HW126588   2.610   2.765   8.813 -1.2286  0.0471  0.6082
 5042SOL    HW226589   2.695   2.784   8.927 -2.2640 -0.6226  1.4326
 5043SOL     OW26590   1.047   3.296  17.564 -0.1514  0.0327 -0.3886
 5043SOL    HW126591   1.051   3.215  17.513 -1.3005 -0.2919  0.0309
 5043SOL    HW226592   1.087   3.265  17.645 -1.0867 -1.3459 -0.4403
 5044SOL     OW26593   2.413   3.093   9.185  0.5026  0.3722 -0.0861
 5044SOL    HW126594   2.484   3.149   9.154  1.0339 -0.1823  0.1326
 5044SOL    HW226595   2.453   3.043   9.256 -1.7063 -0.8349  0.2917
 5045SOL     OW26596   4.144   1.321  13.961 -0.6981 -0.2041  0.6536
 5045SOL    HW126597   4.179   1.333  13.873 -0.5671  1.9176  0.9979
 5045SOL    HW226598   4.148   1.226  13.960  0.5025 -0.1240 -0.9444
 5046SOL     OW26599   2.393   0.822   3.868  0.3331  0.1274  0.0601
 5046SOL    HW126600   2.473   0.814   3.920  0.5338  4.6534  0.3726
 5046SOL    HW226601   2.411   0.770   3.789 -1.1529  1.6457 -1.2737
 5047SOL     OW26602   4.705   2.796  12.612  0.5819  0.2791 -0.1777
 5047SOL    HW126603   4.617   2.822  12.582  0.1351  1.5592  2.1922
 5047SOL    HW226604   4.718   2.717  12.560  1.8833  0.7408 -0.5471
 5048SOL     OW26605   4.532   3.049   5.078 -0.2507  0.0806 -0.1068
 5048SOL    HW126606   4.554   2.992   5.004  1.2446  0.2005  0.2303
 5048SOL    HW226607   4.575   3.130   5.050  0.5565 -0.1353  0.5007
 5049SOL     OW26608   3.479   3.708   0.351  0.4078 -0.4804  0.0970
 5049SOL    HW126609   3.510   3.794   0.382  0.2586 -0.3254 -0.1859
 5049SOL    HW226610   3.523   3.649   0.412 -0.1549  1.1303  2.0498
 5050SOL     OW26611   3.685   4.146   3.280 -0.1650 -0.7734  0.2345
 5050SOL    HW126612   3.734   4.082   3.332  1.7659 -0.4703 -1.2016
 5050SOL    HW226613   3.698   4.220   3.338  0.9479 -0.1133 -0.8720
 5051SOL     OW26614   1.926   1.698   7.415  0.1276  0.3118  0.0174
 5051SOL    HW126615   2.010   1.687   7.460  0.0765  2.7543  0.6686
 5051SOL    HW226616   1.930   1.791   7.396 -0.1456  0.1393 -0.8730
 5052SOL     OW26617   2.452   0.167   7.865  0.0419 -0.6406  0.3727
 5052SOL    HW126618   2.371   0.116   7.860 -0.9129  0.7856  1.2348
 5052SOL    HW226619   2.450   0.180   7.771  2.6981 -0.2441  0.3784
 5053SOL     OW26620   2.438   1.421   0.032  0.7536 -0.2528  0.6151
 5053SOL    HW126621   2.381   1.413   0.108  1.8598 -4.1864  1.0135
 5053SOL    HW226622   2.464   1.331   0.013  1.4558  0.0058  0.3221
 5054SOL     OW26623   4.547   4.304  15.593  0.1318  0.0228 -0.4069
 5054SOL    HW126624   4.461   4.280  15.560  0.5822 -1.1401 -0.7250
 5054SOL    HW226625   4.521   4.340  15.678  0.2335 -1.4196  0.2293
 5055SOL     OW26626   3.155   0.049   9.234 -0.0871 -0.5642  0.0091
 5055SOL    HW126627   3.230   0.070   9.178 -0.3707  2.1453  0.6772
 5055SOL    HW226628   3.138   0.127   9.286  1.7868  1.3073 -2.2296
 5056SOL     OW26629   0.880   4.474   4.766  0.2931  0.2156  0.4741
 5056SOL    HW126630   0.968   4.471   4.730  0.9593 -1.7329  2.2682
 5056SOL    HW226631   0.893   4.551   4.822  0.4113  0.1013  0.6018
 5057SOL     OW26632   3.913   2.236  13.570  0.1009  0.2920  0.1884
 5057SOL    HW126633   3.969   2.286  13.511 -0.4255  0.7938  0.1237
 5057SOL    HW226634   3.952   2.150  13.551 -0.4184 -0.0633  0.7197
 5058SOL     OW26635   1.125   2.604  14.710 -0.4532 -0.5865 -0.2339
 5058SOL    HW126636   1.160   2.640  14.629  1.1903 -1.2073  0.2175
 5058SOL    HW226637   1.126   2.685  14.763 -0.5226 -0.7189 -0.0290
 5059SOL     OW26638   2.902   1.697  13.108  0.2388 -0.6507  0.3067
 5059SOL    HW126639   2.813   1.734  13.109 -0.5642 -2.6368  1.4594
 5059SOL    HW226640   2.892   1.616  13.158 -1.9788 -0.2451  0.5321
 5060SOL     OW26641   4.587   2.984   7.250 -0.0806 -0.3087 -0.7154
 5060SOL    HW126642   4.613   2.893   7.234 -3.5993 -1.2162 -1.4774
 5060SOL    HW226643   4.503   2.966   7.294  0.1320  2.5515  0.8500
 5061SOL     OW26644   2.237   1.346  12.690  0.1849  0.0685  0.2278
 5061SOL    HW126645   2.201   1.417  12.638 -0.8662 -0.5502  0.1078
 5061SOL    HW226646   2.193   1.355  12.775 -1.5293 -0.0778 -0.6638
 5062SOL     OW26647   0.187   0.802   6.176 -0.2576 -0.3368 -0.4319
 5062SOL    HW126648   0.255   0.862   6.148 -0.0146 -0.6265 -0.4628
 5062SOL    HW226649   0.119   0.836   6.118 -0.6217 -1.3741 -0.6163
 5063SOL     OW26650   0.573   1.228   9.566  0.4672 -0.6051  0.7872
 5063SOL    HW126651   0.480   1.219   9.588  0.5108  0.2742  1.3346
 5063SOL    HW226652   0.606   1.208   9.653 -0.7135 -0.6520  1.2321
 5064SOL     OW26653   1.308   0.566   8.760 -0.1320  0.0086  0.2677
 5064SOL    HW126654   1.221   0.528   8.772 -0.1738 -0.5006 -1.5968
 5064SOL    HW226655   1.345   0.554   8.847  0.0810 -3.8783 -0.3703
 5065SOL     OW26656   2.008   1.477  10.727 -0.3776  0.3546  0.5220
 5065SOL    HW126657   1.984   1.499  10.637 -1.8493  2.1397  1.3259
 5065SOL    HW226658   1.922   1.463  10.768 -0.2147 -2.1031  0.0197
 5066SOL     OW26659   4.589   3.496   3.238  0.1227  0.0512 -0.0365
 5066SOL    HW126660   4.555   3.570   3.188  0.0826  0.3001  0.3621
 5066SOL    HW226661   4.649   3.539   3.298  0.0324 -0.9418  0.7707
 5067SOL     OW26662   1.877   0.262   6.392 -0.9195 -0.1506  0.0113
 5067SOL    HW126663   1.955   0.256   6.448 -1.3415 -2.3975  0.3841
 5067SOL    HW226664   1.900   0.201   6.321  0.8810 -1.4208  1.6562
 5068SOL     OW26665   2.744   3.995   4.142  0.2095  0.4068 -0.1866
 5068SOL    HW126666   2.789   4.045   4.074 -0.8455 -1.3157 -2.1609
 5068SOL    HW226667   2.687   3.937   4.091 -0.7527  1.3449 -0.1710
 5069SOL     OW26668   1.110   0.184  11.174 -0.5430 -0.2742 -0.4256
 5069SOL    HW126669   1.099   0.153  11.084  2.6242  2.7011 -1.8359
 5069SOL    HW226670   1.142   0.107  11.221 -0.7466  0.1328  0.3816
 5070SOL     OW26671   3.622   0.490   7.391 -0.1253 -0.0813  0.2776
 5070SOL    HW126672   3.554   0.498   7.458  0.2589 -0.8751  0.7599
 5070SOL    HW226673   3.700   0.533   7.425 -0.1275  1.4560 -1.6480
 5071SOL     OW26674   1.936   1.193   2.162  0.0844  0.9110 -0.1932
 5071SOL    HW126675   2.027   1.187   2.191 -0.2800 -3.5047  0.0171
 5071SOL    HW226676   1.921   1.110   2.117 -0.6224 -0.0116  1.7386
 5072SOL     OW26677   3.307   3.651   1.061 -0.2651 -0.3716 -0.0063
 5072SOL    HW126678   3.318   3.608   1.145 -1.6838 -1.0617 -0.1729
 5072SOL    HW226679   3.224   3.625   1.020 -1.0160 -1.6494  2.3683
 5073SOL     OW26680   0.728   1.601   6.342 -0.2367 -0.3779  0.0932
 5073SOL    HW126681   0.734   1.524   6.399  0.4738  1.5979  2.6645
 5073SOL    HW226682   0.656   1.643   6.389 -0.6247  0.3144 -1.1239
 5074SOL     OW26683   2.344   1.947   3.129  0.0176  0.3641 -0.0419
 5074SOL    HW126684   2.379   1.992   3.206  0.4345  0.1900 -0.1308
 5074SOL    HW226685   2.255   1.981   3.130  0.0909  0.5180  1.3539
 5075SOL     OW26686   0.616   1.787   2.159  0.0294  0.5453 -0.1958
 5075SOL    HW126687   0.698   1.743   2.182 -0.2599 -1.1625 -2.4292
 5075SOL    HW226688   0.640   1.814   2.070  0.8156  0.9180  0.1315
 5076SOL     OW26689   3.485   3.221   5.836  0.2205  0.1257  0.0204
 5076SOL    HW126690   3.475   3.185   5.748  0.3833  4.5588 -1.7750
 5076SOL    HW226691   3.580   3.225   5.840  0.1622  1.7024 -0.5134
 5077SOL     OW26692   2.398   3.638   8.748  0.2837  0.0909 -0.1215
 5077SOL    HW126693   2.466   3.601   8.805 -1.2066 -2.5992 -0.1125
 5077SOL    HW226694   2.405   3.575   8.677  1.4438 -1.1860  1.1176
 5078SOL     OW26695   1.526   1.356   5.001 -0.1354 -0.7182  0.1671
 5078SOL    HW126696   1.477   1.315   4.929  0.2473  0.0208 -0.5199
 5078SOL    HW226697   1.576   1.279   5.027  1.6721  0.0970 -0.9403
 5079SOL     OW26698   3.727   1.605   8.725  0.0611 -0.0043  0.4689
 5079SOL    HW126699   3.676   1.658   8.664 -1.7209 -1.9131  0.2892
 5079SOL    HW226700   3.717   1.667   8.798  1.4101  1.2256 -0.3838
 5080SOL     OW26701   2.541   2.427   6.657  0.5595  0.0688  0.6085
 5080SOL    HW126702   2.487   2.499   6.691 -0.4620  1.2026 -3.5011
 5080SOL    HW226703   2.535   2.432   6.562 -2.0229 -1.8230  0.6682
 5081SOL     OW26704   3.104   1.364   2.708  0.0242  0.2585  0.1536
 5081SOL    HW126705   3.036   1.431   2.714  1.3790  1.6067  0.2763
 5081SOL    HW226706   3.057   1.302   2.653 -1.0313  1.2170 -0.0144
 5082SOL     OW26707   0.596   4.355   2.506 -0.0383  0.0984  0.1154
 5082SOL    HW126708   0.655   4.298   2.556  0.7651  0.3329 -0.5600
 5082SOL    HW226709   0.637   4.441   2.513 -1.2097  0.6376  0.2252
 5083SOL     OW26710   1.835   2.063   2.432 -0.2377  0.1710 -0.0376
 5083SOL    HW126711   1.870   2.064   2.343  0.5607  2.7583  0.2998
 5083SOL    HW226712   1.801   2.153   2.437 -0.4977  0.1356 -1.2367
 5084SOL     OW26713   2.129   3.369   8.713  0.1789 -0.1352 -0.8998
 5084SOL    HW126714   2.078   3.417   8.648  1.4313  0.9609 -1.0931
 5084SOL    HW226715   2.084   3.285   8.710  0.6964 -0.4679  0.8406
 5085SOL     OW26716   3.545   4.502   7.622 -0.2977  0.5222 -0.4729
 5085SOL    HW126717   3.601   4.548   7.559  0.0891  1.1820  0.3526
 5085SOL    HW226718   3.472   4.466   7.571  0.1842 -3.5714  1.7122
 5086SOL     OW26719   3.132   0.750  11.243 -0.2722 -0.6503  0.2025
 5086SOL    HW126720   3.206   0.800  11.276 -2.7881  3.3318 -0.1839
 5086SOL    HW226721   3.100   0.801  11.169 -2.4835 -0.0136  1.5575
 5087SOL     OW26722   0.221   2.457  13.269  0.5702 -0.0993  0.2723
 5087SOL    HW126723   0.220   2.389  13.336  0.9660 -1.2029 -0.8462
 5087SOL    HW226724   0.204   2.540  13.314 -0.5190 -1.8533  3.1123
 5088SOL     OW26725   1.703   4.369   7.184 -0.1227 -0.6101  0.1712
 5088SOL    HW126726   1.782   4.394   7.233 -1.7687  1.0204  2.0440
 5088SOL    HW226727   1.744   4.304   7.127  1.7413  3.3807 -3.0562
 5089SOL     OW26728   2.618   0.026   3.842 -0.2141  0.1368  0.8324
 5089SOL    HW126729   2.634   0.035   3.936  1.3174  1.1738  0.4693
 5089SOL    HW226730   2.672   4.675   3.816 -1.5667 -1.0794  1.5196
 5090SOL     OW26731   1.027   0.715  16.910  0.0916  0.0874 -0.1573
 5090SOL    HW126732   1.058   0.699  16.821  2.2568  0.8596  0.4777
 5090SOL    HW226733   1.065   0.642  16.959 -1.8078 -1.8541 -1.5312
 5091SOL     OW26734   0.352   0.854  15.794  0.6265 -0.1196 -0.2413
 5091SOL    HW126735   0.444   0.859  15.819  0.0855  0.4338  1.6037
 5091SOL    HW226736   0.321   0.931  15.840  0.1807 -1.3106  1.4169
 5092SOL     OW26737   1.269   4.472   9.192 -0.3427 -0.3461 -0.5671
 5092SOL    HW126738   1.283   4.566   9.185 -1.4571 -0.0085  1.6746
 5092SOL    HW226739   1.336   4.435   9.133 -0.0016 -0.4100 -0.1381
 5093SOL     OW26740   4.715   0.711   9.033  0.1317  0.4611 -0.1681
 5093SOL    HW126741   0.059   0.745   9.093  2.5613 -2.2211 -1.3397
 5093SOL    HW226742   4.646   0.769   9.065  0.0455  0.7078 -0.7909
 5094SOL     OW26743   0.528   0.001  16.026 -0.1298  0.3361  0.2296
 5094SOL    HW126744   0.545   4.666  16.100 -1.4528  1.1428  1.1649
 5094SOL    HW226745   0.572   4.685  15.950 -0.3689  1.8244 -0.6953
 5095SOL     OW26746   1.290   2.616   5.176  0.1120 -0.0845 -0.0930
 5095SOL    HW126747   1.352   2.637   5.106  0.8290 -1.9797 -0.0117
 5095SOL    HW226748   1.240   2.697   5.173 -0.2632 -0.3172 -0.1105
 5096SOL     OW26749   3.045   0.295   4.404 -0.0310  0.3648 -0.4708
 5096SOL    HW126750   2.978   0.275   4.469  0.1769 -0.7219 -0.5875
 5096SOL    HW226751   3.038   0.391   4.409 -2.7526  0.0909  1.1053
 5097SOL     OW26752   3.244   3.044   8.976  0.4362  0.0134 -0.1784
 5097SOL    HW126753   3.212   3.133   8.963 -0.3893 -0.2653 -0.0863
 5097SOL    HW226754   3.338   3.059   8.970  0.8337 -2.3349  0.0408
 5098SOL     OW26755   3.627   4.446  12.391 -0.1892 -0.0753 -0.2703
 5098SOL    HW126756   3.575   4.500  12.331 -1.3598  1.3125  1.9960
 5098SOL    HW226757   3.564   4.468  12.460 -0.3772 -0.1516 -0.4190
 5099SOL     OW26758   1.791   1.094   3.286 -0.1069 -0.1622 -0.0352
 5099SOL    HW126759   1.760   1.159   3.348  0.8920 -0.1101  0.4053
 5099SOL    HW226760   1.885   1.113   3.280  0.0863 -1.2303 -0.4673
 5100SOL     OW26761   3.013   4.251   6.497 -0.3911  0.3548  0.1035
 5100SOL    HW126762   3.030   4.255   6.591  0.3010 -0.0414 -0.0098
 5100SOL    HW226763   2.983   4.161   6.488 -1.1416  0.6485 -0.3538
 5101SOL     OW26764   1.550   3.848  16.331 -0.0491 -0.0295  0.1724
 5101SOL    HW126765   1.533   3.824  16.240 -2.0689  0.3452  0.4618
 5101SOL    HW226766   1.508   3.771  16.369  0.5417  0.2278  1.3529
 5102SOL     OW26767   0.033   3.611   1.731 -0.4190 -0.4210  0.2222
 5102SOL    HW126768   0.009   3.628   1.640  0.1440 -0.0940  0.1318
 5102SOL    HW226769   0.113   3.560   1.713  0.2624  0.4345  0.8087
 5103SOL     OW26770   2.521   4.340   3.459  0.2361 -0.1154 -0.2459
 5103SOL    HW126771   2.560   4.260   3.495  0.7958  0.0758 -0.4172
 5103SOL    HW226772   2.525   4.330   3.364  1.5212 -1.9566 -0.0052
 5104SOL     OW26773   4.628   3.439   6.870  1.0208 -0.3318  0.3615
 5104SOL    HW126774   4.629   3.356   6.917  3.7852 -0.8100 -0.5111
 5104SOL    HW226775   4.534   3.453   6.863  0.8633 -0.8538  1.5145
 5105SOL     OW26776   2.352   4.159   6.467  0.2665  1.1382  1.1433
 5105SOL    HW126777   2.404   4.209   6.403  0.1085 -1.0758 -0.7136
 5105SOL    HW226778   2.377   4.209   6.545 -0.4193  2.7794  0.3225
 5106SOL     OW26779   2.244   4.024   0.636 -0.3560 -0.1632 -0.1218
 5106SOL    HW126780   2.195   4.105   0.646  0.9369  0.6308 -0.1718
 5106SOL    HW226781   2.283   4.027   0.724  2.0782 -0.1370 -1.2120
 5107SOL     OW26782   1.669   2.642   5.312 -0.4332 -0.2548  0.1159
 5107SOL    HW126783   1.738   2.671   5.252  0.5606 -2.5454  0.1382
 5107SOL    HW226784   1.605   2.705   5.280 -1.7541 -1.1135  1.0623
 5108SOL     OW26785   0.714   1.404   9.185 -0.6991 -0.3620 -0.2497
 5108SOL    HW126786   0.744   1.334   9.244 -0.9568  1.7328  2.3719
 5108SOL    HW226787   0.632   1.421   9.231 -0.1786  1.3595  0.0493
 5109SOL     OW26788   1.644   0.375  10.842 -0.0975  0.0171 -0.0350
 5109SOL    HW126789   1.739   0.363  10.838  0.1112  2.3431 -2.1161
 5109SOL    HW226790   1.639   0.438  10.913  1.3157  0.3525 -0.2307
 5110SOL     OW26791   2.346   2.013  15.120 -0.4982 -0.4367  0.6991
 5110SOL    HW126792   2.385   1.998  15.034 -1.2916  0.9339  0.0882
 5110SOL    HW226793   2.333   2.108  15.126  1.3352 -0.2030  0.7980
 5111SOL     OW26794   0.083   4.346  12.135  0.3451  0.2220 -0.1459
 5111SOL    HW126795   0.167   4.332  12.092 -0.6184 -3.9129 -0.6651
 5111SOL    HW226796   0.038   4.263  12.120 -0.0888  0.1113  1.6854
 5112SOL     OW26797   4.063   1.009   8.243 -0.1975  0.3501 -0.3110
 5112SOL    HW126798   4.071   1.099   8.273 -0.8619 -0.4717  2.2589
 5112SOL    HW226799   4.105   1.011   8.157  0.1050 -1.9265 -0.2306
 5113SOL     OW26800   4.074   2.056   6.643 -0.2309  0.2442 -0.0417
 5113SOL    HW126801   4.162   2.050   6.681 -1.4307  1.3134  2.9055
 5113SOL    HW226802   4.036   1.983   6.691  0.5888  1.1507  1.9916
 5114SOL     OW26803   3.929   0.782   3.640 -0.0846 -0.0638  0.0822
 5114SOL    HW126804   3.923   0.774   3.545  0.8779  0.9554 -0.0671
 5114SOL    HW226805   3.836   0.800   3.654 -0.4336 -1.6607 -0.1857
 5115SOL     OW26806   1.061   0.082   2.658 -0.4330  0.2758  0.4261
 5115SOL    HW126807   1.075   0.125   2.743 -3.3218  0.5941  0.7570
 5115SOL    HW226808   1.076   4.713   2.679 -0.0654  0.1582 -0.3552
 5116SOL     OW26809   3.188   0.551   3.497 -0.3014 -0.3958  0.5140
 5116SOL    HW126810   3.092   0.548   3.498 -0.3162 -0.0492  0.1311
 5116SOL    HW226811   3.195   0.521   3.406 -0.4069 -0.4764  0.5319
 5117SOL     OW26812   0.857   3.496   7.945  0.4910  0.5714 -0.5343
 5117SOL    HW126813   0.783   3.515   7.887  1.0845 -0.4269 -1.6326
 5117SOL    HW226814   0.926   3.461   7.889 -0.3098 -1.8565 -0.0243
 5118SOL     OW26815   1.383   0.232  15.346  0.1428 -0.0245  0.4083
 5118SOL    HW126816   1.348   0.311  15.388  0.4015 -0.4457  1.3943
 5118SOL    HW226817   1.355   0.158  15.399  2.5176  0.1856  1.9211
 5119SOL     OW26818   3.049   0.574   4.371  1.0878  0.3750  0.3542
 5119SOL    HW126819   3.115   0.594   4.438  0.5777  2.5862  0.1741
 5119SOL    HW226820   3.094   0.564   4.288  0.7099  0.1186  0.1787
 5120SOL     OW26821   0.196   3.155   3.331  0.3707 -0.3110  0.0189
 5120SOL    HW126822   0.206   3.109   3.415 -1.1984  0.2673  0.5234
 5120SOL    HW226823   0.287   3.181   3.317  0.1246  0.3047 -0.4531
 5121SOL     OW26824   2.179   4.328   9.047  0.5599  0.3747  0.7943
 5121SOL    HW126825   2.247   4.320   9.114  0.4909 -1.3172  0.6614
 5121SOL    HW226826   2.107   4.373   9.092 -0.1806  3.2658 -3.2790
 5122SOL     OW26827   1.678   1.882   2.821 -0.1442  0.2528  0.5354
 5122SOL    HW126828   1.689   1.975   2.803 -3.2984  0.7070  0.8420
 5122SOL    HW226829   1.657   1.852   2.732 -0.7277 -0.9082  1.0625
 5123SOL     OW26830   2.185   0.353  13.828 -1.6103  0.0888  0.4308
 5123SOL    HW126831   2.254   0.347  13.761 -0.3185  0.1519  1.7508
 5123SOL    HW226832   2.104   0.326  13.785 -1.9121  2.4791 -0.5288
 5124SOL     OW26833   3.414   0.478   0.105 -0.5826  0.0280  0.4094
 5124SOL    HW126834   3.469   0.402   0.125 -0.5358  0.0965  0.5356
 5124SOL    HW226835   3.376   0.469   0.017  0.3706 -1.7840  0.1697
 5125SOL     OW26836   4.492   4.113   2.828 -0.0525 -0.1300 -0.6973
 5125SOL    HW126837   4.565   4.053   2.844  0.7085  1.0489  0.2322
 5125SOL    HW226838   4.471   4.131   2.920 -0.4484 -1.5177 -0.5158
 5126SOL     OW26839   1.764   1.532   4.931  0.6914  0.3996 -0.0470
 5126SOL    HW126840   1.695   1.466   4.921 -0.0946  1.6991 -3.0916
 5126SOL    HW226841   1.724   1.619   4.922  0.8436  0.5004  0.2486
 5127SOL     OW26842   3.674   2.255   6.866 -0.0259 -0.4822 -0.4656
 5127SOL    HW126843   3.722   2.176   6.890  0.1356  0.6359  2.8385
 5127SOL    HW226844   3.724   2.277   6.787  1.2411 -2.8489 -0.3024
 5128SOL     OW26845   0.384   1.261   2.108  0.3240 -0.2801 -0.2306
 5128SOL    HW126846   0.394   1.186   2.049  2.0032 -0.9503  0.8996
 5128SOL    HW226847   0.291   1.278   2.094  0.1084 -0.0924  1.3755
 5129SOL     OW26848   1.473   2.361   8.772 -0.0171 -0.1475 -0.1747
 5129SOL    HW126849   1.440   2.386   8.859  1.4050 -0.5562  0.4817
 5129SOL    HW226850   1.389   2.362   8.726 -0.3752  0.2827  0.4775
 5130SOL     OW26851   1.257   2.682   3.608 -0.3324  0.0713 -0.4578
 5130SOL    HW126852   1.267   2.627   3.686 -1.1987 -0.2618 -0.5709
 5130SOL    HW226853   1.240   2.610   3.547 -0.3959 -0.2298 -0.0876
 5131SOL     OW26854   2.229   3.202   9.364 -0.5532  0.0759  0.1492
 5131SOL    HW126855   2.278   3.166   9.290 -0.5374 -1.3390  0.8581
 5131SOL    HW226856   2.280   3.283   9.365  1.9674 -1.4893 -0.0791
 5132SOL     OW26857   3.156   0.474   0.214 -0.0902 -0.0851 -0.2965
 5132SOL    HW126858   3.180   0.553   0.263 -2.2521 -1.1878  2.5557
 5132SOL    HW226859   3.246   0.444   0.198  0.2299  0.1795  0.9334
 5133SOL     OW26860   0.063   3.544   2.490  0.1237 -0.1093  0.4928
 5133SOL    HW126861   0.120   3.477   2.454 -0.7580 -0.5954 -0.0200
 5133SOL    HW226862   4.702   3.503   2.510  0.3191 -0.5886  0.3251
 5134SOL     OW26863   2.558   1.572   6.875 -0.2604  0.0696 -0.1315
 5134SOL    HW126864   2.536   1.589   6.967  0.4703  1.0179 -0.1278
 5134SOL    HW226865   2.488   1.526   6.829 -1.8915  2.1283  0.3221
 5135SOL     OW26866   3.127   2.011   2.671  0.0071  0.1534 -0.9106
 5135SOL    HW126867   3.173   2.057   2.741 -0.6889 -0.9235  0.2581
 5135SOL    HW226868   3.193   2.038   2.608  2.0348  1.6712  1.8431
 5136SOL     OW26869   0.460   3.256  11.009 -0.0792  0.5735  0.6657
 5136SOL    HW126870   0.554   3.242  10.994  0.0385  1.0255  0.9793
 5136SOL    HW226871   0.468   3.290  11.099  0.3867  1.2436  0.3709
 5137SOL     OW26872   2.741   3.887   5.362 -0.4456 -0.1952  0.3865
 5137SOL    HW126873   2.784   3.948   5.422  1.4513 -1.2788  0.1179
 5137SOL    HW226874   2.738   3.810   5.418 -1.4918 -0.2464  0.2653
 5138SOL     OW26875   0.906   3.086  15.599 -0.0407  0.0183 -0.4224
 5138SOL    HW126876   0.849   3.144  15.548  1.6524  1.5339 -0.6125
 5138SOL    HW226877   0.916   3.136  15.680 -0.0039  2.2614 -1.7890
 5139SOL     OW26878   1.185   0.291  13.318  0.0832  0.1198 -0.4571
 5139SOL    HW126879   1.164   0.240  13.240 -0.5272  1.3484 -1.0927
 5139SOL    HW226880   1.155   0.379  13.299  0.0934 -0.1617 -1.7494
 5140SOL     OW26881   0.248   0.001  12.650 -0.6084 -0.8170 -0.2834
 5140SOL    HW126882   0.321   4.680  12.695 -0.0884 -0.6495 -0.9766
 5140SOL    HW226883   0.210   0.028  12.734  0.2660  1.7840 -0.7084
 5141SOL     OW26884   2.572   0.061   2.573 -0.1851  0.0677  0.1697
 5141SOL    HW126885   2.594   4.695   2.544 -1.2636 -0.0642 -0.2550
 5141SOL    HW226886   2.560   0.043   2.666 -0.0993  0.7255  0.3042
 5142SOL     OW26887   3.403   4.528   0.422 -0.2028 -0.0917 -0.4091
 5142SOL    HW126888   3.381   4.581   0.498  0.6723 -0.6878  0.2591
 5142SOL    HW226889   3.397   4.439   0.455  1.1371 -0.6373 -1.6661
 5143SOL     OW26890   2.405   4.234   6.793 -0.4591 -0.8820  0.4471
 5143SOL    HW126891   2.497   4.236   6.817 -0.2454  2.5345 -0.5739
 5143SOL    HW226892   2.378   4.326   6.792  1.0111 -0.4601  1.5224
 5144SOL     OW26893   1.229   2.132  11.392 -0.0536 -0.0949  0.3859
 5144SOL    HW126894   1.188   2.146  11.307 -0.7737  1.6816  1.0300
 5144SOL    HW226895   1.293   2.070  11.357  0.6440  0.5612  0.4836
 5145SOL     OW26896   0.687   3.344   9.407  0.3890 -0.3856 -0.0750
 5145SOL    HW126897   0.770   3.324   9.450  1.9462  1.1686 -2.4002
 5145SOL    HW226898   0.712   3.320   9.318  0.4925 -0.9019  0.0935
 5146SOL     OW26899   3.804   0.159   9.521 -0.0194  0.3986 -0.2866
 5146SOL    HW126900   3.735   0.213   9.483  1.2168  3.3149  1.6397
 5146SOL    HW226901   3.870   0.155   9.453 -0.6060 -2.8552 -0.6841
 5147SOL     OW26902   0.311   4.237   5.094 -0.8927  0.6652  0.8454
 5147SOL    HW126903   0.340   4.146   5.101  0.1693  0.9464  0.0409
 5147SOL    HW226904   0.265   4.224   5.011 -2.8318 -3.3760  2.5421
 5148SOL     OW26905   0.995   2.560  11.670 -0.5109  0.9353 -0.1296
 5148SOL    HW126906   0.918   2.518  11.632  0.8844  0.1500 -2.0981
 5148SOL    HW226907   1.060   2.504  11.628 -0.3299  0.8509  0.2584
 5149SOL     OW26908   4.447   2.599   2.312  0.3735 -0.5532 -0.1464
 5149SOL    HW126909   4.531   2.575   2.273  0.8423 -0.0405  0.5501
 5149SOL    HW226910   4.412   2.660   2.246  2.6765  0.7954 -0.1036
 5150SOL     OW26911   0.186   4.376   5.903 -0.0745 -0.2094  0.1976
 5150SOL    HW126912   0.091   4.380   5.893  0.0451  0.1185 -0.8364
 5150SOL    HW226913   0.192   4.386   5.998 -2.2503 -2.8422  0.6115
 5151SOL     OW26914   0.947   1.064   6.263 -0.2355  0.3471 -0.2473
 5151SOL    HW126915   0.949   1.063   6.167 -1.8664  1.9794 -0.3048
 5151SOL    HW226916   1.020   1.006   6.282 -0.3069  0.6286  0.9078
 5152SOL     OW26917   0.510   4.565   5.757 -0.0224  0.1560 -0.3242
 5152SOL    HW126918   0.575   4.631   5.732 -0.0659  1.1891  2.3344
 5152SOL    HW226919   0.562   4.499   5.802  1.7009  2.5557  1.2382
 5153SOL     OW26920   1.059   1.876   6.349  0.7588  0.3134  0.1994
 5153SOL    HW126921   1.046   1.782   6.338 -0.7780  0.4106  1.0633
 5153SOL    HW226922   0.985   1.911   6.399 -0.5358 -1.5021 -0.4574
 5154SOL     OW26923   3.337   1.705   3.016 -0.6946  0.1730  0.2228
 5154SOL    HW126924   3.376   1.786   3.049 -0.1838  0.0017  0.0389
 5154SOL    HW226925   3.243   1.713   3.027 -0.5772  3.2104 -0.7898
 5155SOL     OW26926   2.822   3.934  13.151  0.3991 -0.2251  0.2318
 5155SOL    HW126927   2.810   3.885  13.070  0.3944  2.2130 -1.2544
 5155SOL    HW226928   2.743   3.987  13.159 -0.2991 -1.1562 -0.4578
 5156SOL     OW26929   1.891   2.634  14.956 -0.0630  0.1326 -1.2426
 5156SOL    HW126930   1.798   2.615  14.942  0.3054 -3.1090  0.7147
 5156SOL    HW226931   1.891   2.713  14.902  0.3613  1.2843  0.4450
 5157SOL     OW26932   3.385   2.955   5.789 -0.0339 -0.2003 -0.4979
 5157SOL    HW126933   3.298   2.957   5.749 -0.2515  1.2696  0.0695
 5157SOL    HW226934   3.417   2.872   5.752  2.4020 -0.8576  3.0089
 5158SOL     OW26935   2.829   3.766  15.336 -0.6976  0.1213 -0.5309
 5158SOL    HW126936   2.913   3.719  15.337  1.0262  3.2177 -1.3215
 5158SOL    HW226937   2.824   3.769  15.240 -0.3046 -3.5491 -0.6997
 5159SOL     OW26938   4.279   2.284   7.305 -0.2844 -0.5925 -0.0420
 5159SOL    HW126939   4.273   2.353   7.370  1.6079  1.2454 -1.8140
 5159SOL    HW226940   4.317   2.220   7.365 -1.5129 -0.5117  0.8134
 5160SOL     OW26941   1.260   0.854   0.203 -0.4934  0.1782 -0.0759
 5160SOL    HW126942   1.282   0.882   0.115 -1.8164  2.7772  0.4305
 5160SOL    HW226943   1.299   0.767   0.205  2.3618  1.4180 -3.4856
 5161SOL     OW26944   0.343   2.691   7.737  0.4795  0.0138 -0.0216
 5161SOL    HW126945   0.432   2.714   7.766  0.5468 -1.8124  1.2446
 5161SOL    HW226946   0.292   2.767   7.710  0.6771  0.0764 -0.2184
 5162SOL     OW26947   3.971   1.471  13.275 -0.6070  0.1056  0.0074
 5162SOL    HW126948   4.020   1.468  13.357  0.9471 -1.4638 -0.9847
 5162SOL    HW226949   3.930   1.386  13.293  1.1718 -1.3872 -2.9714
 5163SOL     OW26950   3.478   4.200   1.650 -0.0694 -0.0091 -0.4840
 5163SOL    HW126951   3.528   4.265   1.700 -0.9249  0.4020 -0.1409
 5163SOL    HW226952   3.547   4.157   1.599 -0.7533 -1.5579 -0.0983
 5164SOL     OW26953   3.329   3.745  12.454  0.1735  0.1427  0.9056
 5164SOL    HW126954   3.255   3.691  12.426 -0.6083  0.7078  1.8833
 5164SOL    HW226955   3.281   3.803  12.513  1.4530  0.0852  1.9999
 5165SOL     OW26956   3.308   2.785  12.315 -0.9593  0.0186 -0.3109
 5165SOL    HW126957   3.293   2.852  12.382  2.4836 -0.9808  1.4679
 5165SOL    HW226958   3.393   2.747  12.335  0.0591  3.3835  1.7446
 5166SOL     OW26959   3.794   1.206   0.592 -0.5085 -0.0231 -0.2516
 5166SOL    HW126960   3.729   1.246   0.534 -0.1309  0.5184 -0.3022
 5166SOL    HW226961   3.771   1.232   0.681 -0.0524  2.2162 -0.7821
 5167SOL     OW26962   3.988   1.862   6.796  0.2338  0.0938  0.0891
 5167SOL    HW126963   3.975   1.767   6.802  0.9846 -0.0848 -1.1414
 5167SOL    HW226964   4.007   1.873   6.890  1.2483  2.1992 -0.3522
 5168SOL     OW26965   1.109   4.104   7.456 -0.0979 -0.4041 -0.4146
 5168SOL    HW126966   1.183   4.066   7.408  0.9707 -0.3930  1.2231
 5168SOL    HW226967   1.072   4.026   7.498  1.5811 -0.6545  0.5952
 5169SOL     OW26968   4.671   1.768  10.734 -0.0737  0.2752  0.0083
 5169SOL    HW126969   4.577   1.759  10.720  0.3476 -2.4037 -1.0199
 5169SOL    HW226970   4.707   1.823  10.664  2.1464 -0.7382  0.3356
 5170SOL     OW26971   3.315   3.516   2.717 -0.4839  0.3806 -0.2361
 5170SOL    HW126972   3.262   3.584   2.759  0.2411  0.1329  1.0720
 5170SOL    HW226973   3.253   3.444   2.704 -0.1096 -0.0799  0.4821
 5171SOL     OW26974   0.026   0.787   2.970 -0.4862 -0.0233 -0.4048
 5171SOL    HW126975   4.701   0.714   2.930  1.2324 -0.8634 -0.9100
 5171SOL    HW226976   4.676   0.845   2.991 -1.3480 -1.2767  0.0590
 5172SOL     OW26977   0.480   2.681  14.429 -0.6344  0.4186  0.0559
 5172SOL    HW126978   0.406   2.623  14.444  0.2246 -0.6337  0.1805
 5172SOL    HW226979   0.498   2.666  14.337 -1.5019 -0.4895  0.0362
 5173SOL     OW26980   2.726   1.484   6.017  0.3504  0.0385  0.6562
 5173SOL    HW126981   2.758   1.431   6.090 -3.2185 -1.1416  1.3753
 5173SOL    HW226982   2.752   1.439   5.937 -1.2077  0.3000  0.0111
 5174SOL     OW26983   3.965   1.511   5.844  0.2677 -0.0359  0.4968
 5174SOL    HW126984   3.947   1.427   5.886  0.3488  0.3308  1.2708
 5174SOL    HW226985   4.052   1.525   5.881  0.3637 -0.9841  0.6356
 5175SOL     OW26986   3.944   0.134   4.979  0.1226  0.0627  0.0233
 5175SOL    HW126987   3.890   0.152   5.055 -1.1346 -1.5428 -0.4891
 5175SOL    HW226988   4.003   0.066   5.012 -1.3389 -1.7446 -1.0887
 5176SOL     OW26989   4.049   2.102   8.101 -0.0560 -0.1719  0.5875
 5176SOL    HW126990   3.959   2.111   8.131 -0.6666 -0.1223 -1.2141
 5176SOL    HW226991   4.032   2.089   8.007  0.4858 -1.4197  0.6564
 5177SOL     OW26992   4.129   2.811  14.249  0.5884  0.2317  0.9426
 5177SOL    HW126993   4.146   2.751  14.321 -3.9049 -1.0854  0.9484
 5177SOL    HW226994   4.198   2.877  14.254 -1.4172  2.4163  0.1900
 5178SOL     OW26995   3.165   4.327  14.199 -0.5320 -0.1177  0.1664
 5178SOL    HW126996   3.115   4.394  14.246 -0.6076  0.5429 -0.8658
 5178SOL    HW226997   3.184   4.362  14.112 -4.5187  0.7177 -0.3497
 5179SOL     OW26998   4.189   2.588   4.714 -0.4011 -0.3741 -0.6367
 5179SOL    HW126999   4.266   2.605   4.659 -0.1447 -0.4533 -0.3064
 5179SOL    HW227000   4.123   2.590   4.645 -0.7275 -0.8692 -0.3448
 5180SOL     OW27001   1.821   4.057   7.970 -0.1197  0.3469  0.8358
 5180SOL    HW127002   1.738   4.086   8.009 -1.5635 -2.1736 -0.3731
 5180SOL    HW227003   1.800   4.014   7.887 -0.2842  0.2880  0.9075
 5181SOL     OW27004   0.813   0.753   4.066 -0.5721 -0.4759  0.0732
 5181SOL    HW127005   0.766   0.752   4.149 -0.5868  1.4148  0.0892
 5181SOL    HW227006   0.761   0.819   4.021 -2.5769 -0.7268  2.0634
 5182SOL     OW27007   4.133   1.509  11.580  0.2342  0.1676  0.1735
 5182SOL    HW127008   4.088   1.587  11.546  1.7165  0.3051 -1.4910
 5182SOL    HW227009   4.226   1.527  11.566  0.0235  1.5667  0.5404
 5183SOL     OW27010   0.257   0.084  11.353  0.0177 -0.0083 -0.0470
 5183SOL    HW127011   0.174   0.132  11.357 -0.7251 -1.5244  2.6709
 5183SOL    HW227012   0.317   0.155  11.375  0.7551 -0.8539  0.6490
 5184SOL     OW27013   0.563   0.458   4.947  0.6321  0.1560 -0.2429
 5184SOL    HW127014   0.496   0.460   4.880 -0.8405 -0.1544  1.2220
 5184SOL    HW227015   0.635   0.503   4.904  0.2668  0.3954 -0.5986
 5185SOL     OW27016   2.005   1.465  13.258  0.7005 -0.1345  0.5556
 5185SOL    HW127017   1.946   1.437  13.328 -0.1501  3.0290  1.1306
 5185SOL    HW227018   1.944   1.453  13.185  2.1276  2.1898 -1.0488
 5186SOL     OW27019   3.170   2.501   2.634 -0.8395  0.7259 -1.1906
 5186SOL    HW127020   3.146   2.583   2.592  4.0639  2.1544 -1.1001
 5186SOL    HW227021   3.131   2.445   2.567 -0.4561  1.7443 -2.2644
 5187SOL     OW27022   1.098   2.160   4.586 -0.6041  0.2120  0.0399
 5187SOL    HW127023   1.038   2.163   4.512 -0.9783  0.2989  0.3458
 5187SOL    HW227024   1.065   2.237   4.633  0.6412  0.5378  0.3816
 5188SOL     OW27025   3.120   3.885   1.864  0.1637 -0.0585  0.2121
 5188SOL    HW127026   3.095   3.893   1.956  0.2635  2.6227  0.0061
 5188SOL    HW227027   3.198   3.940   1.865 -1.6388  2.5125 -1.0074
 5189SOL     OW27028   4.475   1.577   2.526  0.0521 -0.1244  0.0778
 5189SOL    HW127029   4.562   1.543   2.546  0.4667  0.6324 -0.4329
 5189SOL    HW227030   4.426   1.556   2.605 -0.2152  0.2081 -0.0002
 5190SOL     OW27031   3.850   0.039   3.831 -0.4158  0.0348  0.2583
 5190SOL    HW127032   3.840   4.723   3.745  0.1820  2.4777 -0.9163
 5190SOL    HW227033   3.787   0.111   3.828  0.8062  1.1941  1.8395
 5191SOL     OW27034   3.502   2.257  11.281 -0.4280  0.5821  0.2214
 5191SOL    HW127035   3.451   2.264  11.362 -2.5930  1.0997 -1.2077
 5191SOL    HW227036   3.448   2.207  11.221 -2.6429  3.8162 -0.4577
 5192SOL     OW27037   0.319   2.334   7.131  0.2298 -0.1856 -0.3892
 5192SOL    HW127038   0.320   2.412   7.186 -0.5354 -0.7835  0.4740
 5192SOL    HW227039   0.281   2.366   7.049 -0.9968 -0.9209 -0.1156
 5193SOL     OW27040   2.777   0.306   5.910  0.3936 -0.2770  0.2573
 5193SOL    HW127041   2.708   0.244   5.886  0.4152 -0.3330  0.3377
 5193SOL    HW227042   2.820   0.321   5.826  1.0748 -2.3341  0.2356
 5194SOL     OW27043   3.824   0.218  11.594  0.1378  0.2606  0.2077
 5194SOL    HW127044   3.737   0.197  11.630  0.1530  0.1097  0.1576
 5194SOL    HW227045   3.814   0.182  11.505 -3.7277  1.1685  0.2426
 5195SOL     OW27046   0.897   1.783   5.631 -0.5403  0.0339  0.3106
 5195SOL    HW127047   0.971   1.808   5.576  0.0770  1.5403  1.8699
 5195SOL    HW227048   0.916   1.695   5.663  1.8552  0.1735 -0.7730
 5196SOL     OW27049   4.349   3.534   5.695 -0.3867  0.1929  0.2563
 5196SOL    HW127050   4.384   3.550   5.783 -0.0092 -1.0820  0.3372
 5196SOL    HW227051   4.276   3.596   5.695 -1.1583 -0.7106 -1.1830
 5197SOL     OW27052   1.687   0.226   9.924  0.6663 -0.2981  0.0276
 5197SOL    HW127053   1.734   0.211  10.006  2.3520  2.2001 -0.4616
 5197SOL    HW227054   1.697   0.142   9.880  0.9999  0.2042 -0.8807
 5198SOL     OW27055   0.471   1.092   7.415  0.0646 -0.1514 -0.0863
 5198SOL    HW127056   0.462   1.008   7.370  1.1593 -0.2151 -0.1905
 5198SOL    HW227057   0.538   1.135   7.363 -1.9517 -0.7185 -3.1168
 5199SOL     OW27058   4.594   2.959   2.682 -0.4696  0.1120 -0.2490
 5199SOL    HW127059   4.670   2.999   2.725  0.6526 -0.8545 -1.3030
 5199SOL    HW227060   4.635   2.925   2.603  2.3333  2.3234  0.2494
 5200SOL     OW27061   4.256   2.658   1.473 -0.0575 -0.4369 -0.2371
 5200SOL    HW127062   4.264   2.752   1.456  0.4227 -0.6094 -0.9766
 5200SOL    HW227063   4.161   2.652   1.460  0.2571 -2.3592 -1.6606
 5201SOL     OW27064   1.759   0.111   3.626  0.1264  0.0670  0.1991
 5201SOL    HW127065   1.674   0.071   3.645 -0.9244  0.5876 -3.5574
 5201SOL    HW227066   1.792   0.130   3.714 -0.4364  2.1864 -0.0280
 5202SOL     OW27067   3.341   1.477   8.319  0.1705 -0.5424 -0.0626
 5202SOL    HW127068   3.294   1.561   8.317 -1.1036 -1.1733  2.8000
 5202SOL    HW227069   3.267   1.421   8.342 -0.4315 -0.2113 -1.1780
 5203SOL     OW27070   4.530   1.344  16.577 -0.0535 -0.3602  0.4445
 5203SOL    HW127071   4.484   1.427  16.570  1.3398  0.3239 -0.4497
 5203SOL    HW227072   4.603   1.364  16.519  0.6594 -1.9890  0.7765
 5204SOL     OW27073   3.098   3.329   7.722 -0.1653  0.8795 -0.1231
 5204SOL    HW127074   3.111   3.422   7.706 -3.4519  1.6790  1.8667
 5204SOL    HW227075   3.111   3.316   7.816  2.5706 -2.1527 -0.9357
 5205SOL     OW27076   3.568   3.115  16.290 -0.0240  0.2077  0.3017
 5205SOL    HW127077   3.581   3.177  16.361 -2.4440 -0.2243  1.1342
 5205SOL    HW227078   3.644   3.125  16.233 -0.3679  0.5388 -0.0967
 5206SOL     OW27079   0.304   1.549   4.664  0.2799 -0.1238 -0.0593
 5206SOL    HW127080   0.279   1.497   4.741  0.6490 -0.2063  0.0058
 5206SOL    HW227081   0.246   1.519   4.595  1.6302 -0.4499 -1.0579
 5207SOL     OW27082   2.063   1.478  15.721  0.0809  0.0077  0.1325
 5207SOL    HW127083   2.085   1.511  15.808  2.1671 -2.7661  0.6615
 5207SOL    HW227084   2.013   1.546  15.677  1.0009  0.4916 -0.1558
 5208SOL     OW27085   1.752   4.266   2.143  0.1985  0.1634 -0.8446
 5208SOL    HW127086   1.845   4.279   2.159  0.2719 -1.1827 -0.2017
 5208SOL    HW227087   1.741   4.181   2.185  0.9466  0.2083 -0.5585
 5209SOL     OW27088   3.185   3.971   2.132 -0.2599 -0.1168 -0.2984
 5209SOL    HW127089   3.224   3.944   2.215 -0.4944 -1.2459 -0.5613
 5209SOL    HW227090   3.176   4.066   2.138  1.5270  0.0469 -0.3793
 5210SOL     OW27091   2.692   3.270   6.068  0.0579  0.5991 -0.6832
 5210SOL    HW127092   2.626   3.318   6.018 -0.8088  2.9607  2.7163
 5210SOL    HW227093   2.670   3.304   6.155 -2.8617 -0.0126 -1.1827
 5211SOL     OW27094   0.939   4.597  12.304 -0.3007 -0.6665  0.0265
 5211SOL    HW127095   0.946   4.653  12.227  1.2763 -0.2726  0.4617
 5211SOL    HW227096   0.923   4.660  12.374 -1.0950  0.0635 -0.8010
 5212SOL     OW27097   1.028   0.311   4.613  1.1455 -0.7645  0.1078
 5212SOL    HW127098   1.035   0.337   4.705  0.2623 -0.8225  0.1915
 5212SOL    HW227099   1.116   0.280   4.590  1.4204 -0.6693  1.0427
 5213SOL     OW27100   2.877   3.902  12.069 -0.7094 -0.1564 -0.2971
 5213SOL    HW127101   2.846   3.904  12.159  1.6064 -1.7793  0.5537
 5213SOL    HW227102   2.964   3.941  12.073 -0.4621 -0.8426  0.9534
 5214SOL     OW27103   2.613   2.798   8.547  0.5234 -0.2903 -0.1211
 5214SOL    HW127104   2.682   2.844   8.594  0.0504 -1.5217  1.7971
 5214SOL    HW227105   2.535   2.841   8.583  1.2317  1.5452 -0.7742
 5215SOL     OW27106   4.507   4.399   7.745 -0.1860  0.7412  0.3450
 5215SOL    HW127107   4.487   4.492   7.732  1.0759  0.9168 -0.3631
 5215SOL    HW227108   4.465   4.386   7.830  1.0161 -2.8058  0.4106
 5216SOL     OW27109   3.414   1.095  16.408  0.2748 -0.0303 -0.8562
 5216SOL    HW127110   3.415   1.106  16.313  2.6678  2.5852 -0.4946
 5216SOL    HW227111   3.418   1.182  16.447  2.9244 -0.5298 -0.0344
 5217SOL     OW27112   3.827   2.549   6.555 -0.3360 -0.1858  0.4516
 5217SOL    HW127113   3.875   2.467   6.570 -0.7766 -0.4659  0.3099
 5217SOL    HW227114   3.828   2.557   6.460  1.9787  0.5213  0.5228
 5218SOL     OW27115   1.302   3.823   6.773  0.5473 -0.1499  0.7698
 5218SOL    HW127116   1.292   3.746   6.829 -0.6415  0.8536  1.9635
 5218SOL    HW227117   1.224   3.876   6.785 -0.1854 -0.5731 -2.2688
 5219SOL     OW27118   0.037   0.409   9.030  0.0700  0.7960 -0.5934
 5219SOL    HW127119   0.131   0.422   9.046  0.1162  0.8599 -0.9005
 5219SOL    HW227120   0.002   0.473   9.092  0.9694  0.2081  0.5159
 5220SOL     OW27121   3.446   3.145  12.190 -0.4028  0.8420  0.2317
 5220SOL    HW127122   3.513   3.080  12.211 -1.5173 -1.1630 -2.4132
 5220SOL    HW227123   3.486   3.215  12.241  0.7714 -0.2859  0.8799
 5221SOL     OW27124   0.072   0.832   0.913  0.1087 -0.1351  0.7068
 5221SOL    HW127125   0.048   0.918   0.878  2.2153  0.2141  0.0778
 5221SOL    HW227126   0.004   0.804   0.974 -1.3069 -2.3821 -1.9453
 5222SOL     OW27127   1.920   3.062   4.429 -0.9267  0.4085  0.2958
 5222SOL    HW127128   1.838   3.021   4.403 -0.8310  1.3615 -1.5748
 5222SOL    HW227129   1.956   3.085   4.343 -2.3742 -0.2579 -0.4778
 5223SOL     OW27130   3.124   3.365   5.844 -0.0176  0.0310  0.1816
 5223SOL    HW127131   3.206   3.324   5.872 -0.3213 -0.7355 -0.0415
 5223SOL    HW227132   3.151   3.455   5.824 -1.0461  0.3757  0.3253
 5224SOL     OW27133   2.912   4.626   1.211 -0.1994 -0.1256  0.2498
 5224SOL    HW127134   2.827   4.664   1.232  1.0743  3.2445 -0.7052
 5224SOL    HW227135   2.894   4.535   1.233 -1.2706  0.0036 -0.1060
 5225SOL     OW27136   4.658   3.708  11.946  0.3926  0.3151  0.1555
 5225SOL    HW127137   4.571   3.741  11.924  0.6220  1.1845  0.5572
 5225SOL    HW227138   4.692   3.701  11.857  1.6812 -0.8005  0.7353
 5226SOL     OW27139   2.323   1.557   3.775  0.2727 -0.6274  0.5211
 5226SOL    HW127140   2.231   1.549   3.748 -0.7149  2.4119  2.9642
 5226SOL    HW227141   2.325   1.643   3.818  0.3659  0.5413 -1.8404
 5227SOL     OW27142   0.204   2.471  14.756 -0.1819  0.2363 -0.0970
 5227SOL    HW127143   0.230   2.538  14.693  1.1546 -1.4173 -1.2568
 5227SOL    HW227144   0.130   2.432  14.711  1.0506 -0.1290 -1.7696
 5228SOL     OW27145   1.765   3.539   5.875 -0.2174 -0.3947 -0.6558
 5228SOL    HW127146   1.705   3.464   5.874 -0.1972 -0.4229  0.0243
 5228SOL    HW227147   1.847   3.495   5.893  0.0433  0.2581 -0.2282
 5229SOL     OW27148   1.443   1.330   2.576  0.5316 -0.5054 -0.3639
 5229SOL    HW127149   1.422   1.245   2.614  1.4492 -0.2070  0.8066
 5229SOL    HW227150   1.407   1.386   2.645  1.6515  1.0430 -1.0523
 5230SOL     OW27151   0.305   2.783   3.753  0.2799  0.3076  0.5213
 5230SOL    HW127152   0.324   2.690   3.740  0.6130  0.4575 -0.0147
 5230SOL    HW227153   0.295   2.812   3.663  1.9428  0.9676  0.5570
 5231SOL     OW27154   4.517   4.484  14.235  0.4549 -0.3576  0.0440
 5231SOL    HW127155   4.497   4.409  14.179  1.9332  0.8352 -2.0960
 5231SOL    HW227156   4.599   4.453  14.273  0.4925  0.3834  0.5723
 5232SOL     OW27157   2.995   2.583   3.120  0.2377  0.1100  0.9051
 5232SOL    HW127158   2.937   2.579   3.195 -3.3416  0.1818 -1.8286
 5232SOL    HW227159   3.060   2.516   3.142 -0.5835 -0.6121  1.1079
 5233SOL     OW27160   2.191   1.739  13.098  0.5967  0.6815  0.0068
 5233SOL    HW127161   2.245   1.791  13.038  1.3067 -1.2526 -1.0097
 5233SOL    HW227162   2.106   1.763  13.060  1.0856  0.3924 -1.2588
 5234SOL     OW27163   1.756   2.848  15.319  0.2222 -0.3334  0.2966
 5234SOL    HW127164   1.727   2.778  15.377  1.2087 -0.7692  0.2554
 5234SOL    HW227165   1.835   2.806  15.286  0.6741  0.5269  0.2864
 5235SOL     OW27166   0.273   4.287  11.694 -0.0801  0.1124 -0.0749
 5235SOL    HW127167   0.251   4.200  11.660 -0.5673  0.7377 -1.3584
 5235SOL    HW227168   0.186   4.326  11.695 -0.5182 -0.8491 -1.6325
 5236SOL     OW27169   0.446   1.128  15.042  0.3944 -0.1619  0.4061
 5236SOL    HW127170   0.453   1.046  15.090 -1.0838 -0.6604 -0.2342
 5236SOL    HW227171   0.541   1.136  15.031  0.4239  0.1316  0.8897
 5237SOL     OW27172   2.115   2.620  11.888  0.1420 -0.4039 -0.3100
 5237SOL    HW127173   2.180   2.671  11.839  0.0368 -0.4041 -0.4492
 5237SOL    HW227174   2.166   2.598  11.966 -0.8603  1.8782  0.9837
 5238SOL     OW27175   0.627   3.768   6.439  0.0081 -0.2534 -0.0442
 5238SOL    HW127176   0.546   3.719   6.422  0.5290 -0.8779 -0.6893
 5238SOL    HW227177   0.694   3.701   6.434  0.3424 -0.0319  1.3102
 5239SOL     OW27178   1.731   4.511  13.763 -0.3118  0.0117  0.1376
 5239SOL    HW127179   1.728   4.543  13.853  0.5498  0.0386  0.1596
 5239SOL    HW227180   1.642   4.535  13.736  0.9732  1.0632 -3.1203
 5240SOL     OW27181   2.866   1.077   5.026  0.0111 -1.0288 -0.1732
 5240SOL    HW127182   2.953   1.102   5.055 -0.3076 -0.5494  0.3816
 5240SOL    HW227183   2.880   1.043   4.938  0.7445 -1.2222  0.0227
 5241SOL     OW27184   2.080   4.514   6.514 -0.3456 -0.5172 -0.1882
 5241SOL    HW127185   2.129   4.594   6.533  1.1428 -1.3515 -0.5482
 5241SOL    HW227186   2.024   4.517   6.592  2.3907  0.3291  1.7442
 5242SOL     OW27187   0.686   4.008   4.291  0.1622  0.4095  0.3032
 5242SOL    HW127188   0.734   3.928   4.269  0.2575  0.3321  0.7863
 5242SOL    HW227189   0.753   4.075   4.279  1.0659 -0.6342 -0.4445
 5243SOL     OW27190   3.547   0.117   8.005  0.0242 -0.0376 -0.5832
 5243SOL    HW127191   3.637   0.095   7.980 -0.2592 -0.3235 -1.3272
 5243SOL    HW227192   3.516   0.154   7.923  1.4099 -3.2340 -2.5473
 5244SOL     OW27193   2.255   1.171   8.704  0.2058 -0.2764 -0.2228
 5244SOL    HW127194   2.319   1.243   8.700 -2.4371  2.0540 -0.2212
 5244SOL    HW227195   2.177   1.221   8.729  1.7285  1.4267  1.1496
 5245SOL     OW27196   4.095   4.543   3.638 -0.3259  0.1265 -0.5123
 5245SOL    HW127197   4.161   4.611   3.624  0.8813 -1.0379 -0.5603
 5245SOL    HW227198   4.161   4.479   3.666 -2.4739 -1.8860 -0.0197
 5246SOL     OW27199   3.945   0.237   7.304  0.5026 -0.4213  0.0801
 5246SOL    HW127200   3.860   0.231   7.348  0.9076  0.8760  1.0523
 5246SOL    HW227201   3.962   0.147   7.277  1.6792 -0.4021  0.7507
 5247SOL     OW27202   0.653   4.302   1.800  0.9753 -0.1536  0.3565
 5247SOL    HW127203   0.726   4.272   1.853  0.7408 -0.7402  0.3468
 5247SOL    HW227204   0.595   4.232   1.829 -1.0883  1.1270 -0.6273
 5248SOL     OW27205   3.906   3.142  17.508 -0.1083  0.3749  0.5152
 5248SOL    HW127206   3.845   3.198  17.461 -0.4146  1.1676  1.8360
 5248SOL    HW227207   3.986   3.195  17.511 -0.4286  0.8479  0.8334
 5249SOL     OW27208   3.747   1.689   1.242  0.0999  0.2429  0.4883
 5249SOL    HW127209   3.786   1.633   1.310  0.9477 -0.0489 -0.2336
 5249SOL    HW227210   3.662   1.647   1.243  0.6212 -0.8182  0.5404
 5250SOL     OW27211   2.855   1.983   0.203 -0.2709 -0.0408 -0.3668
 5250SOL    HW127212   2.887   2.008   0.290  3.1531  1.9945 -2.2507
 5250SOL    HW227213   2.860   2.059   0.146  2.3235  1.1045  1.3621
 5251SOL     OW27214   1.980   0.327   4.955 -0.3657  0.2459  0.5730
 5251SOL    HW127215   2.015   0.294   4.872 -0.1822 -0.2692  0.8605
 5251SOL    HW227216   2.045   0.392   4.980  0.7645 -0.0052 -1.6966
 5252SOL     OW27217   2.731   0.364  15.924 -0.6626  0.0654  0.4024
 5252SOL    HW127218   2.814   0.345  15.881 -0.4787  1.8090 -0.0226
 5252SOL    HW227219   2.707   0.286  15.973  1.2698 -0.4324  0.5482
 5253SOL     OW27220   0.401   3.930   4.961  0.3753 -0.2260 -0.5069
 5253SOL    HW127221   0.355   3.896   5.037  2.0763 -0.0715  0.5973
 5253SOL    HW227222   0.363   3.872   4.895  1.7682 -0.4848 -1.0999
 5254SOL     OW27223   4.453   2.764  16.147 -0.4413 -0.2715  0.4633
 5254SOL    HW127224   4.480   2.675  16.125 -1.0773 -0.4204  0.2945
 5254SOL    HW227225   4.506   2.810  16.082 -0.8319  1.0768  1.0884
 5255SOL     OW27226   1.472   2.214   8.313 -0.2477 -0.0363 -0.4058
 5255SOL    HW127227   1.417   2.137   8.298  2.0501 -1.8106  0.1374
 5255SOL    HW227228   1.555   2.168   8.329 -0.5756  0.3265  2.2673
 5256SOL     OW27229   1.530   4.281   3.351 -0.5938 -0.7239  0.1940
 5256SOL    HW127230   1.560   4.199   3.313  1.0473  1.0394 -2.2878
 5256SOL    HW227231   1.479   4.314   3.277 -1.0581  0.3333  0.9767
 5257SOL     OW27232   0.466   0.016   3.098  0.3492 -0.2810 -0.2194
 5257SOL    HW127233   0.393   4.693   3.139  0.9752 -2.0034 -1.0231
 5257SOL    HW227234   0.500   4.678   3.033  1.1470  0.0520 -0.1094
 5258SOL     OW27235   2.802   0.530   3.526  0.4794  0.2800 -0.5810
 5258SOL    HW127236   2.777   0.605   3.473  0.6875 -1.6843 -3.4942
 5258SOL    HW227237   2.737   0.467   3.494  0.0613  0.8022 -0.7567
 5259SOL     OW27238   0.755   3.007   4.403 -0.2457 -0.7220 -0.0152
 5259SOL    HW127239   0.850   2.995   4.398 -0.0839  0.6074  0.0774
 5259SOL    HW227240   0.739   2.971   4.490  1.0166  0.0893  0.5417
 5260SOL     OW27241   1.095   2.461   6.388 -0.4497  0.1785 -0.1650
 5260SOL    HW127242   1.040   2.403   6.441 -0.6178  1.1724  0.7530
 5260SOL    HW227243   1.165   2.474   6.452 -0.3655  0.4905 -0.3216
 5261SOL     OW27244   0.321   2.464   6.065 -0.1624 -0.0451  0.5510
 5261SOL    HW127245   0.233   2.490   6.039  0.4946  1.4912 -0.1334
 5261SOL    HW227246   0.300   2.412   6.143 -0.6278  1.0121  1.1374
 5262SOL     OW27247   3.695   1.151   4.241 -0.3814  0.0048 -0.5103
 5262SOL    HW127248   3.641   1.103   4.178 -2.7561  1.0816  0.7007
 5262SOL    HW227249   3.772   1.158   4.184 -0.7746 -0.1994 -1.0696
 5263SOL     OW27250   2.139   2.406   3.581  0.0529  0.0177 -0.4746
 5263SOL    HW127251   2.188   2.401   3.663  1.1095 -2.6424 -1.2585
 5263SOL    HW227252   2.139   2.319   3.540 -0.7848 -0.5714  0.7690
 5264SOL     OW27253   0.790   0.480   7.082 -0.0740  0.8040 -0.5913
 5264SOL    HW127254   0.833   0.470   7.167 -0.7755 -1.3748 -0.4880
 5264SOL    HW227255   0.732   0.404   7.078  0.6913  0.1313  1.1921
 5265SOL     OW27256   0.051   1.233  15.801  0.1699  0.6947 -0.3652
 5265SOL    HW127257   4.702   1.257  15.860  1.2303 -0.5766  1.4403
 5265SOL    HW227258   0.047   1.307  15.741  0.8728  0.8372 -0.2298
 5266SOL     OW27259   2.736   2.947   1.971 -0.6080 -0.0603 -0.1424
 5266SOL    HW127260   2.793   2.962   1.896  1.8914 -1.3482  1.4828
 5266SOL    HW227261   2.701   2.864   1.937 -1.3965 -0.1750  0.9310
 5267SOL     OW27262   1.121   0.924   5.031 -0.0818 -0.0268 -0.5162
 5267SOL    HW127263   1.044   0.961   4.987  0.8384  0.8281 -1.4089
 5267SOL    HW227264   1.188   0.933   4.963 -0.3069  0.0215 -0.7324
 5268SOL     OW27265   2.332   0.046  10.745  0.4472 -0.5939  0.3341
 5268SOL    HW127266   2.344   0.021  10.837  0.3307 -0.3066  0.4294
 5268SOL    HW227267   2.241   0.016  10.737 -0.2492  0.9257  2.3250
 5269SOL     OW27268   4.226   0.469   3.981  0.4442  0.4643  0.3341
 5269SOL    HW127269   4.136   0.477   3.950  0.2928 -2.4475  0.0268
 5269SOL    HW227270   4.277   0.451   3.902  1.1139 -0.7385  1.0347
 5270SOL     OW27271   4.389   3.790  11.923  0.2986 -0.2701 -0.0693
 5270SOL    HW127272   4.331   3.785  11.847  0.6245  1.5811 -0.4360
 5270SOL    HW227273   4.335   3.749  11.990  2.1103 -3.5246 -0.6411
 5271SOL     OW27274   0.202   4.127   4.863 -0.4531  0.4560 -0.0893
 5271SOL    HW127275   0.251   4.102   4.785 -1.2485 -0.6053 -0.2557
 5271SOL    HW227276   0.177   4.039   4.893  1.3490  0.5160  1.5776
 5272SOL     OW27277   0.152   1.037   0.700  0.2627 -0.9254 -0.4461
 5272SOL    HW127278   0.152   1.097   0.775  1.3295  1.1686 -2.1465
 5272SOL    HW227279   0.065   1.038   0.660  1.0227 -1.1223 -2.0873
 5273SOL     OW27280   2.084   2.810   6.489 -0.3283  0.1964 -0.0345
 5273SOL    HW127281   2.126   2.894   6.508 -0.8821  0.8046 -1.5118
 5273SOL    HW227282   2.146   2.738   6.492 -2.0727 -1.2469  1.5806
 5274SOL     OW27283   0.112   3.390   2.916  0.3672  0.4830  0.1222
 5274SOL    HW127284   0.076   3.343   2.991 -0.8992 -0.0438 -0.8042
 5274SOL    HW227285   0.055   3.351   2.850  1.0561 -1.0793  0.4684
 5275SOL     OW27286   2.860   3.185   2.088  0.4185 -0.3436 -0.1673
 5275SOL    HW127287   2.817   3.110   2.047 -1.7016  1.1074 -0.5860
 5275SOL    HW227288   2.800   3.257   2.073  2.0435  0.7479 -1.3952
 5276SOL     OW27289   0.668   0.663  15.195 -0.0876 -0.2011 -0.2542
 5276SOL    HW127290   0.633   0.723  15.129  1.5818  0.0563 -0.9074
 5276SOL    HW227291   0.717   0.601  15.141  2.6059  1.0627  0.7537
 5277SOL     OW27292   0.044   2.275   2.490  1.1109 -0.6884  0.4948
 5277SOL    HW127293   0.125   2.286   2.440  0.7216 -0.1938 -0.0232
 5277SOL    HW227294   0.024   2.181   2.484  0.9733 -0.6495  0.3358
 5278SOL     OW27295   3.973   1.986   1.244  0.0598 -0.8008 -0.1038
 5278SOL    HW127296   4.020   2.067   1.223 -1.2627 -0.5782 -2.2216
 5278SOL    HW227297   4.017   1.967   1.327 -1.8725 -0.8351  0.9227
 5279SOL     OW27298   3.810   3.931   7.473 -0.4184  0.1481  0.0316
 5279SOL    HW127299   3.753   3.995   7.515  0.8556  1.7013 -0.6453
 5279SOL    HW227300   3.770   3.926   7.386  1.2984  2.4981 -0.8759
 5280SOL     OW27301   4.448   4.030  12.010 -0.3120  0.0869  0.0988
 5280SOL    HW127302   4.370   4.062  11.965 -0.1232 -1.5099 -1.3565
 5280SOL    HW227303   4.442   3.938  11.985 -1.5454 -0.1911  1.4186
 5281SOL     OW27304   2.664   2.708  13.905 -0.1827  0.4932 -0.8322
 5281SOL    HW127305   2.739   2.652  13.925  0.4420  0.2873 -3.7329
 5281SOL    HW227306   2.682   2.726  13.813  1.0309 -1.5061 -1.0061
 5282SOL     OW27307   2.332   4.608   7.097 -0.2825 -0.2891  0.3003
 5282SOL    HW127308   2.314   4.560   7.178 -1.6299 -0.0047  0.1800
 5282SOL    HW227309   2.414   4.655   7.112 -0.0787  0.0229 -1.8003
 5283SOL     OW27310   1.962   2.509   6.945 -0.1574 -0.0549  0.3853
 5283SOL    HW127311   1.877   2.465   6.954  0.2869 -1.8738 -4.4570
 5283SOL    HW227312   2.021   2.433   6.946 -0.4534 -0.2713  1.6314
 5284SOL     OW27313   0.215   3.997   2.079 -0.0872 -0.0961 -0.1463
 5284SOL    HW127314   0.158   3.940   2.028  1.5603 -2.7284  0.9974
 5284SOL    HW227315   0.303   3.968   2.058  0.1947 -1.3521  2.8640
 5285SOL     OW27316   3.257   4.310   8.843  0.4959  0.0031  0.0223
 5285SOL    HW127317   3.239   4.358   8.925  0.5099  1.2884 -0.7276
 5285SOL    HW227318   3.261   4.387   8.787  0.7209 -1.0926 -1.4613
 5286SOL     OW27319   2.471   0.076  11.549  0.1967 -0.4165 -0.2970
 5286SOL    HW127320   2.507   0.151  11.502  2.0551 -0.9612  0.2517
 5286SOL    HW227321   2.385   0.070  11.508 -0.8590  0.6539  1.7463
 5287SOL     OW27322   3.720   0.392   4.892 -0.3323 -0.3194 -0.2775
 5287SOL    HW127323   3.735   0.447   4.814 -1.5584 -1.5103 -1.3405
 5287SOL    HW227324   3.786   0.429   4.950 -1.5989  0.5343  0.6046
 5288SOL     OW27325   2.675   0.758   4.930  0.0461  0.0119 -0.4143
 5288SOL    HW127326   2.716   0.785   5.012 -0.2338  1.4449 -0.7331
 5288SOL    HW227327   2.746   0.712   4.886 -0.9254  0.1421 -2.1033
 5289SOL     OW27328   1.728   2.796  15.670 -0.2790 -0.1878 -0.0646
 5289SOL    HW127329   1.812   2.843  15.669 -1.3168  1.6569 -0.6036
 5289SOL    HW227330   1.743   2.734  15.598 -2.2446  3.6162 -3.7584
 5290SOL     OW27331   0.199   0.683   3.164 -0.2498 -0.9601  0.7181
 5290SOL    HW127332   0.164   0.602   3.200 -2.5246  0.5639  1.8966
 5290SOL    HW227333   0.142   0.708   3.091 -0.1482 -3.3475 -0.1686
 5291SOL     OW27334   0.650   3.121   8.997 -0.0146 -0.0052  0.1860
 5291SOL    HW127335   0.592   3.046   8.983  0.6718 -0.4256 -0.3953
 5291SOL    HW227336   0.722   3.104   8.936 -2.7847 -1.6888 -2.6711
 5292SOL     OW27337   2.831   1.987  10.579 -0.2094 -0.2017 -0.0573
 5292SOL    HW127338   2.915   1.941  10.580 -0.1074 -0.0398 -1.5326
 5292SOL    HW227339   2.810   2.010  10.669 -1.5483 -1.1514 -0.1223
 5293SOL     OW27340   2.552   0.517   9.193 -0.1213  0.1449 -0.1206
 5293SOL    HW127341   2.475   0.461   9.202 -0.9335  1.5050  1.4807
 5293SOL    HW227342   2.519   0.575   9.124 -0.9632 -0.1382  0.0546
 5294SOL     OW27343   2.792   2.438   8.542 -0.0085 -0.0873 -0.3807
 5294SOL    HW127344   2.754   2.354   8.568 -0.0738 -0.4495 -1.6236
 5294SOL    HW227345   2.788   2.484   8.626  1.1627 -0.3556 -0.1705
 5295SOL     OW27346   2.684   0.497   9.990 -0.5367  0.5477  0.0245
 5295SOL    HW127347   2.687   0.547  10.071 -0.8851  0.8109 -0.1240
 5295SOL    HW227348   2.774   0.512   9.958 -0.3213 -1.2433 -0.1753
 5296SOL     OW27349   3.215   2.544  12.082 -1.3455  0.4646  0.3839
 5296SOL    HW127350   3.179   2.596  12.154 -0.6363  1.0326  0.3260
 5296SOL    HW227351   3.308   2.553  12.103 -1.2099 -0.9967  0.4205
 5297SOL     OW27352   2.372   1.757  16.810 -0.5465 -0.1521  0.7266
 5297SOL    HW127353   2.345   1.788  16.896  0.3237 -0.8895  1.2559
 5297SOL    HW227354   2.289   1.718  16.781  0.7078 -1.6765 -0.8131
 5298SOL     OW27355   4.534   1.421   3.123 -0.4885  0.4428  0.1608
 5298SOL    HW127356   4.519   1.433   3.029 -0.2073 -0.8481 -0.0555
 5298SOL    HW227357   4.460   1.475   3.149 -1.4493 -1.4220  1.3106
 5299SOL     OW27358   2.394   0.612   7.169  0.3315  0.0720 -0.3270
 5299SOL    HW127359   2.321   0.581   7.116  0.0323  0.1942  0.0124
 5299SOL    HW227360   2.438   0.668   7.105 -1.4828  3.3461  1.3002
 5300SOL     OW27361   1.469   3.291   7.496  0.1646 -0.4374  0.5389
 5300SOL    HW127362   1.503   3.202   7.487  2.0088  0.1185  2.1289
 5300SOL    HW227363   1.553   3.337   7.502 -0.9900  1.8569 -0.8124
 5301SOL     OW27364   1.712   3.054   7.665  0.0815 -0.2717  0.5633
 5301SOL    HW127365   1.700   3.069   7.571  3.9467 -0.2146  0.0829
 5301SOL    HW227366   1.762   2.973   7.665  2.4246  1.1789  0.0746
 5302SOL     OW27367   4.671   0.295   8.794 -0.5366  0.9177  0.2853
 5302SOL    HW127368   0.029   0.244   8.782 -0.5277  0.8794  0.5133
 5302SOL    HW227369   4.697   0.337   8.876  0.7593  0.4814  0.1118
 5303SOL     OW27370   2.623   0.710   2.335 -0.1370 -0.2063 -0.1717
 5303SOL    HW127371   2.539   0.670   2.360 -0.0958 -0.1038  0.1407
 5303SOL    HW227372   2.607   0.756   2.253 -0.1042 -0.7933 -0.5041
 5304SOL     OW27373   0.003   2.434   4.696  0.1459  0.2417  0.0286
 5304SOL    HW127374   4.671   2.436   4.774  0.3823  1.5364  0.1637
 5304SOL    HW227375   4.659   2.461   4.633  0.6084 -0.2348 -0.6662
 5305SOL     OW27376   0.087   3.761  11.712  0.0477  0.4924  0.1343
 5305SOL    HW127377   0.058   3.726  11.628  0.4022 -0.3594  0.3677
 5305SOL    HW227378   0.177   3.730  11.708 -0.0928 -0.3160  2.7970
 5306SOL     OW27379   3.509   0.213   2.605 -0.0973  0.0221  0.4863
 5306SOL    HW127380   3.522   0.215   2.699 -2.0611 -0.5377  0.7547
 5306SOL    HW227381   3.468   0.298   2.587  1.0507  1.0010  2.4535
 5307SOL     OW27382   0.008   1.713  10.991 -0.1273  0.4182 -0.3167
 5307SOL    HW127383   0.097   1.683  11.014 -0.8505 -2.0625 -0.7540
 5307SOL    HW227384   0.006   1.731  10.897  2.1875  2.7601  0.0515
 5308SOL     OW27385   1.347   0.710   5.663 -0.4722 -0.4218 -0.0202
 5308SOL    HW127386   1.415   0.693   5.599 -1.7408 -0.4920 -1.3491
 5308SOL    HW227387   1.368   0.652   5.736  0.8479 -0.1737 -0.1964
 5309SOL     OW27388   2.836   0.342   3.198  0.3496  0.4327 -0.1051
 5309SOL    HW127389   2.757   0.380   3.161  0.7861  0.5352 -0.9407
 5309SOL    HW227390   2.834   0.257   3.153 -2.1523  1.1794 -1.3944
 5310SOL     OW27391   3.818   3.608   6.076 -0.0190  0.2069 -0.2291
 5310SOL    HW127392   3.886   3.625   6.011 -1.0632 -0.2860 -1.4600
 5310SOL    HW227393   3.748   3.587   6.014  0.1676 -0.1111 -0.3343
 5311SOL     OW27394   0.192   0.096  10.365  0.0446 -0.3836 -0.3326
 5311SOL    HW127395   0.225   0.126  10.281 -1.4329 -1.6258 -1.3618
 5311SOL    HW227396   0.275   0.065  10.401 -0.0870  0.1832  0.4590
 5312SOL     OW27397   4.668   1.569   3.314 -0.0429  0.1879 -0.8441
 5312SOL    HW127398   0.035   1.551   3.285 -0.8152 -2.9164 -1.3517
 5312SOL    HW227399   4.615   1.512   3.258 -1.7018  1.1966 -0.3157
 5313SOL     OW27400   1.133   0.387   6.520  0.0450  0.2793  0.0239
 5313SOL    HW127401   1.200   0.319   6.532 -0.3518 -0.1870 -0.4526
 5313SOL    HW227402   1.106   0.401   6.611  1.2874  0.8980  0.3045
 5314SOL     OW27403   0.552   3.733  11.823  0.6261  0.4849  0.1267
 5314SOL    HW127404   0.560   3.641  11.847 -1.3398  0.8552  2.1600
 5314SOL    HW227405   0.644   3.745  11.798  0.8450 -0.6775  0.3620
 5315SOL     OW27406   3.918   1.969   7.111  0.7323 -0.1832 -0.2361
 5315SOL    HW127407   3.850   1.993   7.048 -0.0969 -1.2588  0.2372
 5315SOL    HW227408   3.912   2.035   7.180 -0.3295 -1.0334  0.4860
 5316SOL     OW27409   1.100   0.026   2.395  0.1304  0.8846 -0.5922
 5316SOL    HW127410   1.093   0.065   2.482 -1.0363  1.0989 -0.7781
 5316SOL    HW227411   1.123   4.659   2.418  0.6662  1.3144  0.5771
 5317SOL     OW27412   2.898   3.422   4.880 -0.4165 -0.2113 -0.0486
 5317SOL    HW127413   2.918   3.356   4.947  0.3383 -0.0625 -0.1251
 5317SOL    HW227414   2.860   3.364   4.813  0.0715 -0.7389  0.1292
 5318SOL     OW27415   1.986   0.688   7.601  0.0796 -0.1482 -0.1866
 5318SOL    HW127416   2.031   0.758   7.554 -1.0408 -0.6370 -2.0088
 5318SOL    HW227417   2.061   0.629   7.596 -0.0732 -0.3076 -0.5595
 5319SOL     OW27418   1.079   1.791   3.353 -0.4150  0.3828 -0.2172
 5319SOL    HW127419   1.081   1.876   3.309 -0.5769 -1.0123 -2.8851
 5319SOL    HW227420   1.104   1.811   3.443  0.6088  0.4660 -0.5201
 5320SOL     OW27421   3.492   4.361  16.920 -0.3600  0.0450  0.0605
 5320SOL    HW127422   3.436   4.284  16.918 -2.4561  1.5239  1.4396
 5320SOL    HW227423   3.552   4.337  16.849  1.3726  1.9068  0.8738
 5321SOL     OW27424   4.620   3.159   5.513 -0.3683 -0.3198 -0.1583
 5321SOL    HW127425   4.553   3.204   5.564 -1.0235 -1.0921 -0.3492
 5321SOL    HW227426   4.594   3.070   5.537  0.6322 -0.1064  1.7502
 5322SOL     OW27427   3.203   3.934  12.632  0.1953 -0.1122 -0.2435
 5322SOL    HW127428   3.140   3.989  12.678  0.3158  0.7222 -1.0814
 5322SOL    HW227429   3.278   3.991  12.613  0.3917 -0.9977 -2.1311
 5323SOL     OW27430   4.711   0.673  16.397  0.7070  0.3811  0.1553
 5323SOL    HW127431   0.079   0.702  16.405  0.5127  1.1147 -0.3200
 5323SOL    HW227432   4.671   0.742  16.449 -0.5268  0.5237 -0.9752
 5324SOL     OW27433   2.072   4.326   2.654 -0.6823 -0.2749 -0.0313
 5324SOL    HW127434   1.994   4.295   2.608 -0.0537 -1.2024 -0.4818
 5324SOL    HW227435   2.066   4.291   2.743  0.0064  0.6967  0.3993
 5325SOL     OW27436   3.753   3.851   4.742 -0.9197  0.1142  0.3390
 5325SOL    HW127437   3.834   3.903   4.745 -0.8907 -0.0253  1.7844
 5325SOL    HW227438   3.743   3.853   4.647  0.2371  1.8111  0.2380
 5326SOL     OW27439   0.405   3.714  10.045 -0.5255 -0.1873 -0.3580
 5326SOL    HW127440   0.336   3.663  10.001  0.1835 -2.3809  1.0993
 5326SOL    HW227441   0.478   3.694   9.986 -0.5747 -1.7905  0.1179
 5327SOL     OW27442   4.670   2.725   7.255 -0.3373 -0.8786  0.3307
 5327SOL    HW127443   4.659   2.662   7.183  1.7091  0.5791 -1.2680
 5327SOL    HW227444   4.624   2.691   7.331 -2.9255 -1.5805 -1.5386
 5328SOL     OW27445   2.533   0.088   7.117 -0.0697  0.3957 -0.2275
 5328SOL    HW127446   2.583   0.163   7.151 -0.2033  0.2746  0.2343
 5328SOL    HW227447   2.464   0.138   7.075 -0.2454  0.5397  0.2318
 5329SOL     OW27448   4.277   2.590   7.170 -0.3107  0.2429  0.2032
 5329SOL    HW127449   4.310   2.503   7.146 -1.9071 -0.6259  1.1541
 5329SOL    HW227450   4.195   2.565   7.213 -0.1975 -0.2733  0.1308
 5330SOL     OW27451   4.057   1.554   0.084 -0.7000 -0.1069  0.2307
 5330SOL    HW127452   4.012   1.625   0.131 -2.1766  0.5658 -2.1871
 5330SOL    HW227453   4.106   1.517   0.157 -0.3522 -0.0162  0.0397
 5331SOL     OW27454   0.181   2.457   2.920  0.4638  0.1882 -0.1099
 5331SOL    HW127455   0.101   2.412   2.896  0.7355  0.2166 -1.0716
 5331SOL    HW227456   0.193   2.416   3.006 -2.3002  1.1894  0.7506
 5332SOL     OW27457   3.307   2.780   7.192  0.0028  0.2544 -0.4715
 5332SOL    HW127458   3.355   2.698   7.185  0.6358  0.5789  0.0805
 5332SOL    HW227459   3.236   2.740   7.242  0.6527  0.3998  0.5529
 5333SOL     OW27460   0.687   4.435   5.954 -0.3986  0.4225 -0.0729
 5333SOL    HW127461   0.678   4.449   6.049 -0.6642 -2.5934  0.3720
 5333SOL    HW227462   0.689   4.339   5.957 -1.2313  0.4328  1.0583
 5334SOL     OW27463   0.223   2.273   6.275  0.9685  0.1808 -0.3848
 5334SOL    HW127464   0.164   2.234   6.210  0.9940 -1.5706  0.6351
 5334SOL    HW227465   0.217   2.212   6.348  1.9922  1.3161  0.6482
 5335SOL     OW27466   2.134   2.605  13.275 -0.0154  0.3364  1.0931
 5335SOL    HW127467   2.206   2.635  13.330  0.3325 -0.4419  1.0616
 5335SOL    HW227468   2.184   2.601  13.194 -1.4293  0.4377  0.2013
 5336SOL     OW27469   0.054   0.252  15.725 -0.1370 -0.3881 -0.0410
 5336SOL    HW127470   0.116   0.301  15.779  1.6671 -1.6391 -0.9373
 5336SOL    HW227471   0.016   0.195  15.792  2.1760 -1.6035  0.2705
 5337SOL     OW27472   4.443   0.870   3.381 -0.2661  0.4608  0.4873
 5337SOL    HW127473   4.492   0.946   3.350 -0.7876  0.4743 -0.2872
 5337SOL    HW227474   4.404   0.836   3.301  0.5151 -0.5814  0.5448
 5338SOL     OW27475   1.153   3.242   9.332 -0.2721 -0.7058  0.0841
 5338SOL    HW127476   1.191   3.227   9.418  0.0478  0.8161  0.1979
 5338SOL    HW227477   1.146   3.151   9.300 -1.6311 -0.9387  1.0718
 5339SOL     OW27478   3.846   1.988   2.152 -0.9917  0.6942 -1.1940
 5339SOL    HW127479   3.891   2.071   2.138 -0.1807  0.0022 -2.7222
 5339SOL    HW227480   3.846   1.976   2.247 -1.0493  1.0940 -1.1449
 5340SOL     OW27481   2.720   1.102  14.888 -0.0014 -1.0412 -0.8464
 5340SOL    HW127482   2.800   1.088  14.940  0.1363 -0.9658 -1.0352
 5340SOL    HW227483   2.761   1.145  14.812 -1.4938  1.5988 -0.1551
 5341SOL     OW27484   4.135   3.817   7.820  0.1112 -0.8050  0.1499
 5341SOL    HW127485   4.067   3.784   7.761 -2.9561  1.0081  2.7244
 5341SOL    HW227486   4.195   3.869   7.765  0.1899 -1.4787 -0.4018
 5342SOL     OW27487   0.050   0.643  15.692 -0.1317  0.2654  0.1184
 5342SOL    HW127488   0.101   0.709  15.644 -1.0394 -0.3225 -1.6537
 5342SOL    HW227489   0.117   0.575  15.704  0.5973  1.2323  1.6263
 5343SOL     OW27490   3.663   4.543   8.088 -0.3924 -0.0631 -0.0780
 5343SOL    HW127491   3.678   4.614   8.026 -2.1165 -0.2002 -0.6574
 5343SOL    HW227492   3.572   4.553   8.115 -0.2687 -2.9249  1.4012
 5344SOL     OW27493   3.279   0.654   7.857  0.4796  0.4373 -0.3731
 5344SOL    HW127494   3.209   0.601   7.896  1.4182 -0.1772  0.4835
 5344SOL    HW227495   3.248   0.745   7.864  0.7715  0.3402  2.1316
 5345SOL     OW27496   4.513   1.738   2.849  0.1165  0.6952 -0.2051
 5345SOL    HW127497   4.498   1.644   2.862  0.0645  0.8682  0.9986
 5345SOL    HW227498   4.520   1.761   2.942  0.9487 -2.3124  0.4771
 5346SOL     OW27499   2.550   0.886   5.648  0.3672  0.3660  0.6765
 5346SOL    HW127500   2.516   0.867   5.736  0.7590 -0.1598  0.7103
 5346SOL    HW227501   2.630   0.835   5.641  0.5891  0.8665 -0.5346
 5347SOL     OW27502   3.722   4.070  14.000  0.0774 -0.1295 -0.0266
 5347SOL    HW127503   3.778   3.993  14.003  0.0462 -0.0532  2.6153
 5347SOL    HW227504   3.777   4.127  13.946 -1.2717  0.5968 -0.6585
 5348SOL     OW27505   1.028   3.271   9.046  0.2302  0.4958 -0.6132
 5348SOL    HW127506   1.081   3.216   8.989  1.0194 -0.3734  0.9699
 5348SOL    HW227507   1.095   3.292   9.111  0.0997 -0.3326 -0.2150
 5349SOL     OW27508   1.867   3.327   7.315 -0.2601  0.7623 -0.3787
 5349SOL    HW127509   1.840   3.376   7.392 -1.0769  0.1778 -0.2971
 5349SOL    HW227510   1.795   3.336   7.253 -0.3704  0.3181 -0.3139
 5350SOL     OW27511   0.767   3.231   3.223  0.2294  0.0241 -1.3048
 5350SOL    HW127512   0.855   3.266   3.234 -0.4651  1.8566 -1.6701
 5350SOL    HW227513   0.732   3.310   3.182  3.2417  0.3033 -3.3228
 5351SOL     OW27514   4.276   2.932   3.036  0.3741  0.0529  0.2586
 5351SOL    HW127515   4.231   3.016   3.031 -2.4878 -1.5650 -0.7738
 5351SOL    HW227516   4.359   2.951   3.081 -1.2866  1.7236  2.6153
 5352SOL     OW27517   3.528   2.829   1.816  1.0568  0.3424 -0.8132
 5352SOL    HW127518   3.476   2.898   1.775 -0.5570  0.0289  0.7416
 5352SOL    HW227519   3.594   2.827   1.747 -1.9777  1.0728 -3.7489
 5353SOL     OW27520   2.881   0.744  16.175  0.2392 -0.6298  0.3082
 5353SOL    HW127521   2.839   0.731  16.260  0.2361 -2.3348  0.0426
 5353SOL    HW227522   2.803   0.764  16.123  0.8383 -1.8335 -1.0468
 5354SOL     OW27523   1.701   4.000   1.468  0.1898 -0.1631 -0.5990
 5354SOL    HW127524   1.650   4.046   1.401  0.2407 -1.2170 -1.3471
 5354SOL    HW227525   1.727   4.068   1.531  0.0492 -1.1599  0.5284
 5355SOL     OW27526   0.378   3.281  13.456 -0.3963  0.0845 -0.1493
 5355SOL    HW127527   0.443   3.234  13.405  2.3668  1.2476  2.2892
 5355SOL    HW227528   0.421   3.366  13.464  0.2993 -0.3481  0.6617
 5356SOL     OW27529   0.871   1.053   4.046 -0.8327  0.1799 -0.3788
 5356SOL    HW127530   0.954   1.006   4.038 -1.2511 -0.3802 -1.4267
 5356SOL    HW227531   0.850   1.066   3.954 -1.6116  1.3402 -0.0313
 5357SOL     OW27532   3.514   2.361   4.574  0.2419  0.3697  0.3670
 5357SOL    HW127533   3.584   2.322   4.522 -1.4739 -0.8730 -1.0039
 5357SOL    HW227534   3.547   2.450   4.567 -0.4294  0.5411 -0.6830
 5358SOL     OW27535   0.338   0.923   5.557  0.1232 -0.4727 -0.3236
 5358SOL    HW127536   0.393   0.986   5.511 -0.2245 -0.5382 -0.8207
 5358SOL    HW227537   0.258   0.932   5.505  0.3803  0.7227 -0.5223
 5359SOL     OW27538   2.873   1.170   7.623  0.0797  0.7022 -0.1177
 5359SOL    HW127539   2.858   1.264   7.615 -1.9783  0.1239 -3.3724
 5359SOL    HW227540   2.863   1.139   7.533  2.2434  0.0299 -0.1295
 5360SOL     OW27541   2.508   3.429   2.471 -0.1250  0.2238  0.1033
 5360SOL    HW127542   2.489   3.384   2.389 -0.3767 -0.2115  0.4014
 5360SOL    HW227543   2.522   3.518   2.439  1.0117 -0.0719 -0.2004
 5361SOL     OW27544   3.715   0.192  17.310 -1.1040 -0.8576  0.5162
 5361SOL    HW127545   3.689   0.158  17.225  0.9642  0.6661 -0.7252
 5361SOL    HW227546   3.808   0.179  17.290 -0.7645 -3.4608  3.8916
 5362SOL     OW27547   3.645   0.066   9.782 -0.4285  0.2661  0.0922
 5362SOL    HW127548   3.676   0.062   9.872 -3.3743  1.5626  1.1891
 5362SOL    HW227549   3.722   0.087   9.729  0.6491 -0.5434  1.3388
 5363SOL     OW27550   1.192   2.318   2.746 -0.0622  0.5389  0.1071
 5363SOL    HW127551   1.160   2.228   2.742 -2.2102  1.3128 -0.0969
 5363SOL    HW227552   1.154   2.362   2.670  1.9738 -1.1858 -1.8821
 5364SOL     OW27553   0.555   2.830  16.999 -0.0463  0.7845 -0.4891
 5364SOL    HW127554   0.529   2.779  17.076  0.5163 -0.1112 -0.8969
 5364SOL    HW227555   0.576   2.912  17.044 -0.7576  0.8786 -0.3243
 5365SOL     OW27556   4.384   2.860   2.443 -0.1607  0.0721 -0.5357
 5365SOL    HW127557   4.297   2.829   2.467  0.5177 -0.0868  1.7273
 5365SOL    HW227558   4.446   2.796   2.478 -0.1713 -0.0453 -0.7308
 5366SOL     OW27559   0.381   1.782   7.308  0.1301  0.6586  0.3405
 5366SOL    HW127560   0.436   1.729   7.366 -0.6795 -0.6850 -0.1396
 5366SOL    HW227561   0.358   1.858   7.362 -1.6410  1.3682 -1.4362
 5367SOL     OW27562   4.570   3.306   8.420 -0.6154  0.4362  0.3731
 5367SOL    HW127563   4.588   3.369   8.490 -0.1282  0.9462 -0.2077
 5367SOL    HW227564   4.597   3.223   8.459  2.7610  1.7834  0.8508
 5368SOL     OW27565   2.807   3.521   7.086  0.1410  0.0564  0.2011
 5368SOL    HW127566   2.831   3.529   7.178 -1.5006 -0.2477  0.6665
 5368SOL    HW227567   2.849   3.436   7.068 -2.9566 -1.1823 -1.2540
 5369SOL     OW27568   0.004   3.345  17.233 -0.0563 -0.2731  0.2457
 5369SOL    HW127569   0.051   3.425  17.210 -1.2289  0.9860  2.2738
 5369SOL    HW227570   4.688   3.369  17.317 -0.2544 -0.0757  0.0974
 5370SOL     OW27571   0.850   2.706   4.560 -0.6630  0.2866 -0.6626
 5370SOL    HW127572   0.904   2.755   4.499 -0.2414 -1.5347 -1.7616
 5370SOL    HW227573   0.809   2.779   4.606 -1.0007 -0.4008  0.1370
 5371SOL     OW27574   2.918   4.233   7.752 -0.0887 -0.0498 -0.3497
 5371SOL    HW127575   2.979   4.191   7.691 -0.0717 -1.8128  0.8820
 5371SOL    HW227576   2.843   4.174   7.746  0.0020 -0.0320 -1.6546
 5372SOL     OW27577   0.870   1.938   2.350  0.1615  0.7929 -0.7904
 5372SOL    HW127578   0.860   1.970   2.261  1.0323 -0.7805 -1.4472
 5372SOL    HW227579   0.946   1.881   2.340  0.8567  1.5721 -0.0146
 5373SOL     OW27580   3.795   2.622   1.480 -0.1103  0.3280 -0.4998
 5373SOL    HW127581   3.760   2.618   1.390  0.2044  1.1893 -0.6571
 5373SOL    HW227582   3.860   2.551   1.483  0.9046  1.1735 -2.5756
 5374SOL     OW27583   0.343   0.234   1.869  0.2154 -0.6084  0.2003
 5374SOL    HW127584   0.429   0.193   1.854 -0.0145 -0.4210 -1.5561
 5374SOL    HW227585   0.319   0.237   1.777  1.1482 -0.4486 -0.0438
 5375SOL     OW27586   3.666   4.474   9.913 -0.2951 -0.4636 -0.5883
 5375SOL    HW127587   3.687   4.413   9.843 -1.7222  1.6150 -2.8200
 5375SOL    HW227588   3.746   4.526   9.918 -0.6092  0.1005 -1.4503
 5376SOL     OW27589   3.638   1.122   7.119 -0.2005  0.4735 -0.0818
 5376SOL    HW127590   3.644   1.028   7.135 -1.5497  0.4594  0.3516
 5376SOL    HW227591   3.542   1.131   7.119 -0.3274 -0.8907 -0.1256
 5377SOL     OW27592   0.033   4.364   7.652  0.4576 -0.5079 -0.3949
 5377SOL    HW127593   0.024   4.315   7.570  0.3552 -0.8508 -0.1797
 5377SOL    HW227594   4.671   4.353   7.695  1.4292 -0.0121  1.6183
 5378SOL     OW27595   4.186   1.049  13.331  0.1376 -0.4512  0.1541
 5378SOL    HW127596   4.150   0.965  13.302 -0.8225  0.1507 -0.4147
 5378SOL    HW227597   4.127   1.071  13.403 -1.9306 -1.4584 -1.2236
 5379SOL     OW27598   1.884   2.603  17.285  0.3332 -0.9717 -0.0764
 5379SOL    HW127599   1.873   2.542  17.212  0.6343  0.6125 -1.4457
 5379SOL    HW227600   1.796   2.639  17.287  0.9661  0.4889  1.1194
 5380SOL     OW27601   0.009   1.568  12.085  0.2568 -0.1001 -0.1059
 5380SOL    HW127602   4.657   1.588  12.028 -1.1627 -1.6526  1.2046
 5380SOL    HW227603   0.054   1.651  12.095 -1.9113  0.8558  1.8672
 5381SOL     OW27604   2.029   1.495   7.986  0.2833 -0.1532 -0.4685
 5381SOL    HW127605   2.031   1.549   8.065 -0.8734 -0.6685 -0.0878
 5381SOL    HW227606   2.073   1.412   8.003  1.0339  0.9250  2.9081
 5382SOL     OW27607   2.255   3.264   6.735  0.0933 -0.7245 -0.1142
 5382SOL    HW127608   2.287   3.352   6.755 -0.4819 -0.2099 -1.4540
 5382SOL    HW227609   2.169   3.273   6.778  0.0480  2.1225 -0.8053
 5383SOL     OW27610   2.266   2.372  11.773 -0.3632 -0.0970  0.6916
 5383SOL    HW127611   2.260   2.432  11.699  0.1200 -0.7143  0.1514
 5383SOL    HW227612   2.173   2.367  11.796 -0.5347 -0.1133 -0.0120
 5384SOL     OW27613   2.962   1.193   5.988 -0.3297 -0.4442  0.3121
 5384SOL    HW127614   2.999   1.121   6.038  0.8876 -0.4208 -0.5379
 5384SOL    HW227615   2.955   1.264   6.051  1.9169 -0.8381  1.0231
 5385SOL     OW27616   2.713   4.374  14.135 -0.0575 -0.3572  0.1484
 5385SOL    HW127617   2.730   4.461  14.171  1.1234 -0.1319 -0.9290
 5385SOL    HW227618   2.618   4.372  14.131  0.0030  0.0979 -1.5326
 5386SOL     OW27619   3.706   3.409   2.555  0.2563  0.8563  0.0290
 5386SOL    HW127620   3.688   3.319   2.528 -0.8163  0.5473  1.7600
 5386SOL    HW227621   3.781   3.423   2.497  0.5651  0.2994  0.3024
 5387SOL     OW27622   3.588   1.070  16.773  0.4844 -0.3713  0.0558
 5387SOL    HW127623   3.511   1.122  16.795  0.0878  0.3184 -3.0270
 5387SOL    HW227624   3.612   1.036  16.859  0.4944 -2.1774 -0.6607
 5388SOL     OW27625   1.752   4.373   1.870 -0.0465 -0.5079 -0.3513
 5388SOL    HW127626   1.781   4.452   1.916  0.9402 -0.5599 -0.8897
 5388SOL    HW227627   1.760   4.311   1.943 -1.9883 -1.7519 -1.1821
 5389SOL     OW27628   1.222   4.553   0.733  0.2489 -0.5125 -0.0823
 5389SOL    HW127629   1.298   4.598   0.695 -0.4569 -0.4072 -1.3721
 5389SOL    HW227630   1.265   4.539   0.818  0.9118 -2.0877 -0.6894
 5390SOL     OW27631   2.419   3.843   4.803 -0.6329  0.3895 -0.2728
 5390SOL    HW127632   2.384   3.753   4.802 -0.2878  0.2374  2.1404
 5390SOL    HW227633   2.416   3.861   4.709 -1.2720  1.1410 -0.1066
 5391SOL     OW27634   2.640   4.108   3.552  0.0844  0.1503 -0.1932
 5391SOL    HW127635   2.721   4.068   3.519  0.0594 -0.1556  0.1109
 5391SOL    HW227636   2.645   4.092   3.647 -1.7931 -0.7378 -0.2592
 5392SOL     OW27637   1.914   4.389   0.317 -0.8383 -0.1137  0.3163
 5392SOL    HW127638   1.891   4.300   0.345  0.7249 -0.8044 -0.5447
 5392SOL    HW227639   1.931   4.367   0.225  0.4495  1.1228  0.2616
 5393SOL     OW27640   0.809   1.767   6.710  0.3815  0.0350  0.0038
 5393SOL    HW127641   0.768   1.728   6.787 -0.5771 -2.4666 -1.7697
 5393SOL    HW227642   0.733   1.758   6.653  0.7607 -4.4252  0.1640
 5394SOL     OW27643   1.435   1.533   4.261  0.1389  0.0621  0.1218
 5394SOL    HW127644   1.524   1.519   4.230  0.1366  2.4054 -0.9436
 5394SOL    HW227645   1.384   1.544   4.181  0.5006 -4.6868 -0.7728
 5395SOL     OW27646   1.980   3.132   8.663 -0.6950  0.0902  0.2303
 5395SOL    HW127647   1.934   3.155   8.583 -0.5673  0.6244  0.3101
 5395SOL    HW227648   1.930   3.058   8.697  2.2039 -0.5957  3.0165
 5396SOL     OW27649   1.792   2.060   4.947  0.1004  0.4081 -0.3355
 5396SOL    HW127650   1.740   2.013   5.012  2.1659 -0.4891  0.6496
 5396SOL    HW227651   1.746   2.027   4.869 -1.1560 -0.6902  0.8529
 5397SOL     OW27652   2.827   4.601  13.530  0.3700 -0.2490  0.9702
 5397SOL    HW127653   2.808   4.555  13.449  1.7958  0.0931  0.4279
 5397SOL    HW227654   2.893   4.541  13.566 -0.1242  0.1694  2.5698
 5398SOL     OW27655   2.740   3.918   8.787  0.3073 -1.3269  0.0437
 5398SOL    HW127656   2.797   3.971   8.730 -1.5797 -0.3777 -0.9711
 5398SOL    HW227657   2.744   3.978   8.861 -1.9848 -2.5111  1.1084
 5399SOL     OW27658   1.776   2.790  10.344  0.1035  0.4718  0.3252
 5399SOL    HW127659   1.712   2.810  10.413  0.3920  1.7167  0.2311
 5399SOL    HW227660   1.744   2.851  10.277  1.2033  0.1103 -0.5242
 5400SOL     OW27661   2.646   3.541   7.467 -0.4453  0.7024  0.6391
 5400SOL    HW127662   2.648   3.530   7.562  2.7027 -0.2970  0.4412
 5400SOL    HW227663   2.734   3.521   7.436 -0.7845  0.4828 -0.1825
 5401SOL     OW27664   0.357   4.639  12.411  0.2461 -0.1733  0.4327
 5401SOL    HW127665   0.287   4.641  12.476  0.3265 -2.3663  0.5995
 5401SOL    HW227666   0.331   4.576  12.344  0.1322 -0.8730  1.1291
 5402SOL     OW27667   0.017   0.158  16.462 -0.6364  0.0271  0.0553
 5402SOL    HW127668   0.011   0.124  16.373 -0.2978  0.6775 -0.2191
 5402SOL    HW227669   0.085   0.225  16.453 -0.9958  0.1796 -1.4695
 5403SOL     OW27670   0.054   1.324   1.303  0.3261 -0.1519 -0.2263
 5403SOL    HW127671   0.046   1.312   1.398  1.8717  1.6133  0.1166
 5403SOL    HW227672   0.070   1.418   1.297 -0.4211  0.0535  0.9720
 5404SOL     OW27673   2.305   1.188   6.600  0.2422 -0.5168  0.3571
 5404SOL    HW127674   2.361   1.124   6.644 -0.4636 -3.2808 -2.7629
 5404SOL    HW227675   2.351   1.268   6.628  1.1575 -0.7795 -0.4194
 5405SOL     OW27676   4.313   3.018  14.251  0.0874 -0.0971 -0.5653
 5405SOL    HW127677   4.277   3.101  14.220  1.8688  0.6696 -0.6099
 5405SOL    HW227678   4.401   3.029  14.215 -1.0033  1.9708 -2.5977
 5406SOL     OW27679   3.269   2.101   3.255  0.2661  0.3514 -0.4314
 5406SOL    HW127680   3.203   2.153   3.209 -0.1962 -0.2791 -0.4734
 5406SOL    HW227681   3.325   2.175   3.280  0.3217  0.3810 -0.6436
 5407SOL     OW27682   3.763   1.321   8.445  0.5643  0.5667  0.3138
 5407SOL    HW127683   3.711   1.255   8.397  2.6873  0.7493 -2.2461
 5407SOL    HW227684   3.699   1.392   8.443  0.6155  0.6077  0.1577
 5408SOL     OW27685   2.907   3.377   5.537 -1.1261  0.0245  0.2817
 5408SOL    HW127686   2.969   3.370   5.464 -0.2702 -2.3185  1.2142
 5408SOL    HW227687   2.885   3.470   5.536  1.0934  0.5403 -1.0408
 5409SOL     OW27688   3.214   0.767   5.698  0.0800  0.1910 -0.4402
 5409SOL    HW127689   3.268   0.714   5.640 -1.3562 -1.6714 -0.0729
 5409SOL    HW227690   3.143   0.708   5.722  2.5078 -1.8126  1.7656
 5410SOL     OW27691   4.174   1.841   1.586  0.2963 -0.0653  0.2512
 5410SOL    HW127692   4.231   1.765   1.591  1.3608  0.6277 -1.4481
 5410SOL    HW227693   4.195   1.881   1.671 -0.4548 -0.1541  0.4746
 5411SOL     OW27694   4.322   2.884   7.363 -0.1555 -0.3864 -0.1328
 5411SOL    HW127695   4.267   2.876   7.284  1.6471 -0.6806 -1.3625
 5411SOL    HW227696   4.299   2.808   7.416  0.6342 -0.5851 -0.0781
 5412SOL     OW27697   4.193   0.723   6.638  0.7866  0.3305  0.7780
 5412SOL    HW127698   4.170   0.809   6.601 -0.2166  0.6101  2.0582
 5412SOL    HW227699   4.277   0.707   6.597  0.3104  1.3704 -0.6057
 5413SOL     OW27700   0.719   1.726   8.015  0.0641 -0.3140  0.1515
 5413SOL    HW127701   0.780   1.697   8.082 -0.2015 -1.0732  0.0589
 5413SOL    HW227702   0.735   1.819   8.033 -0.4220 -0.6768  2.5013
 5414SOL     OW27703   4.179   1.344   7.310  0.0245 -0.1516  0.3663
 5414SOL    HW127704   4.263   1.305   7.336 -0.7106 -1.8127  0.2423
 5414SOL    HW227705   4.169   1.430   7.350 -0.1857  1.6950 -3.7926
 5415SOL     OW27706   4.189   0.097   6.473 -0.7103  0.1202  0.2056
 5415SOL    HW127707   4.183   0.180   6.425  0.3269 -0.0029 -0.1507
 5415SOL    HW227708   4.147   0.034   6.415 -3.0244  0.1486  1.8532
 5416SOL     OW27709   2.586   1.180   6.025 -0.4401 -0.4689 -0.0051
 5416SOL    HW127710   2.607   1.257   5.973  0.4773 -1.9085 -1.7332
 5416SOL    HW227711   2.596   1.225   6.110  2.7010  1.8808 -1.6355
 5417SOL     OW27712   4.511   1.579   1.374  0.4574  0.0324 -0.5406
 5417SOL    HW127713   4.437   1.577   1.313  0.6044  2.4711 -0.8212
 5417SOL    HW227714   4.581   1.604   1.313  3.6854 -1.8444  2.3965
 5418SOL     OW27715   2.163   2.003  15.797  0.3958 -0.3953 -0.6194
 5418SOL    HW127716   2.131   2.082  15.752 -0.5813 -0.7566 -0.5586
 5418SOL    HW227717   2.137   2.020  15.888  0.5494 -1.3291 -0.3990
 5419SOL     OW27718   4.175   0.842  14.722  0.4549  0.2729 -0.2759
 5419SOL    HW127719   4.225   0.900  14.780  0.3353  0.8976 -0.7989
 5419SOL    HW227720   4.235   0.767  14.718  0.6139  0.4530 -1.2040
 5420SOL     OW27721   2.820   1.867  15.368 -0.4458 -0.1997 -0.0388
 5420SOL    HW127722   2.871   1.946  15.351  0.1399 -0.4240  0.6647
 5420SOL    HW227723   2.742   1.903  15.410 -0.2561  0.5774 -0.3604
 5421SOL     OW27724   3.502   2.140   8.106  0.2889 -0.9133  0.4289
 5421SOL    HW127725   3.587   2.104   8.131  0.8867  0.2210  0.0722
 5421SOL    HW227726   3.521   2.234   8.096  1.0452 -1.1218 -0.1436
 5422SOL     OW27727   3.398   4.506   8.222  0.3329 -0.0353 -0.3788
 5422SOL    HW127728   3.404   4.473   8.312  0.0949 -0.4207 -0.5062
 5422SOL    HW227729   3.366   4.427   8.178  1.1888 -1.2351  1.1532
 5423SOL     OW27730   2.297   1.090   8.179 -0.2352  1.1050  0.1129
 5423SOL    HW127731   2.364   1.022   8.184 -1.3687  0.0190  0.6305
 5423SOL    HW227732   2.342   1.156   8.231  2.6720 -0.3546 -0.5616
 5424SOL     OW27733   0.800   2.890   2.316 -0.2565 -0.4021 -0.2947
 5424SOL    HW127734   0.844   2.814   2.355  1.7788  0.6312 -0.6154
 5424SOL    HW227735   0.811   2.954   2.386  0.4899 -1.5856  0.6645
 5425SOL     OW27736   2.457   4.634   4.334  0.0278  0.7360 -0.2744
 5425SOL    HW127737   2.472   4.548   4.375 -1.1109  1.1057  0.9413
 5425SOL    HW227738   2.464   4.705   4.398  0.1570 -0.1115  0.6428
 5426SOL     OW27739   0.228   0.796   8.333 -0.4072  0.0607 -0.0985
 5426SOL    HW127740   0.252   0.836   8.250 -0.7985  1.5306  0.5100
 5426SOL    HW227741   0.133   0.785   8.324 -0.9152  0.6566  4.6443
 5427SOL     OW27742   4.513   1.899  12.683  0.2510  0.8380  0.4274
 5427SOL    HW127743   4.567   1.975  12.661 -0.1170  0.9883  0.0553
 5427SOL    HW227744   4.430   1.937  12.655  0.6678  1.3246 -0.1581
 5428SOL     OW27745   3.010   3.210   7.317  0.2155  0.6514 -0.7508
 5428SOL    HW127746   2.975   3.125   7.343  2.5384  0.5040  1.9137
 5428SOL    HW227747   2.995   3.196   7.224 -0.3996  0.1161 -0.5738
 5429SOL     OW27748   4.388   4.619   2.895  0.6211  0.1304  0.0820
 5429SOL    HW127749   4.372   4.578   2.980 -0.5779  0.4855  0.0284
 5429SOL    HW227750   4.429   4.550   2.843 -3.5264 -0.8192 -1.9338
 5430SOL     OW27751   4.141   1.182   5.213 -0.5659 -0.1128  0.0949
 5430SOL    HW127752   4.084   1.226   5.276 -2.9113  1.1832 -2.9431
 5430SOL    HW227753   4.224   1.198   5.259 -0.2449 -1.4095 -0.0340
 5431SOL     OW27754   3.612   3.586   5.251  0.0382 -0.6652 -0.0586
 5431SOL    HW127755   3.545   3.642   5.211  1.1776  1.6490  1.2372
 5431SOL    HW227756   3.687   3.645   5.242  0.6962 -1.1587  2.1369
 5432SOL     OW27757   3.701   0.263   3.808  0.4637 -0.4618  0.2209
 5432SOL    HW127758   3.691   0.354   3.834 -0.1636 -0.3649 -0.3813
 5432SOL    HW227759   3.674   0.264   3.716  2.7596 -2.4190 -0.4965
 5433SOL     OW27760   3.411   1.526   5.796 -0.3373 -0.4294  0.8684
 5433SOL    HW127761   3.348   1.588   5.834 -1.4330 -0.7305 -0.4408
 5433SOL    HW227762   3.482   1.591   5.796  0.3793 -1.2272 -1.6565
 5434SOL     OW27763   3.426   3.266   9.366 -0.2230 -0.3302 -0.0597
 5434SOL    HW127764   3.347   3.276   9.313 -0.0953 -0.7452 -0.3302
 5434SOL    HW227765   3.424   3.171   9.377  0.5555 -0.1708  1.3855
 5435SOL     OW27766   3.052   2.425   0.162 -0.3420 -0.0193  0.7359
 5435SOL    HW127767   3.030   2.438   0.254 -2.0640 -3.5855  0.8530
 5435SOL    HW227768   2.967   2.429   0.117 -0.2895 -0.8092  0.5695
 5436SOL     OW27769   1.605   1.559   6.968 -0.1892  0.1725 -0.0766
 5436SOL    HW127770   1.664   1.587   7.038 -1.8991 -1.1867  1.9158
 5436SOL    HW227771   1.583   1.472   7.002 -3.5861  1.5422  1.1487
 5437SOL     OW27772   0.353   2.032  16.650 -0.2665 -0.2210  0.0822
 5437SOL    HW127773   0.431   2.055  16.600 -0.0919  0.4643  0.6762
 5437SOL    HW227774   0.378   1.958  16.706 -0.3923 -1.3383 -1.3381
 5438SOL     OW27775   2.648   2.450  17.348 -0.1024  0.1528 -0.0722
 5438SOL    HW127776   2.708   2.519  17.321  1.7245 -1.1971  0.5195
 5438SOL    HW227777   2.562   2.492  17.349 -1.2793 -2.2767  1.1753
 5439SOL     OW27778   1.013   4.505   2.613 -0.3397  0.2423 -0.0384
 5439SOL    HW127779   1.079   4.507   2.544 -0.7923 -0.0231 -0.4774
 5439SOL    HW227780   1.047   4.432   2.666 -1.9779  1.4984  2.7441
 5440SOL     OW27781   4.444   4.251   9.303 -0.3551 -0.0574  0.2964
 5440SOL    HW127782   4.442   4.329   9.359 -1.1543 -0.6647  1.1057
 5440SOL    HW227783   4.361   4.254   9.256 -0.3577 -0.3647  0.2845
 5441SOL     OW27784   1.158   4.669  13.077  0.1668 -0.4172  0.3346
 5441SOL    HW127785   1.136   4.668  12.984 -0.7341 -0.0196  0.5477
 5441SOL    HW227786   1.231   0.006  13.064  0.1015 -0.7384 -1.4010
 5442SOL     OW27787   4.181   4.242   1.959  0.3942 -0.8253 -0.2116
 5442SOL    HW127788   4.192   4.336   1.975  0.3130 -0.9617  0.6724
 5442SOL    HW227789   4.272   4.214   1.957  0.2896 -1.1779 -0.0017
 5443SOL     OW27790   1.313   0.514  13.536  0.3992 -0.2900 -0.0360
 5443SOL    HW127791   1.332   0.576  13.466  0.4053 -1.4860 -1.0926
 5443SOL    HW227792   1.242   0.560  13.580 -0.6733 -1.8325 -0.1562
 5444SOL     OW27793   2.845   0.273   7.450  0.2025 -0.0491 -0.0792
 5444SOL    HW127794   2.924   0.327   7.453 -0.6112  1.2661 -2.4259
 5444SOL    HW227795   2.825   0.273   7.356 -2.9420 -0.4259  0.6103
 5445SOL     OW27796   1.262   0.610   3.880  0.0711  0.3144 -0.1492
 5445SOL    HW127797   1.291   0.567   3.799 -0.9983  1.6268 -1.2355
 5445SOL    HW227798   1.168   0.591   3.887  0.6938 -1.7096  2.5102
 5446SOL     OW27799   0.860   0.655   9.926 -0.1174 -0.3665 -0.9003
 5446SOL    HW127800   0.778   0.637   9.880 -0.4147 -1.0104 -0.1071
 5446SOL    HW227801   0.837   0.731   9.978 -0.4834 -1.7198  0.9173
 5447SOL     OW27802   4.415   4.383   8.017  0.5644 -0.0305  0.2292
 5447SOL    HW127803   4.378   4.412   8.100 -0.3711  0.6342 -0.4264
 5447SOL    HW227804   4.401   4.289   8.029  0.4004  0.4094  3.3047
 5448SOL     OW27805   1.731   2.205  16.251 -0.2019  0.6247  0.3552
 5448SOL    HW127806   1.751   2.113  16.268 -1.4577  0.3320  0.2591
 5448SOL    HW227807   1.794   2.253  16.305  1.2207 -1.4531  0.5455
 5449SOL     OW27808   2.472   1.725   5.227 -0.1816 -0.6114  0.2593
 5449SOL    HW127809   2.550   1.781   5.228 -2.2268  2.2067  1.3409
 5449SOL    HW227810   2.514   1.640   5.216  0.2347 -0.4759  0.7849
 5450SOL     OW27811   2.405   0.346   4.677  0.4556 -0.2004  0.5871
 5450SOL    HW127812   2.426   0.399   4.600 -1.5593 -0.1131  0.0915
 5450SOL    HW227813   2.437   0.410   4.741  3.3544 -2.6767  1.5622
 5451SOL     OW27814   4.588   2.477   5.366 -0.4744 -0.0080 -0.0371
 5451SOL    HW127815   4.622   2.391   5.344 -0.3053 -0.2409  1.1607
 5451SOL    HW227816   4.623   2.538   5.301  0.1075 -1.6448 -1.2519
 5452SOL     OW27817   3.161   2.233   0.850 -0.1144 -0.4842  0.6708
 5452SOL    HW127818   3.086   2.213   0.793  0.3984 -0.2226 -0.1056
 5452SOL    HW227819   3.119   2.273   0.926 -0.4323  1.9925 -0.8065
 5453SOL     OW27820   3.895   4.334  10.204  0.1198  0.2392  0.4652
 5453SOL    HW127821   3.888   4.288  10.287 -0.5155  1.4757  1.0933
 5453SOL    HW227822   3.840   4.280  10.148 -1.8472  0.3980  2.2896
 5454SOL     OW27823   0.847   2.493   3.665 -0.5217  0.0505 -0.4211
 5454SOL    HW127824   0.887   2.429   3.606  1.9448 -0.1520  1.4743
 5454SOL    HW227825   0.909   2.566   3.661 -0.7911  0.2902 -0.2524
 5455SOL     OW27826   4.050   1.018  10.012 -0.2740  0.7437  0.4036
 5455SOL    HW127827   4.063   1.113  10.010  0.8473  0.5667 -0.6125
 5455SOL    HW227828   3.966   1.006  10.056 -0.8922  4.0001  0.1022
 5456SOL     OW27829   4.363   3.512   4.358 -0.2290 -0.0642  0.0714
 5456SOL    HW127830   4.447   3.554   4.375  0.1673 -1.5903  1.9226
 5456SOL    HW227831   4.391   3.420   4.368  0.4750  0.3174  1.5614
 5457SOL     OW27832   4.610   1.018   7.473 -0.2915 -0.3483  0.0142
 5457SOL    HW127833   4.685   1.077   7.465 -0.6618  0.1434  0.2025
 5457SOL    HW227834   4.647   0.949   7.528 -0.0457  2.9318  3.9773
 5458SOL     OW27835   1.376   0.346   7.482 -0.2927  0.1283 -0.4349
 5458SOL    HW127836   1.430   0.299   7.418 -0.8924  1.0332 -1.6144
 5458SOL    HW227837   1.444   0.377   7.542  1.0191 -2.1645 -0.7146
 5459SOL     OW27838   2.649   0.924  17.447 -0.0979 -0.1764 -0.2802
 5459SOL    HW127839   2.710   0.898  17.516 -0.6337 -1.9617 -0.4873
 5459SOL    HW227840   2.581   0.859  17.459 -1.3334  1.0608 -0.5184
 5460SOL     OW27841   0.614   3.051   3.121  0.2569 -0.2430  0.3313
 5460SOL    HW127842   0.641   3.064   3.030  2.1567  2.0014  1.2222
 5460SOL    HW227843   0.675   3.109   3.165 -0.0345  0.6674 -0.4690
 5461SOL     OW27844   3.375   0.025  12.001  0.0617  0.5320 -1.4480
 5461SOL    HW127845   3.447   4.702  11.959 -0.4298 -0.6415 -1.0161
 5461SOL    HW227846   3.417   0.107  12.029  0.2126 -0.2439  0.6118
 5462SOL     OW27847   1.821   1.309   7.242  0.0193 -0.1315 -0.0574
 5462SOL    HW127848   1.897   1.307   7.300  0.2057 -0.0010 -0.3015
 5462SOL    HW227849   1.861   1.350   7.166  0.8533 -3.3416 -1.3419
 5463SOL     OW27850   2.972   1.547  10.585  0.5391 -0.0902  0.4850
 5463SOL    HW127851   3.066   1.556  10.605  0.9072 -1.3086 -0.6568
 5463SOL    HW227852   2.948   1.639  10.577  2.2076  0.2502 -0.7305
 5464SOL     OW27853   2.982   3.633   6.888 -0.2944 -0.6491  0.0192
 5464SOL    HW127854   2.934   3.619   6.807 -0.8428  0.2121  0.1921
 5464SOL    HW227855   2.944   3.568   6.948  0.6588  0.0495  1.3875
 5465SOL     OW27856   0.399   3.339   1.411  0.2423 -0.4781  0.3946
 5465SOL    HW127857   0.339   3.315   1.340  1.1375  1.9622 -1.1811
 5465SOL    HW227858   0.479   3.292   1.386  0.6181 -0.1082  0.9173
 5466SOL     OW27859   2.797   2.966   0.440 -0.4212 -0.2722 -0.2394
 5466SOL    HW127860   2.784   3.052   0.400  0.9408  0.2282  0.3775
 5466SOL    HW227861   2.749   2.911   0.379 -0.1366 -1.2538  0.4286
 5467SOL     OW27862   4.167   3.273  14.218 -0.4720 -0.1457  0.2896
 5467SOL    HW127863   4.159   3.364  14.246  0.0078  0.3155 -1.0381
 5467SOL    HW227864   4.098   3.234  14.271  0.3752  1.2347  2.4058
 5468SOL     OW27865   1.005   0.232   5.499 -0.3373  0.3810 -0.2609
 5468SOL    HW127866   1.028   0.212   5.590 -0.0522 -1.0672 -0.6492
 5468SOL    HW227867   0.989   0.326   5.508  1.2577  0.6886 -0.7438
 5469SOL     OW27868   1.510   2.189   5.660  0.1264 -0.0370  0.1404
 5469SOL    HW127869   1.475   2.122   5.719 -0.1849 -0.5316 -0.6001
 5469SOL    HW227870   1.540   2.139   5.584  0.6054 -1.5898  1.3553
 5470SOL     OW27871   0.859   2.020   8.811 -0.0231  0.1187  0.5470
 5470SOL    HW127872   0.822   2.040   8.896  1.1183 -0.6454  1.2296
 5470SOL    HW227873   0.950   2.050   8.822  0.2063  0.6928 -2.8272
 5471SOL     OW27874   3.273   0.379   9.151 -0.3467 -0.6524  0.5265
 5471SOL    HW127875   3.260   0.352   9.242  1.9446  2.2010  1.6887
 5471SOL    HW227876   3.203   0.443   9.141 -0.7871 -1.0077  1.2939
 5472SOL     OW27877   2.675   3.122   8.449 -0.4607 -0.2231  0.1001
 5472SOL    HW127878   2.652   3.048   8.505  1.5189 -1.1276 -0.2530
 5472SOL    HW227879   2.648   3.195   8.504 -0.6976 -0.7487  0.6749
 5473SOL     OW27880   2.531   4.019   1.342 -0.1172  0.0757 -0.0296
 5473SOL    HW127881   2.580   3.945   1.305  0.5079 -0.4776  1.9354
 5473SOL    HW227882   2.599   4.066   1.390 -0.4364  0.3814  0.1195
 5474SOL     OW27883   0.187   0.074   6.335 -0.1089 -0.0386  0.1239
 5474SOL    HW127884   0.222   0.139   6.395  0.1853  1.0520 -1.2441
 5474SOL    HW227885   0.094   0.085   6.358 -0.7236 -0.5343 -2.1564
 5475SOL     OW27886   4.486   1.685  11.646 -0.4052 -0.6850 -0.0198
 5475SOL    HW127887   4.574   1.650  11.660 -0.0844  0.1631  0.0416
 5475SOL    HW227888   4.486   1.749  11.717  0.8600 -0.5908 -0.1060
 5476SOL     OW27889   0.761   1.152   2.076  0.3081  0.1269  0.4648
 5476SOL    HW127890   0.824   1.081   2.077  0.3092  0.1218  0.0795
 5476SOL    HW227891   0.696   1.105   2.023 -0.8748  0.9862  1.1573
 5477SOL     OW27892   0.730   1.260   7.874  0.1403 -0.0377 -0.2395
 5477SOL    HW127893   0.665   1.194   7.898  0.3547  0.1207  0.7822
 5477SOL    HW227894   0.793   1.241   7.944 -2.5485 -0.7934  1.9783
 5478SOL     OW27895   3.408   3.005  14.735  0.2606 -0.1618  0.2511
 5478SOL    HW127896   3.436   3.064  14.665 -0.0494 -1.7077 -1.1682
 5478SOL    HW227897   3.488   2.959  14.761  1.4465  2.0958  0.6321
 5479SOL     OW27898   0.770   1.704   4.975 -0.8262  0.3830 -0.1464
 5479SOL    HW127899   0.740   1.739   4.891 -3.1593  0.1879  0.6307
 5479SOL    HW227900   0.729   1.618   4.968  0.6066 -0.3398  0.1630
 5480SOL     OW27901   3.211   1.355   3.350  0.8925 -0.1838 -0.3066
 5480SOL    HW127902   3.142   1.315   3.297 -1.0656  1.6855  0.8375
 5480SOL    HW227903   3.276   1.387   3.287  0.4434  0.9873 -0.1673
 5481SOL     OW27904   1.434   3.124   6.894  0.1023 -0.0386 -0.2493
 5481SOL    HW127905   1.399   3.036   6.904  3.3339 -1.2735  0.2691
 5481SOL    HW227906   1.385   3.142   6.814  1.5749  0.9217 -0.9376
 5482SOL     OW27907   1.142   3.696  13.455  0.1256  0.6753  0.2696
 5482SOL    HW127908   1.209   3.712  13.520  1.2539  0.5222 -0.8573
 5482SOL    HW227909   1.065   3.657  13.497 -0.6579 -1.3448 -2.9731
 5483SOL     OW27910   0.794   2.423   5.916  0.0498 -0.2414  0.1139
 5483SOL    HW127911   0.699   2.411   5.916  0.2138 -1.5686 -1.2978
 5483SOL    HW227912   0.822   2.332   5.906  2.8152  0.6703 -0.2725
 5484SOL     OW27913   1.162   3.556   4.124  0.0422  0.3416  0.1546
 5484SOL    HW127914   1.255   3.579   4.121  0.5731 -2.0020 -0.7924
 5484SOL    HW227915   1.135   3.597   4.042 -2.6072 -1.9930 -0.1123
 5485SOL     OW27916   1.291   2.802   2.751 -0.0861  0.1848 -0.3449
 5485SOL    HW127917   1.333   2.888   2.745  0.8149 -0.2036  0.6113
 5485SOL    HW227918   1.276   2.778   2.659 -2.4264 -1.3578  0.4360
 5486SOL     OW27919   1.822   3.902   7.194  0.0149  0.5272 -0.5645
 5486SOL    HW127920   1.791   3.873   7.109 -2.5111  1.9706 -0.1506
 5486SOL    HW227921   1.917   3.893   7.182  0.2558  1.1279  0.9005
 5487SOL     OW27922   4.700   3.215   3.210  0.2890  0.5614 -0.2237
 5487SOL    HW127923   0.060   3.201   3.256 -0.1833 -0.7823  0.2139
 5487SOL    HW227924   4.681   3.300   3.249  2.5714  1.0370 -0.1516
 5488SOL     OW27925   2.933   4.609  15.445 -0.1849 -0.1876 -0.0688
 5488SOL    HW127926   3.000   4.587  15.510 -1.1267 -0.7292  0.7222
 5488SOL    HW227927   2.869   4.663  15.491  1.0263  0.7779  0.4611
 5489SOL     OW27928   2.280   1.535   8.287 -0.0407 -0.2277 -0.4660
 5489SOL    HW127929   2.197   1.569   8.255 -0.7723 -1.7211 -0.1668
 5489SOL    HW227930   2.301   1.593   8.360 -0.3832  0.3880 -0.8537
 5490SOL     OW27931   1.368   0.107   7.870  0.5424 -0.0653  0.2584
 5490SOL    HW127932   1.364   0.202   7.864 -1.0016  0.1186  4.2891
 5490SOL    HW227933   1.436   0.090   7.804  0.9290 -1.2258  0.9599
 5491SOL     OW27934   3.641   2.112   8.401 -0.4283 -0.0863  0.0502
 5491SOL    HW127935   3.548   2.095   8.417 -0.6725  1.2952  0.0764
 5491SOL    HW227936   3.685   2.060   8.468 -2.8342  0.9272  2.4130
 5492SOL     OW27937   0.635   0.842   4.303  0.0682  0.1998 -0.2338
 5492SOL    HW127938   0.598   0.910   4.247  0.7607 -1.0283 -2.1604
 5492SOL    HW227939   0.673   0.893   4.375  0.4666 -1.4115  0.7134
 5493SOL     OW27940   2.533   0.725   3.202 -0.1264  0.0634  0.1921
 5493SOL    HW127941   2.549   0.819   3.198 -0.4673  0.0590 -1.1768
 5493SOL    HW227942   2.601   0.695   3.262  1.6337  1.7339 -0.9472
 5494SOL     OW27943   3.288   2.267  17.529  0.0342 -0.3078 -0.3337
 5494SOL    HW127944   3.255   2.181  17.556 -2.5402  1.1928  1.2101
 5494SOL    HW227945   3.305   2.248  17.436  3.7650  0.5288  0.1706
 5495SOL     OW27946   3.915   4.519   2.985  0.5591 -0.1265 -0.2943
 5495SOL    HW127947   3.944   4.556   2.902  2.4113 -1.0557 -0.0683
 5495SOL    HW227948   3.968   4.569   3.048  0.2180  0.2518 -0.3124
 5496SOL     OW27949   2.696   2.432  12.782 -0.0182  0.4648 -0.2797
 5496SOL    HW127950   2.711   2.349  12.737 -2.2351  0.4046 -0.9008
 5496SOL    HW227951   2.783   2.462  12.807  0.1688  0.4683 -0.9465
 5497SOL     OW27952   4.466   3.226   4.330 -0.3376  0.2549 -0.6079
 5497SOL    HW127953   4.478   3.193   4.241 -2.5551 -0.6877 -0.5729
 5497SOL    HW227954   4.540   3.182   4.372 -0.4644  0.0613 -0.5804
 5498SOL     OW27955   2.003   3.731   6.609 -0.5899 -0.5697  0.1645
 5498SOL    HW127956   2.026   3.676   6.534  1.4000 -1.8352  1.7006
 5498SOL    HW227957   1.990   3.819   6.575 -1.5278 -0.1635  1.5734
 5499SOL     OW27958   2.694   2.696  17.561  0.1239 -0.1012 -0.4281
 5499SOL    HW127959   2.684   2.692  17.466 -0.9292  1.5077 -0.3684
 5499SOL    HW227960   2.671   2.787  17.580 -1.1416  0.3322 -4.0347
 5500SOL     OW27961   3.674   4.312   0.898  0.0473  0.2013 -0.8635
 5500SOL    HW127962   3.635   4.237   0.943  0.8936  0.8633  0.9643
 5500SOL    HW227963   3.759   4.313   0.943  0.1829  4.1939 -1.2233
 5501SOL     OW27964   3.641   0.330   5.856 -0.1986 -0.5087  0.0859
 5501SOL    HW127965   3.640   0.333   5.951 -1.1047  0.3767  0.0519
 5501SOL    HW227966   3.735   0.340   5.847 -0.1886 -0.0082  0.8334
 5502SOL     OW27967   2.390   1.609   7.408  0.1562  0.3164  0.6034
 5502SOL    HW127968   2.321   1.543   7.401  0.1704  0.3367  0.2606
 5502SOL    HW227969   2.385   1.640   7.498 -0.6291  0.1723  0.6100
 5503SOL     OW27970   0.666   3.991   4.966  0.1630  0.5215  0.0162
 5503SOL    HW127971   0.664   4.027   5.054 -0.2678  0.8829 -0.1404
 5503SOL    HW227972   0.573   3.971   4.963  0.3621 -0.3654 -0.2801
 5504SOL     OW27973   3.542   0.382  15.463 -0.3034  0.3055  0.1616
 5504SOL    HW127974   3.484   0.453  15.437 -3.6873 -2.0543  1.2215
 5504SOL    HW227975   3.481   0.308  15.453  3.3636 -2.6489 -0.3124
 5505SOL     OW27976   2.507   4.178   4.204  0.2294 -0.1052  0.1864
 5505SOL    HW127977   2.589   4.129   4.212  1.2748  1.4043 -1.4872
 5505SOL    HW227978   2.532   4.257   4.156 -1.6624 -0.6047 -1.6171
 5506SOL     OW27979   0.484   1.565   4.207  0.1459 -0.3859 -0.5965
 5506SOL    HW127980   0.406   1.614   4.180 -1.1754 -1.6636  0.9436
 5506SOL    HW227981   0.461   1.475   4.184  0.1269  0.0192 -2.1847
 5507SOL     OW27982   2.867   0.898   4.318 -0.3774 -0.5827 -0.0508
 5507SOL    HW127983   2.774   0.897   4.293 -0.2115  1.6259 -0.7495
 5507SOL    HW227984   2.873   0.822   4.377 -1.3833  0.1418  0.9882
 5508SOL     OW27985   3.764   2.632   6.848 -0.0811  1.0180  0.1525
 5508SOL    HW127986   3.780   2.721   6.816  1.6517  0.6407 -0.0346
 5508SOL    HW227987   3.777   2.584   6.767 -2.0702 -1.6553  1.4252
 5509SOL     OW27988   1.468   1.695   7.372  0.6088  0.0199  0.4541
 5509SOL    HW127989   1.469   1.759   7.443  2.2332  0.0788  0.3675
 5509SOL    HW227990   1.470   1.750   7.294  2.2605 -0.9311 -0.1682
 5510SOL     OW27991   2.311   0.276   7.053 -0.3555  0.1678 -0.3317
 5510SOL    HW127992   2.243   0.343   7.048 -1.2530 -0.6230  1.3004
 5510SOL    HW227993   2.376   0.329   7.006  2.2898 -1.8463  1.0879
 5511SOL     OW27994   0.798   3.749   4.134  0.3766 -0.4911 -0.1886
 5511SOL    HW127995   0.851   3.829   4.134  3.0045 -2.2064  2.7576
 5511SOL    HW227996   0.755   3.751   4.049  0.8538  5.4713 -0.2474
 5512SOL     OW27997   2.366   1.226   5.650  0.0957  0.2074 -0.1797
 5512SOL    HW127998   2.335   1.284   5.581  2.2163 -0.6800 -1.8696
 5512SOL    HW227999   2.322   1.259   5.729 -0.0700  0.9917 -0.6040
 5513SOL     OW28000   2.415   0.017   9.090  0.2992  0.2580 -0.4521
 5513SOL    HW128001   2.384   0.012   9.181 -1.5211 -0.1462 -1.0985
 5513SOL    HW228002   2.432   4.648   9.074 -1.0752 -0.0090 -0.3408
 5514SOL     OW28003   2.098   1.547   4.573 -0.0719  0.4333  0.6116
 5514SOL    HW128004   2.157   1.568   4.646  0.1562 -2.3186  1.2078
 5514SOL    HW228005   2.113   1.453   4.560 -0.2553  0.4516  0.2694
 5515SOL     OW28006   0.101   0.028  16.219  0.4415  0.4427 -0.4155
 5515SOL    HW128007   0.159   0.046  16.146 -1.7350  1.6988 -1.8314
 5515SOL    HW228008   0.138   4.675  16.264  1.9060  0.2633 -1.9317
 5516SOL     OW28009   0.673   0.808   6.343 -0.6748  0.0690 -0.1077
 5516SOL    HW128010   0.627   0.891   6.335  1.3342  1.2006  0.0784
 5516SOL    HW228011   0.702   0.799   6.253  0.4029 -1.7744  0.4306
 5517SOL     OW28012   0.854   1.212   6.946  0.0705  0.0069  0.0392
 5517SOL    HW128013   0.860   1.299   6.907 -2.6915  0.1118 -0.1637
 5517SOL    HW228014   0.829   1.165   6.867 -0.7134 -2.2099  1.6056
 5518SOL     OW28015   4.092   4.494   1.207 -0.1425  0.2749 -0.0370
 5518SOL    HW128016   4.100   4.504   1.112 -0.7413 -1.5225 -0.2675
 5518SOL    HW228017   4.159   4.430   1.228  0.1668 -0.1407 -2.2537
 5519SOL     OW28018   0.252   0.225   5.430  0.6209  0.1381 -0.3257
 5519SOL    HW128019   0.283   0.136   5.448  1.0142  0.4825  0.7461
 5519SOL    HW228020   0.328   0.263   5.474 -0.1912  1.1918  0.1661
 5520SOL     OW28021   0.871   1.003   6.747  0.0601  0.6271  0.0488
 5520SOL    HW128022   0.830   0.946   6.682  0.6199  3.1478 -2.5228
 5520SOL    HW228023   0.963   0.981   6.731  0.4767  1.6182  1.0836
 5521SOL     OW28024   1.024   2.962   3.518 -1.0284  0.0786 -0.5588
 5521SOL    HW128025   1.111   2.976   3.555 -1.4389 -0.5831  0.6613
 5521SOL    HW228026   1.048   2.898   3.450  1.1332  0.0482  0.2285
 5522SOL     OW28027   1.665   1.542   0.887 -1.1645 -0.5779 -0.0996
 5522SOL    HW128028   1.600   1.603   0.852 -0.0006  0.6588 -0.1393
 5522SOL    HW228029   1.638   1.542   0.979  1.9938  0.7865  0.8258
 5523SOL     OW28030   3.877   0.325   9.849 -0.4838 -0.3624 -0.1080
 5523SOL    HW128031   3.912   0.239   9.872  0.3414  0.2364  0.8260
 5523SOL    HW228032   3.878   0.370   9.933  1.0792 -0.3433 -0.1333
 5524SOL     OW28033   0.562   3.482   8.240 -0.1193  0.1136  0.5205
 5524SOL    HW128034   0.498   3.479   8.311 -0.2363 -0.7914  0.3848
 5524SOL    HW228035   0.615   3.560   8.256  3.2102 -1.3811 -3.1194
 5525SOL     OW28036   3.361   1.618   7.346 -0.5151 -0.3952  0.1535
 5525SOL    HW128037   3.341   1.700   7.301  0.5902  0.9101  2.0116
 5525SOL    HW228038   3.444   1.635   7.392 -1.1546  1.7149  0.5657
 5526SOL     OW28039   3.626   4.005   5.825  0.6042 -0.0494 -0.3993
 5526SOL    HW128040   3.697   4.008   5.889  0.3938  0.1633 -0.1750
 5526SOL    HW228041   3.669   4.044   5.749  0.3802  0.3943 -0.3033
 5527SOL     OW28042   3.053   2.361   5.668 -0.2247 -0.2024 -0.0568
 5527SOL    HW128043   3.006   2.346   5.750  0.2623  4.0092  1.0180
 5527SOL    HW228044   3.107   2.437   5.691 -0.4396 -0.1707  0.3560
 5528SOL     OW28045   0.603   1.313  16.840 -0.2590 -0.9013 -0.2553
 5528SOL    HW128046   0.538   1.322  16.909 -1.5488  0.1096 -1.6123
 5528SOL    HW228047   0.594   1.222  16.812  2.5941 -0.4178 -2.7974
 5529SOL     OW28048   1.671   1.023   7.988  0.2981  0.0927  0.1366
 5529SOL    HW128049   1.674   1.079   8.066 -1.4770 -1.8254  1.6002
 5529SOL    HW228050   1.722   0.948   8.019 -0.2698 -0.1507  0.4942
 5530SOL     OW28051   0.044   0.755   4.018 -0.7229  0.4974  0.0210
 5530SOL    HW128052   0.059   0.788   3.929 -1.4439  0.8585  0.0386
 5530SOL    HW228053   4.673   0.745   4.009 -0.4067 -3.7271  1.4409
 5531SOL     OW28054   1.826   4.123  16.082 -0.1489  0.5101 -0.1933
 5531SOL    HW128055   1.840   4.095  16.172  0.9930 -1.5230 -1.0052
 5531SOL    HW228056   1.739   4.163  16.080 -0.7974 -0.9679 -1.6621
 5532SOL     OW28057   1.456   3.663   2.588 -0.0490 -0.3200  0.0546
 5532SOL    HW128058   1.425   3.654   2.679  1.2358 -2.0844  0.3063
 5532SOL    HW228059   1.450   3.570   2.568  0.7633 -0.5384  0.7924
 5533SOL     OW28060   3.392   3.212   7.628  0.4251  0.2780 -0.3238
 5533SOL    HW128061   3.362   3.299   7.601  1.9373  1.1470  0.7768
 5533SOL    HW228062   3.463   3.227   7.690 -0.8333 -1.9595  1.6458
 5534SOL     OW28063   2.268   4.288   5.933 -0.4272 -0.0281 -0.2405
 5534SOL    HW128064   2.248   4.252   6.020  1.2103 -1.8855 -0.6334
 5534SOL    HW228065   2.200   4.355   5.927  0.1707  0.6346  0.2025
 5535SOL     OW28066   2.031   0.475   3.667  0.0004  0.1125 -0.1774
 5535SOL    HW128067   1.969   0.460   3.595  0.4401  1.4076 -0.8298
 5535SOL    HW228068   2.041   0.387   3.703 -0.4110  0.1976  0.1311
 5536SOL     OW28069   4.166   3.261   8.492  0.4052 -0.5768 -0.5024
 5536SOL    HW128070   4.128   3.299   8.571  2.3575 -1.7525  0.9943
 5536SOL    HW228071   4.085   3.237   8.446  1.1808 -0.8335 -1.7547
 5537SOL     OW28072   3.185   1.121   5.061 -0.0305  0.5508 -0.0730
 5537SOL    HW128073   3.200   1.151   4.971 -1.6240  0.0579 -0.4970
 5537SOL    HW228074   3.168   1.027   5.062  1.2832  0.3480  1.7265
 5538SOL     OW28075   1.331   1.095   8.521  0.2790  0.4977  0.1316
 5538SOL    HW128076   1.264   1.031   8.543  2.2685 -1.5334  0.1881
 5538SOL    HW228077   1.387   1.055   8.455  1.1508  0.9052  0.6197
 5539SOL     OW28078   3.398   1.385   2.000  0.1234  0.3807  0.2973
 5539SOL    HW128079   3.356   1.367   1.916 -0.2684  1.4620  0.2607
 5539SOL    HW228080   3.466   1.319   2.001 -1.0973 -0.8815 -0.8994
 5540SOL     OW28081   4.682   2.033   5.045  0.3317  0.2148  0.3226
 5540SOL    HW128082   4.721   2.099   4.988  0.2201 -0.1252 -0.1501
 5540SOL    HW228083   0.011   1.956   5.021 -1.2211 -0.7526  0.0500
 5541SOL     OW28084   3.488   1.435   9.635 -0.4421  0.2220 -0.6772
 5541SOL    HW128085   3.421   1.369   9.650  0.6871 -1.3576 -2.4737
 5541SOL    HW228086   3.519   1.452   9.723 -2.7331  0.4880  0.0825
 5542SOL     OW28087   2.014   0.043   0.197  0.2250  0.1363 -0.1736
 5542SOL    HW128088   2.109   0.053   0.195 -0.2126  4.2454 -0.4175
 5542SOL    HW228089   2.000   4.693   0.138  0.8500  0.2733 -0.4893
 5543SOL     OW28090   3.625   3.232   7.851 -0.1634  0.1101  0.3424
 5543SOL    HW128091   3.575   3.220   7.932  0.4084 -0.5145  0.6008
 5543SOL    HW228092   3.661   3.145   7.834  0.5060  0.6473 -0.9725
 5544SOL     OW28093   4.654   2.051  10.556 -0.2268  0.2530 -0.0605
 5544SOL    HW128094   0.022   2.058  10.584 -0.0971 -1.7999 -0.0276
 5544SOL    HW228095   4.662   2.021  10.466  0.4928 -0.3611  0.2088
 5545SOL     OW28096   4.255   0.210  12.093 -0.7008 -0.6350  0.0962
 5545SOL    HW128097   4.325   0.188  12.154 -0.0627  1.3102  0.0863
 5545SOL    HW228098   4.237   0.124  12.056 -1.7814  0.4626 -1.9829
 5546SOL     OW28099   2.012   1.846  16.018 -0.4102 -0.5527  0.3093
 5546SOL    HW128100   1.990   1.767  16.067  2.5279 -0.1940  2.1801
 5546SOL    HW228101   2.058   1.896  16.085 -0.1668  0.3965 -0.5523
 5547SOL     OW28102   4.040   0.885   7.101  1.1635 -0.6106  0.1623
 5547SOL    HW128103   4.099   0.929   7.162  1.1154  0.0069 -0.2377
 5547SOL    HW228104   3.997   0.828   7.164  1.7903  0.6435  1.7107
 5548SOL     OW28105   3.777   0.017   7.902  0.3973  0.4405  0.2638
 5548SOL    HW128106   3.828   4.681   7.848  2.7356 -0.1516  3.1395
 5548SOL    HW228107   3.760   0.084   7.835  0.3155  0.0494 -0.1092
 5549SOL     OW28108   0.199   0.595  12.837 -0.4896 -0.5909  0.3207
 5549SOL    HW128109   0.176   0.507  12.808 -1.5053  1.2494 -4.3580
 5549SOL    HW228110   0.291   0.601  12.812 -0.2155 -0.6509  1.2858
 5550SOL     OW28111   4.013   1.220   6.675  0.1739  0.1027 -0.3324
 5550SOL    HW128112   3.982   1.133   6.651  0.6050 -0.2666  0.4343
 5550SOL    HW228113   4.096   1.202   6.720  0.1989  3.3797  0.9663
 5551SOL     OW28114   3.838   3.837   3.835  0.0044  0.3567 -0.2627
 5551SOL    HW128115   3.899   3.813   3.905  0.5944 -1.6826 -1.4733
 5551SOL    HW228116   3.898   3.894   3.788  0.6301  0.4204  0.6204
 5552SOL     OW28117   0.823   2.605   9.280 -0.4594  0.5391 -0.1227
 5552SOL    HW128118   0.844   2.697   9.264 -1.1955  0.6657 -0.3599
 5552SOL    HW228119   0.783   2.613   9.367  3.1213  1.8863  1.3937
 5553SOL     OW28120   1.609   1.494  11.850 -0.2173 -0.3125 -0.2621
 5553SOL    HW128121   1.605   1.512  11.756 -0.8257 -0.9362 -0.3530
 5553SOL    HW228122   1.701   1.508  11.871 -0.1051  0.2170 -1.0820
 5554SOL     OW28123   0.766   4.010  13.448  0.2905 -0.0433 -0.1701
 5554SOL    HW128124   0.692   4.036  13.393  0.0674  0.4303  0.3539
 5554SOL    HW228125   0.742   4.071  13.518 -1.8279  0.1367 -1.0865
 5555SOL     OW28126   3.432   4.448   8.502 -0.1291 -0.1748  0.5286
 5555SOL    HW128127   3.475   4.405   8.576  0.3740 -0.6695 -0.0578
 5555SOL    HW228128   3.358   4.487   8.549 -0.7748  0.7126 -1.2587
 5556SOL     OW28129   3.427   4.282   3.397 -0.2184 -0.8115  0.1218
 5556SOL    HW128130   3.465   4.236   3.472  0.1200  0.2451  0.5941
 5556SOL    HW228131   3.470   4.233   3.327 -0.5495  0.0628 -0.6928
 5557SOL     OW28132   3.725   0.042   9.237 -0.0343 -0.3886 -0.5021
 5557SOL    HW128133   3.655   4.705   9.211  0.8702 -1.3998 -0.6069
 5557SOL    HW228134   3.676   0.116   9.272  0.2049 -1.1883  1.5325
 5558SOL     OW28135   3.359   3.453   1.773 -0.1602 -0.1853  0.4801
 5558SOL    HW128136   3.413   3.498   1.837  0.7062 -0.0876 -0.3211
 5558SOL    HW228137   3.296   3.525   1.764 -0.7882 -1.1834 -3.0847
 5559SOL     OW28138   3.057   1.394   6.921  0.0677  0.2110  0.2337
 5559SOL    HW128139   3.141   1.390   6.968  1.5665 -0.0304 -2.5045
 5559SOL    HW228140   3.003   1.331   6.969  0.8941 -2.5904 -2.5559
 5560SOL     OW28141   3.589   3.850   1.899  0.1783  0.1429  0.4938
 5560SOL    HW128142   3.515   3.910   1.913 -1.3861 -1.9537  1.2142
 5560SOL    HW228143   3.657   3.900   1.943  1.4717 -0.6225 -0.6463
 5561SOL     OW28144   3.096   1.029   3.628  0.3301 -0.4716 -0.6540
 5561SOL    HW128145   3.138   1.112   3.650  0.5865 -1.2531  1.8409
 5561SOL    HW228146   3.116   0.981   3.709 -0.5902 -0.0534 -0.1697
 5562SOL     OW28147   2.132   0.810   9.133 -0.8409 -0.4283 -0.2225
 5562SOL    HW128148   2.165   0.818   9.043 -2.3406 -1.6590 -0.8837
 5562SOL    HW228149   2.127   0.901   9.162 -2.6968 -0.3732 -0.6909
 5563SOL     OW28150   2.861   0.359   3.997 -0.5060  0.3689 -0.1927
 5563SOL    HW128151   2.823   0.314   4.073  0.7982 -0.0270  0.2108
 5563SOL    HW228152   2.793   0.332   3.935 -0.2001 -1.1444  0.1394
 5564SOL     OW28153   3.559   1.604  11.147  0.4973 -0.3984  0.6571
 5564SOL    HW128154   3.604   1.675  11.102  0.1817 -1.2309 -0.9841
 5564SOL    HW228155   3.515   1.555  11.077 -0.5783  1.1061  0.2834
 5565SOL     OW28156   4.321   2.102  10.045 -0.5921  0.4503  0.2274
 5565SOL    HW128157   4.259   2.175  10.044 -0.4076  0.6092  0.3511
 5565SOL    HW228158   4.268   2.040  10.094 -1.4481  1.4748  0.5902
 5566SOL     OW28159   3.050   2.528   1.699 -0.0807 -0.1815  0.3182
 5566SOL    HW128160   3.063   2.439   1.664  0.4980  0.5968 -1.4442
 5566SOL    HW228161   3.117   2.577   1.652  0.4222 -2.7922 -1.6781
 5567SOL     OW28162   2.568   2.843   5.003  0.1803 -0.0578 -0.2853
 5567SOL    HW128163   2.647   2.855   5.056 -1.3499 -1.7691  2.4279
 5567SOL    HW228164   2.509   2.908   5.041 -1.5842 -2.2813  0.8083
 5568SOL     OW28165   3.338   3.395   1.277  0.6828  0.6946 -0.0568
 5568SOL    HW128166   3.326   3.448   1.355 -1.1142  0.0970  0.0792
 5568SOL    HW228167   3.246   3.374   1.259  0.9982 -0.6064 -0.1657
 5569SOL     OW28168   3.814   0.684   6.566 -0.0233 -0.3152 -0.6610
 5569SOL    HW128169   3.761   0.648   6.637 -1.5929  0.5843 -1.3726
 5569SOL    HW228170   3.843   0.765   6.608  0.0777 -1.7307  1.9539
 5570SOL     OW28171   3.525   2.427   5.632 -0.0361 -0.0820 -0.2475
 5570SOL    HW128172   3.500   2.507   5.678  0.6021 -1.2067  2.0875
 5570SOL    HW228173   3.563   2.467   5.554 -2.9286 -1.1379 -2.1807
 5571SOL     OW28174   2.626   2.417  13.465 -0.2549 -0.3912  0.1812
 5571SOL    HW128175   2.562   2.374  13.409  0.0487  0.4734 -0.8199
 5571SOL    HW228176   2.665   2.471  13.397 -1.1315  0.1724  0.1281
 5572SOL     OW28177   3.057   3.136   6.469 -0.3639 -0.3313  0.3055
 5572SOL    HW128178   3.005   3.212   6.497  0.2526  0.8583 -1.7522
 5572SOL    HW228179   3.080   3.111   6.558  3.0714 -0.1870 -0.5067
 5573SOL     OW28180   2.458   0.024   2.821 -0.1218 -0.1010 -0.2830
 5573SOL    HW128181   2.431   0.109   2.855 -1.7677 -0.8182  0.2232
 5573SOL    HW228182   2.376   4.698   2.825 -0.5079  0.4086 -1.7972
 5574SOL     OW28183   2.001   3.741  10.940  0.2578 -0.0583  0.2010
 5574SOL    HW128184   1.985   3.742  10.846  2.1219  1.0070 -0.1079
 5574SOL    HW228185   1.969   3.825  10.975 -2.6831 -0.7171 -0.9016
 5575SOL     OW28186   1.488   2.568   7.112 -0.0259 -0.0195 -0.3245
 5575SOL    HW128187   1.580   2.544   7.106  0.4803  1.2935  2.2280
 5575SOL    HW228188   1.449   2.500   7.057  0.2223  1.9677 -3.0013
 5576SOL     OW28189   0.103   3.239  13.340  0.2064 -0.2414  0.1232
 5576SOL    HW128190   0.048   3.306  13.381  0.1764  0.0019 -0.3091
 5576SOL    HW228191   0.185   3.259  13.386  1.6846  0.4378 -2.8180
 5577SOL     OW28192   0.417   0.081   8.497 -0.0667 -0.0451 -0.3363
 5577SOL    HW128193   0.468   0.146   8.449  1.5645  0.3439  1.9259
 5577SOL    HW228194   0.476   0.052   8.567  0.6096  0.9770 -0.4762
 5578SOL     OW28195   4.330   2.060   2.914 -0.5082 -0.4114  0.0473
 5578SOL    HW128196   4.401   2.030   2.857 -0.1710  0.5393 -0.0380
 5578SOL    HW228197   4.292   2.136   2.870  0.8403  0.5384  0.4953
 5579SOL     OW28198   4.519   0.676   8.378  0.0369  0.2556  0.3544
 5579SOL    HW128199   4.495   0.602   8.322 -1.2082  0.6421  0.3818
 5579SOL    HW228200   4.521   0.628   8.461  1.3834 -1.2974 -0.5841
 5580SOL     OW28201   2.830   1.899   9.140 -0.1436 -0.3116 -0.8779
 5580SOL    HW128202   2.899   1.954   9.179 -1.1849 -0.2868  0.9390
 5580SOL    HW228203   2.885   1.820   9.141  1.1809  0.6083 -1.3530
 5581SOL     OW28204   2.279   2.676   1.144  0.4998 -0.4361 -0.4642
 5581SOL    HW128205   2.356   2.668   1.200 -0.4938 -1.0548  0.8193
 5581SOL    HW228206   2.204   2.686   1.202  0.9332 -2.5120  0.4335
 5582SOL     OW28207   1.946   4.012  10.654 -0.2200 -0.3474  0.4906
 5582SOL    HW128208   1.938   3.934  10.600  0.4712  1.2191 -1.8683
 5582SOL    HW228209   2.026   3.996  10.705  1.2951  1.7445 -1.1993
 5583SOL     OW28210   2.144   4.470  12.785 -0.1774 -0.0780  0.4354
 5583SOL    HW128211   2.075   4.534  12.766  0.2468 -0.1146 -1.1802
 5583SOL    HW228212   2.191   4.511  12.858  1.3103 -0.3490 -0.3843
 5584SOL     OW28213   4.712   2.289  15.123 -0.1817  0.5027  0.2522
 5584SOL    HW128214   4.695   2.197  15.102 -3.3679  1.4896 -1.4664
 5584SOL    HW228215   0.058   2.308  15.060  0.8219 -1.3425  0.7886
 5585SOL     OW28216   4.657   2.365   2.895  0.1995 -0.2182  0.0118
 5585SOL    HW128217   4.614   2.309   2.831  0.5565 -0.3794 -0.0863
 5585SOL    HW228218   4.587   2.402   2.948  0.7104  0.1693  0.4260
 5586SOL     OW28219   2.776   0.429   1.024 -0.2844  0.2014 -0.0235
 5586SOL    HW128220   2.823   0.451   0.943 -0.7037  0.6729 -0.1428
 5586SOL    HW228221   2.756   0.337   1.009 -1.6266  0.6084 -0.8118
 5587SOL     OW28222   3.125   1.641   4.113  0.0364 -0.6267 -0.6398
 5587SOL    HW128223   3.055   1.577   4.124  2.3318 -2.7439  1.6744
 5587SOL    HW228224   3.071   1.715   4.140 -1.7083 -2.0733 -0.1176
 5588SOL     OW28225   3.758   2.816   0.241  0.0754 -0.3046  0.0271
 5588SOL    HW128226   3.821   2.756   0.200  1.3728  0.2382  1.1891
 5588SOL    HW228227   3.705   2.743   0.272 -0.0078  0.3571  1.4743
 5589SOL     OW28228   0.039   0.314   2.468  0.0519  0.2767 -0.5009
 5589SOL    HW128229   4.710   0.378   2.517  0.1477 -0.4226  0.5226
 5589SOL    HW228230   4.705   0.238   2.478 -0.2437  0.5708  0.0609
 5590SOL     OW28231   0.548   3.196   6.582  0.1604  0.3438  0.3708
 5590SOL    HW128232   0.599   3.276   6.590  1.2982 -0.4138  0.7340
 5590SOL    HW228233   0.607   3.130   6.619 -0.9059 -1.5762 -1.3467
 5591SOL     OW28234   0.353   4.319   2.674 -0.4834 -0.4346 -0.5763
 5591SOL    HW128235   0.412   4.336   2.601  0.5794 -0.6737  0.2297
 5591SOL    HW228236   0.336   4.226   2.655  2.8088 -0.6588 -2.3057
 5592SOL     OW28237   3.980   1.170   4.564  0.5167  0.2915  0.3245
 5592SOL    HW128238   3.885   1.181   4.556  0.9100  1.7544 -2.2055
 5592SOL    HW228239   3.997   1.082   4.597 -0.0163 -0.2781 -0.9077
 5593SOL     OW28240   0.644   0.173  16.429  0.0422 -0.0481  0.4110
 5593SOL    HW128241   0.644   0.230  16.506  0.3279 -0.9837  1.0864
 5593SOL    HW228242   0.727   0.203  16.391 -0.8351  2.5768  0.5140
 5594SOL     OW28243   2.816   1.683   7.038 -0.1076  0.3239  0.0110
 5594SOL    HW128244   2.732   1.674   7.083  1.1331 -0.3778  2.1976
 5594SOL    HW228245   2.829   1.777   7.049 -0.6761  0.3185  0.7524
 5595SOL     OW28246   1.758   3.406   1.866  0.1309 -0.0396 -0.3957
 5595SOL    HW128247   1.687   3.457   1.905  0.3446 -0.1403  0.1219
 5595SOL    HW228248   1.721   3.322   1.838  1.6432 -1.3699  1.5956
 5596SOL     OW28249   2.412   1.712   7.984  0.6303  0.7029  0.1491
 5596SOL    HW128250   2.463   1.735   8.062  2.2564  0.2850 -0.7917
 5596SOL    HW228251   2.425   1.618   7.979 -1.2879  0.4813 -0.4628
 5597SOL     OW28252   3.504   1.758   6.795  0.2712 -0.2199  0.1224
 5597SOL    HW128253   3.543   1.701   6.861 -2.3810  0.6810  2.5173
 5597SOL    HW228254   3.417   1.770   6.835  0.7074 -1.6869  1.4994
 5598SOL     OW28255   2.228   1.755   5.377 -0.6386 -0.4079 -0.4338
 5598SOL    HW128256   2.310   1.727   5.337 -0.0503  2.1437 -0.9945
 5598SOL    HW228257   2.200   1.826   5.319  1.5902  1.1045  0.3604
 5599SOL     OW28258   1.568   1.895   4.738  0.6369 -0.5242  0.5030
 5599SOL    HW128259   1.531   1.844   4.811 -1.2528 -1.4281 -1.0926
 5599SOL    HW228260   1.485   1.919   4.696  0.4051  1.0032  1.8254
 5600SOL     OW28261   1.011   3.861   7.556  0.2481  0.0760  0.1733
 5600SOL    HW128262   0.935   3.808   7.577 -0.9135  2.1664  1.2271
 5600SOL    HW228263   1.053   3.802   7.493 -3.5124 -1.2847 -1.0480
 5601SOL     OW28264   1.055   3.040  17.431 -0.0391  0.0611  0.8565
 5601SOL    HW128265   0.960   3.044  17.433  0.0393  1.7227  1.1598
 5601SOL    HW228266   1.066   2.950  17.399  2.1058  0.4644  0.4240
 5602SOL     OW28267   2.873   4.581  10.905 -0.0020  0.0210  0.0345
 5602SOL    HW128268   2.955   4.564  10.858 -0.6638 -1.3981 -0.6021
 5602SOL    HW228269   2.854   4.501  10.953 -2.1593  1.2764  1.2315
 5603SOL     OW28270   1.297   2.053   3.847 -0.3135 -0.3224 -0.0327
 5603SOL    HW128271   1.385   2.082   3.823 -0.0925 -1.7997 -1.0113
 5603SOL    HW228272   1.269   2.124   3.905  0.4391 -0.2845  0.2737
 5604SOL     OW28273   3.190   0.701   2.379  0.2563  0.1121 -0.8030
 5604SOL    HW128274   3.174   0.760   2.453 -0.1473  1.0979 -1.6773
 5604SOL    HW228275   3.179   0.614   2.418 -0.9692  0.7117  0.1852
 5605SOL     OW28276   2.866   1.281   9.021 -0.4964 -0.2592  0.2967
 5605SOL    HW128277   2.796   1.342   9.046  1.5520  2.9108 -1.6448
 5605SOL    HW228278   2.921   1.274   9.098 -0.4537  0.7658  0.3664
 5606SOL     OW28279   0.565   0.009  10.076 -0.6715 -0.3088 -1.0676
 5606SOL    HW128280   0.568   4.687   9.992 -0.9804 -1.3304 -0.5246
 5606SOL    HW228281   0.647   0.060  10.075  0.1611 -1.6374  1.0210
 5607SOL     OW28282   0.970   2.555   1.027 -0.0196 -0.7481  0.2236
 5607SOL    HW128283   1.048   2.551   1.082  1.0019  1.9438 -1.0207
 5607SOL    HW228284   0.988   2.475   0.977 -0.4190 -0.5607 -0.2155
 5608SOL     OW28285   4.618   0.527   5.300 -0.1530 -0.3473 -0.1502
 5608SOL    HW128286   4.620   0.493   5.210 -1.8900 -1.0875  0.1063
 5608SOL    HW228287   4.664   0.609   5.279 -0.4795  0.0135  0.5607
 5609SOL     OW28288   3.620   3.123   3.076  0.2116  0.3371 -0.0503
 5609SOL    HW128289   3.682   3.051   3.068  0.2872  0.5783 -1.5922
 5609SOL    HW228290   3.681   3.197   3.073 -0.6670  1.1193  0.9993
 5610SOL     OW28291   1.241   0.958   3.192 -0.2244 -0.4729  0.1031
 5610SOL    HW128292   1.161   0.918   3.158  0.0828 -0.7290 -0.3159
 5610SOL    HW228293   1.210   1.048   3.207 -0.1271 -0.5984  1.0808
 5611SOL     OW28294   0.817   4.668   3.291  0.0396 -0.2168 -0.0688
 5611SOL    HW128295   0.807   4.576   3.318 -0.6197  0.1767  1.0413
 5611SOL    HW228296   0.833   4.661   3.197  1.5971 -2.9231  0.3898
 5612SOL     OW28297   4.596   2.824   4.599 -0.0303  0.0056 -0.5828
 5612SOL    HW128298   4.632   2.849   4.514 -1.2407  1.5968 -0.6036
 5612SOL    HW228299   4.590   2.728   4.598 -0.8688  0.0356  2.7753
 5613SOL     OW28300   2.059   2.584   8.129 -0.0133 -0.2629  0.0142
 5613SOL    HW128301   2.016   2.608   8.047 -0.8610 -3.3205 -0.4602
 5613SOL    HW228302   2.149   2.560   8.106  0.1524 -0.1502  0.5496
 5614SOL     OW28303   1.816   0.529   1.506 -0.0486 -0.1304  0.2986
 5614SOL    HW128304   1.759   0.478   1.449 -0.6597  2.1941 -1.1448
 5614SOL    HW228305   1.874   0.564   1.438 -2.5388  1.1656 -1.1383
 5615SOL     OW28306   4.497   0.578  15.751 -0.1953 -0.2106  0.3604
 5615SOL    HW128307   4.528   0.534  15.830  1.4734  1.4156  0.6079
 5615SOL    HW228308   4.579   0.624  15.733 -0.9177  0.2262 -1.8159
 5616SOL     OW28309   4.518   4.519   6.465 -0.1266 -0.1975  0.4631
 5616SOL    HW128310   4.444   4.461   6.480 -0.2873  0.2123  1.2228
 5616SOL    HW228311   4.471   4.603   6.465 -0.5801 -0.4508 -0.2147
 5617SOL     OW28312   2.274   1.790   4.754 -0.2253 -0.1259 -0.4569
 5617SOL    HW128313   2.180   1.807   4.761 -0.5026  0.0600 -4.6240
 5617SOL    HW228314   2.292   1.777   4.847  0.7326  1.1021 -0.4713
 5618SOL     OW28315   1.366   3.346   6.167  0.2247 -0.2573 -0.4332
 5618SOL    HW128316   1.453   3.371   6.198  0.0939 -1.7466  1.1707
 5618SOL    HW228317   1.334   3.291   6.239 -2.2493  0.2989 -1.1200
 5619SOL     OW28318   3.449   2.723   5.661 -0.4539 -0.1326  0.4776
 5619SOL    HW128319   3.404   2.775   5.594 -0.0184 -0.0421  0.2578
 5619SOL    HW228320   3.540   2.729   5.632 -0.6914  3.1986  0.3595
 5620SOL     OW28321   0.856   3.493   4.102  0.5513 -0.3610  0.0446
 5620SOL    HW128322   0.950   3.512   4.091  0.5121  1.0219  2.1323
 5620SOL    HW228323   0.806   3.574   4.112 -1.7164 -1.4961 -1.9906
 5621SOL     OW28324   1.813   1.241   6.670  0.3477  0.2113 -0.0080
 5621SOL    HW128325   1.832   1.295   6.593  0.4485  0.4291  0.1712
 5621SOL    HW228326   1.900   1.213   6.698  0.2742  0.9460  0.9552
 5622SOL     OW28327   2.953   0.752  15.776  0.1531 -0.4646  0.0563
 5622SOL    HW128328   2.878   0.793  15.819  0.5153  0.3212 -0.0814
 5622SOL    HW228329   2.898   0.701  15.716  0.7051 -0.6101 -0.3262
 5623SOL     OW28330   4.093   1.410  17.541  0.2156  0.0431 -0.4432
 5623SOL    HW128331   4.075   1.469  17.614 -1.2394 -0.2491 -0.5561
 5623SOL    HW228332   4.128   1.332  17.585  0.7200  1.0224  0.8756
 5624SOL     OW28333   0.312   3.670   4.916 -0.0643 -0.1037  0.6123
 5624SOL    HW128334   0.291   3.585   4.877  0.0764  0.2979 -0.3284
 5624SOL    HW228335   0.389   3.649   4.970  0.6691 -1.6087 -1.0151
 5625SOL     OW28336   1.666   1.130   2.217  0.3333 -0.6691 -0.0428
 5625SOL    HW128337   1.758   1.153   2.203  0.0202  0.7536  0.2517
 5625SOL    HW228338   1.631   1.193   2.280 -1.0648 -0.4051 -1.0865
 5626SOL     OW28339   0.222   4.392   4.768  0.0799 -0.1492 -0.5826
 5626SOL    HW128340   0.184   4.308   4.793 -0.0738 -0.0069 -0.3311
 5626SOL    HW228341   0.299   4.369   4.717 -1.0734 -0.7948 -2.0097
 5627SOL     OW28342   3.570   2.055  14.167 -0.2888 -0.3093  1.1843
 5627SOL    HW128343   3.573   2.132  14.110  1.8611 -0.7417  0.7240
 5627SOL    HW228344   3.623   2.089  14.239  0.3960 -0.6834  0.8512
 5628SOL     OW28345   3.195   0.841   5.088 -0.0286 -0.2597  0.5537
 5628SOL    HW128346   3.189   0.758   5.040  2.9430  0.7904 -1.6412
 5628SOL    HW228347   3.130   0.836   5.158 -1.9468  1.2222 -1.0938
 5629SOL     OW28348   3.994   4.194   5.146  0.3850  0.0710 -0.0251
 5629SOL    HW128349   4.088   4.210   5.144  0.3241  0.5100  0.4513
 5629SOL    HW228350   3.964   4.256   5.079 -0.9500 -0.7716 -0.1953
 5630SOL     OW28351   0.742   2.649  10.484  0.6040 -0.4735  0.3558
 5630SOL    HW128352   0.673   2.626  10.545  0.1111  2.1474  0.7777
 5630SOL    HW228353   0.696   2.610  10.409  0.0594 -1.7534  1.3594
 5631SOL     OW28354   1.769   3.923   2.945  0.0425  0.6252  0.5862
 5631SOL    HW128355   1.821   3.940   2.866 -1.3259 -0.9940 -0.6709
 5631SOL    HW228356   1.690   3.971   2.919 -0.3821 -0.5460 -0.3226
 5632SOL     OW28357   0.511   2.753   8.716  0.0363 -0.0762  0.1102
 5632SOL    HW128358   0.513   2.659   8.728  0.0113 -0.0519  0.2957
 5632SOL    HW228359   0.427   2.759   8.671  0.8113 -0.8615 -1.4408
 5633SOL     OW28360   2.220   3.117   7.224 -0.1073  0.3271 -0.1361
 5633SOL    HW128361   2.158   3.115   7.151  0.5617 -1.7814 -0.6668
 5633SOL    HW228362   2.293   3.165   7.184  0.8291 -0.5059  0.5646
 5634SOL     OW28363   2.055   1.978   2.632  0.2562  0.3925 -0.4222
 5634SOL    HW128364   2.137   2.018   2.603  1.1252 -1.1242 -0.0584
 5634SOL    HW228365   2.000   1.984   2.554 -0.6446 -0.5696  0.1257
 5635SOL     OW28366   2.014   2.428  15.386  0.0062  0.4080  0.0295
 5635SOL    HW128367   1.930   2.385  15.365 -0.4993  2.0912 -1.3359
 5635SOL    HW228368   2.000   2.522  15.374 -3.8481 -0.3564 -1.7039
 5636SOL     OW28369   3.235   1.414   9.023 -0.1014  0.3175  0.7092
 5636SOL    HW128370   3.245   1.482   9.089  0.9393  1.6677 -0.8531
 5636SOL    HW228371   3.328   1.394   9.013  0.1564  2.1513 -0.5750
 5637SOL     OW28372   4.652   0.186   0.924 -0.6115 -0.2614  0.3677
 5637SOL    HW128373   4.601   0.220   0.997 -1.5650 -0.7022 -0.0948
 5637SOL    HW228374   4.608   0.219   0.845 -0.3247 -0.6170  0.0560
 5638SOL     OW28375   4.212   3.754   2.894  0.4666 -0.4341 -0.2500
 5638SOL    HW128376   4.255   3.771   2.810 -0.2648 -1.8104 -0.8944
 5638SOL    HW228377   4.121   3.772   2.874  1.0437  2.2818 -0.4646
 5639SOL     OW28378   3.508   1.639   8.049 -0.0838 -0.0371  0.0422
 5639SOL    HW128379   3.529   1.583   7.974 -0.2842  0.3052 -0.2704
 5639SOL    HW228380   3.469   1.571   8.103 -2.8609  0.9517 -0.7170
 5640SOL     OW28381   3.648   2.147   6.259  0.0344  0.1836  0.4999
 5640SOL    HW128382   3.615   2.164   6.171  1.2776  2.3538  0.4497
 5640SOL    HW228383   3.698   2.069   6.232 -1.6013 -0.8768  0.5400
 5641SOL     OW28384   1.043   0.931  13.789 -0.1286  0.3793  0.0133
 5641SOL    HW128385   1.026   1.005  13.731  0.3810  0.4164 -0.0892
 5641SOL    HW228386   0.973   0.938  13.854 -1.1194 -0.1596 -1.0001
 5642SOL     OW28387   2.459   3.986  16.176 -0.1182  0.3260 -0.2661
 5642SOL    HW128388   2.417   3.955  16.256  0.9105  0.8109  0.4738
 5642SOL    HW228389   2.379   4.010  16.130  0.2050  0.6410 -0.6726
 5643SOL     OW28390   3.907   0.757   7.304 -0.4277  0.4951  0.0608
 5643SOL    HW128391   3.942   0.670   7.325 -1.6198  0.3004  1.2362
 5643SOL    HW228392   3.882   0.784   7.392 -0.5625 -0.4429  0.3129
 5644SOL     OW28393   0.233   3.076  10.944 -0.5082 -0.0385  0.5398
 5644SOL    HW128394   0.247   3.124  10.862 -0.5976  2.0608  1.7566
 5644SOL    HW228395   0.305   3.122  10.987 -0.5254 -0.8468  1.4307
 5645SOL     OW28396   0.840   1.340  15.541 -0.3782  0.0504 -0.4247
 5645SOL    HW128397   0.834   1.300  15.454  1.6731 -1.3082  0.0297
 5645SOL    HW228398   0.805   1.267  15.592 -0.0626 -0.5885 -1.1219
 5646SOL     OW28399   4.098   3.090   4.268 -0.7411 -0.3853  0.7394
 5646SOL    HW128400   4.160   3.135   4.211  0.7992 -2.8065  0.4532
 5646SOL    HW228401   4.115   3.004   4.229 -2.4962  0.7207 -2.3682
 5647SOL     OW28402   2.740   2.602   9.029 -0.0465 -0.2741 -0.4258
 5647SOL    HW128403   2.660   2.591   9.080  0.2665  1.2766  0.3800
 5647SOL    HW228404   2.803   2.552   9.082 -2.2191 -2.2377  0.3449
 5648SOL     OW28405   1.109   4.431   4.655  0.2924 -0.3429 -0.0495
 5648SOL    HW128406   1.064   4.352   4.626 -2.0493  1.3830 -1.1233
 5648SOL    HW228407   1.111   4.477   4.571  2.4601 -2.5623 -1.2043
 5649SOL     OW28408   0.580   0.285   0.387 -0.3667 -0.4510 -0.1782
 5649SOL    HW128409   0.509   0.231   0.421 -2.4781  1.9348 -0.7639
 5649SOL    HW228410   0.548   0.375   0.399 -1.7112 -1.0617  0.8464
 5650SOL     OW28411   2.548   4.696  11.802  0.2907  0.5958  0.5662
 5650SOL    HW128412   2.562   0.050  11.857  0.3292  2.1272 -1.5913
 5650SOL    HW228413   2.548   0.018  11.717  1.2895 -0.9893 -0.2676
 5651SOL     OW28414   4.231   4.154   4.138  0.5062 -0.2981  0.7145
 5651SOL    HW128415   4.168   4.150   4.210  0.1793 -1.9925  0.3360
 5651SOL    HW228416   4.270   4.067   4.128  0.1771 -0.0855 -2.3797
 5652SOL     OW28417   2.626   4.567   9.279  0.5989  0.4405 -1.1424
 5652SOL    HW128418   2.612   4.528   9.366  0.5492 -1.9439 -2.2305
 5652SOL    HW228419   2.690   4.511   9.234  2.3462  0.8987  0.7136
 5653SOL     OW28420   4.357   3.303   0.317 -0.3378 -0.4586  0.0140
 5653SOL    HW128421   4.340   3.252   0.396  0.9734 -1.6621 -0.4816
 5653SOL    HW228422   4.307   3.380   0.343 -0.8795 -0.7038 -0.3147
 5654SOL     OW28423   3.585   3.243   6.641  0.4243 -0.1633 -0.3461
 5654SOL    HW128424   3.591   3.148   6.638  0.7944 -0.1435 -0.1801
 5654SOL    HW228425   3.518   3.244   6.572 -0.0139 -0.5389  0.0807
 5655SOL     OW28426   3.423   0.088   7.563 -0.3513 -0.5538  0.3662
 5655SOL    HW128427   3.354   0.022   7.559 -0.7385 -0.1318  0.1110
 5655SOL    HW228428   3.476   0.077   7.484  0.9172 -1.6235  1.3545
 5656SOL     OW28429   0.528   2.620   3.946 -0.1745  0.0843  0.0885
 5656SOL    HW128430   0.611   2.667   3.956 -0.6433  0.1265  3.6516
 5656SOL    HW228431   0.450   2.666   3.975 -0.4870 -0.7670  0.6101
 5657SOL     OW28432   2.261   1.529  13.718 -0.7229  0.2053 -0.3770
 5657SOL    HW128433   2.284   1.611  13.673 -1.8126  0.2395 -0.8614
 5657SOL    HW228434   2.178   1.506  13.678  1.1526 -0.7781 -3.7217
 5658SOL     OW28435   0.874   0.831   8.588 -0.0797  0.2963  0.1795
 5658SOL    HW128436   0.854   0.853   8.497 -0.7536 -0.2714  0.1898
 5658SOL    HW228437   0.802   0.787   8.634  0.8690 -0.0656  1.3234
 5659SOL     OW28438   3.907   1.603   6.751 -0.7119  0.0536 -0.3305
 5659SOL    HW128439   3.917   1.568   6.663  0.2618 -1.8121  0.5295
 5659SOL    HW228440   3.822   1.560   6.757 -0.7441  0.1933  0.1989
 5660SOL     OW28441   2.488   0.547   9.794 -0.1131 -0.2030  0.7877
 5660SOL    HW128442   2.437   0.467   9.794  1.0940 -0.9747 -0.6057
 5660SOL    HW228443   2.569   0.519   9.837 -0.1708 -0.2179  0.8857
 5661SOL     OW28444   2.074   0.919   3.005 -0.5916  0.1846  0.0136
 5661SOL    HW128445   2.042   0.909   2.915 -0.1197  0.8388 -0.2251
 5661SOL    HW228446   2.165   0.915   2.973 -0.3192 -0.3324  0.8634
 5662SOL     OW28447   0.712   0.155   4.808 -0.0408  0.0807 -0.1982
 5662SOL    HW128448   0.620   0.130   4.811 -0.2555  0.6722 -1.4470
 5662SOL    HW228449   0.720   0.205   4.726  0.2761  1.3736  0.6276
 5663SOL     OW28450   0.534   3.669  15.554  0.4431  0.4186  0.3241
 5663SOL    HW128451   0.520   3.643  15.463 -2.1147  1.8684  0.3208
 5663SOL    HW228452   0.615   3.622  15.574  0.3527  0.3103  0.4331
 5664SOL     OW28453   1.638   0.318  15.427  0.3600  0.3085  0.3830
 5664SOL    HW128454   1.551   0.291  15.398  1.6248 -1.4955 -1.6902
 5664SOL    HW228455   1.681   0.312  15.342  0.3043  1.5365  0.2728
 5665SOL     OW28456   2.030   0.439   8.732 -0.1159  0.2088 -0.2951
 5665SOL    HW128457   2.056   0.391   8.811  0.3803 -1.1850 -1.3063
 5665SOL    HW228458   2.002   0.526   8.759 -2.8592 -0.3519 -1.3922
 5666SOL     OW28459   1.591   3.110   5.460  0.4230  0.1288  0.0734
 5666SOL    HW128460   1.581   3.092   5.554  1.9153  3.5129  0.8800
 5666SOL    HW228461   1.685   3.100   5.445  0.1370 -0.5235 -1.2245
 5667SOL     OW28462   1.227   4.009   0.322  0.4408  0.3036  0.4020
 5667SOL    HW128463   1.258   3.934   0.373  3.6951  0.9986 -0.5691
 5667SOL    HW228464   1.286   4.010   0.246 -1.5369 -1.6008 -1.1929
 5668SOL     OW28465   2.561   4.543   8.045 -0.0184  0.9334  0.4032
 5668SOL    HW128466   2.487   4.521   7.988 -0.8732  0.8279  1.5498
 5668SOL    HW228467   2.533   4.509   8.130  0.7687 -2.4159 -0.6841
 5669SOL     OW28468   0.345   3.103   4.669  0.5009 -0.0496 -0.4364
 5669SOL    HW128469   0.339   3.055   4.586 -0.3019 -2.5543  1.0706
 5669SOL    HW228470   0.426   3.068   4.705 -0.8086 -2.8442 -0.1835
 5670SOL     OW28471   2.873   2.478   4.172  0.3425  0.0932 -0.0988
 5670SOL    HW128472   2.910   2.526   4.098  0.1525 -1.4166 -1.1716
 5670SOL    HW228473   2.954   2.431   4.193  0.4689  0.3675  0.0388
 5671SOL     OW28474   3.080   4.651   6.415  0.8737 -0.2257  0.2647
 5671SOL    HW128475   3.127   4.680   6.493 -1.1747 -1.9733  2.1328
 5671SOL    HW228476   3.000   4.604   6.439  0.7023  0.2321  0.5846
 5672SOL     OW28477   3.474   1.980   0.564  0.6211 -0.4656  0.5797
 5672SOL    HW128478   3.502   2.043   0.630  1.8915 -1.0279  0.5857
 5672SOL    HW228479   3.521   2.015   0.488 -1.3143 -1.1127 -0.9137
 5673SOL     OW28480   3.290   1.266   3.584 -0.4308  0.7740 -0.3794
 5673SOL    HW128481   3.264   1.294   3.496  1.9823 -0.8570 -1.6086
 5673SOL    HW228482   3.326   1.345   3.625 -0.8484 -0.1428  1.7372
 5674SOL     OW28483   2.229   3.743   1.821  0.2901  0.6120 -0.0411
 5674SOL    HW128484   2.161   3.709   1.763  1.8561  0.1365 -1.5926
 5674SOL    HW228485   2.188   3.822   1.856 -1.2091  0.2607 -0.9771
 5675SOL     OW28486   0.717   3.149  10.233 -0.5301  0.3659  0.7719
 5675SOL    HW128487   0.659   3.155  10.308  0.2467  0.7357  1.3441
 5675SOL    HW228488   0.742   3.058  10.216 -0.4020  0.4623  0.4330
 5676SOL     OW28489   4.240   1.379   0.315 -0.1827 -0.0264  0.3439
 5676SOL    HW128490   4.213   1.288   0.299  3.2027 -1.0314  0.4412
 5676SOL    HW228491   4.240   1.380   0.410  0.4742 -0.0287  0.3389
 5677SOL     OW28492   3.873   3.333   1.827  0.1317  0.1602  0.1324
 5677SOL    HW128493   3.868   3.256   1.772  1.3007  0.7390 -0.7925
 5677SOL    HW228494   3.953   3.318   1.878 -0.5261  0.2174  1.1828
 5678SOL     OW28495   2.969   0.277   8.623  0.4609 -0.5211 -0.6103
 5678SOL    HW128496   2.994   0.258   8.713  0.3003  1.8462 -0.0669
 5678SOL    HW228497   3.057   0.266   8.586  0.5134 -1.4230 -0.2191
 5679SOL     OW28498   2.819   0.012  14.559  0.2619 -0.2679 -0.2575
 5679SOL    HW128499   2.774   0.061  14.491  0.3405 -1.9549 -1.5198
 5679SOL    HW228500   2.786   4.645  14.561  2.5939 -1.0798  2.2843
 5680SOL     OW28501   2.939   4.358   1.298  0.5810  0.2424  0.0736
 5680SOL    HW128502   2.919   4.392   1.386 -0.2722 -0.2573  0.0738
 5680SOL    HW228503   3.002   4.294   1.330  0.6657  0.2865 -0.0072
 5681SOL     OW28504   0.304   0.146  17.016  0.0346  0.2568 -0.9327
 5681SOL    HW128505   0.215   0.116  17.036  0.7853 -0.4450  1.3879
 5681SOL    HW228506   0.349   0.068  17.047 -1.1379 -1.0208 -2.4266
 5682SOL     OW28507   1.621   4.285  14.690 -0.2979  0.4070  0.0984
 5682SOL    HW128508   1.706   4.242  14.678 -0.3850  0.8944 -2.2891
 5682SOL    HW228509   1.628   4.293  14.785 -0.5509  2.9764 -0.1053
 5683SOL     OW28510   0.373   4.027   2.708  0.3659 -0.3473  0.2871
 5683SOL    HW128511   0.454   4.020   2.657 -0.5763  0.2415 -1.2797
 5683SOL    HW228512   0.409   3.983   2.785  0.4667 -0.6639  0.0582
 5684SOL     OW28513   3.568   0.888   8.323 -0.3865  0.3098  0.4351
 5684SOL    HW128514   3.527   0.857   8.243  0.3192  0.7502 -0.0938
 5684SOL    HW228515   3.640   0.938   8.284 -0.6583 -1.0560 -1.7875
 5685SOL     OW28516   0.802   4.247   2.341 -0.4273 -0.3886 -0.2597
 5685SOL    HW128517   0.835   4.332   2.311  0.6331 -0.9731 -0.7533
 5685SOL    HW228518   0.710   4.271   2.346 -0.2345  0.1897  0.5366
 5686SOL     OW28519   2.576   3.827   4.018 -0.2651  0.2981  0.1119
 5686SOL    HW128520   2.522   3.823   4.096  1.0353  0.4607  1.0276
 5686SOL    HW228521   2.513   3.785   3.960 -0.9668 -0.4045  1.4016
 5687SOL     OW28522   1.648   2.478   9.180  0.5100  0.1600  0.1359
 5687SOL    HW128523   1.672   2.487   9.272 -1.8618  1.3686  0.6543
 5687SOL    HW228524   1.693   2.555   9.144 -1.0549  1.1455  0.2777
 5688SOL     OW28525   4.449   0.974   6.063  0.4082  0.2969 -0.1863
 5688SOL    HW128526   4.406   0.921   6.130  1.7060 -1.0210 -0.3869
 5688SOL    HW228527   4.411   0.954   5.978 -1.3590 -0.0177  0.6622
 5689SOL     OW28528   4.715   0.070   5.426  0.2075 -0.6781  0.1756
 5689SOL    HW128529   0.065   0.096   5.370 -0.3244 -0.1643 -0.2799
 5689SOL    HW228530   0.028   4.710   5.458 -2.7486 -1.7259  0.8268
 5690SOL     OW28531   0.876   3.421   8.811 -0.1835  0.3897  0.1165
 5690SOL    HW128532   0.805   3.454   8.867  1.1153  0.9612  1.4418
 5690SOL    HW228533   0.831   3.435   8.728  0.3187  0.5819 -0.1252
 5691SOL     OW28534   0.838   4.221   6.640 -0.0011 -0.3619 -0.1702
 5691SOL    HW128535   0.753   4.256   6.667 -0.3809 -1.6629  0.3028
 5691SOL    HW228536   0.813   4.141   6.594 -1.4507 -0.8443  1.4683
 5692SOL     OW28537   0.397   2.301   2.624 -0.2639  0.2423 -0.3944
 5692SOL    HW128538   0.305   2.305   2.651 -0.6748 -0.0913 -1.7431
 5692SOL    HW228539   0.417   2.216   2.664  1.7486 -0.0965 -2.1337
 5693SOL     OW28540   0.039   4.602   9.241 -0.6472  0.3013 -0.2789
 5693SOL    HW128541   0.086   4.523   9.212 -0.7823  0.2975 -0.4797
 5693SOL    HW228542   0.024   4.578   9.333 -1.5471  1.2048 -0.1892
 5694SOL     OW28543   1.594   2.434  10.977 -0.5578 -0.3437  0.1263
 5694SOL    HW128544   1.660   2.400  11.038 -1.4654 -2.4014 -0.0138
 5694SOL    HW228545   1.648   2.433  10.898 -0.6046  0.8745  0.0876
 5695SOL     OW28546   3.367   1.724  15.948  0.2532  0.0346 -0.7141
 5695SOL    HW128547   3.451   1.679  15.934  0.2184 -0.3725  0.3726
 5695SOL    HW228548   3.389   1.810  15.912 -3.0697  0.4159 -1.8329
 5696SOL     OW28549   0.644   2.225   0.788 -0.1256 -0.6587 -0.0443
 5696SOL    HW128550   0.624   2.313   0.819  0.6124 -0.1783 -0.9208
 5696SOL    HW228551   0.729   2.242   0.748 -0.5185 -1.8392 -1.3920
 5697SOL     OW28552   2.192   0.476   9.146  0.5258  0.4795  0.1610
 5697SOL    HW128553   2.223   0.501   9.058  1.4251 -0.0360  0.3316
 5697SOL    HW228554   2.255   0.409   9.173  0.2146 -0.0694 -0.4821
 5698SOL     OW28555   4.252   1.947   4.052  0.6262  0.5109  0.8302
 5698SOL    HW128556   4.298   1.866   4.027  0.3626  0.2822  1.0863
 5698SOL    HW228557   4.316   1.995   4.105  0.0730  1.1023  0.9449
 5699SOL     OW28558   2.244   3.820   4.260 -0.7429 -0.2106  0.8395
 5699SOL    HW128559   2.318   3.770   4.225 -0.5836  1.5817 -1.3485
 5699SOL    HW228560   2.242   3.796   4.353 -0.1529 -0.1019  0.8771
 5700SOL     OW28561   0.489   1.138   8.035 -0.1385  1.1021 -0.2043
 5700SOL    HW128562   0.552   1.114   8.103  0.5368 -0.8038 -1.5007
 5700SOL    HW228563   0.410   1.098   8.072  0.5187 -1.5813 -1.7464
 5701SOL     OW28564   3.385   3.173  11.931  0.5471  0.5129  0.4657
 5701SOL    HW128565   3.332   3.095  11.947 -1.0469  1.9428  2.2338
 5701SOL    HW228566   3.421   3.177  12.020 -2.2141  0.6725  1.5867
 5702SOL     OW28567   4.297   4.452   4.126 -0.0147 -0.2189  0.3368
 5702SOL    HW128568   4.244   4.397   4.182 -2.0303  0.3474 -1.0198
 5702SOL    HW228569   4.236   4.525   4.115 -0.2246 -0.2200  1.5076
 5703SOL     OW28570   2.419   4.624   5.191 -0.1719  0.2246 -0.4000
 5703SOL    HW128571   2.325   4.616   5.203 -0.2686  0.8815 -0.7086
 5703SOL    HW228572   2.444   4.532   5.181  1.5150  0.6752 -0.4340
 5704SOL     OW28573   1.545   2.725   8.678 -0.0684  0.0935  0.1783
 5704SOL    HW128574   1.542   2.818   8.657  1.8129  0.6733  2.4752
 5704SOL    HW228575   1.553   2.690   8.590 -0.2922 -2.2460  1.0747
 5705SOL     OW28576   1.980   3.732   2.071 -0.1136  0.1130  0.3028
 5705SOL    HW128577   1.980   3.665   2.002  2.4418 -0.7242  1.1165
 5705SOL    HW228578   1.889   3.761   2.068 -0.7264 -1.6636  1.7925
 5706SOL     OW28579   4.036   4.329   6.436 -1.0246  0.4109  0.3954
 5706SOL    HW128580   3.946   4.358   6.452 -1.0428  0.0705  0.9018
 5706SOL    HW228581   4.014   4.319   6.343 -1.5984  3.1188  0.2441
 5707SOL     OW28582   0.940   0.382   0.404 -0.2948  0.3144 -0.2809
 5707SOL    HW128583   0.912   0.306   0.456  1.8766  0.1151  0.6078
 5707SOL    HW228584   1.035   0.378   0.417 -0.2547  0.0665 -0.6564
 5708SOL     OW28585   4.185   0.334   8.331 -0.3433 -0.3149  0.2032
 5708SOL    HW128586   4.237   0.256   8.350  1.4895  0.9298  0.3038
 5708SOL    HW228587   4.175   0.372   8.419 -0.1633  0.0189  0.0770
 5709SOL     OW28588   2.562   3.650   0.996  0.7539 -0.7643  0.0335
 5709SOL    HW128589   2.549   3.665   1.089 -1.6723  0.7534 -0.5430
 5709SOL    HW228590   2.474   3.674   0.966  1.3221  0.3017 -0.7899
 5710SOL     OW28591   4.373   4.127   0.749  0.0572 -0.3450 -0.2374
 5710SOL    HW128592   4.315   4.051   0.738 -1.0083  0.2408  1.4398
 5710SOL    HW228593   4.460   4.091   0.732  0.3290 -0.1225  0.6816
 5711SOL     OW28594   3.094   1.733   3.116 -0.0253 -0.2090 -0.3787
 5711SOL    HW128595   3.084   1.684   3.198  0.3470  1.3678  0.6021
 5711SOL    HW228596   3.087   1.820   3.153  2.1763 -0.1858  0.0095
 5712SOL     OW28597   4.538   4.012   2.180  0.5172  0.1670  0.3276
 5712SOL    HW128598   4.558   3.979   2.093  0.5278  0.3218  0.2711
 5712SOL    HW228599   4.451   3.973   2.186 -0.1176  1.4034 -0.9799
 5713SOL     OW28600   4.498   1.899  17.613  0.2722  0.2257  0.0238
 5713SOL    HW128601   4.496   1.821  17.668 -2.4780  0.3910  0.1488
 5713SOL    HW228602   4.459   1.970  17.664 -0.7788 -1.8561  2.1089
 5714SOL     OW28603   1.579   1.237   3.784 -0.5229  0.6873 -0.1222
 5714SOL    HW128604   1.562   1.295   3.858 -1.7091  0.3624 -0.1369
 5714SOL    HW228605   1.489   1.207   3.771 -0.7402  2.0462 -1.8320
 5715SOL     OW28606   2.015   1.120   6.960 -0.8151  0.0049  0.1250
 5715SOL    HW128607   1.977   1.036   6.981 -2.1889  0.7745  0.6994
 5715SOL    HW228608   2.038   1.115   6.867  2.1027 -0.4955  0.8679
 5716SOL     OW28609   4.016   3.002  11.489 -0.9727  0.6732 -0.2525
 5716SOL    HW128610   3.998   3.096  11.493  1.3274  1.1385 -0.6811
 5716SOL    HW228611   4.008   2.985  11.583  1.6391 -0.8272 -0.2765
 5717SOL     OW28612   1.745   4.641   6.248 -0.0002  0.7120 -0.3084
 5717SOL    HW128613   1.834   4.660   6.220  0.9777 -1.9759  0.9374
 5717SOL    HW228614   1.689   4.685   6.184  1.2168 -0.9548 -2.5143
 5718SOL     OW28615   2.991   3.920   9.026 -0.2124  0.1673  0.7312
 5718SOL    HW128616   3.000   3.892   9.117  0.8553  2.2328  1.2387
 5718SOL    HW228617   2.904   3.960   9.028 -0.4387 -0.2882 -0.1615
 5719SOL     OW28618   2.481   2.438   7.638 -0.1592 -0.1854 -0.6743
 5719SOL    HW128619   2.467   2.513   7.697  1.6022 -0.8843  0.6408
 5719SOL    HW228620   2.482   2.369   7.705  1.2908  1.9165  1.4910
 5720SOL     OW28621   0.292   1.228   5.137 -0.3095  0.2069  0.1127
 5720SOL    HW128622   0.211   1.178   5.131  1.4441 -2.4343 -2.1477
 5720SOL    HW228623   0.346   1.163   5.183  0.3917  0.7775  0.1015
 5721SOL     OW28624   1.022   0.895   3.516  0.3126 -0.2997  0.1803
 5721SOL    HW128625   0.932   0.928   3.521  0.8106  1.1529 -0.4900
 5721SOL    HW228626   1.066   0.980   3.526  0.9815 -0.9795  2.9166
 5722SOL     OW28627   3.017   0.961   0.915 -0.2057  0.2848  0.0386
 5722SOL    HW128628   3.098   1.012   0.916  1.1259 -1.8638  1.3781
 5722SOL    HW228629   2.973   1.002   0.840  0.7716  0.4892 -0.4241
 5723SOL     OW28630   0.005   2.074   1.305  0.5813 -0.1702  0.0125
 5723SOL    HW128631   4.684   2.051   1.223  0.0067  0.6408  0.0946
 5723SOL    HW228632   0.093   2.091   1.269  0.4745  0.2898 -0.0346
 5724SOL     OW28633   2.299   4.119   3.537 -0.2078 -0.0802 -0.4807
 5724SOL    HW128634   2.380   4.160   3.507 -0.6412  0.8278 -0.4247
 5724SOL    HW228635   2.320   4.026   3.540 -0.2532 -0.0216  1.8143
 5725SOL     OW28636   2.899   1.179   3.890 -0.2281 -0.1075  0.3219
 5725SOL    HW128637   2.922   1.088   3.871  0.1446  1.0532 -4.6782
 5725SOL    HW228638   2.980   1.229   3.881 -0.7017  0.8709  1.4417
 5726SOL     OW28639   2.615   4.159   3.178  0.0388 -0.0102 -0.3175
 5726SOL    HW128640   2.693   4.190   3.131  0.8400  0.6835  1.4508
 5726SOL    HW228641   2.562   4.238   3.170 -0.1401 -0.0431  0.5250
 5727SOL     OW28642   1.569   3.840   6.712 -0.3119  1.2300 -0.1146
 5727SOL    HW128643   1.478   3.854   6.739 -0.1504  0.5081  0.8299
 5727SOL    HW228644   1.580   3.901   6.640 -1.1532 -0.3845 -1.6206
 5728SOL     OW28645   0.444   1.612   4.911  0.5525 -0.1206  0.1679
 5728SOL    HW128646   0.505   1.560   4.858 -0.8220  1.0292 -2.5957
 5728SOL    HW228647   0.380   1.631   4.842  0.1575  0.9076  0.8165
 5729SOL     OW28648   4.109   1.939   4.278 -0.2605  0.1233 -0.2222
 5729SOL    HW128649   4.107   1.846   4.301  1.5085  0.1793  0.1360
 5729SOL    HW228650   4.143   1.935   4.189  0.5274 -1.5218  0.1551
 5730SOL     OW28651   1.132   4.495   3.353  0.1983 -0.0845  0.3245
 5730SOL    HW128652   1.155   4.585   3.329 -0.0213 -0.2797 -0.6111
 5730SOL    HW228653   1.130   4.444   3.273  2.4692 -0.0598  0.2528
 5731SOL     OW28654   2.373   1.389   5.005 -0.2826  0.1419  0.5936
 5731SOL    HW128655   2.313   1.330   5.050 -0.4268  1.7919  2.5827
 5731SOL    HW228656   2.437   1.326   4.971 -0.6630 -0.3163  0.7360
 5732SOL     OW28657   0.503   0.999   4.893 -0.2888 -0.0874  0.6401
 5732SOL    HW128658   0.583   0.948   4.907  0.3190  0.7248  0.1145
 5732SOL    HW228659   0.447   0.959   4.959  0.9268 -3.7418 -0.4978
 5733SOL     OW28660   1.747   1.545   7.858 -0.1447  0.0759 -0.0337
 5733SOL    HW128661   1.843   1.543   7.862 -0.2323 -2.0607  1.0859
 5733SOL    HW228662   1.716   1.488   7.928 -2.0323  0.8551 -0.2390
 5734SOL     OW28663   1.696   2.269   7.886 -0.4237  0.1834 -0.0798
 5734SOL    HW128664   1.729   2.350   7.925  0.2996 -0.5813  0.9033
 5734SOL    HW228665   1.748   2.282   7.806  0.8782  2.0324  1.0552
 5735SOL     OW28666   2.097   1.782   3.447 -0.1006  0.5937  0.3460
 5735SOL    HW128667   2.060   1.807   3.531 -1.2058 -0.7243  0.2522
 5735SOL    HW228668   2.027   1.819   3.393 -0.0745  1.4701  0.9134
 5736SOL     OW28669   3.260   0.169  11.703  0.0427 -0.1207  0.6022
 5736SOL    HW128670   3.205   0.093  11.681 -1.1029  1.3786 -1.6541
 5736SOL    HW228671   3.220   0.208  11.781 -0.3872 -0.6984  0.6714
 5737SOL     OW28672   2.726   0.425  11.300  0.1562  0.2802 -0.2375
 5737SOL    HW128673   2.820   0.424  11.287  0.1016  1.3112 -0.6892
 5737SOL    HW228674   2.715   0.520  11.301 -1.1373  0.1451 -1.2380
 5738SOL     OW28675   2.995   0.301  12.685 -0.4545 -0.3759 -0.1719
 5738SOL    HW128676   2.982   0.210  12.658 -0.5686 -1.1140  2.3421
 5738SOL    HW228677   3.015   0.295  12.779  1.1970  0.1581 -0.4775
 5739SOL     OW28678   4.641   2.088   7.010  0.1501 -0.1956 -0.1975
 5739SOL    HW128679   0.011   2.107   6.997  0.1988  0.5146  1.2435
 5739SOL    HW228680   4.621   2.024   6.942 -0.8582 -0.9490  0.8186
 5740SOL     OW28681   2.751   4.537   1.517 -0.0214  0.1722 -0.1617
 5740SOL    HW128682   2.780   4.473   1.581 -0.9160 -0.4229 -0.3568
 5740SOL    HW228683   2.815   4.607   1.529  0.8341 -0.5058 -0.8362
 5741SOL     OW28684   1.495   4.149   9.349  0.0681  0.6041 -0.6153
 5741SOL    HW128685   1.441   4.082   9.392  1.4995  0.3501  0.7805
 5741SOL    HW228686   1.474   4.123   9.259  3.8006 -3.2591 -0.3549
 5742SOL     OW28687   2.081   2.811  10.352 -0.4363  0.2418 -0.6509
 5742SOL    HW128688   2.092   2.799  10.447 -0.2545 -1.4499 -0.8867
 5742SOL    HW228689   1.989   2.787  10.344  0.1488 -2.3590  0.1581
 5743SOL     OW28690   4.688   2.792   7.738  0.4423 -1.1915  0.0845
 5743SOL    HW128691   4.632   2.855   7.692  1.9066  0.6756  0.8379
 5743SOL    HW228692   0.050   2.808   7.697  0.6512 -1.0004  0.5965
 5744SOL     OW28693   3.340   0.017  16.211 -0.0728  0.3911  0.3029
 5744SOL    HW128694   3.281   4.679  16.166 -1.6867  1.5657  0.8329
 5744SOL    HW228695   3.306   0.106  16.217  0.2565  0.4977  0.5565
 5745SOL     OW28696   3.391   3.146   0.487  0.2524 -0.4375 -0.1939
 5745SOL    HW128697   3.375   3.238   0.466 -0.6881 -1.0134 -2.0270
 5745SOL    HW228698   3.487   3.146   0.482  0.1510  3.3456 -1.5864
 5746SOL     OW28699   2.939   2.376   5.936  0.2461 -0.1390  0.5196
 5746SOL    HW128700   2.879   2.325   5.991  1.0114  1.2886  2.6686
 5746SOL    HW228701   2.927   2.458   5.983 -2.4724  0.8117 -1.7794
 5747SOL     OW28702   2.461   0.938   1.188 -0.0759  0.4198 -0.0200
 5747SOL    HW128703   2.415   1.016   1.220  1.7962 -0.0511  3.8088
 5747SOL    HW228704   2.396   0.897   1.131  0.0936 -1.4575  1.1546
 5748SOL     OW28705   2.418   1.611   6.455 -0.1578 -0.0357  0.1946
 5748SOL    HW128706   2.457   1.615   6.367 -0.5347 -0.6610  0.0070
 5748SOL    HW228707   2.339   1.663   6.446  0.9953  1.6412 -0.3549
 5749SOL     OW28708   4.009   2.936   6.605 -0.2359  0.1964  0.0649
 5749SOL    HW128709   4.045   2.858   6.563  3.5960  1.1164  1.6456
 5749SOL    HW228710   3.915   2.944   6.591 -0.0587  1.0037 -0.6677
 5750SOL     OW28711   1.547   3.885   7.289 -0.3135  0.0194 -0.3047
 5750SOL    HW128712   1.642   3.892   7.291 -0.1360 -2.1252 -0.7883
 5750SOL    HW228713   1.525   3.864   7.198 -0.7763 -0.5753 -0.0550
 5751SOL     OW28714   3.499   2.281  13.805 -0.1504  0.0285 -0.0454
 5751SOL    HW128715   3.533   2.273  13.894  1.3855 -1.2455 -0.7557
 5751SOL    HW228716   3.435   2.210  13.802 -0.5667  0.3579  1.3208
 5752SOL     OW28717   1.272   3.236   9.586  0.1556  0.1428  0.4564
 5752SOL    HW128718   1.285   3.188   9.668  0.4755 -0.5722 -0.0144
 5752SOL    HW228719   1.352   3.289   9.583  1.0253 -1.0849  1.6308
 5753SOL     OW28720   4.350   3.485   0.024 -0.1176  0.7524 -0.5631
 5753SOL    HW128721   4.314   3.472  17.630 -0.7598 -0.9108 -0.0658
 5753SOL    HW228722   4.272   3.532   0.052  1.3203  2.3101  0.8170
 5754SOL     OW28723   4.314   1.375   3.442 -0.1714  0.5323 -0.0899
 5754SOL    HW128724   4.326   1.410   3.354 -0.7087 -2.1310 -1.1974
 5754SOL    HW228725   4.222   1.348   3.438  0.5632 -2.1960  1.6833
 5755SOL     OW28726   4.180   2.243  12.959 -0.0873  0.5002  0.5020
 5755SOL    HW128727   4.144   2.259  13.046  0.2606  0.7113  0.6043
 5755SOL    HW228728   4.152   2.317  12.905 -0.0543 -0.3094 -0.6346
 5756SOL     OW28729   1.550   0.948  14.950 -0.6827 -0.2189 -0.5049
 5756SOL    HW128730   1.496   0.868  14.951 -1.5848  0.4016  2.8787
 5756SOL    HW228731   1.625   0.916  14.900 -1.1327 -1.8608 -0.1629
 5757SOL     OW28732   1.071   1.919  11.499  0.4377 -0.4434 -0.0756
 5757SOL    HW128733   1.009   1.979  11.541 -0.8651 -1.0485 -1.1445
 5757SOL    HW228734   1.152   1.970  11.513  1.7508 -1.8443 -2.5361
 5758SOL     OW28735   1.137   0.216   3.700 -0.2767 -0.5273 -0.0288
 5758SOL    HW128736   1.071   0.270   3.743  0.6805  3.5735 -3.7144
 5758SOL    HW228737   1.132   0.256   3.613  2.3985 -0.8314 -0.3356
 5759SOL     OW28738   1.920   1.399   2.378  0.1840  0.2090 -0.6447
 5759SOL    HW128739   1.829   1.373   2.367 -0.2250  2.2407 -1.9634
 5759SOL    HW228740   1.961   1.313   2.369  0.4358  0.3597 -0.9210
 5760SOL     OW28741   0.681   3.890   8.058  0.6379  0.2266  0.0294
 5760SOL    HW128742   0.723   3.911   7.974 -0.7488 -0.5441 -0.8532
 5760SOL    HW228743   0.740   3.823   8.094  2.2061  1.0453 -1.0430
 5761SOL     OW28744   3.213   0.510   3.248  0.2739 -0.4336  0.1120
 5761SOL    HW128745   3.265   0.576   3.202  2.2652 -1.7462  0.5037
 5761SOL    HW228746   3.127   0.529   3.211  0.4990  1.7022  0.6916
 5762SOL     OW28747   2.493   2.637   8.735 -0.9578 -0.7553 -0.3550
 5762SOL    HW128748   2.420   2.659   8.677 -2.6074 -0.7289  1.7436
 5762SOL    HW228749   2.505   2.545   8.713  0.7951 -0.1946 -1.6748
 5763SOL     OW28750   3.935   3.877   6.674 -0.0929 -0.4197 -0.1043
 5763SOL    HW128751   3.994   3.816   6.630 -0.7710 -1.1230 -0.0387
 5763SOL    HW228752   3.927   3.950   6.612 -0.9918 -0.1293  0.3611
 5764SOL     OW28753   2.255   1.724   2.575  0.3164 -0.6013 -0.0714
 5764SOL    HW128754   2.209   1.643   2.597 -1.4092  0.1124 -1.0314
 5764SOL    HW228755   2.261   1.755   2.666 -0.4223  0.3362 -0.3396
 5765SOL     OW28756   4.143   0.091  10.142  0.3390 -0.0127 -0.1141
 5765SOL    HW128757   4.074   0.134  10.191 -1.2912  0.3187 -2.7350
 5765SOL    HW228758   4.102   0.006  10.126  0.2381  0.4864 -2.4823
 5766SOL     OW28759   2.143   0.145   9.784  0.4707 -0.0238  0.1883
 5766SOL    HW128760   2.097   0.086   9.844 -0.6396  0.8204  0.1570
 5766SOL    HW228761   2.075   0.169   9.721  0.3793  1.2560  0.7825
 5767SOL     OW28762   2.287   0.356   9.473 -0.4813 -0.4335  0.2286
 5767SOL    HW128763   2.287   0.451   9.483 -0.1958 -0.5714  1.6363
 5767SOL    HW228764   2.304   0.341   9.381  0.3059 -1.2368  0.5073
 5768SOL     OW28765   3.892   2.961   5.527  0.1928 -0.0334  0.1327
 5768SOL    HW128766   3.944   3.025   5.478 -1.0493  0.5961 -0.3909
 5768SOL    HW228767   3.940   2.955   5.609  1.8130  2.1811 -0.6415
 5769SOL     OW28768   2.155   1.094   4.295  0.6466 -0.1636  0.4885
 5769SOL    HW128769   2.097   1.076   4.221  0.2677  1.3388  0.4166
 5769SOL    HW228770   2.233   1.108   4.241  0.0560  1.4749  0.0456
 5770SOL     OW28771   2.391   2.445  10.385  0.3299 -0.0117  0.2644
 5770SOL    HW128772   2.448   2.495  10.327 -0.1330  0.0779 -0.1133
 5770SOL    HW228773   2.312   2.465  10.335  1.1914 -0.9416 -1.4551
 5771SOL     OW28774   0.709   2.178   4.304 -0.5409 -0.3151  0.8786
 5771SOL    HW128775   0.631   2.150   4.352 -1.1651  0.5727  0.3757
 5771SOL    HW228776   0.668   2.201   4.221  1.5190  3.0057  0.7847
 5772SOL     OW28777   0.881   4.359   5.601 -0.3196 -0.3406 -0.0038
 5772SOL    HW128778   0.956   4.369   5.660 -0.9994 -2.9240  1.3133
 5772SOL    HW228779   0.861   4.450   5.580 -1.8953 -0.5875  0.4587
 5773SOL     OW28780   2.276   1.706  17.445  0.0278  0.4526  0.8511
 5773SOL    HW128781   2.253   1.747  17.528 -0.7965 -0.3797  1.0295
 5773SOL    HW228782   2.208   1.737  17.384 -1.7817 -2.1372  1.5316
 5774SOL     OW28783   2.300   0.997   4.651 -0.4126  0.2305 -0.2983
 5774SOL    HW128784   2.296   0.937   4.577  0.2154 -0.9496  0.6210
 5774SOL    HW228785   2.352   1.072   4.625  1.0619 -0.3282  1.0349
 5775SOL     OW28786   0.439   2.138   3.643 -0.5890  0.1878 -0.0560
 5775SOL    HW128787   0.474   2.223   3.616 -0.0745  0.0235  0.0913
 5775SOL    HW228788   0.453   2.077   3.570  0.4116 -1.0102  1.1338
 5776SOL     OW28789   0.273   3.486   3.883  0.0541 -0.0965  0.4869
 5776SOL    HW128790   0.344   3.432   3.848  1.4489  2.1216 -0.1503
 5776SOL    HW228791   0.321   3.544   3.942 -0.0678 -0.3412  0.8263
 5777SOL     OW28792   0.059   0.385   7.492  0.3378  0.2293 -0.7104
 5777SOL    HW128793   0.067   0.346   7.405  1.5895  0.1429 -0.5566
 5777SOL    HW228794   4.700   0.346   7.520  1.5081 -1.7435 -0.0382
 5778SOL     OW28795   3.097   3.677   6.570 -0.0168 -0.3557 -0.6121
 5778SOL    HW128796   3.128   3.702   6.657  0.8470 -1.4114 -0.6197
 5778SOL    HW228797   3.124   3.586   6.565  1.2236 -0.0144 -0.2312
 5779SOL     OW28798   0.452   0.364   6.995  0.3484  0.4442 -0.3296
 5779SOL    HW128799   0.525   0.402   7.043  0.3591  0.0795 -0.0610
 5779SOL    HW228800   0.379   0.400   7.046  0.6399  0.4894  0.0479
 5780SOL     OW28801   1.900   3.159  12.212  0.0789 -0.3720 -0.3982
 5780SOL    HW128802   1.892   3.082  12.156  1.2153 -0.2063 -0.8026
 5780SOL    HW228803   1.976   3.204  12.176  0.5439  0.3473  1.4914
 5781SOL     OW28804   3.869   3.483   4.928 -0.0535 -0.1842 -0.2791
 5781SOL    HW128805   3.873   3.429   5.007 -2.0319  0.1790  0.0527
 5781SOL    HW228806   3.947   3.533   4.955  0.6916 -0.3704 -2.1187
 5782SOL     OW28807   0.368   4.468   7.409 -0.0848  1.0969  0.3067
 5782SOL    HW128808   0.348   4.528   7.481 -0.9800  0.4213  0.6202
 5782SOL    HW228809   0.322   4.395   7.450 -0.3745  1.8659  1.3347
 5783SOL     OW28810   0.255   1.959  13.351  0.7675 -0.3872 -0.9091
 5783SOL    HW128811   0.270   1.906  13.429 -0.9036  0.3569 -0.0710
 5783SOL    HW228812   0.172   1.929  13.316  0.4613 -0.8456  0.2108
 5784SOL     OW28813   2.271   2.205   4.010 -0.0068  0.0340 -0.3084
 5784SOL    HW128814   2.200   2.159   4.054 -0.9233 -0.0100 -1.8192
 5784SOL    HW228815   2.336   2.135   4.002 -0.3447 -0.5242  1.9961
 5785SOL     OW28816   4.146   0.857   3.748  0.3801  0.0179 -0.6089
 5785SOL    HW128817   4.217   0.795   3.733  0.1514 -0.6403  0.9755
 5785SOL    HW228818   4.071   0.821   3.701  0.2509 -1.6435  0.8695
 5786SOL     OW28819   3.444   4.290   7.276  0.1640  0.4375 -0.3987
 5786SOL    HW128820   3.371   4.264   7.332 -0.3294  0.2521 -1.1224
 5786SOL    HW228821   3.386   4.338   7.217 -3.0245  0.3140  2.6135
 5787SOL     OW28822   3.835   2.292   3.363 -0.2774  0.5155 -0.1226
 5787SOL    HW128823   3.902   2.354   3.335  0.4329 -0.8451 -1.4937
 5787SOL    HW228824   3.878   2.215   3.325 -1.7665 -1.1418  1.5178
 5788SOL     OW28825   2.472   3.203   4.715 -0.1855 -0.6277  0.3022
 5788SOL    HW128826   2.387   3.207   4.671 -0.6969 -2.6703  1.1284
 5788SOL    HW228827   2.500   3.116   4.685 -0.1332 -0.2365 -0.7952
 5789SOL     OW28828   3.387   2.339   3.282  0.0982 -0.0697 -0.1569
 5789SOL    HW128829   3.361   2.431   3.284  0.9773  0.1735  0.3495
 5789SOL    HW228830   3.478   2.347   3.312 -0.1384  1.1064  0.2245
 5790SOL     OW28831   2.392   3.303   5.186  0.0456  0.2133 -0.1107
 5790SOL    HW128832   2.305   3.264   5.180  0.0949  0.0043  0.5415
 5790SOL    HW228833   2.380   3.390   5.148 -1.2534  0.0908  0.0108
 5791SOL     OW28834   1.839   4.665   8.898 -0.4737  0.0250  0.0569
 5791SOL    HW128835   1.922   4.682   8.942 -0.3593 -2.5938  0.8256
 5791SOL    HW228836   1.840   4.708   8.812 -1.1891 -0.1254 -0.0248
 5792SOL     OW28837   3.802   0.093   6.245  0.2813 -0.5062  0.1494
 5792SOL    HW128838   3.872   0.146   6.208  1.4545 -1.2342  1.3379
 5792SOL    HW228839   3.791   0.025   6.179  1.6403 -0.2678 -0.3070
 5793SOL     OW28840   3.859   1.381   6.288 -0.1307  0.6205 -0.6278
 5793SOL    HW128841   3.926   1.373   6.220  0.9168  1.5457  0.3060
 5793SOL    HW228842   3.794   1.441   6.251 -1.6591  0.1900  1.3324
 5794SOL     OW28843   0.385   0.877   4.656  0.1065  0.1459 -0.1630
 5794SOL    HW128844   0.391   0.931   4.577  1.5862 -1.3700 -1.0694
 5794SOL    HW228845   0.406   0.940   4.725  1.0995  0.6391 -0.9147
 5795SOL     OW28846   2.929   4.043   1.675 -0.3068  0.4500  0.4449
 5795SOL    HW128847   3.011   3.998   1.695 -1.1942 -0.9033  0.9866
 5795SOL    HW228848   2.873   3.984   1.725 -0.5648  0.8471  0.6233
 5796SOL     OW28849   1.830   3.780   6.073  0.3021 -0.8566  0.4458
 5796SOL    HW128850   1.786   3.695   6.068  0.1476 -0.6140 -2.2723
 5796SOL    HW228851   1.924   3.761   6.071  0.2122 -1.4520  1.6650
 5797SOL     OW28852   3.046   0.782   7.741 -0.1396 -0.1253 -0.4376
 5797SOL    HW128853   2.990   0.774   7.818 -0.4386  0.1263 -0.6277
 5797SOL    HW228854   3.109   0.844   7.778  1.5827 -1.4411 -1.1461
 5798SOL     OW28855   4.068   0.328   4.637 -0.5378 -0.7521  0.1137
 5798SOL    HW128856   3.981   0.302   4.667 -0.8606  0.7538  0.5144
 5798SOL    HW228857   4.030   0.406   4.595 -1.8675 -0.7224  1.3463
 5799SOL     OW28858   3.894   4.325   2.356 -0.5853 -0.9561 -0.4206
 5799SOL    HW128859   3.981   4.297   2.384 -0.0649  1.2773  0.1804
 5799SOL    HW228860   3.908   4.331   2.262 -0.7879  0.1974 -0.3789
 5800SOL     OW28861   1.493   1.706   4.888 -0.2909  0.7195 -0.2308
 5800SOL    HW128862   1.434   1.690   4.814  0.7390 -0.2501 -0.8425
 5800SOL    HW228863   1.456   1.644   4.951 -4.0238 -0.2641 -3.4054
 5801SOL     OW28864   0.427   3.617   5.455 -0.2430 -0.1146  0.4459
 5801SOL    HW128865   0.421   3.529   5.418  1.1205 -0.5277  1.2098
 5801SOL    HW228866   0.364   3.610   5.527 -1.4722  0.3224 -0.5862
 5802SOL     OW28867   4.119   3.613  13.643  0.1166  0.3876  0.0828
 5802SOL    HW128868   4.053   3.661  13.692 -0.5684  0.5723 -1.0342
 5802SOL    HW228869   4.153   3.673  13.577 -1.5328  1.4068  0.1862
 5803SOL     OW28870   1.747   2.364  12.386  0.2662  0.2761 -0.9192
 5803SOL    HW128871   1.719   2.455  12.392  2.3145  0.7367  1.5450
 5803SOL    HW228872   1.720   2.349  12.295  1.9395  0.5578 -1.4524
 5804SOL     OW28873   3.136   4.228  10.675 -0.8849  0.3192 -0.2486
 5804SOL    HW128874   3.074   4.158  10.652  0.5714 -0.9418 -0.3664
 5804SOL    HW228875   3.212   4.173  10.655 -0.5930 -0.0803  1.9684
 5805SOL     OW28876   1.792   0.884  14.828  0.1819  0.0282  0.1748
 5805SOL    HW128877   1.839   0.900  14.746  1.3312  0.6002  0.9390
 5805SOL    HW228878   1.860   0.880  14.895  2.1362  1.1076 -1.7371
 5806SOL     OW28879   1.066   1.932   3.993 -0.2472  0.3703  0.1082
 5806SOL    HW128880   1.154   1.968   3.982  1.5950 -4.1184  0.1302
 5806SOL    HW228881   1.011   2.008   3.977 -1.8080 -0.5904  0.9348
 5807SOL     OW28882   4.357   3.756  14.267  0.5059 -0.0209 -0.0351
 5807SOL    HW128883   4.317   3.680  14.310 -1.3495  1.1153  0.2626
 5807SOL    HW228884   4.446   3.725  14.255  0.1526 -0.8559 -0.4936
 5808SOL     OW28885   3.179   3.783  13.153 -0.2090  0.3453  0.2114
 5808SOL    HW128886   3.264   3.824  13.170 -0.2007  0.9731 -1.3382
 5808SOL    HW228887   3.164   3.735  13.235  1.8262  1.0995  1.0513
 5809SOL     OW28888   2.823   0.026  10.338 -0.7706 -0.0669 -0.2499
 5809SOL    HW128889   2.918   0.015  10.342 -0.7264 -0.3320 -1.8952
 5809SOL    HW228890   2.814   0.074  10.256  0.1408  2.1868  0.9802
 5810SOL     OW28891   3.310   1.583   2.640  0.0308 -0.1198 -0.5877
 5810SOL    HW128892   3.256   1.645   2.688  1.1682 -1.1052  1.9795
 5810SOL    HW228893   3.297   1.497   2.679 -1.3232 -0.0085 -0.7976
 5811SOL     OW28894   4.174   2.521   2.452 -0.0936  0.4712  0.6571
 5811SOL    HW128895   4.232   2.504   2.527 -1.1090 -0.5883  1.2043
 5811SOL    HW228896   4.234   2.562   2.391  0.0740  0.0380  0.5263
 5812SOL     OW28897   4.466   1.823   0.242 -0.1333 -0.3019  0.2855
 5812SOL    HW128898   4.444   1.733   0.218  0.9811 -0.6116  0.4021
 5812SOL    HW228899   4.527   1.803   0.313  1.5453 -0.8184 -1.2977
 5813SOL     OW28900   3.559   0.196  11.676 -0.0762 -0.3978  0.6104
 5813SOL    HW128901   3.585   0.256  11.746  1.9127 -0.2660 -0.2391
 5813SOL    HW228902   3.464   0.189  11.690  0.0534 -0.3820  1.5014
 5814SOL     OW28903   3.337   0.293   3.523 -0.0034 -0.2655 -0.4407
 5814SOL    HW128904   3.320   0.375   3.568  0.4217 -0.8480  0.7688
 5814SOL    HW228905   3.268   0.228   3.537 -1.4978  0.8870 -2.3652
 5815SOL     OW28906   0.633   0.837   3.819 -0.4448 -0.1171 -0.6117
 5815SOL    HW128907   0.553   0.881   3.848  1.0747  1.0678  1.6967
 5815SOL    HW228908   0.626   0.840   3.723  2.2549 -0.8499 -0.8192
 5816SOL     OW28909   0.535   2.152  15.121  0.2281 -0.2137 -0.1922
 5816SOL    HW128910   0.461   2.091  15.124  0.1958 -0.1730 -0.1591
 5816SOL    HW228911   0.582   2.111  15.049 -0.7638  0.0956 -1.0143
 5817SOL     OW28912   0.478   3.263  15.111  0.5041  0.0155  0.3538
 5817SOL    HW128913   0.414   3.305  15.169  0.8819 -0.6012  1.2056
 5817SOL    HW228914   0.510   3.341  15.065 -0.3219 -0.0764 -0.3811
 5818SOL     OW28915   0.252   3.379   7.631 -0.5069 -0.6347  0.2514
 5818SOL    HW128916   0.162   3.407   7.648  0.1329  2.9090 -2.1564
 5818SOL    HW228917   0.243   3.332   7.548  0.2105 -0.0239 -0.1662
 5819SOL     OW28918   4.591   0.230  12.547 -0.2592 -0.4290  0.8687
 5819SOL    HW128919   4.620   0.139  12.539 -2.4635 -1.0449 -0.1233
 5819SOL    HW228920   4.524   0.242  12.480 -0.1669 -0.4056  0.7811
 5820SOL     OW28921   1.727   3.180  15.511 -0.2967  0.3264  0.1553
 5820SOL    HW128922   1.684   3.224  15.584 -0.8756 -0.8033  0.5094
 5820SOL    HW228923   1.735   3.243  15.440 -0.4707  2.5746  2.1163
 5821SOL     OW28924   2.489   0.354   8.054 -0.5840  0.0480  0.3361
 5821SOL    HW128925   2.444   0.293   8.113  0.0766 -0.3508  0.4303
 5821SOL    HW228926   2.487   0.303   7.973  0.7848  0.6700 -0.0824
 5822SOL     OW28927   1.628   3.650  14.579 -0.4070 -0.1292 -0.1371
 5822SOL    HW128928   1.719   3.621  14.590 -0.5006 -0.2118  0.4489
 5822SOL    HW228929   1.609   3.674  14.670 -0.9359 -0.5856 -0.1225
 5823SOL     OW28930   3.307   2.682   2.336 -0.0146 -0.1080 -0.0897
 5823SOL    HW128931   3.275   2.599   2.371  0.7305 -0.6491 -0.7123
 5823SOL    HW228932   3.396   2.679   2.370 -0.5639  0.7427  1.4439
 5824SOL     OW28933   2.082   4.063   2.365 -0.3274 -0.3186 -0.1181
 5824SOL    HW128934   2.099   3.969   2.374 -2.5395 -0.6251  0.8349
 5824SOL    HW228935   2.048   4.086   2.451 -0.0329 -0.3183 -0.0003
 5825SOL     OW28936   0.551   4.063   3.025 -0.3272 -0.1326 -0.1254
 5825SOL    HW128937   0.595   4.022   3.100 -0.4487  0.5297  0.3013
 5825SOL    HW228938   0.482   4.106   3.074 -1.7827 -1.8842 -0.6453
 5826SOL     OW28939   0.157   3.160   0.953  0.0353  0.1561 -0.1382
 5826SOL    HW128940   0.079   3.195   0.996 -0.5570 -0.0811 -1.0110
 5826SOL    HW228941   0.223   3.173   1.020  0.4554  0.1287 -0.5475
 5827SOL     OW28942   0.479   0.635  12.834 -0.2235 -0.6460 -0.2949
 5827SOL    HW128943   0.539   0.580  12.884  1.3428  0.2215 -1.2405
 5827SOL    HW228944   0.537   0.707  12.811 -0.7060 -0.2211 -0.1618
 5828SOL     OW28945   4.675   4.390   4.149  0.2658  0.0974 -0.0137
 5828SOL    HW128946   4.610   4.340   4.101  0.1811  0.2186 -0.0254
 5828SOL    HW228947   4.667   4.474   4.104  0.6313 -1.0424 -2.1996
 5829SOL     OW28948   2.313   3.964   5.038  0.1248 -0.0606 -0.2701
 5829SOL    HW128949   2.350   3.920   4.962 -1.1628 -1.5542 -0.0324
 5829SOL    HW228950   2.348   4.053   5.032 -0.6090  0.0956 -2.1521
 5830SOL     OW28951   1.242   2.355   7.993 -0.2267  0.0297  0.0762
 5830SOL    HW128952   1.247   2.381   8.085  1.9154 -1.9281  0.4970
 5830SOL    HW228953   1.298   2.278   7.984 -0.4663  0.2110 -2.8668
 5831SOL     OW28954   0.863   0.685   2.535 -0.2582 -0.4461 -0.4357
 5831SOL    HW128955   0.872   0.592   2.552  1.4052 -0.0133  1.0929
 5831SOL    HW228956   0.816   0.711   2.614  4.7355 -0.3133  2.4976
 5832SOL     OW28957   0.753   2.620   1.965 -0.5174 -0.1660 -0.2949
 5832SOL    HW128958   0.694   2.667   2.025 -1.4497 -1.5661 -0.1052
 5832SOL    HW228959   0.790   2.562   2.032  2.5549  1.3338 -0.7087
 5833SOL     OW28960   3.734   1.769   3.089 -0.6300 -0.4023 -0.0472
 5833SOL    HW128961   3.660   1.801   3.037 -1.5659  0.6834  1.9682
 5833SOL    HW228962   3.807   1.821   3.054 -0.6157  0.5862  1.4454
 5834SOL     OW28963   0.171   3.574  12.508  0.0300 -0.1129 -0.0918
 5834SOL    HW128964   0.128   3.648  12.465  2.9666  0.8833 -1.3218
 5834SOL    HW228965   0.125   3.494  12.481 -2.0269  1.2060 -0.4799
 5835SOL     OW28966   1.208   3.726  14.112  0.1063  0.2027  0.0456
 5835SOL    HW128967   1.224   3.746  14.020 -1.5287 -0.7527 -0.4487
 5835SOL    HW228968   1.157   3.645  14.110 -1.1054  0.9573  0.0773
 5836SOL     OW28969   4.508   2.186   2.255 -0.0651 -0.2750 -0.3409
 5836SOL    HW128970   4.590   2.231   2.235 -0.8273  1.8074  1.2627
 5836SOL    HW228971   4.501   2.138   2.172  0.0584  1.3242 -1.2727
 5837SOL     OW28972   0.184   1.239   3.301 -0.5273 -0.7145  0.1986
 5837SOL    HW128973   0.118   1.198   3.245  0.0264 -1.0058 -0.2448
 5837SOL    HW228974   0.140   1.260   3.383 -0.9707 -0.7112 -0.0430
 5838SOL     OW28975   3.618   3.648  11.422  0.3174 -0.2660 -0.0566
 5838SOL    HW128976   3.613   3.741  11.400 -1.6954  0.3751  3.0543
 5838SOL    HW228977   3.666   3.614  11.346 -0.2377 -2.5816  0.6144
 5839SOL     OW28978   3.346   1.073   3.911 -0.3530  0.6531 -0.2628
 5839SOL    HW128979   3.438   1.062   3.888 -1.0097 -0.6367 -2.2629
 5839SOL    HW228980   3.322   0.982   3.897  0.4368  0.5275 -0.7934
 5840SOL     OW28981   1.919   1.516   6.242  0.1578 -0.0681  0.1085
 5840SOL    HW128982   1.962   1.576   6.181 -1.9117  0.9319 -0.3810
 5840SOL    HW228983   1.839   1.488   6.199 -0.0205 -1.5289  1.3866
 5841SOL     OW28984   2.889   2.634   3.918  0.0406  0.5255 -0.6057
 5841SOL    HW128985   2.976   2.624   3.877  0.8560  0.7249  1.0774
 5841SOL    HW228986   2.910   2.693   3.990 -1.3733  0.7137 -0.3501
 5842SOL     OW28987   3.373   4.555   4.248  0.4884  0.3897  0.0936
 5842SOL    HW128988   3.383   4.487   4.314 -0.0759 -1.0854 -1.3524
 5842SOL    HW228989   3.452   4.538   4.198  0.5835  2.3205 -0.4121
 5843SOL     OW28990   2.109   1.281   5.943  0.6076  0.5656 -0.4700
 5843SOL    HW128991   2.182   1.324   5.898 -0.6750  1.6689 -1.5083
 5843SOL    HW228992   2.155   1.199   5.959 -1.9161 -1.0782 -1.4819
 5844SOL     OW28993   3.406   4.523   1.958  0.1483 -0.8089  0.4017
 5844SOL    HW128994   3.423   4.510   2.051  0.9575 -3.6016 -0.1513
 5844SOL    HW228995   3.423   4.618   1.956  2.7317 -1.2547  0.7389
 5845SOL     OW28996   2.825   3.888   2.884  0.4803 -0.2954 -0.3179
 5845SOL    HW128997   2.784   3.836   2.815  1.2642  2.2473 -2.6647
 5845SOL    HW228998   2.917   3.869   2.864  0.1281 -0.5860 -1.6164
 5846SOL     OW28999   3.025   3.168  15.283  0.5218 -0.3389 -0.0328
 5846SOL    HW129000   3.038   3.258  15.312  1.8152 -0.1531 -1.1732
 5846SOL    HW229001   2.998   3.124  15.364 -0.9091  0.8294  0.1256
 5847SOL     OW29002   2.552   1.173   2.831 -0.2662  0.1289 -0.1260
 5847SOL    HW129003   2.501   1.147   2.754 -0.5710  4.3356 -1.3629
 5847SOL    HW229004   2.632   1.213   2.798 -0.0251 -0.4322 -0.2173
 5848SOL     OW29005   4.573   3.389   2.054  0.3830 -0.0753  0.3181
 5848SOL    HW129006   4.481   3.397   2.031  0.3747 -0.3185  0.2593
 5848SOL    HW229007   4.603   3.330   1.985 -2.9685 -1.9173  0.4275
 5849SOL     OW29008   3.579   4.586  17.056 -0.3495  0.6227 -0.2616
 5849SOL    HW129009   3.562   4.519  16.990  0.7983  1.0142 -0.9527
 5849SOL    HW229010   3.589   4.530  17.133  0.3338 -0.2357 -0.9657
 5850SOL     OW29011   2.579   1.956  17.489 -0.0082 -0.2974 -0.2778
 5850SOL    HW129012   2.521   1.986  17.560 -0.3155 -1.9025  0.1438
 5850SOL    HW229013   2.660   1.939  17.537 -2.0667 -1.6662  2.7115
 5851SOL     OW29014   4.030   3.233  13.984  0.2355 -0.3543  1.0004
 5851SOL    HW129015   4.082   3.227  14.064 -2.0110 -1.4928  2.3527
 5851SOL    HW229016   3.994   3.144  13.984 -1.3461  0.2822 -0.7221
 5852SOL     OW29017   1.132   3.794   3.178 -0.1901  0.1733 -0.1295
 5852SOL    HW129018   1.166   3.708   3.152  1.9363  0.6623  0.9480
 5852SOL    HW229019   1.088   3.826   3.100 -0.1350  1.8759  0.5401
 5853SOL     OW29020   2.746   0.789  11.119 -0.7136 -0.5918 -0.0371
 5853SOL    HW129021   2.727   0.724  11.052  1.1285  1.8228 -2.9111
 5853SOL    HW229022   2.841   0.786  11.107 -0.6654 -0.8133  0.3977
 5854SOL     OW29023   1.548   3.933  17.574  0.1105  0.1400  0.3644
 5854SOL    HW129024   1.640   3.927  17.546 -0.1327  1.3394 -0.6732
 5854SOL    HW229025   1.531   3.840  17.591 -1.5588  0.3715 -0.1163
 5855SOL     OW29026   1.667   2.098   9.683 -0.4608 -0.0310  0.3153
 5855SOL    HW129027   1.744   2.154   9.670  1.0552 -1.7692  1.7920
 5855SOL    HW229028   1.620   2.100   9.599  0.1639 -1.8847 -0.0749
 5856SOL     OW29029   0.175   2.565  15.453  0.2988 -0.2414  0.2551
 5856SOL    HW129030   0.187   2.594  15.363 -0.7715 -0.7384 -0.0498
 5856SOL    HW229031   0.149   2.647  15.495  0.0926 -1.0124  1.6383
 5857SOL     OW29032   3.461   2.813  12.854 -0.2726  0.0509  0.1924
 5857SOL    HW129033   3.464   2.873  12.928  2.7802  1.5192 -1.1045
 5857SOL    HW229034   3.437   2.727  12.888  1.6445 -0.6247 -0.1848
 5858SOL     OW29035   2.852   3.243   7.590  0.2515 -0.3469 -0.2946
 5858SOL    HW129036   2.941   3.225   7.559  1.6615  2.3629  2.0807
 5858SOL    HW229037   2.866   3.237   7.685  0.2431 -0.1975 -0.2836
 5859SOL     OW29038   1.701   3.096   4.810  0.1029  0.8872  0.4765
 5859SOL    HW129039   1.667   3.102   4.899 -0.5711 -0.9780  0.3500
 5859SOL    HW229040   1.729   3.188   4.805 -1.7147  1.4026 -0.2883
 5860SOL     OW29041   4.454   3.019  17.586 -0.3751 -0.3144  0.1623
 5860SOL    HW129042   4.400   3.045  17.661 -0.7955 -0.8583  0.0441
 5860SOL    HW229043   4.433   3.088  17.523 -1.4648  1.3195  2.3199
 5861SOL     OW29044   0.536   1.749   8.689 -0.2630 -0.1866 -0.1031
 5861SOL    HW129045   0.549   1.822   8.749 -0.6155 -0.4450  0.2926
 5861SOL    HW229046   0.472   1.792   8.633 -1.2572  0.2998  1.3823
 5862SOL     OW29047   2.816   4.452   7.017 -0.5080  0.1779 -0.4827
 5862SOL    HW129048   2.772   4.480   7.097 -0.4775 -0.3099 -0.2946
 5862SOL    HW229049   2.784   4.522   6.960 -0.8929 -0.9127 -1.6148
 5863SOL     OW29050   2.763   0.254   7.710  0.6751  0.9355 -0.3143
 5863SOL    HW129051   2.817   0.250   7.631  0.9167 -1.2891 -0.0573
 5863SOL    HW229052   2.674   0.254   7.675  0.8877  1.0249 -0.8561
 5864SOL     OW29053   1.111   0.976  12.856 -0.1064 -0.1351  0.3396
 5864SOL    HW129054   1.108   1.019  12.770  0.7657  3.0505  1.9154
 5864SOL    HW229055   1.019   0.991  12.879  0.0077  1.1347  0.0103
 5865SOL     OW29056   3.297   3.471   3.976  0.2592  0.3579  0.2080
 5865SOL    HW129057   3.316   3.507   3.890 -1.4461  0.6064 -0.0651
 5865SOL    HW229058   3.249   3.540   4.022 -0.3724 -1.4775  2.3275
 5866SOL     OW29059   4.216   4.239   5.445 -0.8821  0.2025  0.1915
 5866SOL    HW129060   4.287   4.177   5.435 -3.7596 -3.3937  2.2655
 5866SOL    HW229061   4.224   4.255   5.539 -1.3774  1.1858  0.0725
 5867SOL     OW29062   1.788   2.362   2.067  0.3741 -0.4833 -0.1071
 5867SOL    HW129063   1.696   2.353   2.044  0.1830 -1.7741  1.1929
 5867SOL    HW229064   1.808   2.445   2.023  3.0348 -1.3358 -0.5263
 5868SOL     OW29065   0.082   1.864   6.326 -0.2717  0.2355  0.4467
 5868SOL    HW129066   0.157   1.896   6.275 -0.5130 -0.6002 -0.4107
 5868SOL    HW229067   0.076   1.772   6.301  0.8247  0.5908 -1.1379
 5869SOL     OW29068   0.342   4.394  17.574  0.4376 -0.1356 -0.2171
 5869SOL    HW129069   0.329   4.340  17.652  2.5002  0.1367  0.3003
 5869SOL    HW229070   0.260   4.443  17.582 -0.6140 -2.0081  0.3448
 5870SOL     OW29071   3.558   0.120   7.321  0.0868  0.0894 -0.3224
 5870SOL    HW129072   3.508   0.054   7.274  1.0486 -0.5143 -0.4794
 5870SOL    HW229073   3.574   0.185   7.252 -1.7392 -0.3534 -1.1694
 5871SOL     OW29074   0.804   3.122   5.060  0.1649  0.3586  0.5537
 5871SOL    HW129075   0.806   3.161   5.148 -0.7343 -0.8072  1.0789
 5871SOL    HW229076   0.812   3.200   5.005  1.0929  0.0100  0.1960
 5872SOL     OW29077   4.464   0.912   0.884 -0.0804  0.2530  0.4014
 5872SOL    HW129078   4.532   0.944   0.943  2.3983 -0.4173 -2.0700
 5872SOL    HW229079   4.451   0.828   0.928  0.7266 -1.1657 -2.0720
 5873SOL     OW29080   0.668   2.906  10.642 -0.0673 -0.3185 -0.9571
 5873SOL    HW129081   0.691   2.859  10.562 -1.7632 -1.5764 -0.7086
 5873SOL    HW229082   0.751   2.910  10.689 -0.0430  2.1031 -1.2257
 5874SOL     OW29083   4.137   1.082   2.689 -0.6247 -0.0819 -0.1465
 5874SOL    HW129084   4.056   1.085   2.637 -1.7575  0.1730  1.6353
 5874SOL    HW229085   4.189   1.033   2.625 -1.2107 -1.7130  0.6170
 5875SOL     OW29086   3.222   2.455  13.089  0.2318 -0.0637  0.6754
 5875SOL    HW129087   3.279   2.482  13.161  0.0551  2.0081  0.0519
 5875SOL    HW229088   3.285   2.451  13.016 -0.4646 -2.7934  0.2164
 5876SOL     OW29089   1.536   3.162  12.332  0.1456  0.4458 -0.2508
 5876SOL    HW129090   1.602   3.191  12.395 -1.8230  1.1036  1.4833
 5876SOL    HW229091   1.472   3.119  12.387 -1.8021  0.5609 -2.4403
 5877SOL     OW29092   1.562   1.608   3.460  0.5553 -0.6485 -0.1715
 5877SOL    HW129093   1.493   1.546   3.438  1.1418 -1.2574 -0.3196
 5877SOL    HW229094   1.547   1.625   3.552 -0.4348  1.0657 -0.6557
 5878SOL     OW29095   1.232   0.820  10.144  0.2621  0.2947  0.5217
 5878SOL    HW129096   1.167   0.751  10.160  0.9082  0.0712  2.0674
 5878SOL    HW229097   1.235   0.865  10.228  1.4356 -1.5076  1.4368
 5879SOL     OW29098   0.858   0.581   6.707 -0.1485  0.0988  0.1031
 5879SOL    HW129099   0.768   0.584   6.737 -0.0820  0.0233  0.3127
 5879SOL    HW229100   0.864   0.651   6.642  0.1897  0.2297  0.2739
 5880SOL     OW29101   2.427   3.792   9.010 -0.1515 -0.0778  0.3896
 5880SOL    HW129102   2.437   3.863   9.073 -0.1247 -0.8477  1.2474
 5880SOL    HW229103   2.516   3.762   9.028 -0.8784 -1.9758  0.8085
 5881SOL     OW29104   2.637   1.400   7.145  0.0954 -0.3702  0.4234
 5881SOL    HW129105   2.667   1.381   7.235  2.9222 -0.5382 -0.5326
 5881SOL    HW229106   2.619   1.493   7.154  1.0716 -0.0989 -0.5172
 5882SOL     OW29107   3.665   4.300  16.719 -0.4917  1.0105 -0.0562
 5882SOL    HW129108   3.668   4.210  16.686 -0.5047  0.6709  0.8658
 5882SOL    HW229109   3.649   4.349  16.638 -0.4269  1.0162 -0.0655
 5883SOL     OW29110   2.555   3.105   9.464  0.3168 -0.0699 -0.1008
 5883SOL    HW129111   2.636   3.092   9.415  0.6568  0.4436  0.3265
 5883SOL    HW229112   2.563   3.199   9.481 -0.7623 -0.0934  0.5113
 5884SOL     OW29113   2.436   1.923   1.981 -0.5388 -0.6249 -0.4486
 5884SOL    HW129114   2.407   2.010   2.010 -0.5276 -0.7178 -0.1589
 5884SOL    HW229115   2.516   1.912   2.033 -1.2621 -2.3683  0.2927
 5885SOL     OW29116   2.590   2.906   1.181 -0.4840  0.7019  0.6819
 5885SOL    HW129117   2.679   2.893   1.148  0.1298 -0.1005  2.6635
 5885SOL    HW229118   2.547   2.899   1.096 -1.0363  0.5371  0.9748
 5886SOL     OW29119   4.006   2.449   1.405 -0.0781 -0.2412  0.6505
 5886SOL    HW129120   4.073   2.414   1.465 -1.6135 -1.1280  1.8576
 5886SOL    HW229121   3.992   2.368   1.356  1.0764  0.3333 -0.6491
 5887SOL     OW29122   1.324   1.056   6.882 -0.0462 -0.2598 -0.3118
 5887SOL    HW129123   1.402   1.088   6.837 -0.5898  1.7814  0.2246
 5887SOL    HW229124   1.278   1.138   6.897  0.4911 -0.1781  0.8698
 5888SOL     OW29125   4.654   4.112   4.380 -0.5217 -0.0672  0.2608
 5888SOL    HW129126   4.714   4.049   4.419 -0.3438 -0.3940 -0.5466
 5888SOL    HW229127   4.575   4.091   4.430  0.6787 -0.6036  1.9296
 5889SOL     OW29128   0.669   0.746  13.287 -0.2744 -0.1713 -0.3774
 5889SOL    HW129129   0.630   0.664  13.316 -0.7529  0.3021  0.3274
 5889SOL    HW229130   0.588   0.794  13.267 -1.0373 -0.7679  1.3103
 5890SOL     OW29131   3.153   4.185   1.341  0.0862  0.5123  0.6223
 5890SOL    HW129132   3.180   4.182   1.433  1.5760  1.3927  0.2030
 5890SOL    HW229133   3.141   4.091   1.326  0.7279  0.4151  0.7213
 5891SOL     OW29134   4.395   4.705  17.326 -0.3038  0.8506 -0.0947
 5891SOL    HW129135   4.354   0.039  17.391 -3.0354  1.3984 -2.3123
 5891SOL    HW229136   4.329   4.714  17.258  0.4502 -0.3311 -0.9741
 5892SOL     OW29137   1.776   0.100  11.201  0.1803  0.1787  0.0231
 5892SOL    HW129138   1.834   0.170  11.172 -0.9731  0.9705 -0.4080
 5892SOL    HW229139   1.782   0.043  11.124 -0.2221  0.5537 -0.2901
 5893SOL     OW29140   2.098   3.567   4.608 -0.3438 -0.4883 -0.2918
 5893SOL    HW129141   2.094   3.646   4.662  0.5928 -1.8442  1.7510
 5893SOL    HW229142   2.005   3.546   4.598 -0.6394  0.5553  0.3518
 5894SOL     OW29143   4.071   3.272  15.366 -0.1783 -0.3755  0.7884
 5894SOL    HW129144   4.160   3.241  15.379 -0.1579 -0.1895  1.0951
 5894SOL    HW229145   4.026   3.190  15.386  1.2945 -1.3926 -0.1078
 5895SOL     OW29146   0.294   4.331   6.400 -0.3780  0.2044 -0.8984
 5895SOL    HW129147   0.320   4.422   6.410  0.6768 -0.3410  1.3655
 5895SOL    HW229148   0.218   4.329   6.458  1.6750  1.7095  1.8391
 5896SOL     OW29149   0.669   0.644  14.854  0.2136 -0.2668 -0.6299
 5896SOL    HW129150   0.723   0.582  14.903 -2.7878 -1.9729  0.4925
 5896SOL    HW229151   0.592   0.588  14.845  0.4677 -0.4286 -1.7365
 5897SOL     OW29152   3.834   2.139   9.126  0.3416  0.3933  0.0665
 5897SOL    HW129153   3.803   2.103   9.043  1.5060  0.2461 -0.3077
 5897SOL    HW229154   3.891   2.212   9.103 -0.5696  0.7556 -1.0902
 5898SOL     OW29155   1.648   1.958   5.559  0.3255  0.4278  0.0926
 5898SOL    HW129156   1.657   1.891   5.626  1.5909 -0.1093 -0.6022
 5898SOL    HW229157   1.636   1.910   5.477  1.0300  0.4675 -0.0306
 5899SOL     OW29158   3.137   3.396   5.385 -0.2904  0.3362 -0.2655
 5899SOL    HW129159   3.229   3.373   5.399 -1.1867 -3.2333 -0.1204
 5899SOL    HW229160   3.149   3.490   5.373 -3.3709  0.7730  0.1908
 5900SOL     OW29161   1.416   1.676   2.449  0.5976  0.0229 -0.6860
 5900SOL    HW129162   1.346   1.645   2.392  1.0484 -1.7048 -0.2877
 5900SOL    HW229163   1.443   1.756   2.403  1.5806  0.0296 -0.0903
 5901SOL     OW29164   1.609   0.464  17.125 -0.4843  0.2734 -0.0900
 5901SOL    HW129165   1.557   0.428  17.198 -2.5076  1.8230 -0.7651
 5901SOL    HW229166   1.613   0.557  17.146 -1.1973  1.2908 -4.6405
 5902SOL     OW29167   0.205   4.257  13.382 -0.3852  0.5829 -0.1535
 5902SOL    HW129168   0.145   4.287  13.314 -0.9804  3.3695  1.6339
 5902SOL    HW229169   0.278   4.217  13.335 -0.7251  0.3841 -0.5120
 5903SOL     OW29170   3.339   1.552   4.263  0.2313  0.7054 -0.2832
 5903SOL    HW129171   3.332   1.458   4.248 -2.3725  0.5310  1.9491
 5903SOL    HW229172   3.278   1.591   4.200 -0.7444  0.0247  0.2444
 5904SOL     OW29173   4.309   0.099   6.793 -0.2140 -0.6472  0.6699
 5904SOL    HW129174   4.216   0.082   6.782 -0.4694  1.3726 -0.4377
 5904SOL    HW229175   4.336   0.008   6.783  0.5461 -0.0922 -2.5589
 5905SOL     OW29176   0.572   2.740   4.828  0.3734 -0.4002 -0.1213
 5905SOL    HW129177   0.575   2.648   4.802  0.5450 -0.2387 -0.6639
 5905SOL    HW229178   0.653   2.744   4.879  0.4932  0.1182 -0.3455
 5906SOL     OW29179   1.618   1.925  12.570  0.2115 -0.7785 -0.1175
 5906SOL    HW129180   1.569   1.853  12.530 -0.2038 -0.2525 -0.5629
 5906SOL    HW229181   1.577   1.931  12.656 -2.5304  1.1351 -1.5369
 5907SOL     OW29182   3.402   3.292  13.967  0.9081 -0.6303 -0.2704
 5907SOL    HW129183   3.498   3.296  13.966  0.9612 -2.3758 -1.2426
 5907SOL    HW229184   3.392   3.241  14.047 -0.2074  0.1178  0.0778
 5908SOL     OW29185   3.700   0.861  13.004  0.0959  0.1513 -0.1379
 5908SOL    HW129186   3.658   0.828  12.925  2.2832 -1.8676 -0.4417
 5908SOL    HW229187   3.628   0.877  13.065  0.2933 -0.6388  0.3010
 5909SOL     OW29188   1.748   1.462  16.586  0.4370  0.4994  0.4658
 5909SOL    HW129189   1.703   1.381  16.610  1.1125  0.2262  0.8250
 5909SOL    HW229190   1.675   1.520  16.606  0.0457  0.3492 -0.5435
 5910SOL     OW29191   3.536   1.158   5.507  0.5782 -0.3126 -0.5801
 5910SOL    HW129192   3.515   1.119   5.422 -0.5202  0.8067 -0.8188
 5910SOL    HW229193   3.446   1.154   5.538 -0.0301 -0.6287 -2.3872
 5911SOL     OW29194   1.910   2.102  14.172  0.5454 -0.2513  0.2872
 5911SOL    HW129195   1.962   2.126  14.249  1.6009 -2.4401  0.2800
 5911SOL    HW229196   1.960   2.126  14.094  0.0714  1.8556  0.6444
 5912SOL     OW29197   4.437   2.881   5.280  0.0552 -0.1096  0.2532
 5912SOL    HW129198   4.473   2.933   5.208 -1.3320 -1.1826 -1.1830
 5912SOL    HW229199   4.502   2.905   5.347 -0.8508  0.9452  0.7667
 5913SOL     OW29200   3.757   4.581  10.311  0.2102 -0.3506 -0.3304
 5913SOL    HW129201   3.681   4.542  10.267 -0.6315 -0.2530  1.0224
 5913SOL    HW229202   3.776   4.514  10.376 -1.6508  0.0813  0.6926
 5914SOL     OW29203   0.664   2.603   7.709 -0.1099 -0.5316  0.2615
 5914SOL    HW129204   0.688   2.666   7.778 -1.7676  1.3302 -0.8449
 5914SOL    HW229205   0.745   2.603   7.658 -0.0987  0.8100  0.2559
 5915SOL     OW29206   3.566   1.933   3.348 -0.0564 -0.1840  0.6791
 5915SOL    HW129207   3.513   1.987   3.405 -0.1991  0.7031 -0.2932
 5915SOL    HW229208   3.592   1.863   3.408  0.1476 -1.3638 -0.7828
 5916SOL     OW29209   0.784   4.317   5.053 -0.1234 -0.1595 -0.3509
 5916SOL    HW129210   0.869   4.325   5.011  0.8111 -0.2255  1.5070
 5916SOL    HW229211   0.745   4.238   5.017 -0.7287  1.8248 -4.0009
 5917SOL     OW29212   3.599   3.283   1.903 -0.3135 -0.0125 -0.6688
 5917SOL    HW129213   3.692   3.288   1.923 -0.6733  2.9833  0.2444
 5917SOL    HW229214   3.579   3.377   1.905  0.6586  0.1954 -0.8431
 5918SOL     OW29215   2.553   4.105  14.338 -0.5842  0.6481  0.7779
 5918SOL    HW129216   2.628   4.124  14.394  1.1194 -1.4322 -0.8071
 5918SOL    HW229217   2.591   4.088  14.252 -0.4603  0.5739  0.8473
 5919SOL     OW29218   1.221   4.613   6.672  0.1951 -0.2140 -0.1755
 5919SOL    HW129219   1.242   4.706   6.664 -0.4363  0.0060  0.7911
 5919SOL    HW229220   1.141   4.615   6.725 -0.8545  1.3647 -1.8427
 5920SOL     OW29221   0.568   2.707  16.764  0.0383  0.0075  0.0981
 5920SOL    HW129222   0.569   2.770  16.836 -0.2692  0.0227  0.0864
 5920SOL    HW229223   0.506   2.645  16.801  0.4907 -1.1744 -1.1470
 5921SOL     OW29224   2.516   2.930   6.023 -0.6535  0.0401 -0.3310
 5921SOL    HW129225   2.544   2.990   5.953 -0.6042 -1.5946 -1.7176
 5921SOL    HW229226   2.586   2.866   6.010 -1.0329 -0.3645 -0.3837
 5922SOL     OW29227   2.137   1.908   5.902  0.0207 -0.0097 -0.4048
 5922SOL    HW129228   2.138   1.846   5.830 -2.6220  0.0375 -0.4868
 5922SOL    HW229229   2.231   1.919   5.919  0.1394 -2.5187  0.5297
 5923SOL     OW29230   1.687   1.584   2.374  0.2884 -0.7261 -0.5866
 5923SOL    HW129231   1.598   1.604   2.404  0.1737 -0.1626 -1.3142
 5923SOL    HW229232   1.696   1.489   2.386 -1.0320 -0.7571  0.2623
 5924SOL     OW29233   2.063   3.301  17.178 -0.8932  0.1463  0.6411
 5924SOL    HW129234   2.121   3.269  17.247  1.1643 -1.3018 -1.7519
 5924SOL    HW229235   2.000   3.337  17.241 -0.7077  0.6833  0.5188
 5925SOL     OW29236   2.029   0.380   4.552 -0.0253 -0.2544  0.2590
 5925SOL    HW129237   1.976   0.442   4.602  2.2515  0.7069  1.4985
 5925SOL    HW229238   2.064   0.322   4.620  0.5634 -0.6524 -0.3842
 5926SOL     OW29239   4.038   2.274   3.822  0.0223 -0.3662  0.4498
 5926SOL    HW129240   4.048   2.351   3.879 -0.9625  0.4628 -0.5028
 5926SOL    HW229241   4.100   2.216   3.865 -1.5289 -1.0791  1.7634
 5927SOL     OW29242   2.299   1.912   0.600  0.4863  0.0613 -0.5467
 5927SOL    HW129243   2.218   1.963   0.598 -0.4074 -1.2280  2.2581
 5927SOL    HW229244   2.296   1.882   0.691  1.7189  0.8808 -0.2403
 5928SOL     OW29245   3.271   1.522  16.920 -0.2088 -0.8263 -0.1464
 5928SOL    HW129246   3.273   1.617  16.917  1.9296 -0.8173  1.3751
 5928SOL    HW229247   3.295   1.509  17.012  1.0059 -0.7837 -0.4542
 5929SOL     OW29248   1.022   0.603   3.006 -0.3565  0.5245 -0.5392
 5929SOL    HW129249   1.070   0.613   3.088 -1.2696  1.1681 -0.0889
 5929SOL    HW229250   1.042   0.512   2.982 -0.6933 -0.0202  1.2813
 5930SOL     OW29251   2.235   3.394   7.649 -0.3324 -0.0115 -0.0071
 5930SOL    HW129252   2.302   3.458   7.624 -0.7086  0.9693  1.4760
 5930SOL    HW229253   2.253   3.318   7.593 -1.1406  1.1614 -1.8823
 5931SOL     OW29254   2.006   1.039   4.063 -0.2602 -0.3566 -0.6198
 5931SOL    HW129255   2.071   1.032   3.994 -0.4787 -1.7775 -0.6835
 5931SOL    HW229256   1.966   1.124   4.043 -0.7088 -0.5258 -0.4522
 5932SOL     OW29257   3.738   2.710   5.644  0.0407  0.4707  0.5402
 5932SOL    HW129258   3.801   2.748   5.583 -1.3899  2.6212  0.3767
 5932SOL    HW229259   3.778   2.725   5.729  2.8273 -2.5310 -0.2648
 5933SOL     OW29260   1.497   0.552  12.151  0.8129  0.0255  0.1196
 5933SOL    HW129261   1.535   0.537  12.237  1.5323 -1.8813 -0.5260
 5933SOL    HW229262   1.499   0.464  12.114  1.5170  0.3501 -0.6080
 5934SOL     OW29263   0.750   2.041   3.732 -0.2595  0.5269 -0.0471
 5934SOL    HW129264   0.742   2.134   3.752  0.8530  1.2042 -2.8744
 5934SOL    HW229265   0.835   2.032   3.691  0.2282 -0.9401  1.2586
 5935SOL     OW29266   3.443   2.674   2.022 -0.5655 -0.1184 -0.1282
 5935SOL    HW129267   3.472   2.607   1.960  0.3110  2.0406 -2.0395
 5935SOL    HW229268   3.474   2.748   1.969 -2.0007  0.8992  0.4404
 5936SOL     OW29269   1.918   0.644   3.317 -0.2257 -0.2195 -0.6122
 5936SOL    HW129270   2.011   0.663   3.302 -0.3649  2.4613  1.7982
 5936SOL    HW229271   1.898   0.602   3.234  0.9140 -0.3572 -0.8229
 5937SOL     OW29272   0.790   3.920   9.038  0.3988 -0.2832  0.2174
 5937SOL    HW129273   0.719   3.869   9.077  2.8115 -1.4006  3.1221
 5937SOL    HW229274   0.872   3.884   9.072  1.9972  1.0097 -2.2818
 5938SOL     OW29275   4.045   1.355   6.096 -0.5034 -0.5882 -0.2758
 5938SOL    HW129276   4.055   1.282   6.157  1.6209  0.8932  1.1556
 5938SOL    HW229277   4.081   1.303   6.024 -0.8574 -0.1326 -0.7785
 5939SOL     OW29278   1.610   4.573   5.833  0.4578 -0.2778 -0.2474
 5939SOL    HW129279   1.551   4.529   5.895  1.0041  0.1530  0.5755
 5939SOL    HW229280   1.552   4.586   5.758 -0.6838  0.3815  0.7432
 5940SOL     OW29281   2.020   4.625   5.693 -0.1382  0.5046 -0.3669
 5940SOL    HW129282   1.957   4.688   5.658  0.4967  0.5908 -1.3479
 5940SOL    HW229283   2.102   4.666   5.665 -0.5658  0.5357 -1.5595
 5941SOL     OW29284   3.970   1.010   5.827 -0.3010  0.2355  0.3018
 5941SOL    HW129285   3.899   0.970   5.877 -0.3221  0.1473  0.2007
 5941SOL    HW229286   3.941   1.017   5.736  0.1510  1.5133  0.2471
 5942SOL     OW29287   0.023   1.912  10.036  0.3073  0.3683 -0.3624
 5942SOL    HW129288   0.047   1.823  10.011 -1.7698 -0.8880  2.1213
 5942SOL    HW229289   4.664   1.921   9.988  0.8586  4.4942 -0.4832
 5943SOL     OW29290   3.733   2.288   4.434  0.3020  0.0991 -0.0734
 5943SOL    HW129291   3.780   2.240   4.367 -0.1399 -0.5973  0.1100
 5943SOL    HW229292   3.735   2.376   4.398 -0.3036 -0.0444 -0.4602
 5944SOL     OW29293   4.456   2.471   1.515  0.5020 -0.2308  0.0258
 5944SOL    HW129294   4.377   2.523   1.505  0.2364 -0.4520  0.9507
 5944SOL    HW229295   4.455   2.434   1.604  4.5641 -1.1346 -0.2684
 5945SOL     OW29296   4.303   3.440   2.033 -0.3374 -0.0731  0.4485
 5945SOL    HW129297   4.274   3.487   1.955 -1.0294  1.1631  1.4477
 5945SOL    HW229298   4.300   3.499   2.108  0.1613  0.6687 -0.1202
 5946SOL     OW29299   1.601   0.027   7.431  0.0005  0.0748  0.0100
 5946SOL    HW129300   1.656   0.078   7.371 -0.4831 -0.7457 -1.1332
 5946SOL    HW229301   1.556   4.697   7.365 -2.3658  2.4064 -0.2627
 5947SOL     OW29302   3.042   2.025   8.377 -0.4376 -0.4294  0.4625
 5947SOL    HW129303   3.127   2.039   8.418  0.0098 -0.6491 -0.4102
 5947SOL    HW229304   3.010   1.942   8.412 -0.7019 -0.5167  0.0177
 5948SOL     OW29305   3.820   1.430  15.793  0.7518  0.0510  0.6980
 5948SOL    HW129306   3.850   1.357  15.848 -0.3996 -2.5869 -2.1604
 5948SOL    HW229307   3.847   1.501  15.851  0.2598  1.3883 -0.7084
 5949SOL     OW29308   2.446   1.532   8.862  0.1296 -0.4161  0.3980
 5949SOL    HW129309   2.434   1.615   8.908  1.1419 -0.4197  0.6514
 5949SOL    HW229310   2.362   1.489   8.880  0.1146 -0.3537  0.4803
 5950SOL     OW29311   3.918   2.758   7.164 -0.2188 -0.6028 -0.3042
 5950SOL    HW129312   3.978   2.755   7.089 -1.3855 -2.5485 -1.1515
 5950SOL    HW229313   3.960   2.698   7.226 -2.1795 -2.1746 -0.4832
 5951SOL     OW29314   0.699   3.029   3.506 -0.3796  0.3897 -0.2969
 5951SOL    HW129315   0.762   3.054   3.574 -0.4572 -0.7956  0.2171
 5951SOL    HW229316   0.758   3.005   3.434 -0.1760  0.8861 -0.2966
 5952SOL     OW29317   1.843   3.239   8.230 -0.3803  0.0772  0.0032
 5952SOL    HW129318   1.831   3.240   8.135 -0.9903  1.8339  0.1046
 5952SOL    HW229319   1.932   3.274   8.221  0.3140 -1.6605  0.1859
 5953SOL     OW29320   2.226   0.032   3.072  0.0956 -0.0160  0.1264
 5953SOL    HW129321   2.315   0.008   3.044  0.4686 -0.4931  1.7083
 5953SOL    HW229322   2.223   0.125   3.053  2.5427  0.4512  2.0135
 5954SOL     OW29323   0.570   1.348   6.152  0.6789  0.6557 -0.2569
 5954SOL    HW129324   0.524   1.388   6.079 -1.5556 -0.2239  0.6565
 5954SOL    HW229325   0.657   1.383   6.137  1.2475  0.5919  2.8287
 5955SOL     OW29326   0.948   0.858   2.740 -0.0759 -0.1018 -0.3406
 5955SOL    HW129327   0.885   0.910   2.690 -0.7500 -1.4333 -0.8736
 5955SOL    HW229328   0.955   0.786   2.676 -3.0011  0.4326 -1.2368
 5956SOL     OW29329   3.357   3.067   5.047 -0.1431 -0.4072 -0.6317
 5956SOL    HW129330   3.334   3.159   5.041 -0.3362 -0.2842  1.9774
 5956SOL    HW229331   3.280   3.034   4.999  0.2022 -0.6751 -1.0039
 5957SOL     OW29332   2.116   2.357   4.871 -0.7701  0.3059 -0.1271
 5957SOL    HW129333   2.035   2.346   4.821 -0.2900  0.4835 -0.9440
 5957SOL    HW229334   2.180   2.332   4.804 -1.6944 -2.8189  0.1447
 5958SOL     OW29335   0.705   0.015  10.970  0.9832 -0.7065 -0.2865
 5958SOL    HW129336   0.613   0.002  10.995  1.2255 -0.4088  0.7664
 5958SOL    HW229337   0.732   0.063  11.048 -0.4280  1.4546 -1.1432
 5959SOL     OW29338   2.679   3.956  11.664 -0.3491 -0.5088  0.5325
 5959SOL    HW129339   2.593   3.974  11.625  0.8825  1.6322 -1.2292
 5959SOL    HW229340   2.734   4.018  11.615 -1.0251 -0.0348  0.3849
 5960SOL     OW29341   2.050   0.069  10.778  0.0205  0.1835  0.2029
 5960SOL    HW129342   1.990   0.102  10.710  1.9411  2.0292 -0.6270
 5960SOL    HW229343   2.019   4.702  10.775  1.7368 -0.4050  0.2025
 5961SOL     OW29344   2.714   2.290   4.059  0.6104 -0.7044 -0.1572
 5961SOL    HW129345   2.777   2.349   4.099 -0.9012  0.0637  1.0663
 5961SOL    HW229346   2.773   2.238   4.004  1.1902  1.9208 -2.0374
 5962SOL     OW29347   4.303   4.397   3.394 -0.7686 -0.2358 -0.3791
 5962SOL    HW129348   4.312   4.489   3.417  0.3253 -0.2658 -0.6881
 5962SOL    HW229349   4.286   4.350   3.476  1.6301 -0.1627  0.1772
 5963SOL     OW29350   4.580   1.398  15.088  0.4053 -0.4004 -0.4051
 5963SOL    HW129351   4.612   1.375  15.000 -0.6617 -0.3234 -0.8095
 5963SOL    HW229352   4.575   1.493  15.083  1.0164 -0.3810 -0.6407
 5964SOL     OW29353   4.349   0.862  12.836  0.3019 -0.0163  0.1417
 5964SOL    HW129354   4.344   0.778  12.790 -0.2931 -0.3628  0.8339
 5964SOL    HW229355   4.261   0.876  12.871  0.2519  1.8189 -0.7037
 5965SOL     OW29356   2.942   4.241   7.214  0.1388 -0.0492 -0.3759
 5965SOL    HW129357   2.856   4.199   7.215  0.2367 -0.2392  0.6955
 5965SOL    HW229358   2.934   4.297   7.137 -1.4795 -0.1779 -0.2819
 5966SOL     OW29359   0.676   2.534   3.126 -0.0575  0.0573 -0.1223
 5966SOL    HW129360   0.742   2.591   3.086  1.5549 -2.8394 -1.5819
 5966SOL    HW229361   0.714   2.448   3.109 -0.9860 -1.1262  3.7950
 5967SOL     OW29362   3.266   0.340  10.225  0.0411  0.2121  0.4695
 5967SOL    HW129363   3.182   0.370  10.262  1.2867  1.4283  2.3658
 5967SOL    HW229364   3.327   0.384  10.285  1.8633 -0.8222 -0.6387
 5968SOL     OW29365   2.612   0.399  15.133  0.2849 -0.4672 -0.3674
 5968SOL    HW129366   2.700   0.366  15.116  0.6774 -1.5443  3.5763
 5968SOL    HW229367   2.552   0.341  15.088 -0.3631 -0.6630  0.7498
 5969SOL     OW29368   0.256   4.397   8.006 -0.7389 -0.1920  0.3998
 5969SOL    HW129369   0.266   4.311   7.964 -3.3891 -0.3470  0.0889
 5969SOL    HW229370   0.256   4.373   8.098 -1.6270  0.3412  0.5329
 5970SOL     OW29371   0.147   3.998   4.082  0.0119 -0.1597 -0.3786
 5970SOL    HW129372   0.227   3.958   4.115 -1.0560 -0.9767  1.2334
 5970SOL    HW229373   0.172   3.998   3.990 -0.0171  2.4266 -0.4035
 5971SOL     OW29374   3.889   0.663   3.054 -0.2663 -0.1152  0.0871
 5971SOL    HW129375   3.841   0.720   3.113 -0.5991  0.0663 -0.3610
 5971SOL    HW229376   3.978   0.662   3.091 -1.2506  1.5682  2.4484
 5972SOL     OW29377   3.148   0.106   4.072 -0.0033 -0.0577 -0.0314
 5972SOL    HW129378   3.063   0.067   4.051 -1.2573  1.1948  2.6386
 5972SOL    HW229379   3.195   0.085   3.992  2.2401 -1.9544  1.7832
 5973SOL     OW29380   4.680   3.258   2.744 -0.4310  0.2105  0.1885
 5973SOL    HW129381   4.612   3.318   2.713  0.2638 -0.0774 -1.8753
 5973SOL    HW229382   4.692   3.203   2.667  0.1819 -0.8616  1.0388
 5974SOL     OW29383   4.354   1.456   5.509  0.3845 -0.0994  0.6095
 5974SOL    HW129384   4.282   1.501   5.464  1.9054  0.4411 -1.2882
 5974SOL    HW229385   4.302   1.392   5.558  0.2266 -0.7576 -0.4009
 5975SOL     OW29386   2.635   3.235  13.111 -0.2043  0.7334 -0.0723
 5975SOL    HW129387   2.577   3.215  13.037  1.9279 -2.7428 -0.7767
 5975SOL    HW229388   2.638   3.330  13.114 -0.4735  0.7678 -0.8510
 5976SOL     OW29389   2.263   3.067   7.794  0.3529  0.3137 -0.1354
 5976SOL    HW129390   2.189   3.082   7.735  0.4792  2.2605  0.2257
 5976SOL    HW229391   2.275   2.972   7.791 -1.2312  0.1442 -1.3467
 5977SOL     OW29392   0.379   3.759   8.373  0.4372 -0.1089  0.2870
 5977SOL    HW129393   0.310   3.772   8.308 -0.5887  1.6173  1.7332
 5977SOL    HW229394   0.340   3.731   8.456  0.3060  0.1558  0.3148
 5978SOL     OW29395   2.366   1.281   2.446  0.0982  0.2288 -0.2690
 5978SOL    HW129396   2.440   1.314   2.394 -0.1861  1.1507 -0.0838
 5978SOL    HW229397   2.291   1.328   2.410 -0.7008  0.2928  1.4868
 5979SOL     OW29398   0.826   3.161   8.793  0.3255 -0.0389  0.0326
 5979SOL    HW129399   0.779   3.168   8.709 -1.7456  1.5475  1.3151
 5979SOL    HW229400   0.842   3.253   8.816  0.9761 -0.3929  0.9633
 5980SOL     OW29401   2.342   1.530   0.810 -0.1373  0.0097  0.4620
 5980SOL    HW129402   2.284   1.576   0.748  0.8538  0.2893 -0.2500
 5980SOL    HW229403   2.297   1.447   0.823 -3.3457  1.5025 -0.9875
 5981SOL     OW29404   1.149   1.720   7.921  0.8249 -0.5294  0.0149
 5981SOL    HW129405   1.137   1.808   7.957 -1.7912 -1.9403  2.5152
 5981SOL    HW229406   1.066   1.705   7.876  0.0169  1.1073  0.9429
 5982SOL     OW29407   1.979   0.863   2.739  0.3920 -0.3659 -0.0986
 5982SOL    HW129408   2.029   0.788   2.707  0.1235 -0.5163 -0.1697
 5982SOL    HW229409   1.906   0.877   2.678 -1.0702  0.5304  1.8703
 5983SOL     OW29410   1.160   1.059   5.702 -0.0424  0.7640  0.1481
 5983SOL    HW129411   1.236   1.015   5.740 -1.2574 -1.7661 -0.3437
 5983SOL    HW229412   1.185   1.105   5.622 -1.7380 -1.4741 -1.6801
 5984SOL     OW29413   0.717   2.703   2.546  0.2142  0.0838  0.0001
 5984SOL    HW129414   0.788   2.675   2.488 -0.5810 -0.4710 -0.7111
 5984SOL    HW229415   0.674   2.619   2.565  0.7870 -0.5726 -1.5723
 5985SOL     OW29416   0.686   2.606   6.957 -0.2266 -0.7403  0.6828
 5985SOL    HW129417   0.683   2.694   6.919  2.2024 -0.3113  1.4532
 5985SOL    HW229418   0.703   2.616   7.051 -0.1958 -2.2075  0.8343
 5986SOL     OW29419   3.565   3.060   9.212  0.0526 -0.1895  0.0770
 5986SOL    HW129420   3.596   2.970   9.216 -0.9248 -0.4897  0.9383
 5986SOL    HW229421   3.601   3.104   9.289 -1.2132 -0.0247  0.5810
 5987SOL     OW29422   0.960   4.162   0.972 -0.2093  0.1567  0.7679
 5987SOL    HW129423   0.957   4.258   0.971  0.7320  0.1591 -1.3150
 5987SOL    HW229424   1.032   4.142   1.031  0.4564  1.7996  0.5218
 5988SOL     OW29425   3.634   3.951   8.644 -0.0060  0.9983  0.4693
 5988SOL    HW129426   3.546   3.929   8.675  0.3281 -1.8902 -0.6336
 5988SOL    HW229427   3.646   3.881   8.580 -1.2719  1.6900 -0.5246
 5989SOL     OW29428   3.353   0.291   4.459  0.3329  0.2169  0.4770
 5989SOL    HW129429   3.440   0.252   4.471  0.8384  0.8127 -1.2868
 5989SOL    HW229430   3.320   0.291   4.549 -4.2137  0.2662 -1.1858
 5990SOL     OW29431   0.609   2.826   0.725 -0.2476  0.1252 -0.3241
 5990SOL    HW129432   0.671   2.774   0.778  2.1178  1.2019 -2.0152
 5990SOL    HW229433   0.625   2.910   0.767 -2.1416  0.2605  0.0888
 5991SOL     OW29434   0.184   0.007   6.767  0.1955 -0.0635  0.0969
 5991SOL    HW129435   0.190   0.085   6.711 -0.5563 -0.2111 -0.1995
 5991SOL    HW229436   0.145   4.663   6.711  0.4410  0.2237 -0.4162
 5992SOL     OW29437   0.863   2.492   2.884  0.2613 -0.0399  0.7986
 5992SOL    HW129438   0.948   2.520   2.919  0.7032  2.4051 -2.2066
 5992SOL    HW229439   0.888   2.450   2.802  1.1119  0.4301  0.8180
 5993SOL     OW29440   2.741   0.538   7.140  0.5282  0.0673 -0.5137
 5993SOL    HW129441   2.824   0.582   7.121  0.7003  0.2608  0.6580
 5993SOL    HW229442   2.721   0.569   7.228  2.5867 -0.2104  0.0647
 5994SOL     OW29443   3.621   0.215   6.404 -0.3040  0.4354  0.0588
 5994SOL    HW129444   3.573   0.132   6.409  0.5497 -0.0536  0.1391
 5994SOL    HW229445   3.693   0.187   6.348  0.0604 -1.1090  1.3022
 5995SOL     OW29446   1.949   2.305   2.678  0.5407  0.6204  0.0074
 5995SOL    HW129447   2.016   2.259   2.627 -0.0817 -0.9473  0.6145
 5995SOL    HW229448   1.890   2.235   2.705  1.5685 -0.8771 -1.6940
 5996SOL     OW29449   3.968   2.103  17.140  0.1252 -0.3010 -0.1988
 5996SOL    HW129450   4.032   2.080  17.208 -1.0009 -0.3075  0.8487
 5996SOL    HW229451   3.884   2.117  17.184  1.0100  1.5190  0.9503
 5997SOL     OW29452   4.418   1.680   7.279  0.8652 -0.0717 -0.2828
 5997SOL    HW129453   4.482   1.632   7.332  1.1222 -0.5919 -1.0612
 5997SOL    HW229454   4.476   1.726   7.218  2.6045  0.1974  1.5638
 5998SOL     OW29455   3.124   2.389   2.362  0.5896  0.2011  0.0115
 5998SOL    HW129456   3.213   2.354   2.358  0.5513 -0.1696  2.0498
 5998SOL    HW229457   3.135   2.446   2.286  3.2272 -0.7401 -0.3060
 5999SOL     OW29458   1.885   1.651   2.723  0.3971  0.5815 -0.2514
 5999SOL    HW129459   1.892   1.731   2.670  0.0147  0.0146 -1.1567
 5999SOL    HW229460   1.865   1.683   2.811 -2.2676  2.5582 -1.5475
 6000SOL     OW29461   2.285   3.627  13.607 -0.6403  0.5143 -0.2658
 6000SOL    HW129462   2.378   3.647  13.596 -0.6403  0.9604  0.5176
 6000SOL    HW229463   2.284   3.536  13.634 -0.5889  0.7467  0.5146
 6001SOL     OW29464   2.060   1.939   6.315 -0.2698  0.4110 -0.2974
 6001SOL    HW129465   2.047   2.022   6.269  1.3177 -0.2910 -1.9983
 6001SOL    HW229466   2.086   1.968   6.402 -0.5610  0.5592 -0.2560
 6002SOL     OW29467   2.207   2.894  14.042  0.0807  0.3881 -0.0971
 6002SOL    HW129468   2.120   2.922  14.015 -0.4577  1.1813  2.4788
 6002SOL    HW229469   2.256   2.960  13.993  1.9791 -0.8804  0.0862
 6003SOL     OW29470   3.867   1.963   0.436  0.2362 -0.0112 -0.3203
 6003SOL    HW129471   3.821   1.880   0.447 -0.0046  0.1704  0.0444
 6003SOL    HW229472   3.853   1.995   0.525 -0.9945 -0.8497 -0.2135
 6004SOL     OW29473   3.578   2.161   0.715 -0.6515  0.1852  0.0605
 6004SOL    HW129474   3.570   2.230   0.649  0.9478  0.1258 -0.1921
 6004SOL    HW229475   3.592   2.223   0.787  2.2087  0.5128 -0.7681
 6005SOL     OW29476   2.203   2.114   2.345  0.0337 -0.6336  0.4698
 6005SOL    HW129477   2.174   2.023   2.345  0.1568 -0.6748  3.1773
 6005SOL    HW229478   2.250   2.101   2.428  2.0648 -1.7032 -0.8413
 6006SOL     OW29479   1.599   3.071  15.298 -0.2044  0.1893 -0.1471
 6006SOL    HW129480   1.654   2.993  15.291 -1.0282 -0.5769  1.8493
 6006SOL    HW229481   1.663   3.104  15.361 -0.5794  0.3037  0.1792
 6007SOL     OW29482   2.777   2.950   0.900 -0.0117  0.1603  0.0464
 6007SOL    HW129483   2.718   2.965   0.827 -0.7120  1.5384  0.8897
 6007SOL    HW229484   2.848   2.904   0.856  0.0377  0.4452 -0.1759
 6008SOL     OW29485   2.675   2.736   4.756 -0.3818  0.2120  0.3533
 6008SOL    HW129486   2.642   2.764   4.841  1.8924  0.0706  1.2758
 6008SOL    HW229487   2.621   2.662   4.728  0.4188 -0.3020  0.1630
 6009SOL     OW29488   3.873   3.695   8.665 -0.0317 -0.6524 -0.3191
 6009SOL    HW129489   3.837   3.673   8.579 -2.2683  1.1178  0.1338
 6009SOL    HW229490   3.965   3.684   8.643  0.0286  0.6304 -0.7268
 6010SOL     OW29491   2.348   0.137  11.186 -0.1012 -0.7544  0.1201
 6010SOL    HW129492   2.269   0.130  11.134  0.5164 -1.3434 -0.7287
 6010SOL    HW229493   2.322   0.115  11.276 -1.8030  1.2831  0.1088
 6011SOL     OW29494   2.249   1.839   2.805 -0.4462 -0.0147 -0.3209
 6011SOL    HW129495   2.176   1.883   2.761 -1.0761  1.6351  2.3649
 6011SOL    HW229496   2.296   1.918   2.832  0.5008  0.2622 -2.8282
 6012SOL     OW29497   0.400   4.364   4.572 -0.1625 -0.7948  0.4483
 6012SOL    HW129498   0.478   4.420   4.582 -0.6974  0.1056 -0.4017
 6012SOL    HW229499   0.402   4.357   4.476  1.8539 -0.1331  0.4284
 6013SOL     OW29500   0.845   0.964   1.338 -0.1899  0.0613  0.4091
 6013SOL    HW129501   0.757   0.994   1.360  0.1707  1.3417  0.0932
 6013SOL    HW229502   0.846   0.911   1.258 -3.3267 -1.4031  1.3597
 6014SOL     OW29503   0.651   3.055  12.722  0.4405  0.5174  0.3783
 6014SOL    HW129504   0.724   2.992  12.719 -2.6028 -2.9886 -0.5164
 6014SOL    HW229505   0.584   3.000  12.682  0.1609  0.3602  1.0633
 6015SOL     OW29506   2.484   2.045   3.382  0.4006  0.1504  0.4388
 6015SOL    HW129507   2.475   2.011   3.471 -0.5957 -0.6609  0.0383
 6015SOL    HW229508   2.423   2.118   3.386  0.3300  0.2277 -1.5944
 6016SOL     OW29509   1.617   3.865   4.016 -0.5774 -0.1086 -0.0151
 6016SOL    HW129510   1.664   3.801   4.069  1.1097  1.2448  0.1163
 6016SOL    HW229511   1.692   3.913   3.981  0.4299  0.7909  3.3669
 6017SOL     OW29512   2.177   4.059   4.401  0.9327  0.1058 -0.0503
 6017SOL    HW129513   2.177   3.989   4.337  2.2447  0.2414 -0.1942
 6017SOL    HW229514   2.238   4.023   4.465 -0.6785 -3.1414 -0.3618
 6018SOL     OW29515   4.031   2.001   9.447  0.0238 -0.1504 -0.2185
 6018SOL    HW129516   3.938   2.011   9.465 -0.4584 -0.7509 -2.4158
 6018SOL    HW229517   4.053   2.094   9.459  0.0260 -0.1809  0.0253
 6019SOL     OW29518   2.109   2.262   6.977 -0.0234  0.0610  0.9481
 6019SOL    HW129519   2.042   2.218   7.030 -0.8622  0.7066  0.4038
 6019SOL    HW229520   2.136   2.191   6.918  0.2849  0.5502  0.5086
 6020SOL     OW29521   3.580   3.576   1.921  0.5605 -0.0735 -0.2755
 6020SOL    HW129522   3.601   3.579   2.015 -1.3252 -1.0900  0.1744
 6020SOL    HW229523   3.589   3.670   1.904 -0.6827 -0.5095 -3.1632
 6021SOL     OW29524   4.268   2.489  13.550  0.1892 -0.2820 -0.2763
 6021SOL    HW129525   4.194   2.489  13.611  1.0291 -0.9828  0.7214
 6021SOL    HW229526   4.335   2.499  13.617 -0.3153  1.3416  0.0065
 6022SOL     OW29527   4.541   3.378   5.375 -0.1118 -0.6425 -0.5467
 6022SOL    HW129528   4.620   3.407   5.330  0.7795 -0.3028  1.2365
 6022SOL    HW229529   4.561   3.290   5.409  3.1393  0.1866 -0.3305
 6023SOL     OW29530   0.560   2.504   4.302  0.1384 -0.1172 -0.0360
 6023SOL    HW129531   0.583   2.488   4.393  1.8824 -0.7615 -0.6031
 6023SOL    HW229532   0.498   2.432   4.290 -0.0940  0.0592  0.1026
 6024SOL     OW29533   2.446   0.724  16.114  0.2177  0.1866  0.0613
 6024SOL    HW129534   2.454   0.636  16.075 -1.3714  0.5588 -1.1258
 6024SOL    HW229535   2.419   0.710  16.205 -0.1996 -0.2690 -0.1270
 6025SOL     OW29536   1.355   3.584  12.913  0.0019 -0.8435 -0.4097
 6025SOL    HW129537   1.375   3.555  12.824 -1.6383  1.3002 -1.4723
 6025SOL    HW229538   1.403   3.511  12.952 -0.8112 -0.0561  2.0734
 6026SOL     OW29539   3.420   2.546   6.224 -0.1930 -0.3754  0.0422
 6026SOL    HW129540   3.392   2.467   6.178 -1.6352 -0.5902  1.2922
 6026SOL    HW229541   3.515   2.535   6.231 -0.6077 -3.5168  0.6286
 6027SOL     OW29542   3.967   3.158   6.450 -0.2949  0.2568  0.1559
 6027SOL    HW129543   4.020   3.114   6.383  2.6807  1.5456  1.6831
 6027SOL    HW229544   3.982   3.090   6.516 -1.5607  0.2044  0.3804
 6028SOL     OW29545   2.226   2.725   1.994 -0.1384  0.2515  0.5820
 6028SOL    HW129546   2.296   2.670   1.960  0.5783  1.6708 -0.2473
 6028SOL    HW229547   2.191   2.760   1.912 -0.6441 -0.0915  0.6487
 6029SOL     OW29548   3.831   4.535   1.246  0.0380 -0.5427  0.0567
 6029SOL    HW129549   3.798   4.546   1.157  0.6771  2.2298  0.1376
 6029SOL    HW229550   3.925   4.522   1.248  0.1049 -0.0881  0.0294
 6030SOL     OW29551   2.568   2.574   0.218  0.1787  0.0973  0.3150
 6030SOL    HW129552   2.612   2.500   0.261  1.3117 -0.3395 -1.5856
 6030SOL    HW229553   2.482   2.536   0.198  0.3047 -0.2317  0.3835
 6031SOL     OW29554   3.132   3.060   6.701 -0.6625  0.5867 -0.1847
 6031SOL    HW129555   3.167   3.127   6.759  1.6037  0.5569 -1.5215
 6031SOL    HW229556   3.123   2.980   6.753  2.1154  0.1502 -0.3568
 6032SOL     OW29557   1.984   2.899  14.686 -0.0501 -0.4903 -0.0731
 6032SOL    HW129558   2.073   2.928  14.707 -0.5011  1.1239 -0.4506
 6032SOL    HW229559   1.945   2.893  14.773 -0.9247 -0.8681 -0.4930
 6033SOL     OW29560   3.294   3.237  13.696  0.2586  0.0551  0.4959
 6033SOL    HW129561   3.342   3.195  13.767 -0.3826 -1.5536 -0.0374
 6033SOL    HW229562   3.349   3.220  13.619 -2.1297 -0.8840 -1.0104
 6034SOL     OW29563   3.237   1.790   1.490  0.2723 -0.3762  0.0426
 6034SOL    HW129564   3.250   1.865   1.548 -1.4508  0.6438 -0.9045
 6034SOL    HW229565   3.203   1.829   1.410  0.6602 -2.2750 -1.0478
 6035SOL     OW29566   2.161   2.645  15.000 -0.5786  0.1972  0.1521
 6035SOL    HW129567   2.073   2.609  14.987 -0.8637 -0.4902  3.8435
 6035SOL    HW229568   2.137   2.725  15.047 -0.0776 -0.5662  1.7291
 6036SOL     OW29569   3.444   2.854   1.437 -0.2064 -0.4199 -0.3462
 6036SOL    HW129570   3.513   2.814   1.384  2.0990  1.7097  1.0488
 6036SOL    HW229571   3.469   2.946   1.440 -0.7683 -0.2845  0.2095
 6037SOL     OW29572   0.951   0.168   0.578 -0.1806  0.4412 -0.2810
 6037SOL    HW129573   1.041   0.176   0.547 -0.6770  2.5927 -1.1714
 6037SOL    HW229574   0.959   0.092   0.635 -0.5710  0.3125 -0.3959
 6038SOL     OW29575   1.017   1.610   6.292 -0.3064 -0.1461 -0.0857
 6038SOL    HW129576   1.031   1.556   6.213  0.6569  1.4300 -1.0005
 6038SOL    HW229577   0.923   1.599   6.305 -0.4222  0.6735 -0.2629
 6039SOL     OW29578   4.119   3.973   2.431 -0.5154  0.2945  0.2314
 6039SOL    HW129579   4.141   3.920   2.354 -0.0072  1.0260 -0.1346
 6039SOL    HW229580   4.186   3.945   2.493  0.3306  1.1281 -0.3076
 6040SOL     OW29581   3.790   4.560   9.604  0.3647  0.0375 -0.6096
 6040SOL    HW129582   3.723   4.611   9.558 -0.9567 -1.7079 -0.6198
 6040SOL    HW229583   3.740   4.484   9.636  1.2602 -0.6039 -0.7396
 6041SOL     OW29584   0.752   2.805   1.758 -0.5891 -0.9036  0.3791
 6041SOL    HW129585   0.750   2.739   1.828 -0.0221 -0.7881  0.5000
 6041SOL    HW229586   0.675   2.773   1.711 -0.4609  1.0630 -1.1583
 6042SOL     OW29587   0.454   0.232   2.916  0.1492 -0.1169  0.2035
 6042SOL    HW129588   0.540   0.251   2.878 -0.1293  2.8822  1.0836
 6042SOL    HW229589   0.467   0.154   2.969  0.1983 -0.7963 -0.7991
 6043SOL     OW29590   4.220   3.558  13.977 -0.0644 -0.0784 -0.8306
 6043SOL    HW129591   4.227   3.549  13.882 -3.3960  1.8605 -1.2626
 6043SOL    HW229592   4.293   3.501  14.002  1.0671  1.5921 -0.3254
 6044SOL     OW29593   2.154   0.328   3.074 -0.3414  0.5589  0.4540
 6044SOL    HW129594   2.062   0.336   3.050 -0.5885 -0.6463  1.0020
 6044SOL    HW229595   2.162   0.341   3.169 -1.6761  1.1651  0.4706
 6045SOL     OW29596   0.662   1.587   2.841 -0.3737 -0.0632 -0.9989
 6045SOL    HW129597   0.732   1.543   2.792  0.8009 -1.2598  1.7718
 6045SOL    HW229598   0.694   1.677   2.846 -0.6545  0.1456 -3.0823
 6046SOL     OW29599   1.866   2.804  11.763 -0.4031 -0.0991  0.0330
 6046SOL    HW129600   1.785   2.844  11.732 -1.0619 -1.9736 -0.6339
 6046SOL    HW229601   1.872   2.844  11.850  3.3300  0.1899 -0.3345
 6047SOL     OW29602   4.210   4.069  11.849 -0.2725 -0.3613 -0.0954
 6047SOL    HW129603   4.142   4.135  11.834  1.5609  1.0921 -1.9635
 6047SOL    HW229604   4.150   4.001  11.880 -0.4331 -0.1069  0.1521
 6048SOL     OW29605   0.015   3.063   7.789 -0.1743 -0.5581 -0.2973
 6048SOL    HW129606   0.089   3.054   7.848  0.0643  1.3870 -0.3116
 6048SOL    HW229607   4.717   3.153   7.814 -0.9811 -0.5927 -0.8194
 6049SOL     OW29608   4.696   1.985   4.202 -0.6166 -0.4015  0.4473
 6049SOL    HW129609   0.007   2.054   4.258  1.6102 -1.4354  0.3561
 6049SOL    HW229610   0.056   1.946   4.176 -0.3192 -0.5859  1.6963
 6050SOL     OW29611   0.914   4.597  17.187  0.0661  0.1692 -0.1240
 6050SOL    HW129612   0.969   4.547  17.248 -0.9849  0.7855  1.3246
 6050SOL    HW229613   0.869   4.525  17.143  1.0469  0.1931 -1.1707
 6051SOL     OW29614   4.136   0.089   9.455  0.0700  0.6678 -0.1984
 6051SOL    HW129615   4.180   0.115   9.375  0.5398  2.7669  0.7196
 6051SOL    HW229616   4.152   0.164   9.512 -0.7277  1.1205 -0.5605
 6052SOL     OW29617   4.481   1.441   4.620  0.3598  0.2308 -0.4215
 6052SOL    HW129618   4.421   1.514   4.638 -0.2180  0.1140 -1.8678
 6052SOL    HW229619   4.547   1.489   4.571 -0.8285  1.8915 -0.3768
 6053SOL     OW29620   0.540   4.683  13.345 -0.3757 -0.1450 -0.3069
 6053SOL    HW129621   0.501   4.643  13.267 -0.1719  0.1489 -0.5629
 6053SOL    HW229622   0.509   4.616  13.405 -3.2438  0.0789 -1.5440
 6054SOL     OW29623   2.650   0.687   7.368  0.1301  0.1201  1.0547
 6054SOL    HW129624   2.709   0.737   7.425  0.4574 -0.4016  1.1778
 6054SOL    HW229625   2.568   0.733   7.383 -0.1029  0.1846 -0.4680
 6055SOL     OW29626   0.472   3.200   6.270  0.4560 -0.0776 -0.0876
 6055SOL    HW129627   0.497   3.124   6.322 -0.5064 -1.0241 -1.0033
 6055SOL    HW229628   0.539   3.259   6.305  2.1682 -1.9874 -0.1535
 6056SOL     OW29629   2.349   3.822   5.565 -0.1860 -0.4578  0.0786
 6056SOL    HW129630   2.365   3.912   5.590 -1.2725 -0.5424  1.0923
 6056SOL    HW229631   2.340   3.771   5.646  2.6642 -2.7644 -1.0332
 6057SOL     OW29632   2.754   4.477  14.528 -0.1337 -0.0058 -0.0568
 6057SOL    HW129633   2.779   4.385  14.512  0.9422  0.1810  0.5162
 6057SOL    HW229634   2.673   4.480  14.478  1.0970 -2.3195 -2.2008
 6058SOL     OW29635   2.247   3.304   3.782 -0.1158 -0.0349 -0.0066
 6058SOL    HW129636   2.164   3.299   3.828  0.3269  1.8893  1.0148
 6058SOL    HW229637   2.239   3.386   3.733  0.1413 -0.8036 -1.3139
 6059SOL     OW29638   4.511   2.118   6.257  0.2495  0.2081 -0.0822
 6059SOL    HW129639   4.424   2.158   6.249  0.4908  1.0776  1.5542
 6059SOL    HW229640   4.561   2.170   6.194  1.0273 -0.0929  0.2853
 6060SOL     OW29641   3.437   4.146   0.717  0.3850  0.6136  0.9723
 6060SOL    HW129642   3.417   4.225   0.769  1.1821  1.0360  0.6277
 6060SOL    HW229643   3.384   4.086   0.770  0.9790 -1.3850 -0.7236
 6061SOL     OW29644   1.105   0.841  13.455  0.4170 -0.1706  0.4162
 6061SOL    HW129645   1.165   0.908  13.422  0.2815 -0.5651 -0.6021
 6061SOL    HW229646   1.164   0.805  13.521  2.1278 -2.6366 -2.4933
 6062SOL     OW29647   4.404   3.351  14.924 -0.5081  0.2224 -0.5947
 6062SOL    HW129648   4.331   3.341  14.862 -0.3926  0.9934 -0.8548
 6062SOL    HW229649   4.470   3.304  14.874 -0.1359 -3.5995  3.4956
 6063SOL     OW29650   3.582   4.120  10.351 -0.4677 -0.0079  0.2933
 6063SOL    HW129651   3.662   4.144  10.397 -0.9234 -1.6171  1.9355
 6063SOL    HW229652   3.603   4.139  10.260 -1.8868 -2.4605 -0.5492
 6064SOL     OW29653   2.009   3.435   6.007  0.9252  0.0914  0.2836
 6064SOL    HW129654   2.093   3.407   6.044  0.0885 -1.4121  1.0400
 6064SOL    HW229655   1.966   3.473   6.083  0.3807 -0.6121  0.3287
 6065SOL     OW29656   1.375   0.091   8.168  0.2674 -0.2116  0.2194
 6065SOL    HW129657   1.369   0.085   8.072  1.0858  0.2995  0.1370
 6065SOL    HW229658   1.414   0.177   8.180 -1.3638  0.8720 -2.2731
 6066SOL     OW29659   1.529   1.690  12.495 -0.2526 -0.2205  0.4355
 6066SOL    HW129660   1.493   1.608  12.461 -0.4314 -0.4522  1.1824
 6066SOL    HW229661   1.602   1.650  12.543  1.8133  0.4531 -2.1177
 6067SOL     OW29662   0.306   0.853   3.945  0.5208 -0.2591 -0.9359
 6067SOL    HW129663   0.240   0.810   3.999 -1.6552  1.4800 -2.1788
 6067SOL    HW229664   0.303   0.791   3.872  1.4636 -2.3435  0.8078
 6068SOL     OW29665   2.669   4.292  11.942 -0.0690  0.5946  0.5463
 6068SOL    HW129666   2.718   4.304  11.861  1.0226 -0.2289  1.0902
 6068SOL    HW229667   2.593   4.347  11.920  0.1182  1.1047  1.1474
 6069SOL     OW29668   3.530   2.134   7.421 -0.4613 -0.0074  0.3815
 6069SOL    HW129669   3.613   2.091   7.404 -0.2838  0.9183 -1.1126
 6069SOL    HW229670   3.508   2.086   7.501  2.6439 -3.0942 -0.6299
 6070SOL     OW29671   0.322   4.292   3.217  0.0555 -0.3685 -0.2118
 6070SOL    HW129672   0.239   4.245   3.213 -0.1999 -0.0887  1.7059
 6070SOL    HW229673   0.298   4.365   3.274  0.3708 -0.4953  0.0842
 6071SOL     OW29674   4.615   0.096  14.651  0.0879  0.6116  0.3457
 6071SOL    HW129675   4.664   0.082  14.569 -0.6015 -0.4853  0.1115
 6071SOL    HW229676   4.655   0.179  14.675 -0.2848  0.3460  1.8906
 6072SOL     OW29677   1.705   3.679  11.449  0.2546  0.0761 -0.0430
 6072SOL    HW129678   1.779   3.620  11.456  0.5209  0.6240  1.6063
 6072SOL    HW229679   1.638   3.637  11.503 -0.2690 -0.0904 -0.8072
 6073SOL     OW29680   4.483   4.417  13.534  0.9880 -0.5086 -0.2194
 6073SOL    HW129681   4.539   4.492  13.513  0.8584 -0.9395 -2.0424
 6073SOL    HW229682   4.483   4.383  13.445  1.2182 -2.1493  0.3964
 6074SOL     OW29683   4.424   0.696  14.678  0.2343  0.0706 -0.2303
 6074SOL    HW129684   4.393   0.686  14.588 -1.2719  0.4811  0.2360
 6074SOL    HW229685   4.450   0.605  14.696 -0.6570 -0.1518 -0.0666
 6075SOL     OW29686   4.181   0.211   7.080 -0.1544  0.1054 -0.2761
 6075SOL    HW129687   4.240   0.186   7.008 -1.3787 -3.0866 -0.1423
 6075SOL    HW229688   4.202   0.135   7.133 -0.7111  0.0597 -0.1263
 6076SOL     OW29689   2.668   1.183   4.039  0.3967 -0.5474 -0.3941
 6076SOL    HW129690   2.759   1.162   4.020  0.5093 -0.2855 -0.1352
 6076SOL    HW229691   2.627   1.197   3.953 -2.3713  1.8465  1.2951
 6077SOL     OW29692   4.378   2.114   2.501 -0.8309  0.8174  0.2868
 6077SOL    HW129693   4.421   2.134   2.418 -1.1766  1.4575  0.2604
 6077SOL    HW229694   4.422   2.032   2.519 -0.0462  0.7499 -1.9267
 6078SOL     OW29695   2.575   1.247   7.896  0.4649 -0.1648  0.1159
 6078SOL    HW129696   2.519   1.323   7.916  1.0917  0.1851  0.5431
 6078SOL    HW229697   2.630   1.248   7.974 -1.1771 -0.6929  1.2916
 6079SOL     OW29698   2.881   3.768   3.162  0.3348 -0.1858  0.1697
 6079SOL    HW129699   2.822   3.837   3.192 -0.4537  0.5072 -3.0476
 6079SOL    HW229700   2.854   3.751   3.072 -0.6051  0.0197  0.4113
 6080SOL     OW29701   3.277   1.954  10.456  0.3960 -0.1672 -0.3311
 6080SOL    HW129702   3.327   1.926  10.532  1.1928 -1.6678 -1.4172
 6080SOL    HW229703   3.308   2.045  10.448 -0.2808  0.0765 -0.1738
 6081SOL     OW29704   3.120   3.374  13.895  0.2083  0.1924  0.2804
 6081SOL    HW129705   3.213   3.349  13.902  0.0978 -0.4772 -0.8222
 6081SOL    HW229706   3.085   3.316  13.829  2.3579 -1.6317  0.7376
 6082SOL     OW29707   0.122   0.177   3.612  0.2936 -0.9515  0.7423
 6082SOL    HW129708   0.080   0.262   3.613  1.1957 -0.4896 -1.8717
 6082SOL    HW229709   0.194   0.185   3.549  1.2137 -1.0949  1.7520
 6083SOL     OW29710   0.462   1.488   6.408 -0.5705 -0.2761 -0.3266
 6083SOL    HW129711   0.493   1.429   6.340  2.3260  0.5241  0.2659
 6083SOL    HW229712   0.406   1.432   6.462 -1.0596 -1.2795 -1.9063
 6084SOL     OW29713   1.067   1.790   1.100 -0.1470 -0.0488 -0.3601
 6084SOL    HW129714   1.153   1.800   1.139  0.3432  2.6074 -2.1215
 6084SOL    HW229715   1.015   1.763   1.176  1.0399  1.6539  1.0442
 6085SOL     OW29716   2.573   1.176  14.512 -0.4875  0.2682 -0.4862
 6085SOL    HW129717   2.577   1.266  14.479 -1.4084 -0.6611 -3.1169
 6085SOL    HW229718   2.527   1.190  14.595  2.8355 -0.7463  1.5232
 6086SOL     OW29719   4.595   1.764   7.079  0.2998  0.6315  0.4658
 6086SOL    HW129720   4.686   1.747   7.056  0.6604  2.6238  0.4052
 6086SOL    HW229721   4.547   1.715   7.012  1.8559 -0.8847  0.4668
 6087SOL     OW29722   3.084   4.414   3.155  0.5007  0.3471 -0.0546
 6087SOL    HW129723   3.130   4.330   3.155  2.9083  1.6643 -0.5426
 6087SOL    HW229724   2.999   4.386   3.188 -1.0823  0.2654 -4.1668
 6088SOL     OW29725   2.789   0.296   4.521 -0.1049  0.7660  0.6822
 6088SOL    HW129726   2.822   0.300   4.610 -0.3939  1.0238  0.7765
 6088SOL    HW229727   2.726   0.224   4.531 -1.2222  1.6396  0.0289
 6089SOL     OW29728   3.787   1.466   0.013 -0.0745 -0.1846 -0.4842
 6089SOL    HW129729   3.772   1.478  17.613  1.3153  0.6682 -0.5916
 6089SOL    HW229730   3.859   1.528   0.025 -1.3701  0.7790  2.3776
 6090SOL     OW29731   3.717   1.998   2.637  0.3304 -0.3296 -0.2406
 6090SOL    HW129732   3.762   2.034   2.713 -1.1486  1.3945 -0.1964
 6090SOL    HW229733   3.648   1.950   2.683 -0.9015 -0.2424 -2.0018
 6091SOL     OW29734   3.266   2.250   4.526 -0.3400  0.1760  0.4039
 6091SOL    HW129735   3.353   2.289   4.533 -0.4742  0.6783 -0.6056
 6091SOL    HW229736   3.288   2.161   4.498  2.6689  1.1641 -0.3583
 6092SOL     OW29737   2.164   1.929  11.289 -0.3300  0.3601  0.2102
 6092SOL    HW129738   2.235   1.868  11.308  0.5779  1.2757 -0.2725
 6092SOL    HW229739   2.103   1.872  11.242 -0.0769  0.7623 -0.5850
 6093SOL     OW29740   2.480   1.530   4.355  0.0565  1.1456  0.4187
 6093SOL    HW129741   2.497   1.590   4.427  0.6381  1.1188  0.3075
 6093SOL    HW229742   2.444   1.456   4.403  1.7238  0.1975  0.2257
 6094SOL     OW29743   2.709   4.540  15.968 -0.2321 -0.1036 -0.1367
 6094SOL    HW129744   2.700   4.600  15.894  0.6762  0.7282  0.4319
 6094SOL    HW229745   2.626   4.560  16.012  0.4459 -0.2303  1.2003
 6095SOL     OW29746   3.479   3.801   5.121 -0.2575 -0.5897 -0.3125
 6095SOL    HW129747   3.555   3.804   5.063 -0.2377 -0.2495 -0.2700
 6095SOL    HW229748   3.408   3.809   5.057  0.9940  0.3339 -1.6031
 6096SOL     OW29749   1.084   0.164   5.046 -0.2822 -0.3574  0.8626
 6096SOL    HW129750   1.096   0.245   4.997 -0.1040  0.4372  2.2258
 6096SOL    HW229751   1.171   0.173   5.084 -1.0248  0.7454  2.3317
 6097SOL     OW29752   1.375   3.374  14.815 -0.4701 -0.2981 -0.3869
 6097SOL    HW129753   1.410   3.364  14.903 -0.3495  2.0546 -0.1537
 6097SOL    HW229754   1.297   3.427  14.833 -0.7067 -0.4201 -1.0317
 6098SOL     OW29755   4.585   1.433  12.857  0.0010 -0.3981  0.6882
 6098SOL    HW129756   4.668   1.481  12.856  0.4077 -1.0944 -1.3036
 6098SOL    HW229757   4.584   1.388  12.772 -0.8575  0.7528  0.0900
 6099SOL     OW29758   1.152   2.967   5.675 -0.0634  0.3203  0.7671
 6099SOL    HW129759   1.211   2.935   5.607 -1.3099 -0.4856  0.0543
 6099SOL    HW229760   1.144   2.892   5.734 -1.4517  0.8969  1.3149
 6100SOL     OW29761   0.477   2.912   8.946 -0.2601 -0.4178 -0.0650
 6100SOL    HW129762   0.399   2.876   8.904 -0.5580  0.3361 -0.1582
 6100SOL    HW229763   0.480   2.878   9.035  3.3024 -0.0087 -0.0379
 6101SOL     OW29764   0.574   1.064   7.664  0.4397 -0.8795 -0.0622
 6101SOL    HW129765   0.638   1.135   7.653  0.1432 -0.4549  0.9654
 6101SOL    HW229766   0.532   1.074   7.578  0.0296  0.6567  0.3090
 6102SOL     OW29767   3.644   4.243   4.041  0.4010  0.0831 -0.0817
 6102SOL    HW129768   3.573   4.180   4.026  2.4116 -1.9240 -1.1112
 6102SOL    HW229769   3.653   4.279   3.952 -3.1986 -0.9379 -0.8692
 6103SOL     OW29770   4.530   0.606  17.254 -0.4513 -0.4117  0.3538
 6103SOL    HW129771   4.622   0.581  17.250 -0.4469 -0.2298 -0.6441
 6103SOL    HW229772   4.502   0.549  17.326 -1.2525  0.1888  0.5171
 6104SOL     OW29773   2.106   1.508   1.182 -0.0432 -0.6816 -0.2135
 6104SOL    HW129774   2.140   1.461   1.106 -2.5641  0.4410 -2.0279
 6104SOL    HW229775   2.041   1.449   1.219  1.8360 -2.0556  0.9061
 6105SOL     OW29776   2.276   3.169   4.017  0.2309  0.5259  0.1026
 6105SOL    HW129777   2.267   3.182   3.922 -1.0383  1.0881  0.3021
 6105SOL    HW229778   2.359   3.120   4.018 -1.9860 -3.2235  0.6512
 6106SOL     OW29779   1.996   3.525   9.768  0.2390  0.3826 -0.4666
 6106SOL    HW129780   2.020   3.616   9.755  4.6073 -0.7361 -0.4181
 6106SOL    HW229781   1.975   3.501   9.677 -1.2795 -1.9789  0.4879
 6107SOL     OW29782   0.911   4.388  14.630 -0.4283  0.0599 -0.2361
 6107SOL    HW129783   0.829   4.410  14.586 -0.7274  1.2473  0.9091
 6107SOL    HW229784   0.971   4.406  14.558  0.1557 -0.2227  0.1794
 6108SOL     OW29785   2.223   3.113   5.388  0.5583  0.2823 -0.3435
 6108SOL    HW129786   2.162   3.047   5.419  1.2187 -1.4168 -2.5992
 6108SOL    HW229787   2.181   3.198   5.397  0.6248  0.1636  1.1370
 6109SOL     OW29788   0.499   1.400  11.870  0.4410 -0.2063 -0.4547
 6109SOL    HW129789   0.415   1.395  11.915  0.8396 -2.4043  0.0156
 6109SOL    HW229790   0.555   1.420  11.946 -0.4909 -0.7980  0.3775
 6110SOL     OW29791   4.344   0.202  16.737  0.2691 -0.2804  0.3570
 6110SOL    HW129792   4.367   0.259  16.664 -0.7981  0.1467  0.3619
 6110SOL    HW229793   4.333   0.264  16.810  0.9454  1.6981 -1.2138
 6111SOL     OW29794   2.872   2.263   6.858 -0.2697  0.1464  0.3909
 6111SOL    HW129795   2.908   2.192   6.912 -2.0035 -0.9289  0.1105
 6111SOL    HW229796   2.805   2.209   6.816 -0.1997  1.5798 -1.5931
 6112SOL     OW29797   3.064   4.522   5.405 -0.0710 -0.3072 -0.2147
 6112SOL    HW129798   3.143   4.505   5.354  1.3876  0.6740  1.7066
 6112SOL    HW229799   3.051   4.443   5.456  3.7006 -1.4770 -1.1136
 6113SOL     OW29800   2.256   2.648   8.577 -0.3176  0.2870 -0.1103
 6113SOL    HW129801   2.245   2.742   8.562  2.3827  0.8198  1.2473
 6113SOL    HW229802   2.209   2.640   8.660  2.0750 -0.8076  1.1371
 6114SOL     OW29803   3.133   2.523   1.340 -0.0011  0.1604  0.0942
 6114SOL    HW129804   3.061   2.461   1.350 -0.8771  1.1554 -0.0222
 6114SOL    HW229805   3.183   2.501   1.419  0.7296  0.2987 -0.3346
 6115SOL     OW29806   0.847   0.319  14.651 -0.5995 -0.3495 -0.4600
 6115SOL    HW129807   0.805   0.366  14.580 -0.1444 -0.1411 -0.5945
 6115SOL    HW229808   0.774   0.269  14.687 -0.6682 -1.0180 -1.5336
 6116SOL     OW29809   2.942   4.261  12.041  0.5536 -0.1913  0.0218
 6116SOL    HW129810   2.862   4.209  12.029  0.4901  0.8112 -3.8494
 6116SOL    HW229811   3.004   4.190  12.058  2.8350  1.4178 -1.6227
 6117SOL     OW29812   1.146   0.951  14.559 -0.3786  0.9203  0.0302
 6117SOL    HW129813   1.209   0.884  14.531 -1.6282 -0.8649  1.4984
 6117SOL    HW229814   1.189   0.964  14.644 -0.0400  0.0272 -0.0031
 6118SOL     OW29815   3.259   4.571   7.496 -0.5256 -0.0731  0.3553
 6118SOL    HW129816   3.219   4.558   7.583 -1.3588 -0.6587 -0.1107
 6118SOL    HW229817   3.246   4.489   7.449 -0.9087  0.9771 -1.3553
 6119SOL     OW29818   1.468   1.671   8.601 -0.0000 -0.7511 -0.0945
 6119SOL    HW129819   1.404   1.720   8.550 -0.0913 -0.3660  0.3854
 6119SOL    HW229820   1.407   1.610   8.643  1.1562 -1.2068  0.9218
 6120SOL     OW29821   2.287   0.271   6.094 -0.4925  0.1671  0.0576
 6120SOL    HW129822   2.255   0.232   6.013  0.7216 -0.8667  0.0831
 6120SOL    HW229823   2.350   0.332   6.056 -0.0958  0.7927  1.7418
 6121SOL     OW29824   2.371   1.724   7.697  0.4884  0.5559 -0.4063
 6121SOL    HW129825   2.376   1.706   7.792  0.0875 -1.8373 -0.8301
 6121SOL    HW229826   2.390   1.817   7.699 -0.6030  0.7974 -1.5106
 6122SOL     OW29827   1.462   0.846   6.533  0.2693  0.4822  0.1983
 6122SOL    HW129828   1.553   0.864   6.556  0.3695 -0.9495  0.9357
 6122SOL    HW229829   1.434   0.937   6.544  1.5758  0.9463 -0.3498
 6123SOL     OW29830   4.428   2.102  17.383 -0.2450  0.8817 -0.2249
 6123SOL    HW129831   4.452   2.050  17.459 -1.0777  0.2452 -0.3959
 6123SOL    HW229832   4.478   2.057  17.315 -0.3154  0.8253 -0.2389
 6124SOL     OW29833   0.791   2.825   4.177 -0.2991  0.1643 -0.2126
 6124SOL    HW129834   0.785   2.908   4.224 -1.9009  0.4316 -0.8710
 6124SOL    HW229835   0.834   2.854   4.097  0.3432  0.2606  0.1726
 6125SOL     OW29836   1.904   3.425   1.223 -0.1520 -0.0803 -0.0351
 6125SOL    HW129837   1.875   3.334   1.233  0.5148 -0.2372  0.4513
 6125SOL    HW229838   1.876   3.448   1.134  0.6107  0.6635 -0.0817
 6126SOL     OW29839   0.477   2.935   6.453  0.1853 -0.3087  0.0900
 6126SOL    HW129840   0.463   2.846   6.421 -0.8455 -0.4450  0.9187
 6126SOL    HW229841   0.419   2.942   6.528 -1.3762  0.3586 -1.1742
 6127SOL     OW29842   0.762   2.588   7.266  0.2393  0.5016 -0.7317
 6127SOL    HW129843   0.758   2.504   7.310  4.3511  1.2464  1.0235
 6127SOL    HW229844   0.725   2.646   7.332  1.9787  1.1667 -0.3314
 6128SOL     OW29845   0.262   2.244   4.559 -0.1821  0.4217  0.2652
 6128SOL    HW129846   0.225   2.161   4.527 -1.5414  0.5988  1.3482
 6128SOL    HW229847   0.204   2.246   4.636  1.5355 -0.6488  1.5866
 6129SOL     OW29848   1.408   0.372   8.162 -0.3664 -0.3386 -0.2469
 6129SOL    HW129849   1.364   0.455   8.182 -2.2746 -1.0314 -1.5262
 6129SOL    HW229850   1.372   0.361   8.074 -1.4736 -0.1082  0.1729
 6130SOL     OW29851   3.027   2.470   0.765 -0.0915  0.1793 -0.2978
 6130SOL    HW129852   2.932   2.478   0.762 -0.0775  0.6388  0.6554
 6130SOL    HW229853   3.037   2.471   0.860 -1.2538 -0.2513 -0.1788
 6131SOL     OW29854   3.819   4.689   3.315 -0.0522 -0.5241  0.0520
 6131SOL    HW129855   3.808   0.060   3.300 -0.5775 -0.6219 -0.1822
 6131SOL    HW229856   3.751   4.651   3.259  1.0619 -0.1557 -1.5456
 6132SOL     OW29857   0.812   0.580   4.429 -0.7298 -0.2575  0.0962
 6132SOL    HW129858   0.841   0.670   4.435  0.4102 -0.6610  0.6470
 6132SOL    HW229859   0.893   0.545   4.391 -1.1840 -0.3300 -0.8212
 6133SOL     OW29860   2.080   2.487   7.674  0.5543 -0.4448 -0.4077
 6133SOL    HW129861   2.148   2.504   7.739  0.0915 -1.2223  0.2804
 6133SOL    HW229862   2.139   2.475   7.599  2.0172  1.0445  0.5071
 6134SOL     OW29863   0.100   2.813   1.279  0.1548  0.3313 -0.7302
 6134SOL    HW129864   0.044   2.862   1.218 -2.2146 -2.0634 -0.4564
 6134SOL    HW229865   0.033   2.764   1.327  1.3342 -0.7329 -0.1548
 6135SOL     OW29866   3.114   4.609  12.031 -0.5928 -0.0457  0.6470
 6135SOL    HW129867   3.165   4.532  12.005 -0.6848 -0.1713  0.8400
 6135SOL    HW229868   3.186   4.673  12.028  1.1231 -1.8957  2.6588
 6136SOL     OW29869   3.140   4.260   3.559 -0.1493  0.5318  0.3954
 6136SOL    HW129870   3.139   4.198   3.486  1.0886  1.4138 -0.3622
 6136SOL    HW229871   3.086   4.209   3.620 -0.1084 -1.1528 -0.9909
 6137SOL     OW29872   4.393   4.505   4.858  0.0684  0.8724 -0.0785
 6137SOL    HW129873   4.434   4.499   4.771  0.5510 -2.1294  0.3292
 6137SOL    HW229874   4.461   4.546   4.910  1.5510 -0.6330 -0.8448
 6138SOL     OW29875   1.234   0.206  11.988  0.7138 -0.4733  0.4453
 6138SOL    HW129876   1.227   0.247  11.902 -0.8378 -0.7140  0.4486
 6138SOL    HW229877   1.320   0.233  12.021 -0.5106  4.3481 -0.4283
 6139SOL     OW29878   4.314   1.840   7.006 -0.1946  0.0161  0.6421
 6139SOL    HW129879   4.324   1.746   6.992  0.7593  0.0474  1.1044
 6139SOL    HW229880   4.391   1.867   6.956  0.1520  1.5176  1.9882
 6140SOL     OW29881   2.317   4.359   1.334  0.0473  0.5315 -0.8079
 6140SOL    HW129882   2.397   4.335   1.380 -1.2416  1.7097  2.0413
 6140SOL    HW229883   2.301   4.452   1.346 -0.2783  0.0866  2.3060
 6141SOL     OW29884   4.487   2.352  17.473 -0.0883 -0.6969 -0.2793
 6141SOL    HW129885   4.468   2.267  17.434 -1.6439 -0.3675 -0.2508
 6141SOL    HW229886   4.575   2.367  17.438 -1.0387  1.0140 -1.9602
 6142SOL     OW29887   4.655   1.832   0.435 -0.1966  0.2480 -0.0611
 6142SOL    HW129888   4.668   1.926   0.450 -3.2934  1.0569 -2.1827
 6142SOL    HW229889   0.022   1.802   0.446 -0.0704 -0.0166 -1.7739
 6143SOL     OW29890   2.195   0.587  16.921  0.3761 -0.1669 -0.0858
 6143SOL    HW129891   2.141   0.662  16.948 -0.0184 -0.3148 -0.4790
 6143SOL    HW229892   2.163   0.522  16.984  2.3921 -0.9585  0.1287
 6144SOL     OW29893   2.101   0.782  13.150 -0.3266 -0.1512  0.6351
 6144SOL    HW129894   2.167   0.787  13.220 -1.5382  2.1893  1.6151
 6144SOL    HW229895   2.153   0.726  13.092 -0.2444  1.3505 -0.7674
 6145SOL     OW29896   4.478   0.844   9.445 -0.1992 -0.0145 -0.2332
 6145SOL    HW129897   4.402   0.789   9.464 -0.9592  0.5243 -1.6915
 6145SOL    HW229898   4.514   0.854   9.533 -1.4520 -1.5334  0.4538
 6146SOL     OW29899   1.352   0.571   0.848  0.1168 -0.0641  0.0957
 6146SOL    HW129900   1.337   0.621   0.768 -1.1185 -0.7765 -0.1210
 6146SOL    HW229901   1.264   0.539   0.868  0.1997  0.1863  0.8795
 6147SOL     OW29902   3.643   0.571   0.368 -0.2726 -0.0657  0.4128
 6147SOL    HW129903   3.629   0.546   0.277  1.3345 -1.6634  0.6140
 6147SOL    HW229904   3.656   0.665   0.357  0.7885 -0.3082 -0.4641
 6148SOL     OW29905   1.894   3.110   6.134  0.1303  0.1140  0.0291
 6148SOL    HW129906   1.981   3.148   6.128 -0.6567  2.0772  0.9691
 6148SOL    HW229907   1.907   3.017   6.154 -0.3295  0.3847  1.6545
 6149SOL     OW29908   3.390   2.536  13.746 -0.5402 -0.2262 -0.2631
 6149SOL    HW129909   3.433   2.460  13.784  0.6631  0.1834 -0.8215
 6149SOL    HW229910   3.465   2.593  13.729 -0.5926  0.1610  0.7939
 6150SOL     OW29911   2.014   4.357   7.276  0.2760  0.1624  0.2694
 6150SOL    HW129912   2.020   4.391   7.187  1.2095 -0.1972  0.1981
 6150SOL    HW229913   2.080   4.417   7.312  1.7870 -0.3737 -1.6299
 6151SOL     OW29914   3.760   3.111   1.393 -0.2830 -0.0893  0.4886
 6151SOL    HW129915   3.714   3.195   1.395  0.8901  0.5639 -0.6160
 6151SOL    HW229916   3.790   3.099   1.483 -1.4307 -0.7045  0.7908
 6152SOL     OW29917   2.735   2.907   4.403  0.3692 -0.0926 -0.1783
 6152SOL    HW129918   2.777   2.821   4.409  0.3659 -0.0524  0.3644
 6152SOL    HW229919   2.664   2.898   4.339 -1.2027  1.7033  1.3394
 6153SOL     OW29920   1.787   0.227   2.807 -0.2568 -0.0854 -0.3679
 6153SOL    HW129921   1.806   0.309   2.762  0.6832  0.6209  1.3191
 6153SOL    HW229922   1.726   0.182   2.748 -2.2570  0.8981  0.9238
 6154SOL     OW29923   2.887   0.504   7.730 -0.1150 -0.5563 -0.2408
 6154SOL    HW129924   2.833   0.539   7.659 -1.1968 -1.7549 -0.0057
 6154SOL    HW229925   2.868   0.410   7.727  0.6615 -0.6415 -2.6328
 6155SOL     OW29926   1.741   1.158   8.199 -0.0167  0.3281  0.4024
 6155SOL    HW129927   1.679   1.189   8.266  0.3619  0.5578  0.6458
 6155SOL    HW229928   1.813   1.130   8.255 -0.0253 -0.7930 -0.1565
 6156SOL     OW29929   3.421   3.692   6.350 -0.4726 -0.3414  0.0418
 6156SOL    HW129930   3.490   3.628   6.334 -1.3522 -0.9365 -1.3311
 6156SOL    HW229931   3.364   3.682   6.274 -1.6214  0.7822  0.7472
 6157SOL     OW29932   4.064   0.261   2.621 -0.8469  0.1547 -0.8673
 6157SOL    HW129933   4.133   0.198   2.644  0.5809  1.8907 -0.4666
 6157SOL    HW229934   4.103   0.348   2.628  1.9100 -1.1012 -0.7409
 6158SOL     OW29935   0.389   0.903  15.254 -0.1074  0.1882 -0.3268
 6158SOL    HW129936   0.401   0.896  15.349 -0.0649  1.5907 -0.2296
 6158SOL    HW229937   0.374   0.812  15.229  0.9717  0.1193 -0.7109
 6159SOL     OW29938   2.229   2.429   2.857 -0.2160  0.1252  0.4218
 6159SOL    HW129939   2.152   2.382   2.825  0.0907 -0.6314  0.8057
 6159SOL    HW229940   2.296   2.401   2.796 -0.1157 -1.5303  1.2850
 6160SOL     OW29941   3.095   0.967   7.047 -0.0323  0.6314  0.1044
 6160SOL    HW129942   3.106   0.888   6.993 -1.6097  0.4945 -0.0086
 6160SOL    HW229943   3.022   1.017   7.013 -1.1073 -1.4632 -0.6635
 6161SOL     OW29944   0.342   0.863  13.389 -0.1667  0.4853 -0.9712
 6161SOL    HW129945   0.410   0.844  13.454 -0.9152 -0.9021 -0.5907
 6161SOL    HW229946   0.291   0.934  13.429 -0.9759 -0.7056  0.1235
 6162SOL     OW29947   0.659   1.572   4.732  0.2624  0.2601 -0.1139
 6162SOL    HW129948   0.657   1.656   4.686 -1.3445  0.7691  0.8944
 6162SOL    HW229949   0.748   1.546   4.708 -0.4364 -1.4528 -0.8775
 6163SOL     OW29950   2.038   0.808   0.737 -0.4539 -0.4799  0.1344
 6163SOL    HW129951   1.995   0.839   0.816  2.5008  0.1420  1.5221
 6163SOL    HW229952   1.991   0.728   0.715  0.3676 -1.4142  1.7843
 6164SOL     OW29953   2.231   3.703   9.557  0.1770  0.1571  0.2860
 6164SOL    HW129954   2.265   3.788   9.528 -0.8938 -0.1754 -1.9645
 6164SOL    HW229955   2.184   3.730   9.636 -3.1073  0.6349 -1.8225
 6165SOL     OW29956   0.968   4.014   6.160  0.0970 -0.0251 -0.2535
 6165SOL    HW129957   0.970   3.919   6.148  1.7354 -0.1741  1.0963
 6165SOL    HW229958   1.031   4.025   6.231 -0.9253  0.1365  0.6279
 6166SOL     OW29959   4.151   3.603   3.219  0.3114 -0.2672 -0.0177
 6166SOL    HW129960   4.217   3.536   3.205  0.6649 -0.0428  0.5935
 6166SOL    HW229961   4.214   3.674   3.227  1.5138 -1.3622  0.1945
 6167SOL     OW29962   4.104   4.616   6.267 -0.2001 -0.0523 -0.2320
 6167SOL    HW129963   4.181   4.561   6.252 -1.6190 -1.9613 -0.4574
 6167SOL    HW229964   4.031   4.556   6.256 -0.4232  0.2577 -0.4388
 6168SOL     OW29965   0.877   0.737   0.134  0.0312 -0.1092  0.0751
 6168SOL    HW129966   0.849   0.645   0.140  0.5658 -0.3609 -1.3065
 6168SOL    HW229967   0.912   0.722   0.046 -2.0614  0.1234 -0.7837
 6169SOL     OW29968   3.992   1.976   7.787  0.1069 -0.0909 -0.4413
 6169SOL    HW129969   3.965   1.901   7.733 -0.9047  0.0475 -0.1262
 6169SOL    HW229970   3.918   1.985   7.846  1.8787 -3.8706  2.3618
 6170SOL     OW29971   4.463   3.263  15.347 -0.5083 -0.1703 -0.2828
 6170SOL    HW129972   4.467   3.321  15.423  1.9226 -1.1551  0.3639
 6170SOL    HW229973   4.409   3.195  15.388  1.3406 -2.3368 -1.3930
 6171SOL     OW29974   1.097   2.110  17.110 -0.0909  0.2527 -0.0820
 6171SOL    HW129975   1.145   2.180  17.065  0.0732  1.6609  2.2473
 6171SOL    HW229976   1.011   2.108  17.069  0.0155 -2.0484 -0.1627
 6172SOL     OW29977   1.745   0.216   6.669  0.0655 -0.2906  0.2964
 6172SOL    HW129978   1.661   0.263   6.661  1.0611  1.5525  0.7010
 6172SOL    HW229979   1.781   0.195   6.582  0.6431  1.8103  0.0326
 6173SOL     OW29980   0.289   4.199  12.022 -0.0644 -0.0617  0.3093
 6173SOL    HW129981   0.242   4.125  11.985  0.2132 -0.3220  0.4749
 6173SOL    HW229982   0.375   4.159  12.036  0.9457  1.6234 -0.9841
 6174SOL     OW29983   1.609   1.695   4.555 -0.0537 -0.1659  0.2130
 6174SOL    HW129984   1.644   1.628   4.613 -1.0030 -0.1196  0.8413
 6174SOL    HW229985   1.610   1.771   4.614 -0.2880 -0.4570  0.5911
 6175SOL     OW29986   3.329   2.632   3.236 -0.2683 -0.0183  0.1063
 6175SOL    HW129987   3.264   2.692   3.272 -0.5029  0.5443 -1.2545
 6175SOL    HW229988   3.335   2.676   3.151  0.5155 -1.5724 -0.6394
 6176SOL     OW29989   4.591   4.611  17.643 -0.2996 -0.1783  0.5504
 6176SOL    HW129990   4.579   4.591   0.042 -0.0555  1.0287  0.8423
 6176SOL    HW229991   4.508   4.658  17.628 -0.2871 -0.4984 -0.5487
 6177SOL     OW29992   2.848   0.803   7.544 -0.2389  0.2415 -0.6270
 6177SOL    HW129993   2.919   0.787   7.605 -1.2411  0.4454  0.5972
 6177SOL    HW229994   2.803   0.868   7.597 -0.0079  0.1078 -0.2688
 6178SOL     OW29995   1.762   4.146   7.007  0.2313  0.1583 -0.0077
 6178SOL    HW129996   1.855   4.128   6.993 -0.4698 -2.2158 -1.5742
 6178SOL    HW229997   1.731   4.056   7.016 -2.7526  1.1457 -0.3557
 6179SOL     OW29998   2.695   1.447   6.500  0.7595  0.2071 -0.1371
 6179SOL    HW129999   2.658   1.531   6.528  0.6577  0.2274 -0.3382
 6179SOL    HW230000   2.790   1.457   6.512  1.2301  0.1409 -3.8710
 6180SOL     OW30001   0.111   1.427  12.462 -0.1906 -0.0842 -0.4706
 6180SOL    HW130002   0.174   1.401  12.529  0.5739 -1.6082 -1.7699
 6180SOL    HW230003   0.141   1.517  12.447 -0.5997 -0.0038 -0.8221
 6181SOL     OW30004   3.383   1.078   5.807 -0.2548  0.7855  0.4958
 6181SOL    HW130005   3.321   1.142   5.843 -2.6976 -1.1807 -0.2336
 6181SOL    HW230006   3.463   1.086   5.859  0.9550 -1.4487 -1.0265
 6182SOL     OW30007   2.811   2.947   8.014 -0.1180 -0.4143 -0.2651
 6182SOL    HW130008   2.826   2.980   8.102  0.7951 -0.9690 -0.2199
 6182SOL    HW230009   2.897   2.917   7.984 -0.1535  0.4214 -1.2178
 6183SOL     OW30010   4.237   3.513   7.293  0.1264  0.2490  0.2606
 6183SOL    HW130011   4.204   3.554   7.374  1.5010 -1.7273  1.8065
 6183SOL    HW230012   4.152   3.491   7.255 -0.1716  1.0088  0.4855
 6184SOL     OW30013   3.591   3.964   0.495  0.4305 -0.0945 -0.2523
 6184SOL    HW130014   3.544   4.036   0.537  3.1211  0.9280  1.0465
 6184SOL    HW230015   3.595   3.898   0.563  2.8578  0.3291  0.0468
 6185SOL     OW30016   2.084   0.231   6.572  0.0772  0.3218 -0.4735
 6185SOL    HW130017   2.094   0.195   6.660 -0.9479 -0.0064 -0.5031
 6185SOL    HW230018   2.140   0.179   6.514 -1.4464 -1.2944 -0.4738
 6186SOL     OW30019   1.998   2.247   7.395 -0.4879  0.6236 -0.4892
 6186SOL    HW130020   2.016   2.195   7.473 -1.8342  1.2129  0.2300
 6186SOL    HW230021   1.956   2.328   7.425  2.4900  2.1919 -0.5367
 6187SOL     OW30022   3.968   2.926   5.161  0.6411 -0.5460  0.3382
 6187SOL    HW130023   3.899   2.938   5.227  0.5434  2.2006 -0.2912
 6187SOL    HW230024   4.006   2.846   5.197 -0.9714 -1.2015  0.6001
 6188SOL     OW30025   0.006   1.325   2.767  0.0739 -0.0579 -0.2981
 6188SOL    HW130026   0.049   1.240   2.781 -0.1751 -0.1689 -0.2029
 6188SOL    HW230027   0.084   1.374   2.793  1.6478 -2.6479 -0.1168
 6189SOL     OW30028   0.142   3.357   1.693 -0.1432  0.0017  0.2102
 6189SOL    HW130029   0.216   3.326   1.745 -2.6038  0.1552  3.8125
 6189SOL    HW230030   0.075   3.290   1.706 -1.2744  1.3600  1.4445
 6190SOL     OW30031   4.200   3.567   4.103  0.2809 -0.0104  0.2443
 6190SOL    HW130032   4.236   3.540   4.188  2.4738 -0.7774 -0.9116
 6190SOL    HW230033   4.271   3.622   4.068 -0.5567  1.1444  0.3857
 6191SOL     OW30034   0.579   0.531   6.680  0.4078  0.2441 -0.6723
 6191SOL    HW130035   0.483   0.529   6.679  0.3466  1.1428  1.6873
 6191SOL    HW230036   0.595   0.591   6.753  0.1763  2.0159 -2.0963
 6192SOL     OW30037   3.256   2.688  10.362  0.3991 -0.3586 -0.3066
 6192SOL    HW130038   3.332   2.687  10.420  0.9672  1.2220 -0.9800
 6192SOL    HW230039   3.195   2.744  10.410  0.4236 -0.2436 -0.4063
 6193SOL     OW30040   0.102   1.862  15.174 -0.1250  0.9477  0.7391
 6193SOL    HW130041   0.072   1.771  15.180  1.4759  0.2507 -1.8543
 6193SOL    HW230042   0.090   1.890  15.265 -1.3202  0.5353  0.7095
 6194SOL     OW30043   0.452   1.328  15.739  0.1176 -0.6285  0.1074
 6194SOL    HW130044   0.539   1.347  15.773  0.2442 -2.4946  0.8146
 6194SOL    HW230045   0.424   1.418  15.756 -0.4841 -0.9347  0.7249
 6195SOL     OW30046   0.621   1.800  16.244 -0.1619 -0.1739  0.3180
 6195SOL    HW130047   0.702   1.840  16.213 -0.8706  0.0076 -1.3196
 6195SOL    HW230048   0.661   1.751  16.316  0.7586 -4.3783 -3.0556
 6196SOL     OW30049   4.695   1.997   7.720  0.5038  0.1274 -0.0056
 6196SOL    HW130050   4.672   2.007   7.628  0.3373  1.0536  0.1403
 6196SOL    HW230051   4.673   1.904   7.728  0.0067  0.2044 -0.5158
 6197SOL     OW30052   2.799   3.017   8.724 -0.0189 -0.1219  0.4973
 6197SOL    HW130053   2.853   2.944   8.694  2.6439  2.6674 -1.5001
 6197SOL    HW230054   2.739   2.981   8.789 -0.8083  0.5064  0.1273
 6198SOL     OW30055   1.962   1.671   4.373  0.4843  0.2519 -0.0503
 6198SOL    HW130056   1.983   1.758   4.406 -1.3776  0.2701  1.0919
 6198SOL    HW230057   2.011   1.622   4.440 -1.4262  1.2728  2.0911
 6199SOL     OW30058   0.255   1.838   4.751 -0.2710  0.2961  0.1243
 6199SOL    HW130059   0.199   1.810   4.824 -1.3724  0.5343 -0.6198
 6199SOL    HW230060   0.238   1.765   4.692  1.3724 -0.2961  0.4008
 6200SOL     OW30061   3.166   3.833   0.500 -0.3249 -0.6910 -0.0044
 6200SOL    HW130062   3.101   3.766   0.477 -3.0405  2.7563 -2.3606
 6200SOL    HW230063   3.245   3.778   0.500 -0.6128 -1.0755  1.7526
 6201SOL     OW30064   3.795   2.646  15.127  0.3798 -0.0558  0.7896
 6201SOL    HW130065   3.734   2.718  15.113 -0.8225 -1.2296 -0.0781
 6201SOL    HW230066   3.860   2.661  15.058 -1.3383 -2.0478 -1.2986
 6202SOL     OW30067   2.125   2.711  15.604  0.2252  0.2053 -0.6901
 6202SOL    HW130068   2.062   2.783  15.596  1.6055  1.4888 -0.0040
 6202SOL    HW230069   2.210   2.752  15.588  0.7960 -0.5069  0.5364
 6203SOL     OW30070   3.582   0.603  14.042 -0.0733  0.0185 -0.2485
 6203SOL    HW130071   3.618   0.692  14.038  2.4492 -0.9170  1.8488
 6203SOL    HW230072   3.491   0.621  14.062  0.2948  0.7445  0.7447
 6204SOL     OW30073   1.920   0.277  11.454  0.8625  0.0481 -0.1269
 6204SOL    HW130074   1.865   0.348  11.486  2.7173  0.1514  2.8757
 6204SOL    HW230075   1.879   0.205  11.503 -1.1943  2.0011  1.0213
 6205SOL     OW30076   0.386   0.572  17.436 -0.3710  0.6429  0.3152
 6205SOL    HW130077   0.430   0.499  17.479 -2.5849 -0.4052  0.8420
 6205SOL    HW230078   0.302   0.580  17.482 -0.1078  0.2413  0.8657
 6206SOL     OW30079   3.278   1.979   5.407 -0.0614  0.1956  0.1517
 6206SOL    HW130080   3.330   2.056   5.387  0.3976 -0.7430 -2.3257
 6206SOL    HW230081   3.336   1.911   5.371  0.0849  0.1789  0.4202
 6207SOL     OW30082   0.881   3.694   4.396  0.1755  0.2375  0.1922
 6207SOL    HW130083   0.849   3.702   4.306  0.9061  2.4197  0.1257
 6207SOL    HW230084   0.811   3.655   4.449  1.4127 -0.3243  1.3990
 6208SOL     OW30085   4.688   2.900  17.602 -0.4391 -0.2523 -0.4929
 6208SOL    HW130086   4.595   2.921  17.590  0.5890  3.4338 -1.8801
 6208SOL    HW230087   4.693   2.860  17.515 -1.7833  0.6825 -0.9971
 6209SOL     OW30088   1.074   2.440   0.681 -0.8931  0.2906 -0.0976
 6209SOL    HW130089   1.068   2.413   0.773 -2.4966 -1.2731 -0.6603
 6209SOL    HW230090   1.006   2.389   0.636 -0.8755 -0.8114  1.1057
 6210SOL     OW30091   3.613   3.640   0.116  0.2592 -0.1075 -0.1311
 6210SOL    HW130092   3.571   3.690   0.185  3.1092  2.0511  0.0251
 6210SOL    HW230093   3.613   3.708   0.048  1.5220  0.8104  0.7945
 6211SOL     OW30094   0.023   3.189  10.034 -0.3986  0.1693 -0.0896
 6211SOL    HW130095   0.024   3.219   9.943  1.0405 -1.1708 -0.5184
 6211SOL    HW230096   4.689   3.258  10.067  1.0307  1.2386  0.1737
 6212SOL     OW30097   1.069   2.013  17.641  0.3726 -0.3709 -0.5256
 6212SOL    HW130098   1.148   2.065  17.624 -0.6498  1.2534 -0.3198
 6212SOL    HW230099   1.063   1.976  17.553 -3.3336 -1.0658  0.0144
 6213SOL     OW30100   2.966   3.562   0.971 -0.2341 -0.0065  0.2108
 6213SOL    HW130101   2.948   3.649   1.004 -0.8599 -0.2253  0.4535
 6213SOL    HW230102   2.881   3.516   0.967 -0.5165  0.4141  1.4887
 6214SOL     OW30103   2.916   2.121   3.947 -0.3109 -0.7726  0.3483
 6214SOL    HW130104   2.976   2.128   3.872 -1.4422  3.7863 -0.1137
 6214SOL    HW230105   2.979   2.113   4.019 -2.4462 -1.8398  2.1087
 6215SOL     OW30106   0.921   4.181  11.246  0.8517  0.1486 -0.1907
 6215SOL    HW130107   0.871   4.152  11.169  0.5458 -0.4952  0.2568
 6215SOL    HW230108   1.005   4.199  11.204  1.0852  0.3055  0.3511
 6216SOL     OW30109   0.520   2.775   4.256  0.0426  0.0881 -0.0724
 6216SOL    HW130110   0.523   2.680   4.267  0.4144  0.1175  0.0743
 6216SOL    HW230111   0.608   2.789   4.223  0.8524 -0.5069  1.8750
 6217SOL     OW30112   1.015   4.336  10.102  0.5113 -0.6569 -0.1191
 6217SOL    HW130113   1.023   4.288  10.020  1.1320 -0.7015 -0.0300
 6217SOL    HW230114   1.107   4.344  10.129  0.1149  0.1260  0.9854
 6218SOL     OW30115   3.977   1.695   7.864  0.1855 -0.0912 -0.0165
 6218SOL    HW130116   4.059   1.743   7.849  1.1126 -1.7682 -0.3945
 6218SOL    HW230117   3.977   1.626   7.797  1.8416 -1.8238  1.7586
 6219SOL     OW30118   3.258   3.505   2.277  0.1795 -0.1169 -0.2333
 6219SOL    HW130119   3.324   3.436   2.280 -0.0973 -0.3526  0.4217
 6219SOL    HW230120   3.215   3.488   2.193  1.3258  0.0512 -0.8552
 6220SOL     OW30121   3.473   3.470  17.372 -0.8723 -0.3530 -0.4905
 6220SOL    HW130122   3.479   3.437  17.282 -1.2131  1.0911 -1.0419
 6220SOL    HW230123   3.379   3.464  17.390 -0.6771  0.3571  0.7637
 6221SOL     OW30124   3.746   4.213   6.655 -0.0264 -0.9078 -0.5100
 6221SOL    HW130125   3.829   4.190   6.613  0.2621  0.6979 -0.8464
 6221SOL    HW230126   3.685   4.156   6.608 -1.8477  0.9545 -0.4217
 6222SOL     OW30127   3.854   1.248  13.770 -0.0274  0.0929 -0.6177
 6222SOL    HW130128   3.948   1.263  13.785 -0.3964  0.3333  1.4965
 6222SOL    HW230129   3.815   1.327  13.733  0.6969  1.4573  1.4758
 6223SOL     OW30130   1.612   2.611   5.613  0.3782  0.0709  0.0710
 6223SOL    HW130131   1.616   2.550   5.687 -1.7890 -0.7348 -0.4507
 6223SOL    HW230132   1.535   2.581   5.564  0.8072 -0.0955 -0.5057
 6224SOL     OW30133   2.700   1.868   5.183  0.0670 -0.0988  0.1900
 6224SOL    HW130134   2.719   1.959   5.157 -1.8621  1.1256  3.0675
 6224SOL    HW230135   2.727   1.867   5.275 -1.4320 -0.1422  0.6313
 6225SOL     OW30136   0.424   3.827   7.986  0.5299 -0.0774 -0.1429
 6225SOL    HW130137   0.451   3.735   7.983 -1.0881 -0.6550  2.5323
 6225SOL    HW230138   0.496   3.859   8.039 -1.9940  0.6519  2.8425
 6226SOL     OW30139   3.365   2.033   8.462 -0.2743 -0.4073  0.0628
 6226SOL    HW130140   3.348   1.952   8.510 -0.3182  0.3015  1.2465
 6226SOL    HW230141   3.357   2.087   8.541 -1.2227 -2.9011  1.6526
 6227SOL     OW30142   3.241   1.967   4.155 -0.2816  0.2602 -0.2453
 6227SOL    HW130143   3.317   1.920   4.119 -0.0884  0.1869  0.2535
 6227SOL    HW230144   3.257   2.053   4.114  0.6202  1.1777  2.0460
 6228SOL     OW30145   3.599   0.946  16.537 -0.1060  0.1467  0.3657
 6228SOL    HW130146   3.590   0.991  16.621  0.4857 -1.2488  1.1764
 6228SOL    HW230147   3.519   0.977  16.494  0.4671  4.3893  2.3202
 6229SOL     OW30148   1.857   3.800  10.459  0.2639  0.1316  0.1151
 6229SOL    HW130149   1.769   3.764  10.468 -0.2553  1.7388  1.3916
 6229SOL    HW230150   1.909   3.752  10.523 -0.0455 -1.3946 -0.7594
 6230SOL     OW30151   2.449   0.335   0.925 -0.1220 -0.2717  0.5479
 6230SOL    HW130152   2.440   0.328   1.020  0.4698  1.3550  0.7140
 6230SOL    HW230153   2.524   0.394   0.930  1.3064 -2.0876  0.5278
 6231SOL     OW30154   3.949   2.116   7.345  0.4894  0.9794 -0.1074
 6231SOL    HW130155   3.896   2.194   7.358 -1.0944 -0.3017  1.0297
 6231SOL    HW230156   4.005   2.125   7.422 -0.2576 -3.1478  0.8980
 6232SOL     OW30157   2.349   0.953   2.872 -0.2207 -0.1205  0.1844
 6232SOL    HW130158   2.334   1.010   2.796 -0.8323  1.7775  1.7156
 6232SOL    HW230159   2.326   0.871   2.829 -1.3645  1.2209 -1.8033
 6233SOL     OW30160   4.110   2.807   2.422 -0.2653 -0.1445  0.0302
 6233SOL    HW130161   4.045   2.817   2.353  0.2072 -0.5097 -0.4748
 6233SOL    HW230162   4.095   2.717   2.451  0.5602 -0.2963  0.0049
 6234SOL     OW30163   2.814   3.948   8.011 -0.0523  0.8546 -0.2166
 6234SOL    HW130164   2.872   3.930   8.086 -1.5347  1.0217  0.9774
 6234SOL    HW230165   2.864   3.936   7.930 -0.0237  0.7528 -0.1841
 6235SOL     OW30166   2.908   0.138  15.842 -0.0777  0.8005 -0.3007
 6235SOL    HW130167   3.001   0.121  15.855  0.0044  1.1715 -0.3954
 6235SOL    HW230168   2.870   0.108  15.924  0.3714 -0.7909 -0.6771
 6236SOL     OW30169   4.303   4.151  17.128 -0.5055  0.4819  0.1848
 6236SOL    HW130170   4.249   4.211  17.077 -2.3447 -0.9182  0.4931
 6236SOL    HW230171   4.343   4.205  17.196 -0.0952  0.2898  0.0982
 6237SOL     OW30172   4.486   4.371  15.202 -0.3869 -0.0363  0.3835
 6237SOL    HW130173   4.403   4.382  15.155  0.0831 -0.7436 -0.6125
 6237SOL    HW230174   4.450   4.358  15.290  2.2831 -0.1678  1.4784
 6238SOL     OW30175   2.813   3.787   3.582 -0.0486 -0.6623 -0.1719
 6238SOL    HW130176   2.762   3.743   3.650 -0.7465 -2.4487 -1.8347
 6238SOL    HW230177   2.856   3.709   3.546 -0.3570 -1.8877  2.1320
 6239SOL     OW30178   3.835   3.403   6.540 -0.5697 -0.3052 -0.2126
 6239SOL    HW130179   3.749   3.383   6.578 -0.0840  0.6364  1.3854
 6239SOL    HW230180   3.863   3.324   6.494 -0.3601 -0.9588  1.0471
 6240SOL     OW30181   1.023   3.754   1.661 -0.1526  0.7044  0.8642
 6240SOL    HW130182   0.989   3.669   1.689 -0.3895  0.3127 -0.6560
 6240SOL    HW230183   0.948   3.813   1.652  0.3144  0.9074 -1.5136
 6241SOL     OW30184   1.851   0.912   3.759  0.6122 -0.4124 -0.7583
 6241SOL    HW130185   1.871   0.825   3.793  1.2721 -0.3608 -1.0175
 6241SOL    HW230186   1.805   0.904   3.676  0.4674 -1.5553 -0.5669
 6242SOL     OW30187   4.043   3.273   2.999 -0.0353 -0.3769  0.1713
 6242SOL    HW130188   4.033   3.347   2.938 -0.7761 -0.6089  0.0156
 6242SOL    HW230189   4.138   3.257   2.998 -0.1731 -1.1733 -0.0572
 6243SOL     OW30190   3.017   2.935   3.170  0.0695  0.5485 -0.3091
 6243SOL    HW130191   3.046   2.992   3.099 -1.3886  0.4792 -0.9451
 6243SOL    HW230192   2.939   2.914   3.119 -0.4257 -0.0123  0.6620
 6244SOL     OW30193   2.529   2.336   8.653  0.5880 -0.6344 -0.2179
 6244SOL    HW130194   2.538   2.344   8.558  1.2494  0.2587 -0.0774
 6244SOL    HW230195   2.436   2.315   8.660  0.6226 -1.1119 -1.1592
 6245SOL     OW30196   0.070   1.449   7.950  0.1450 -0.1462  0.2951
 6245SOL    HW130197   0.151   1.414   7.987  0.6181  0.5753 -0.0509
 6245SOL    HW230198   0.045   1.513   8.017  1.5601  0.0677  0.6118
 6246SOL     OW30199   3.336   4.042   1.820  1.0166 -0.1627 -0.2260
 6246SOL    HW130200   3.386   4.093   1.883  0.3145 -0.5548  0.6502
 6246SOL    HW230201   3.360   4.090   1.741  2.1171  0.6964  0.6283
 6247SOL     OW30202   0.078   4.252  13.644 -0.3278 -0.6672 -0.1133
 6247SOL    HW130203   0.037   4.337  13.632  1.7523 -0.0615 -2.8996
 6247SOL    HW230204   0.113   4.253  13.555 -0.7160 -0.9687 -0.2673
 6248SOL     OW30205   4.071   3.777   7.183 -0.2394 -0.0288 -0.4134
 6248SOL    HW130206   4.037   3.688   7.183 -1.0927  0.3180  2.0717
 6248SOL    HW230207   4.009   3.829   7.132 -1.0023  0.0232  0.5706
 6249SOL     OW30208   1.367   3.136   4.422  0.4088 -0.0196 -0.6155
 6249SOL    HW130209   1.386   3.046   4.448  2.4105 -0.1522 -2.5204
 6249SOL    HW230210   1.343   3.175   4.506  0.1660 -3.0459  0.7309
 6250SOL     OW30211   3.888   4.311   1.769 -0.8505  0.5264  0.1102
 6250SOL    HW130212   3.832   4.308   1.692  0.8571 -1.5052 -1.0729
 6250SOL    HW230213   3.939   4.387   1.741 -0.6003  0.2006 -0.3186
 6251SOL     OW30214   2.124   0.967   5.165 -0.2918 -0.4788  0.0296
 6251SOL    HW130215   2.181   0.894   5.188  1.8470  1.2856  0.3644
 6251SOL    HW230216   2.042   0.951   5.211 -1.3543 -1.6639 -2.2702
 6252SOL     OW30217   2.301   0.722   8.749  0.2968 -0.6105  0.1548
 6252SOL    HW130218   2.362   0.705   8.678  0.3633 -1.5979  0.4525
 6252SOL    HW230219   2.321   0.812   8.773  0.1264  0.2109 -2.8059
 6253SOL     OW30220   0.605   2.469   0.905 -0.1126 -0.6173  0.2974
 6253SOL    HW130221   0.561   2.549   0.933 -0.6926 -1.1617  0.9497
 6253SOL    HW230222   0.646   2.441   0.986  2.4845  1.2536 -0.3648
 6254SOL     OW30223   0.499   2.956  16.297 -0.2405 -0.1614  0.2001
 6254SOL    HW130224   0.438   2.882  16.304  1.2513 -1.2488  1.6402
 6254SOL    HW230225   0.463   3.009  16.225 -0.9507 -1.6341 -0.5322
 6255SOL     OW30226   1.394   4.139   7.656  0.0215 -0.1444  0.4907
 6255SOL    HW130227   1.300   4.127   7.663  0.0188 -1.1469 -1.2568
 6255SOL    HW230228   1.410   4.220   7.608  1.0446 -0.2111  0.7045
 6256SOL     OW30229   1.714   1.410   5.471  0.0379 -0.3310 -0.1425
 6256SOL    HW130230   1.655   1.481   5.442  0.1405 -0.3127 -0.3041
 6256SOL    HW230231   1.743   1.390   5.383  0.2197 -0.7119  0.0074
 6257SOL     OW30232   2.790   0.178   9.092 -0.0294  0.3875  0.5699
 6257SOL    HW130233   2.842   0.099   9.079 -0.0213  0.5192 -0.1637
 6257SOL    HW230234   2.776   0.180   9.187 -0.4770 -0.0287  0.5099
 6258SOL     OW30235   2.539   2.216  15.949  0.0550  0.5224  0.2429
 6258SOL    HW130236   2.551   2.196  16.042  1.2652 -0.4517 -0.1120
 6258SOL    HW230237   2.545   2.128  15.911 -1.3609 -1.1022  3.8528
 6259SOL     OW30238   0.414   2.249   8.415 -0.2342 -0.9071  0.1312
 6259SOL    HW130239   0.427   2.215   8.327  2.5532 -2.4203  1.1374
 6259SOL    HW230240   0.443   2.338   8.392 -1.0055 -0.9032 -0.8289
 6260SOL     OW30241   4.376   1.761  10.690  0.0166 -0.4036  0.1950
 6260SOL    HW130242   4.346   1.758  10.600 -1.0830  1.1434  0.5193
 6260SOL    HW230243   4.322   1.688  10.719 -2.2825  1.4028  0.3759
 6261SOL     OW30244   0.508   1.207   3.789 -0.0541 -0.3148 -0.2123
 6261SOL    HW130245   0.440   1.270   3.766 -0.9744 -1.9535 -1.9491
 6261SOL    HW230246   0.512   1.165   3.703 -1.1650 -1.7868  0.4398
 6262SOL     OW30247   2.739   3.651   4.655 -0.3629  0.7485  0.6778
 6262SOL    HW130248   2.691   3.570   4.676  2.4756 -0.7256  1.4662
 6262SOL    HW230249   2.754   3.629   4.563  1.2357  2.9559  0.4260
 6263SOL     OW30250   1.609   2.678  15.891 -0.2045 -0.1594 -0.0221
 6263SOL    HW130251   1.634   2.716  15.807 -0.6123  0.9965  0.3814
 6263SOL    HW230252   1.691   2.631  15.907 -1.0731 -1.7209 -0.1925
 6264SOL     OW30253   2.269   3.956   7.635 -0.4450  0.1491 -0.3578
 6264SOL    HW130254   2.309   3.898   7.699 -0.6419 -0.5231 -0.8403
 6264SOL    HW230255   2.206   3.889   7.608 -0.8851 -0.8048  3.0075
 6265SOL     OW30256   0.638   4.018  16.423 -0.7399 -0.1684 -0.0998
 6265SOL    HW130257   0.595   3.947  16.375  1.2902 -0.9373 -0.7492
 6265SOL    HW230258   0.715   3.975  16.460 -2.5824 -1.3808  2.3182
 6266SOL     OW30259   1.533   3.224   2.851  0.1673 -0.4422 -0.3594
 6266SOL    HW130260   1.484   3.256   2.775 -1.6485 -1.5057  0.3591
 6266SOL    HW230261   1.574   3.301   2.891 -0.6795 -1.1139  1.8100
 6267SOL     OW30262   2.818   4.107   1.161 -0.0399 -0.1613  0.7043
 6267SOL    HW130263   2.835   4.198   1.184  3.0020 -0.8752  1.2988
 6267SOL    HW230264   2.817   4.081   1.253 -0.4379 -1.0048  0.4618
 6268SOL     OW30265   0.364   3.855   9.049  0.4556  0.3728  0.0756
 6268SOL    HW130266   0.363   3.917   9.122  1.5061  0.8026 -0.2897
 6268SOL    HW230267   0.270   3.834   9.049  0.5369 -0.0146  0.6152
 6269SOL     OW30268   3.483   3.225  12.823 -0.3590  0.1732 -0.5642
 6269SOL    HW130269   3.544   3.294  12.848  0.6106 -1.4264  1.4814
 6269SOL    HW230270   3.402   3.255  12.863 -0.9622  2.1384 -3.2271
 6270SOL     OW30271   0.972   1.072   7.149  0.4333 -0.1125 -0.2346
 6270SOL    HW130272   1.000   0.982   7.134  0.0866  0.0099 -1.6351
 6270SOL    HW230273   0.947   1.108   7.063  0.2617  4.4569  1.7399
 6271SOL     OW30274   0.939   4.222   7.703  0.7604 -0.3965 -0.1499
 6271SOL    HW130275   0.853   4.184   7.687  0.8143 -1.0831  1.2787
 6271SOL    HW230276   0.991   4.182   7.633 -0.4292 -3.4718  0.7288
 6272SOL     OW30277   4.108   0.065   5.467  0.2320  0.2542 -0.4038
 6272SOL    HW130278   4.165   0.036   5.538 -1.7957 -0.3913  0.9784
 6272SOL    HW230279   4.029   0.076   5.520  1.2065  0.6514  0.9587
 6273SOL     OW30280   3.081   3.952   4.832 -0.0381  0.4624  0.1017
 6273SOL    HW130281   3.005   3.924   4.884 -0.0066  0.8490  0.3571
 6273SOL    HW230282   3.058   3.920   4.745  2.6228 -0.8370 -0.1035
 6274SOL     OW30283   1.534   3.316   4.691  0.2513 -0.2956  0.3879
 6274SOL    HW130284   1.484   3.397   4.679  0.4703 -0.2067  0.0950
 6274SOL    HW230285   1.562   3.327   4.782  0.6729 -0.6430  0.2991
 6275SOL     OW30286   1.257   3.418   6.772 -0.7400  0.1438 -0.2120
 6275SOL    HW130287   1.350   3.438   6.784 -1.2550  1.5891  1.4954
 6275SOL    HW230288   1.267   3.329   6.740  0.1712  0.3689 -0.5519
 6276SOL     OW30289   4.159   2.276   8.637 -0.5871 -0.3847  0.2222
 6276SOL    HW130290   4.105   2.207   8.598 -0.1401  0.2301 -1.5225
 6276SOL    HW230291   4.214   2.299   8.561 -0.2653 -1.6092  0.0864
 6277SOL     OW30292   2.637   2.484  16.016 -0.0259 -0.3687 -0.0258
 6277SOL    HW130293   2.667   2.554  15.958  0.9269 -0.5913  0.2074
 6277SOL    HW230294   2.615   2.422  15.947  1.5942 -1.5721  0.5559
 6278SOL     OW30295   3.752   2.144   9.891  0.0731 -0.5414  0.4381
 6278SOL    HW130296   3.828   2.152   9.834  0.8079 -0.6246  1.4125
 6278SOL    HW230297   3.784   2.102   9.971 -0.1731  2.5385  2.1658
 6279SOL     OW30298   3.829   4.418  13.029  0.0659  0.8830 -0.1360
 6279SOL    HW130299   3.902   4.458  12.983  0.9991  0.5077  1.0244
 6279SOL    HW230300   3.772   4.413  12.952 -0.7069  1.2793  0.4091
 6280SOL     OW30301   1.294   2.990   3.866 -0.6599  0.5468  0.0098
 6280SOL    HW130302   1.274   2.917   3.925  0.7300  1.5456  1.7229
 6280SOL    HW230303   1.246   3.060   3.911 -1.8313 -0.5771  0.5036
 6281SOL     OW30304   3.285   3.835   7.746  0.4650  0.1776  0.0814
 6281SOL    HW130305   3.270   3.823   7.652  1.5985 -1.7467  0.1461
 6281SOL    HW230306   3.368   3.884   7.754 -0.1852  1.4068 -0.7543
 6282SOL     OW30307   0.653   1.433   7.671  0.0376  0.3041  0.3672
 6282SOL    HW130308   0.692   1.372   7.607 -0.2103  1.9720 -1.3796
 6282SOL    HW230309   0.652   1.386   7.755  0.6647 -0.2561  0.0645
 6283SOL     OW30310   1.808   2.849   5.547 -0.5706 -0.1556 -0.2585
 6283SOL    HW130311   1.743   2.797   5.499 -0.7800 -1.3548  1.3410
 6283SOL    HW230312   1.790   2.839   5.640 -0.5465  0.4951 -0.1813
 6284SOL     OW30313   2.202   1.780  12.746 -0.2462  0.3027  0.2603
 6284SOL    HW130314   2.254   1.818  12.817  2.9029 -0.0402 -1.8717
 6284SOL    HW230315   2.118   1.824  12.761 -0.9674 -1.1811  0.5308
 6285SOL     OW30316   3.837   1.752   9.403 -0.1674 -0.0253 -0.5230
 6285SOL    HW130317   3.808   1.810   9.473  1.4752  1.6596 -1.2643
 6285SOL    HW230318   3.752   1.709   9.390  0.8301 -1.8707 -1.0167
 6286SOL     OW30319   0.663   4.604   6.213  0.2232  0.0527  0.4323
 6286SOL    HW130320   0.754   4.589   6.241  0.9864 -0.2346 -2.1865
 6286SOL    HW230321   0.614   4.627   6.291 -1.3434 -2.2574  0.1231
 6287SOL     OW30322   4.050   1.583  10.304 -0.3876 -0.4107 -0.7131
 6287SOL    HW130323   3.968   1.558  10.347 -0.5529  1.3661  0.0136
 6287SOL    HW230324   4.035   1.544  10.217 -0.0450 -2.3997  0.1270
 6288SOL     OW30325   1.777   0.011  10.919  0.6158 -0.1282 -0.1495
 6288SOL    HW130326   1.834   4.673  10.871  2.1840  1.7730 -0.7018
 6288SOL    HW230327   1.839   0.082  10.934 -0.8313  0.9551  0.6269
 6289SOL     OW30328   3.472   3.237   7.045 -0.5023  0.2376 -0.1468
 6289SOL    HW130329   3.535   3.304   7.016  1.1514 -1.2150  0.0778
 6289SOL    HW230330   3.449   3.262   7.134 -0.7464  0.4952 -0.2827
 6290SOL     OW30331   0.225   1.401   4.880 -0.4796 -0.3049  0.1504
 6290SOL    HW130332   0.149   1.408   4.938  0.1456  0.6597  0.8732
 6290SOL    HW230333   0.289   1.346   4.927  2.2147  1.1159 -1.8597
 6291SOL     OW30334   2.465   3.301   1.788  0.3574  0.2888  0.5176
 6291SOL    HW130335   2.465   3.391   1.755 -2.8493 -0.4792 -1.4713
 6291SOL    HW230336   2.420   3.245   1.725 -0.7266 -1.0918  2.5254
 6292SOL     OW30337   1.438   4.652   9.510 -0.4807 -0.0959 -0.2775
 6292SOL    HW130338   1.477   4.683   9.592 -0.8402  0.5633 -0.3508
 6292SOL    HW230339   1.510   4.595   9.483 -1.1222 -0.8382 -0.4083
 6293SOL     OW30340   3.091   2.551   2.123 -0.4440  0.5186 -0.6487
 6293SOL    HW130341   3.002   2.519   2.110 -0.0077 -0.3012 -1.6960
 6293SOL    HW230342   3.136   2.491   2.064  0.1466 -1.5175  1.8743
 6294SOL     OW30343   2.356   3.617   2.061  0.1322 -0.2891  0.5552
 6294SOL    HW130344   2.307   3.547   2.019  1.3438 -1.1872  0.6712
 6294SOL    HW230345   2.356   3.688   1.996 -1.1285  0.1254  0.9957
 6295SOL     OW30346   2.590   0.242  11.107  0.3759  0.2610  0.3751
 6295SOL    HW130347   2.616   0.320  11.157  0.4434  0.8482 -0.5658
 6295SOL    HW230348   2.529   0.201  11.168 -0.3103 -0.5543 -0.8705
 6296SOL     OW30349   3.085   2.738   2.911  0.7678  0.1094  0.0859
 6296SOL    HW130350   3.070   2.680   2.985  0.7906 -1.7183 -1.3370
 6296SOL    HW230351   3.165   2.786   2.932  0.4620  0.8164 -0.3560
 6297SOL     OW30352   2.213   4.438   8.026 -0.0990 -0.2016  0.0904
 6297SOL    HW130353   2.128   4.414   7.990 -0.2608  2.4431 -1.2792
 6297SOL    HW230354   2.263   4.359   8.007  0.6123  0.1247  0.5899
 6298SOL     OW30355   1.456   1.430   1.861 -0.2284  0.3358  0.6991
 6298SOL    HW130356   1.530   1.398   1.810  0.4995  1.8747  0.7813
 6298SOL    HW230357   1.400   1.353   1.850 -0.9718  1.2634 -1.9830
 6299SOL     OW30358   3.860   0.429  17.019  0.2949  0.6739  0.5702
 6299SOL    HW130359   3.935   0.489  17.020  1.8946 -1.3048 -0.0056
 6299SOL    HW230360   3.883   0.382  16.939  0.7202  2.2599 -0.2421
 6300SOL     OW30361   4.613   2.418   6.273 -0.5236 -0.6282  0.3374
 6300SOL    HW130362   4.538   2.375   6.314  0.1245 -1.8397  0.2520
 6300SOL    HW230363   4.643   2.360   6.203 -0.8292  0.4521 -0.6796
 6301SOL     OW30364   0.847   3.026   7.398 -0.6885  0.2150  0.3009
 6301SOL    HW130365   0.793   3.016   7.477 -0.4099  0.4285  0.5185
 6301SOL    HW230366   0.771   3.028   7.340  0.6763  2.8896 -1.3425
 6302SOL     OW30367   0.219   2.873   5.211 -0.5080  0.4827  0.4616
 6302SOL    HW130368   0.214   2.866   5.115 -1.4756  0.4494  0.5105
 6302SOL    HW230369   0.182   2.960   5.225  1.0139  1.0103  1.1881
 6303SOL     OW30370   3.936   0.539  14.519 -0.2958  0.5277  0.2309
 6303SOL    HW130371   3.905   0.578  14.438  1.3324 -0.0428 -0.6774
 6303SOL    HW230372   3.869   0.472  14.532  0.8563 -0.1663  2.6379
 6304SOL     OW30373   2.305   4.573   4.755 -0.0447 -0.3969  0.1787
 6304SOL    HW130374   2.259   4.612   4.681  0.1861  0.1118  0.3007
 6304SOL    HW230375   2.244   4.508   4.789  1.1906 -0.4012  2.3869
 6305SOL     OW30376   1.104   4.633  12.810  0.0462 -0.4414 -0.0306
 6305SOL    HW130377   1.043   4.690  12.764  0.8409  1.1667  0.9363
 6305SOL    HW230378   1.128   4.569  12.743 -1.1815 -0.7520 -0.1801
 6306SOL     OW30379   0.067   2.648  11.777  0.2893 -0.2242 -0.7305
 6306SOL    HW130380   0.146   2.594  11.780  3.1044  3.8133 -2.3767
 6306SOL    HW230381   0.112   2.731  11.762 -0.4672  0.4889  0.9621
 6307SOL     OW30382   0.098   3.651   2.977  0.1197  0.3107  0.4762
 6307SOL    HW130383   0.023   3.661   3.035  0.4003  1.5972  0.6214
 6307SOL    HW230384   0.103   3.556   2.965  0.0239  0.2742  0.7298
 6308SOL     OW30385   3.632   2.764   7.277  0.3599 -0.7299  0.5238
 6308SOL    HW130386   3.707   2.782   7.220 -2.1776  1.1212 -2.2457
 6308SOL    HW230387   3.567   2.804   7.219  2.3365  0.7597 -0.6380
 6309SOL     OW30388   3.138   1.837   1.777  0.4017  0.0757  0.3353
 6309SOL    HW130389   3.161   1.828   1.870  0.4804 -0.4489  0.2664
 6309SOL    HW230390   3.137   1.745   1.751  1.7975  0.3996 -0.8708
 6310SOL     OW30391   3.633   2.528   7.383  0.4306  0.4401  0.1180
 6310SOL    HW130392   3.641   2.603   7.324 -1.0186  0.6077  0.1237
 6310SOL    HW230393   3.604   2.568   7.465  0.8295  0.0428  0.4515
 6311SOL     OW30394   2.020   4.697  11.339 -0.4352 -0.2614  0.5609
 6311SOL    HW130395   2.021   4.605  11.315  1.4861  1.0083 -4.3199
 6311SOL    HW230396   1.938   0.003  11.300 -1.0497 -1.9235  0.6490
 6312SOL     OW30397   0.172   0.408   8.608 -0.3641 -0.2991  0.1699
 6312SOL    HW130398   0.167   0.317   8.579 -3.5604  0.0524 -0.3426
 6312SOL    HW230399   0.147   0.451   8.526  1.3122 -2.3400 -1.4106
 6313SOL     OW30400   4.427   0.689   3.769 -0.3884 -0.3185  0.1293
 6313SOL    HW130401   4.440   0.693   3.864 -1.0003 -2.9933  0.3297
 6313SOL    HW230402   4.476   0.765   3.739 -0.4255  0.4046  1.9278
 6314SOL     OW30403   2.749   1.945   3.759  0.0355 -0.2144 -0.0889
 6314SOL    HW130404   2.800   1.969   3.836  1.3534 -1.2189 -0.6588
 6314SOL    HW230405   2.815   1.910   3.699 -1.5349 -3.2798  0.0093
 6315SOL     OW30406   3.220   2.032  17.655 -0.6148  0.3978  0.3027
 6315SOL    HW130407   3.261   2.060   0.043  1.1072 -0.2571 -0.3208
 6315SOL    HW230408   3.141   1.989  17.686  1.8397 -2.8593  2.0725
 6316SOL     OW30409   3.646   0.451   2.461  0.3768  0.0816  0.1170
 6316SOL    HW130410   3.682   0.373   2.419 -0.1659  0.1908 -0.5409
 6316SOL    HW230411   3.560   0.417   2.485 -0.7646  2.4388 -0.6106
 6317SOL     OW30412   4.222   3.534   0.437 -0.4057 -0.2674 -0.5715
 6317SOL    HW130413   4.159   3.603   0.457  1.0276  0.8568  0.0322
 6317SOL    HW230414   4.273   3.534   0.518 -2.7038 -1.9550  0.9225
 6318SOL     OW30415   2.949   2.713   0.123 -0.9665 -0.5925 -0.2888
 6318SOL    HW130416   2.882   2.650   0.095 -1.8366 -1.4952  3.8217
 6318SOL    HW230417   2.908   2.791   0.159 -0.2773 -1.3890  2.1861
 6319SOL     OW30418   2.901   0.409  10.517  0.2434  0.1060  0.4110
 6319SOL    HW130419   2.822   0.432  10.469 -0.1891 -0.7646  0.6992
 6319SOL    HW230420   2.965   0.429  10.449 -0.1322  0.8993  0.3000
 6320SOL     OW30421   2.841   0.731   2.739 -0.3171 -0.2647  0.0020
 6320SOL    HW130422   2.790   0.776   2.806 -2.2844 -1.1398 -0.9156
 6320SOL    HW230423   2.885   0.664   2.791  0.2756 -1.1681 -1.6687
 6321SOL     OW30424   2.509   2.043   5.854 -0.1336  0.0078 -0.3020
 6321SOL    HW130425   2.525   1.968   5.796  0.9733 -0.9957  1.2968
 6321SOL    HW230426   2.477   2.108   5.791 -2.7518 -0.2729  0.7413
 6322SOL     OW30427   1.069   4.283   2.206  0.3814  0.7344  0.1978
 6322SOL    HW130428   1.107   4.199   2.229  0.0435  0.4459 -0.2746
 6322SOL    HW230429   1.004   4.258   2.139 -0.7587 -2.1590  2.3874
 6323SOL     OW30430   0.506   2.942   1.119 -0.2831 -0.2778  0.2954
 6323SOL    HW130431   0.556   3.022   1.135  0.1249 -0.1289 -1.7350
 6323SOL    HW230432   0.518   2.927   1.025  0.3984  1.2278  0.1509
 6324SOL     OW30433   2.939   3.321   6.648 -0.2097  0.5934 -0.3711
 6324SOL    HW130434   2.898   3.405   6.666  1.1794  1.0998  0.4445
 6324SOL    HW230435   3.033   3.337   6.650 -0.0283 -0.4481 -0.7188
 6325SOL     OW30436   3.221   1.015   4.469 -0.5343 -0.0906  0.1210
 6325SOL    HW130437   3.305   0.972   4.454 -0.4722  0.5949 -1.5344
 6325SOL    HW230438   3.206   1.002   4.562 -1.4062 -1.8098 -0.2676
 6326SOL     OW30439   0.562   0.353  15.882  0.6949 -0.9560  0.2125
 6326SOL    HW130440   0.601   0.389  15.802  1.6829 -1.7901  0.3105
 6326SOL    HW230441   0.630   0.369  15.947  1.4824  0.4672 -0.9459
 6327SOL     OW30442   3.442   4.319   6.806 -0.9394  0.4075 -0.7006
 6327SOL    HW130443   3.494   4.377   6.750 -1.7536  1.8649  0.0383
 6327SOL    HW230444   3.477   4.234   6.781  0.8601  1.2543 -1.0549
 6328SOL     OW30445   2.808   4.415   6.150 -0.1519 -0.2654 -0.2712
 6328SOL    HW130446   2.799   4.358   6.074 -0.1628 -1.0821  0.3470
 6328SOL    HW230447   2.785   4.500   6.112 -0.5901 -1.5796 -2.9065
 6329SOL     OW30448   3.230   1.880   9.531  0.2305  0.0870  0.5123
 6329SOL    HW130449   3.208   1.964   9.491 -1.4876  0.3670  2.0648
 6329SOL    HW230450   3.285   1.839   9.464  1.7041  0.2436  1.6352
 6330SOL     OW30451   4.248   2.348   1.818 -0.1859  0.2618  1.1007
 6330SOL    HW130452   4.208   2.344   1.731  4.1787  0.0956 -0.8907
 6330SOL    HW230453   4.326   2.294   1.803  0.5325  1.5975  0.1024
 6331SOL     OW30454   4.336   1.519   1.872  0.1014  0.0990  0.0703
 6331SOL    HW130455   4.382   1.473   1.942  0.1643 -1.9713 -1.3142
 6331SOL    HW230456   4.402   1.581   1.843  1.8758 -1.7050  0.2224
 6332SOL     OW30457   0.176   0.149   8.565 -0.1971 -0.8302  0.0211
 6332SOL    HW130458   0.144   0.073   8.613  0.1056  0.1913  1.8531
 6332SOL    HW230459   0.260   0.112   8.538  0.2675  0.7623 -0.6781
 6333SOL     OW30460   4.375   3.472   7.018  0.2366 -0.5378  0.1774
 6333SOL    HW130461   4.384   3.567   7.013  0.1535 -0.5649 -0.4715
 6333SOL    HW230462   4.345   3.467   7.109 -1.0004 -1.6877 -0.2947
 6334SOL     OW30463   1.482   4.276   2.925 -0.3787 -0.2745  0.3275
 6334SOL    HW130464   1.461   4.237   2.840  0.9618 -0.5369  0.1099
 6334SOL    HW230465   1.578   4.279   2.933 -0.3491  3.7068 -1.1179
 6335SOL     OW30466   3.255   4.319   5.558  0.1604  0.4862 -0.2244
 6335SOL    HW130467   3.295   4.233   5.564  0.9197  0.8345 -0.4034
 6335SOL    HW230468   3.162   4.295   5.551  1.0256 -2.9537  0.0570
 6336SOL     OW30469   2.302   1.787  13.621  0.2548  0.1876  0.1158
 6336SOL    HW130470   2.320   1.831  13.704  0.8466  1.3056 -0.6017
 6336SOL    HW230471   2.232   1.845  13.591 -0.4610 -0.9325 -0.3611
 6337SOL     OW30472   3.453   4.036   4.063  0.3705 -0.2024  0.6018
 6337SOL    HW130473   3.466   3.963   4.123  2.0724 -1.8485 -1.7620
 6337SOL    HW230474   3.500   4.012   3.982 -2.2686 -0.3395 -0.8860
 6338SOL     OW30475   2.922   4.524   5.154  0.4448  0.1948 -0.3228
 6338SOL    HW130476   2.848   4.472   5.183 -0.9963  2.1054 -0.5713
 6338SOL    HW230477   2.969   4.547   5.234  0.9281 -0.1470 -0.5125
 6339SOL     OW30478   4.617   2.624   0.568 -0.0309 -0.2949 -0.5000
 6339SOL    HW130479   4.695   2.673   0.594  0.0296  0.1063 -1.4563
 6339SOL    HW230480   4.613   2.628   0.473 -0.3313  1.4219 -0.4041
 6340SOL     OW30481   1.924   4.187   3.388 -0.1271 -1.0485 -0.2300
 6340SOL    HW130482   1.966   4.272   3.374  3.0631 -2.4529  0.6957
 6340SOL    HW230483   1.867   4.204   3.462 -0.0438 -1.1982 -0.1309
 6341SOL     OW30484   4.359   2.964   6.234  0.3744 -0.3089 -0.0131
 6341SOL    HW130485   4.371   3.025   6.162 -0.5845  0.9672  0.9187
 6341SOL    HW230486   4.407   3.008   6.305 -1.7019  0.0244  1.1753
 6342SOL     OW30487   4.199   2.691   2.913  0.4204 -0.0060  0.1616
 6342SOL    HW130488   4.226   2.765   2.967 -0.9545  0.0472  0.7792
 6342SOL    HW230489   4.284   2.648   2.906  0.4466 -0.0386  0.6505
 6343SOL     OW30490   4.152   2.099  11.529  0.0138 -0.5321 -0.4937
 6343SOL    HW130491   4.157   2.185  11.489  1.8249 -0.1667  0.5048
 6343SOL    HW230492   4.068   2.082  11.486 -0.7347  0.0285  0.7641
 6344SOL     OW30493   1.112   0.626  16.672  0.3315 -0.4638 -0.0464
 6344SOL    HW130494   1.129   0.537  16.641 -0.7540 -1.0313  1.0262
 6344SOL    HW230495   1.055   0.666  16.607  0.4111  0.6190  0.5474
 6345SOL     OW30496   2.255   1.489  13.186 -0.2786 -0.0214 -0.0361
 6345SOL    HW130497   2.251   1.583  13.168  0.7827  0.0103 -0.1531
 6345SOL    HW230498   2.164   1.462  13.197 -0.1386 -0.6252 -0.3313
 6346SOL     OW30499   1.439   2.166   7.946 -0.7396  0.4243 -0.5988
 6346SOL    HW130500   1.529   2.200   7.945 -0.4896 -0.2357 -0.0936
 6346SOL    HW230501   1.452   2.085   7.996 -1.2286  0.2402 -0.7738
 6347SOL     OW30502   1.483   1.719   9.781 -0.5108 -0.3989 -0.2828
 6347SOL    HW130503   1.433   1.768   9.715  0.4206  1.1882  0.1758
 6347SOL    HW230504   1.569   1.746   9.747  0.1822 -1.0503  0.9364
 6348SOL     OW30505   4.137   3.148   3.717  0.1011  0.3470 -0.1776
 6348SOL    HW130506   4.145   3.107   3.631 -2.5223 -0.1992 -0.1558
 6348SOL    HW230507   4.120   3.239   3.693  1.2842  0.1975 -1.5899
 6349SOL     OW30508   2.564   2.215  11.191  0.2465  0.8812  0.3069
 6349SOL    HW130509   2.496   2.169  11.142  1.6956 -1.5223  0.5130
 6349SOL    HW230510   2.587   2.143  11.250  0.7199  1.4085  0.7648
 6350SOL     OW30511   1.514   1.104  17.462  0.6596  0.6403 -0.0962
 6350SOL    HW130512   1.606   1.115  17.439  0.4629  0.6288 -0.8988
 6350SOL    HW230513   1.486   1.174  17.403 -3.0854 -1.4013 -0.7479
 6351SOL     OW30514   1.923   4.305  12.429 -0.6293  0.5150 -0.5032
 6351SOL    HW130515   1.900   4.305  12.522 -2.0276  0.5787 -0.8467
 6351SOL    HW230516   1.850   4.353  12.391 -0.8502 -0.7304 -1.6317
 6352SOL     OW30517   2.979   1.792   8.466 -0.2172 -0.1843  0.4529
 6352SOL    HW130518   2.884   1.795   8.454 -0.2657 -0.0958  0.8480
 6352SOL    HW230519   2.989   1.740   8.546 -0.1573 -0.2162  0.4240
 6353SOL     OW30520   1.713   4.681  10.626 -0.3817 -0.7065 -0.1072
 6353SOL    HW130521   1.751   0.037  10.587 -1.0391  1.2691  3.3223
 6353SOL    HW230522   1.682   4.637  10.547  1.7522  1.7028 -2.2984
 6354SOL     OW30523   1.561   3.690  12.388  0.6321  0.0985  0.0748
 6354SOL    HW130524   1.652   3.715  12.406  0.5418  0.4615  0.0217
 6354SOL    HW230525   1.534   3.664  12.476  2.4791  2.4138  1.3180
 6355SOL     OW30526   3.849   1.639   4.369  0.4650  0.4031  0.3582
 6355SOL    HW130527   3.937   1.612   4.343  1.0330  2.4050  0.1807
 6355SOL    HW230528   3.791   1.564   4.360 -0.4755  0.8964  2.2963
 6356SOL     OW30529   0.953   4.054   3.082  0.2777  0.0339 -0.1432
 6356SOL    HW130530   1.025   4.028   3.025  0.1359 -2.3624  0.7794
 6356SOL    HW230531   0.874   4.061   3.029  1.5367 -0.9021 -2.1186
 6357SOL     OW30532   3.274   1.451   6.066  1.0355 -0.1343  0.3100
 6357SOL    HW130533   3.270   1.545   6.047  0.9213  0.1931  1.9528
 6357SOL    HW230534   3.230   1.457   6.151 -0.6009  0.0943 -0.5555
 6358SOL     OW30535   0.293   2.800   0.901 -0.1554 -0.6909 -0.8070
 6358SOL    HW130536   0.282   2.865   0.970  0.4393 -0.6609 -0.7428
 6358SOL    HW230537   0.363   2.745   0.935 -0.2140  0.0960  0.5938
 6359SOL     OW30538   4.020   1.755   1.126  0.8365 -0.0282  0.0146
 6359SOL    HW130539   4.032   1.843   1.161  1.4030 -0.9068  2.0791
 6359SOL    HW230540   3.929   1.740   1.154  0.3653  2.1607 -0.3969
 6360SOL     OW30541   4.433   1.029   4.189 -0.5060  0.4490  0.3379
 6360SOL    HW130542   4.377   0.953   4.171 -1.8454  1.1211  1.6731
 6360SOL    HW230543   4.431   1.034   4.284  2.6155 -0.5327  0.4470
 6361SOL     OW30544   2.943   3.934  13.395  0.0178  0.3917 -0.3183
 6361SOL    HW130545   2.925   3.929  13.301 -0.1269  0.6084 -0.3025
 6361SOL    HW230546   2.936   4.028  13.412 -1.2074  0.0896  0.8922
 6362SOL     OW30547   2.049   0.665   6.810 -0.1171  0.2742  0.0573
 6362SOL    HW130548   2.110   0.708   6.750  1.2536 -0.5749  0.8560
 6362SOL    HW230549   1.986   0.617   6.756 -0.7347  1.1097  0.0263
 6363SOL     OW30550   3.456   2.566   3.484  0.0857  0.2923  0.5724
 6363SOL    HW130551   3.410   2.620   3.549  0.9562  0.3311  1.1513
 6363SOL    HW230552   3.391   2.580   3.415  0.1925  1.0579  0.6231
 6364SOL     OW30553   2.603   2.577   2.149 -0.3576 -0.0423  0.0111
 6364SOL    HW130554   2.554   2.590   2.068 -1.7368  1.5667  1.1001
 6364SOL    HW230555   2.636   2.662   2.178  1.5317 -0.6362 -0.4151
 6365SOL     OW30556   1.171   2.235   4.007 -0.1117 -0.1013 -0.1473
 6365SOL    HW130557   1.078   2.257   4.018 -0.0876  0.0694 -0.2908
 6365SOL    HW230558   1.193   2.222   4.099  1.5468  1.1697 -0.3752
 6366SOL     OW30559   3.730   1.500   3.098 -0.6976 -0.0305 -0.7896
 6366SOL    HW130560   3.683   1.515   3.016 -1.6461 -2.2629 -0.6466
 6366SOL    HW230561   3.751   1.591   3.119  0.8479 -0.1511 -1.7481
 6367SOL     OW30562   4.078   3.868  13.820  0.3470 -0.5459 -0.6668
 6367SOL    HW130563   4.099   3.948  13.771  1.4633 -0.2299  0.3052
 6367SOL    HW230564   4.146   3.861  13.887 -0.8043  0.6623  0.6129
 6368SOL     OW30565   0.867   4.095  10.180 -0.2056  0.2797 -0.3085
 6368SOL    HW130566   0.886   4.169  10.122 -2.0405  0.9653 -0.0613
 6368SOL    HW230567   0.880   4.148  10.259 -1.1505  0.2577 -0.1356
 6369SOL     OW30568   3.962   0.896   6.854  0.2412  0.0802  0.1739
 6369SOL    HW130569   3.917   0.977   6.832  2.8140  1.0543 -1.4589
 6369SOL    HW230570   3.983   0.905   6.947 -0.7146  0.9755  0.3049
 6370SOL     OW30571   3.284   0.109   9.588  0.2821 -0.2238 -0.1912
 6370SOL    HW130572   3.270   0.115   9.682 -0.7112  0.3672 -0.3831
 6370SOL    HW230573   3.347   0.036   9.589  2.0243  1.2700 -1.1255
 6371SOL     OW30574   1.731   2.122  15.759  0.1230  0.3950  0.0553
 6371SOL    HW130575   1.789   2.178  15.811  0.1086  2.8365 -2.5568
 6371SOL    HW230576   1.785   2.043  15.758  0.4558  0.6239 -0.5552
 6372SOL     OW30577   4.343   0.156   8.419  0.2260 -0.6533  0.0630
 6372SOL    HW130578   4.408   0.196   8.477 -1.3009 -0.4347  1.6265
 6372SOL    HW230579   4.397   0.080   8.397  0.5644 -0.5018  0.3784
 6373SOL     OW30580   3.408   1.843   2.552  0.0246 -0.7168  0.4976
 6373SOL    HW130581   3.416   1.881   2.639 -0.3416  0.7343 -0.1013
 6373SOL    HW230582   3.370   1.755   2.554  1.5840 -1.4740 -2.4874
 6374SOL     OW30583   4.281   1.746  12.003 -0.0217  0.2116 -0.8432
 6374SOL    HW130584   4.200   1.796  11.998  1.7395  3.1776  0.1370
 6374SOL    HW230585   4.264   1.687  12.077  0.1059  0.3206 -0.7264
 6375SOL     OW30586   0.704   0.930   5.121 -0.2947 -0.1928 -0.6035
 6375SOL    HW130587   0.764   0.905   5.050  0.5440 -1.6064  0.5755
 6375SOL    HW230588   0.674   0.849   5.164 -0.7381  1.9104  3.0115
 6376SOL     OW30589   0.942   2.449   0.388 -0.3003 -0.2262  0.3715
 6376SOL    HW130590   0.927   2.356   0.405 -1.5421 -0.0788  0.1000
 6376SOL    HW230591   0.878   2.487   0.448 -0.4416 -0.0889  0.1351
 6377SOL     OW30592   1.977   3.604   1.812 -0.2653  0.3978  0.1553
 6377SOL    HW130593   1.920   3.527   1.805  0.7925 -0.6580  3.3312
 6377SOL    HW230594   1.929   3.680   1.778  0.9605  1.4789  0.8230
 6378SOL     OW30595   4.702   0.484   5.773  0.5237  0.4511 -0.3704
 6378SOL    HW130596   4.681   0.547   5.705  1.2997  1.0189 -0.0791
 6378SOL    HW230597   4.630   0.507   5.831  1.0788  0.2322  0.4086
 6379SOL     OW30598   1.926   3.928  15.894 -0.4299  0.0268 -0.6550
 6379SOL    HW130599   1.876   3.974  15.961 -1.2980 -0.7697 -0.7579
 6379SOL    HW230600   1.964   4.005  15.851  0.0958 -0.4557 -1.0508
 6380SOL     OW30601   0.084   0.873   6.724 -0.3493 -0.2004  0.0082
 6380SOL    HW130602   0.169   0.853   6.685  0.1863  1.3808  0.3574
 6380SOL    HW230603   0.031   0.800   6.693 -0.1343  0.5836 -2.1733
 6381SOL     OW30604   3.053   3.377   0.422  0.0131  0.3144  0.0240
 6381SOL    HW130605   3.029   3.416   0.338 -1.0652 -0.2123  0.0825
 6381SOL    HW230606   3.087   3.293   0.394 -2.5682 -0.6784 -0.1688
 6382SOL     OW30607   3.251   1.827   7.206  1.2682 -0.4080 -0.2868
 6382SOL    HW130608   3.212   1.907   7.172 -3.9956 -1.3348  3.6049
 6382SOL    HW230609   3.183   1.763   7.185  1.3863  0.2132 -2.5676
 6383SOL     OW30610   1.010   4.448   7.128  0.0981 -0.1691 -0.6036
 6383SOL    HW130611   1.087   4.393   7.114  0.6206  0.3817  0.0962
 6383SOL    HW230612   0.969   4.410   7.206 -0.5484  0.6499 -0.5325
 6384SOL     OW30613   1.375   1.857   7.756  0.1650 -0.1133  0.3408
 6384SOL    HW130614   1.330   1.772   7.760 -2.3317  1.3616  3.5026
 6384SOL    HW230615   1.467   1.832   7.766  0.2781  0.4958  0.8007
 6385SOL     OW30616   2.589   3.454  11.612 -0.3746 -0.2830 -0.0167
 6385SOL    HW130617   2.610   3.467  11.704 -0.3648  0.8790 -0.1750
 6385SOL    HW230618   2.671   3.467  11.564  0.6807 -0.1569  1.8073
 6386SOL     OW30619   3.549   2.831   1.048  0.2288 -0.1286  0.2305
 6386SOL    HW130620   3.607   2.896   1.010 -0.4897 -1.2860 -2.8780
 6386SOL    HW230621   3.518   2.794   0.965  0.5382  1.8351 -0.7593
 6387SOL     OW30622   2.279   0.073   4.911  0.5085  0.3782 -0.6233
 6387SOL    HW130623   2.300   4.713   4.868 -0.5375 -0.9646  1.4293
 6387SOL    HW230624   2.199   0.055   4.961  1.3087  0.7064  0.7955
 6388SOL     OW30625   2.042   4.168  15.844  0.1261  0.3740 -0.4576
 6388SOL    HW130626   1.979   4.224  15.891  0.8096  2.4941 -2.0606
 6388SOL    HW230627   2.105   4.238  15.827 -1.1558  1.6216 -0.1536
 6389SOL     OW30628   0.093   1.667   5.602  0.1694 -0.1985 -0.0462
 6389SOL    HW130629   0.162   1.647   5.540  1.1640  0.1222  0.9572
 6389SOL    HW230630   0.044   1.586   5.615 -1.5998  1.1025  1.3288
 6390SOL     OW30631   3.146   2.674   7.389  0.4766  0.1159  0.3991
 6390SOL    HW130632   3.116   2.701   7.476  0.3541  0.7201  0.1637
 6390SOL    HW230633   3.192   2.599   7.428  1.3439  0.7119  0.5190
 6391SOL     OW30634   1.959   1.138   8.378  0.0233  0.1452  0.1359
 6391SOL    HW130635   1.951   1.137   8.473 -0.2966 -1.3512  0.0988
 6391SOL    HW230636   2.010   1.219   8.372  0.5067 -0.2568 -1.2471
 6392SOL     OW30637   1.520   3.088   5.744  0.0428  0.5709 -0.0972
 6392SOL    HW130638   1.493   2.999   5.766  0.7544  0.5364  0.6598
 6392SOL    HW230639   1.566   3.119   5.823 -3.2590 -0.0867  2.0928
 6393SOL     OW30640   3.399   2.533   4.238  0.0789  0.1056  0.4329
 6393SOL    HW130641   3.423   2.625   4.232 -0.0289  0.1921  1.3536
 6393SOL    HW230642   3.323   2.532   4.296 -0.4236 -0.1227 -0.2263
 6394SOL     OW30643   0.964   4.657  11.499 -0.4081 -0.2082 -0.7500
 6394SOL    HW130644   0.884   4.605  11.503  1.2992 -2.8700 -1.0406
 6394SOL    HW230645   1.021   4.582  11.479 -1.1188 -0.6918 -0.9598
 6395SOL     OW30646   3.472   3.986  14.055 -0.2660 -0.0419 -0.9517
 6395SOL    HW130647   3.561   4.022  14.064  0.6134 -2.3204 -0.6149
 6395SOL    HW230648   3.500   3.897  14.077 -0.4975 -0.7615 -3.6170
 6396SOL     OW30649   1.787   2.968  12.815  0.3219  0.4580 -0.3064
 6396SOL    HW130650   1.702   3.011  12.809  0.3010  0.5169  0.4719
 6396SOL    HW230651   1.836   3.046  12.843  0.9800  0.4633 -1.4576
 6397SOL     OW30652   3.893   2.831   3.458  0.2614  0.4001  0.1339
 6397SOL    HW130653   3.824   2.780   3.416 -0.2149  0.8363  0.3922
 6397SOL    HW230654   3.964   2.767   3.461  0.4489  0.6192  0.4706
 6398SOL     OW30655   2.165   1.374   6.376  0.2266  0.0292  0.4089
 6398SOL    HW130656   2.215   1.417   6.445  1.3356 -0.9581  0.2114
 6398SOL    HW230657   2.124   1.449   6.333  0.0377 -0.6699 -0.6387
 6399SOL     OW30658   2.901   2.101   4.532  0.2544 -0.3517 -0.2380
 6399SOL    HW130659   2.872   2.146   4.611 -1.3238 -0.6658 -0.6386
 6399SOL    HW230660   2.851   2.147   4.465  3.6119  2.0900 -1.0867
 6400SOL     OW30661   1.405   2.165  12.909 -0.2615  0.4571 -0.0916
 6400SOL    HW130662   1.330   2.193  12.961  1.1612  1.4721  1.4004
 6400SOL    HW230663   1.432   2.250  12.875  0.8962 -0.6780 -1.9901
 6401SOL     OW30664   3.378   4.511  15.088  0.0582 -0.3610 -0.3256
 6401SOL    HW130665   3.426   4.586  15.125 -2.0837  0.4845  0.7505
 6401SOL    HW230666   3.370   4.455  15.165 -1.0081  1.1302  0.6478
 6402SOL     OW30667   0.840   3.739  16.304  0.2101  0.6014  0.5049
 6402SOL    HW130668   0.903   3.801  16.341 -0.5243  1.4264  0.3896
 6402SOL    HW230669   0.897   3.680  16.255 -0.1553 -0.4971  1.4063
 6403SOL     OW30670   3.522   3.576  14.908  0.3554 -0.8036  0.0575
 6403SOL    HW130671   3.580   3.500  14.901 -0.0357 -1.0870 -0.0970
 6403SOL    HW230672   3.440   3.530  14.923 -0.7711  0.6066 -1.8006
 6404SOL     OW30673   3.894   2.863   3.970  0.2423 -0.2998 -0.1410
 6404SOL    HW130674   3.911   2.942   3.919  0.3021 -0.2666 -0.0716
 6404SOL    HW230675   3.799   2.867   3.981  0.2987 -0.0664  0.2826
 6405SOL     OW30676   3.239   2.894   9.933  0.1408  0.0846  0.4660
 6405SOL    HW130677   3.190   2.925  10.009  2.2289  1.0899  1.4018
 6405SOL    HW230678   3.242   2.799   9.946 -0.0027 -0.0895 -0.7760
 6406SOL     OW30679   0.376   4.020  10.139 -0.0691  0.1991 -0.3001
 6406SOL    HW130680   0.469   3.999  10.125 -0.0697 -0.5164  0.7387
 6406SOL    HW230681   0.349   4.038  10.049 -1.0754 -1.2547 -0.2869
 6407SOL     OW30682   0.714   4.446   4.494  0.2176  0.0181  0.1353
 6407SOL    HW130683   0.793   4.496   4.472  0.1547  0.7580  1.6239
 6407SOL    HW230684   0.639   4.500   4.469 -0.8898 -2.0835 -1.0289
 6408SOL     OW30685   0.024   0.303   6.688  0.4859  0.3386  0.5043
 6408SOL    HW130686   0.027   0.261   6.602 -1.2734 -1.0294  1.1322
 6408SOL    HW230687   4.653   0.302   6.703  0.2618  0.6337 -0.8185
 6409SOL     OW30688   3.686   2.877  17.671  0.3853 -0.2643  0.5586
 6409SOL    HW130689   3.662   2.803  17.617  0.2075  2.0257 -2.5157
 6409SOL    HW230690   3.616   2.863   0.041 -3.6592  1.9227 -3.4687
 6410SOL     OW30691   1.626   2.940   3.163 -0.3042  0.0897 -0.0696
 6410SOL    HW130692   1.709   2.952   3.116 -0.0561 -1.3678 -0.0179
 6410SOL    HW230693   1.641   2.862   3.217 -1.3438 -0.4212 -0.5068
 6411SOL     OW30694   3.736   3.250   8.170 -0.1082 -0.3914  0.4444
 6411SOL    HW130695   3.663   3.311   8.164 -0.1396 -0.5069 -0.4281
 6411SOL    HW230696   3.693   3.167   8.192 -0.3918  0.0112  1.3770
 6412SOL     OW30697   3.324   3.327   4.987 -0.1149  0.2096 -0.1379
 6412SOL    HW130698   3.419   3.336   4.998 -0.1104 -0.9487  0.8803
 6412SOL    HW230699   3.301   3.388   4.918 -1.0809  0.2809  0.2387
 6413SOL     OW30700   4.595   0.389   4.267 -0.1315 -0.2690 -0.2946
 6413SOL    HW130701   4.638   0.444   4.333 -0.6004 -0.7125  0.3746
 6413SOL    HW230702   4.593   0.304   4.311 -2.5593 -0.1867 -0.2391
 6414SOL     OW30703   4.163   1.541   1.226 -0.7114 -0.5030 -0.0603
 6414SOL    HW130704   4.109   1.609   1.186 -0.1483  0.0084  0.0480
 6414SOL    HW230705   4.116   1.517   1.306  1.3091 -0.5122  1.1372
 6415SOL     OW30706   4.038   1.928  10.403  0.4531 -0.4577  0.4734
 6415SOL    HW130707   4.097   1.900  10.333 -0.5244  1.0123 -0.9404
 6415SOL    HW230708   3.995   1.843  10.416  0.8814 -0.8605 -0.6893
 6416SOL     OW30709   0.467   1.918   6.358 -0.9799 -0.0364 -0.4084
 6416SOL    HW130710   0.402   1.959   6.300 -0.3609  1.0708 -0.3217
 6416SOL    HW230711   0.540   1.902   6.299  1.0100  2.6440  1.3222
 6417SOL     OW30712   1.055   2.573   5.517 -0.1861 -0.3114 -0.0283
 6417SOL    HW130713   0.975   2.538   5.556 -0.6460 -0.9712 -1.5794
 6417SOL    HW230714   1.057   2.663   5.549 -2.2585 -0.3564  0.2298
 6418SOL     OW30715   2.855   2.382   8.269 -0.0963  0.6751 -0.3913
 6418SOL    HW130716   2.830   2.334   8.348 -0.4149 -1.3453 -1.7061
 6418SOL    HW230717   2.841   2.310   8.207  0.4290 -0.0329  0.3212
 6419SOL     OW30718   0.522   3.372  10.104 -0.0460  0.3154  0.3832
 6419SOL    HW130719   0.445   3.374  10.162 -0.6677  0.0201 -0.4363
 6419SOL    HW230720   0.584   3.429  10.149  1.0024 -0.1444 -0.5030
 6420SOL     OW30721   0.460   2.977   5.717  0.1510 -0.0399 -0.0644
 6420SOL    HW130722   0.527   2.930   5.667  1.5107 -0.7976  2.4788
 6420SOL    HW230723   0.488   3.067   5.732  3.0918 -0.6035 -2.0579
 6421SOL     OW30724   3.405   3.470  17.087  0.5422  0.1823 -0.1616
 6421SOL    HW130725   3.317   3.496  17.060  0.4975  0.6870  0.4873
 6421SOL    HW230726   3.455   3.519  17.021  2.6526 -0.7441  0.7395
 6422SOL     OW30727   0.169   1.756   3.872  0.2020  0.7376  0.3132
 6422SOL    HW130728   0.100   1.809   3.910  0.3329  1.0672  0.0886
 6422SOL    HW230729   0.197   1.804   3.795  1.5129  0.9585  0.9144
 6423SOL     OW30730   0.423   0.794   5.083  0.3051  0.1260 -0.2049
 6423SOL    HW130731   0.496   0.734   5.067  1.7447  1.5456  0.8665
 6423SOL    HW230732   0.352   0.731   5.074  0.1490 -0.0780  2.4787
 6424SOL     OW30733   1.552   3.778   1.502 -0.0704  0.1356 -0.5616
 6424SOL    HW130734   1.464   3.811   1.518 -0.2750 -0.5750 -0.1940
 6424SOL    HW230735   1.597   3.861   1.484  1.8833 -0.9653 -0.8174
 6425SOL     OW30736   4.282   3.120   0.549  0.6530 -0.0188 -0.6322
 6425SOL    HW130737   4.326   3.035   0.547  3.1429  1.2604 -0.0062
 6425SOL    HW230738   4.319   3.166   0.624 -1.2453 -0.5503  0.6231
 6426SOL     OW30739   2.963   1.504   7.804  0.0445  0.4119 -0.2494
 6426SOL    HW130740   2.967   1.419   7.848 -1.1028  0.6940  0.4085
 6426SOL    HW230741   2.879   1.535   7.838  0.7669  0.3088  1.6571
 6427SOL     OW30742   3.456   2.947   2.843 -0.2421 -0.6061  0.0838
 6427SOL    HW130743   3.387   2.931   2.779  1.1487  1.2988 -1.8484
 6427SOL    HW230744   3.525   2.948   2.778  1.2591 -0.1532  1.6869
 6428SOL     OW30745   4.420   1.947   5.128 -0.6255  0.1764 -0.2308
 6428SOL    HW130746   4.506   1.983   5.107 -1.0344  0.5171 -1.3725
 6428SOL    HW230747   4.368   2.028   5.126 -1.2996 -0.2537 -0.0459
 6429SOL     OW30748   1.602   0.633   5.528 -0.4084 -0.3410  0.1105
 6429SOL    HW130749   1.645   0.556   5.566  0.8040  0.5676  0.5783
 6429SOL    HW230750   1.606   0.615   5.434  1.0559  0.4521  0.0219
 6430SOL     OW30751   0.543   1.973   8.820  0.0096 -0.6820  0.1836
 6430SOL    HW130752   0.571   2.031   8.749  0.2306  1.4541  2.0091
 6430SOL    HW230753   0.461   2.017   8.844  0.0005  0.0410 -1.1290
 6431SOL     OW30754   1.554   3.896   0.614 -0.3715  0.0271  0.8904
 6431SOL    HW130755   1.475   3.877   0.563  0.0224  0.1230  0.2415
 6431SOL    HW230756   1.576   3.967   0.554 -1.3219 -1.7166 -1.4946
 6432SOL     OW30757   0.156   1.148  12.914 -0.3025  0.4032  0.0051
 6432SOL    HW130758   0.181   1.238  12.894 -0.8446  0.6116  0.2578
 6432SOL    HW230759   0.064   1.161  12.890 -0.8310 -0.5937  1.5165
 6433SOL     OW30760   3.551   2.035   9.190 -0.4945  0.2856  0.4308
 6433SOL    HW130761   3.490   2.107   9.211 -0.5838  1.0652 -2.5335
 6433SOL    HW230762   3.619   2.038   9.257  2.0313  2.3825 -2.2221
 6434SOL     OW30763   0.797   1.859   4.476 -0.1315  0.2917  0.2650
 6434SOL    HW130764   0.733   1.834   4.410 -0.2830 -1.7758  1.2045
 6434SOL    HW230765   0.867   1.885   4.416  0.5687  0.7675  1.2853
 6435SOL     OW30766   2.478   2.234   7.216  0.0052  0.3850 -0.0556
 6435SOL    HW130767   2.482   2.187   7.132 -0.7786  1.8378 -0.9156
 6435SOL    HW230768   2.386   2.220   7.236  0.7250 -1.4453  1.9134
 6436SOL     OW30769   2.073   4.470   5.905  0.0185 -0.1624 -0.1055
 6436SOL    HW130770   1.989   4.447   5.946 -0.7371  0.0061 -1.5543
 6436SOL    HW230771   2.046   4.524   5.831 -1.7294  0.0647  0.6932
 6437SOL     OW30772   1.430   4.028   5.824 -0.2395  0.3919  0.3469
 6437SOL    HW130773   1.484   3.958   5.859 -0.4216  0.9539  1.7840
 6437SOL    HW230774   1.394   3.977   5.752  2.4901  1.6242 -1.8883
 6438SOL     OW30775   4.045   2.957  12.494 -0.0334 -0.0866  0.0056
 6438SOL    HW130776   4.113   2.914  12.443  0.8988  3.1811 -1.4987
 6438SOL    HW230777   4.052   3.048  12.464 -1.0336 -0.4903 -1.4405
 6439SOL     OW30778   0.891   0.640  12.961  0.1726 -0.1909  0.1616
 6439SOL    HW130779   0.986   0.646  12.953  0.0777 -0.3646 -1.0223
 6439SOL    HW230780   0.869   0.644  12.868 -0.0157  0.3264  0.2300
 6440SOL     OW30781   0.269   2.583  17.093  0.0099  0.1940 -0.4273
 6440SOL    HW130782   0.267   2.595  17.188 -3.2828  2.4057 -0.7804
 6440SOL    HW230783   0.178   2.557  17.076 -0.0215  0.6010 -0.8893
 6441SOL     OW30784   3.667   3.520   5.594 -0.1638 -0.1436 -0.4553
 6441SOL    HW130785   3.624   3.592   5.547 -3.0048 -1.9676 -0.6567
 6441SOL    HW230786   3.612   3.453   5.554  0.1390 -0.4142 -0.4189
 6442SOL     OW30787   0.902   1.972   7.662 -0.0749 -0.1318  0.2640
 6442SOL    HW130788   0.844   1.900   7.688 -1.9543  0.9796 -0.8759
 6442SOL    HW230789   0.934   1.945   7.576  0.9463  5.2044 -1.0526
 6443SOL     OW30790   3.709   0.829   1.539  0.2181 -0.0945  0.2625
 6443SOL    HW130791   3.629   0.778   1.541  0.2696 -0.0973  2.6812
 6443SOL    HW230792   3.738   0.811   1.629  0.2223  2.0738  0.7075
 6444SOL     OW30793   3.371   3.909   8.745  0.0509 -0.2138  0.3835
 6444SOL    HW130794   3.330   3.968   8.681 -1.1766  0.6346  1.9617
 6444SOL    HW230795   3.329   3.944   8.823  2.7635  2.8339  0.5123
 6445SOL     OW30796   0.586   4.344   7.536  0.1254  0.2322 -0.5014
 6445SOL    HW130797   0.579   4.384   7.623  1.6021 -1.4307  0.3840
 6445SOL    HW230798   0.543   4.405   7.477  1.3963 -0.9983 -2.7244
 6446SOL     OW30799   3.172   2.795   1.904 -0.3421 -0.2226  0.1361
 6446SOL    HW130800   3.126   2.746   1.836 -1.6435 -0.1753  0.9818
 6446SOL    HW230801   3.135   2.883   1.903 -0.1966 -0.1861 -1.3497
 6447SOL     OW30802   3.744   1.608   6.129  0.2195  0.1805  0.2476
 6447SOL    HW130803   3.713   1.571   6.046  0.0658 -0.9452  0.8012
 6447SOL    HW230804   3.707   1.695   6.114 -1.4009 -0.5255  0.0962
 6448SOL     OW30805   2.672   1.473   3.577  0.8753  0.4406  0.2549
 6448SOL    HW130806   2.660   1.428   3.660  0.9658 -1.2496 -0.6510
 6448SOL    HW230807   2.603   1.539   3.574 -1.5336 -2.1045  0.0264
 6449SOL     OW30808   1.504   2.783   7.447  0.6343 -0.3369  0.6608
 6449SOL    HW130809   1.434   2.751   7.505 -0.9079  0.9430 -0.4968
 6449SOL    HW230810   1.457   2.785   7.364  0.0282 -1.5930  0.9732
 6450SOL     OW30811   0.700   1.538  11.117  0.0958 -0.0121  0.5530
 6450SOL    HW130812   0.674   1.557  11.207 -3.8704 -0.2202 -0.5620
 6450SOL    HW230813   0.720   1.627  11.087  1.7096  0.4437  2.9228
 6451SOL     OW30814   4.349   1.226  13.480 -0.3092 -0.4823  0.0800
 6451SOL    HW130815   4.292   1.202  13.407  0.5588  0.4700 -0.8970
 6451SOL    HW230816   4.433   1.235  13.436 -0.3251 -1.7933 -0.2246
 6452SOL     OW30817   2.001   1.200   9.050 -0.3888 -0.2716  0.3737
 6452SOL    HW130818   1.997   1.206   9.146 -0.7463  1.4026  0.2541
 6452SOL    HW230819   2.060   1.128   9.030 -1.0980 -0.3719 -1.3992
 6453SOL     OW30820   1.500   1.198  11.910  0.1442 -0.2549  0.0736
 6453SOL    HW130821   1.416   1.208  11.865  0.1585 -0.3955  0.0136
 6453SOL    HW230822   1.499   1.109  11.945  1.0447  0.5112  2.0206
 6454SOL     OW30823   3.164   1.615   7.661  0.0039  0.2133  0.1231
 6454SOL    HW130824   3.241   1.606   7.717  0.4674  0.5114 -0.4814
 6454SOL    HW230825   3.096   1.579   7.720  1.2259 -1.1592  0.6985
 6455SOL     OW30826   3.256   4.110   8.334 -0.3456  0.0885 -0.2489
 6455SOL    HW130827   3.242   4.112   8.429 -0.7800 -1.6165 -0.2924
 6455SOL    HW230828   3.352   4.103   8.335 -0.3488 -0.1404 -1.8871
 6456SOL     OW30829   3.450   0.549  12.930 -0.1743  0.4822 -0.0370
 6456SOL    HW130830   3.420   0.530  12.841 -0.0340 -1.6369  0.3648
 6456SOL    HW230831   3.532   0.501  12.923  0.4436  1.2563  1.9813
 6457SOL     OW30832   1.168   3.612  15.698 -0.3231  0.1075  0.0405
 6457SOL    HW130833   1.095   3.650  15.648  0.1277 -2.1377 -2.3008
 6457SOL    HW230834   1.249   3.649  15.663  0.9751 -1.6910  1.1509
 6458SOL     OW30835   0.054   0.339  11.905  0.4856 -0.6441  0.1921
 6458SOL    HW130836   0.112   0.266  11.883  2.4514  0.0180  3.2384
 6458SOL    HW230837   4.712   0.306  11.968  1.0893 -2.0178  0.0903
 6459SOL     OW30838   0.055   4.410   2.445 -0.1138 -0.4103  0.0815
 6459SOL    HW130839   0.024   4.329   2.404 -1.2980  0.1362 -0.0975
 6459SOL    HW230840   0.046   4.400   2.540 -1.3753 -1.0558 -0.1036
 6460SOL     OW30841   2.871   2.375   9.519  1.0345  0.4953 -0.5376
 6460SOL    HW130842   2.916   2.291   9.529  2.5781  1.4881  0.8189
 6460SOL    HW230843   2.860   2.391   9.612  0.3460  1.9361 -0.8727
 6461SOL     OW30844   4.361   0.275   8.749  0.0665 -0.3851 -0.3385
 6461SOL    HW130845   4.446   0.317   8.764 -0.5367 -0.0821  2.2023
 6461SOL    HW230846   4.311   0.354   8.726  0.3727  0.5176  2.0594
 6462SOL     OW30847   4.322   3.378   7.879 -0.0353  0.4639 -0.5139
 6462SOL    HW130848   4.377   3.381   7.801 -0.4675 -0.3303 -0.8478
 6462SOL    HW230849   4.290   3.469   7.874 -1.4909  0.0881  2.1808
 6463SOL     OW30850   2.981   3.343  10.074  0.3427  0.6832  0.8280
 6463SOL    HW130851   3.006   3.267  10.126 -0.5655 -0.4875 -0.4313
 6463SOL    HW230852   3.053   3.342  10.010  0.2428 -0.0872  0.7281
 6464SOL     OW30853   0.754   2.272   3.040  0.3082  0.3812 -0.1847
 6464SOL    HW130854   0.778   2.182   3.062  0.3717  0.6106  0.6673
 6464SOL    HW230855   0.816   2.309   2.977  0.8278 -1.4782 -0.7785
 6465SOL     OW30856   2.498   4.284   8.468 -0.0425  0.2998 -0.4282
 6465SOL    HW130857   2.424   4.233   8.503  0.7486 -1.1371 -0.8244
 6465SOL    HW230858   2.570   4.220   8.466 -0.1828  0.1692 -1.9248
 6466SOL     OW30859   3.713   4.639   7.450 -0.3529 -0.3528 -0.5581
 6466SOL    HW130860   3.689   4.713   7.394 -3.1129  0.4935  1.7672
 6466SOL    HW230861   3.772   4.590   7.393  0.5680 -0.0772  0.1630
 6467SOL     OW30862   0.929   1.142   1.717 -0.3456  0.2481 -0.1723
 6467SOL    HW130863   0.895   1.061   1.753 -1.8341  0.6493 -0.6696
 6467SOL    HW230864   1.022   1.121   1.707 -0.1921 -0.0580  2.1046
 6468SOL     OW30865   2.371   2.034   1.711  0.2357  0.5812  0.1712
 6468SOL    HW130866   2.350   2.126   1.692 -1.7643  0.2847  1.0146
 6468SOL    HW230867   2.334   1.991   1.634 -2.1269  3.0151 -0.0616
 6469SOL     OW30868   0.987   3.874   5.494 -0.4273 -0.0250 -0.0295
 6469SOL    HW130869   1.031   3.942   5.544  0.3044 -1.4675  1.2852
 6469SOL    HW230870   0.900   3.884   5.535 -0.1229 -1.6600  1.0350
 6470SOL     OW30871   3.022   0.312   6.995 -0.1968  0.0913 -0.3302
 6470SOL    HW130872   3.110   0.275   7.004 -0.8835 -1.0092  1.7461
 6470SOL    HW230873   3.040   0.398   6.957  0.8925 -0.2484 -0.5943
 6471SOL     OW30874   4.454   2.451   4.828 -0.4632 -0.0742  0.1857
 6471SOL    HW130875   4.459   2.527   4.886  1.0219 -0.1618  0.1857
 6471SOL    HW230876   4.462   2.491   4.741  0.9115 -0.2299  0.2404
 6472SOL     OW30877   3.392   1.021   5.257  0.9778  0.4702  0.6742
 6472SOL    HW130878   3.383   0.964   5.181  1.6415 -0.2520  1.1327
 6472SOL    HW230879   3.329   1.090   5.238  0.2582 -0.5036 -0.4183
 6473SOL     OW30880   1.641   0.625   8.362  0.3251 -0.0681 -0.2904
 6473SOL    HW130881   1.708   0.567   8.398  1.1124  0.0873 -1.5002
 6473SOL    HW230882   1.562   0.583   8.397 -1.4614  0.0288 -4.2552
 6474SOL     OW30883   3.933   0.294   8.652  0.0396 -0.8582  0.3010
 6474SOL    HW130884   3.976   0.210   8.640 -0.8857 -1.2089 -0.6070
 6474SOL    HW230885   3.934   0.298   8.747 -0.1767 -1.2829  0.3228
 6475SOL     OW30886   1.733   1.742   5.720  0.2033 -0.1646  0.3756
 6475SOL    HW130887   1.805   1.714   5.665  1.3516  0.9874  1.2938
 6475SOL    HW230888   1.726   1.665   5.776  2.0286 -1.5875 -1.3644
 6476SOL     OW30889   0.886   0.892   2.121 -0.5188  0.4170 -0.1620
 6476SOL    HW130890   0.885   0.869   2.028  1.1462 -1.1578  0.2241
 6476SOL    HW230891   0.808   0.839   2.140  0.6186 -1.1661  0.1223
 6477SOL     OW30892   3.188   3.605  16.962  0.0726 -0.0069  1.2477
 6477SOL    HW130893   3.101   3.566  16.955  0.5260 -0.2998 -2.6516
 6477SOL    HW230894   3.159   3.673  17.023 -0.8026 -0.3665  1.2189
 6478SOL     OW30895   2.924   4.522   8.351  0.5089 -0.3421  0.2589
 6478SOL    HW130896   2.942   4.607   8.312 -1.2473 -0.6475 -1.1931
 6478SOL    HW230897   2.856   4.549   8.412  1.6129  0.8755  0.9536
 6479SOL     OW30898   3.701   2.989   5.321  0.2654 -0.2544  0.2173
 6479SOL    HW130899   3.652   2.908   5.310 -0.1506 -0.0462  0.5123
 6479SOL    HW230900   3.750   2.967   5.401 -2.9312 -1.4365  1.8668
 6480SOL     OW30901   3.400   2.818  12.049  0.7618  0.7895 -0.8195
 6480SOL    HW130902   3.373   2.825  12.141  3.0896  2.1803 -0.2238
 6480SOL    HW230903   3.326   2.858  12.003 -0.3675 -1.8061 -1.2716
 6481SOL     OW30904   3.168   4.337   7.367 -0.0846 -0.1868 -0.0239
 6481SOL    HW130905   3.145   4.266   7.428  1.8626 -1.5659 -0.9075
 6481SOL    HW230906   3.106   4.320   7.296  0.1155 -2.7216  0.4098
 6482SOL     OW30907   4.659   1.172   1.984  0.3425  0.3543  0.6808
 6482SOL    HW130908   4.611   1.093   1.960 -1.2299  1.7322 -0.7224
 6482SOL    HW230909   4.697   1.206   1.903 -0.0449  0.3480  0.4962
 6483SOL     OW30910   2.496   4.311   6.313 -0.3941 -0.1120  0.6063
 6483SOL    HW130911   2.508   4.368   6.237 -2.8562  0.3270  0.5455
 6483SOL    HW230912   2.550   4.357   6.379  0.1000  1.7780 -1.0994
 6484SOL     OW30913   2.619   2.062   9.173  0.7142  0.0342  0.4739
 6484SOL    HW130914   2.683   1.997   9.147 -0.0231 -0.4489 -0.1393
 6484SOL    HW230915   2.592   2.039   9.262 -4.3313  1.4960 -0.6316
 6485SOL     OW30916   2.623   1.914   2.343 -0.2518  0.1779  0.2992
 6485SOL    HW130917   2.536   1.943   2.315 -0.3511 -0.8623 -0.4526
 6485SOL    HW230918   2.636   1.850   2.274 -1.4306 -0.2993  0.5134
 6486SOL     OW30919   4.421   1.645  15.130  0.3583 -0.2817  0.6878
 6486SOL    HW130920   4.401   1.736  15.152  1.4602  0.6397 -2.2060
 6486SOL    HW230921   4.497   1.661  15.075  0.7307 -1.3182  0.9022
 6487SOL     OW30922   3.822   4.598   3.614 -0.2327  0.9814 -0.4089
 6487SOL    HW130923   3.915   4.577   3.619 -0.6232 -0.8169 -0.8116
 6487SOL    HW230924   3.815   4.575   3.522  0.3093  0.6279 -0.3636
 6488SOL     OW30925   2.558   0.060   2.231 -0.3955 -0.0219  0.5393
 6488SOL    HW130926   2.573   0.061   2.325 -0.3179  1.7056  0.5224
 6488SOL    HW230927   2.650   0.050   2.205 -0.6481  0.0772 -0.3925
 6489SOL     OW30928   3.997   0.858  16.298 -0.4017 -0.6356 -0.8917
 6489SOL    HW130929   4.051   0.827  16.370 -0.3820  0.4728 -0.4318
 6489SOL    HW230930   3.946   0.924  16.346  2.6281 -0.2614  1.7785
 6490SOL     OW30931   1.561   4.263  14.420 -0.1335  0.2284  0.1722
 6490SOL    HW130932   1.503   4.251  14.496  0.0620  2.7525  0.7071
 6490SOL    HW230933   1.638   4.211  14.443  0.7092  0.4829 -2.0692
 6491SOL     OW30934   3.236   2.359   1.987 -0.4646  0.3925  0.5035
 6491SOL    HW130935   3.304   2.389   1.926  0.6092 -0.7669  1.1494
 6491SOL    HW230936   3.286   2.336   2.065 -0.4877 -0.8150  0.1465
 6492SOL     OW30937   0.573   0.488   2.829  0.0809 -0.1926  0.3292
 6492SOL    HW130938   0.657   0.533   2.832 -1.3355  2.4362  0.7296
 6492SOL    HW230939   0.593   0.413   2.773  0.2243  0.1409 -0.0608
 6493SOL     OW30940   2.127   3.741   5.091 -0.3655  0.5316 -0.3332
 6493SOL    HW130941   2.182   3.819   5.090  3.0984 -1.8968 -0.3457
 6493SOL    HW230942   2.044   3.787   5.089 -0.6844 -0.0869 -1.9024
 6494SOL     OW30943   4.185   2.601  17.656  0.2009  0.6359  0.5034
 6494SOL    HW130944   4.163   2.686  17.616  0.3646 -0.7983 -2.6179
 6494SOL    HW230945   4.279   2.606  17.674  0.7595  0.6213 -2.3526
 6495SOL     OW30946   0.702   1.559  15.593 -0.6548 -0.2388 -0.8110
 6495SOL    HW130947   0.629   1.538  15.534 -1.1381 -3.7153  1.0306
 6495SOL    HW230948   0.765   1.491  15.569 -1.7653 -1.6539  0.2671
 6496SOL     OW30949   3.044   2.787   7.622 -0.3805  0.1705 -0.3919
 6496SOL    HW130950   3.036   2.883   7.619 -0.6938  0.1196 -1.1700
 6496SOL    HW230951   3.004   2.761   7.705  0.0267 -1.6170 -0.7688
 6497SOL     OW30952   0.337   3.716   7.271  0.2305  0.2183 -0.7768
 6497SOL    HW130953   0.392   3.696   7.195 -1.8995 -3.8270 -1.2518
 6497SOL    HW230954   0.258   3.751   7.231  0.1707  0.8003 -0.1497
 6498SOL     OW30955   0.534   2.671   3.416 -0.3659 -0.1329 -0.7983
 6498SOL    HW130956   0.500   2.593   3.373  0.0219 -2.4146  3.0325
 6498SOL    HW230957   0.477   2.743   3.391 -0.0462  0.3435 -0.1673
 6499SOL     OW30958   3.870   3.310  16.482  0.0069 -0.4019  0.1543
 6499SOL    HW130959   3.800   3.363  16.519  0.9625  0.3203  0.9302
 6499SOL    HW230960   3.842   3.304  16.391  0.3450 -0.8701  0.0792
 6500SOL     OW30961   0.675   4.006   9.716 -0.4355 -0.3254 -0.0667
 6500SOL    HW130962   0.588   3.980   9.684 -0.2843  0.5268 -1.1976
 6500SOL    HW230963   0.674   3.953   9.796 -0.9338 -0.5210 -0.2028
 6501SOL     OW30964   3.036   2.236   3.142 -0.2122 -0.0450  0.7429
 6501SOL    HW130965   2.965   2.238   3.207 -0.6826 -3.1806  0.3206
 6501SOL    HW230966   3.009   2.301   3.078  0.5523  0.5416  1.0108
 6502SOL     OW30967   1.098   2.650   6.717 -0.0389  0.5130  0.1090
 6502SOL    HW130968   1.067   2.664   6.806  2.3340  1.9578  0.7168
 6502SOL    HW230969   1.118   2.556   6.718 -1.4475  0.2112 -0.8720
 6503SOL     OW30970   1.359   4.620   7.050  0.2565  0.1726  0.1052
 6503SOL    HW130971   1.338   4.690   6.988 -0.2671 -0.0256  0.0608
 6503SOL    HW230972   1.304   4.651   7.123 -1.3585 -0.7124 -0.7413
 6504SOL     OW30973   4.488   3.678   3.089  0.2342 -0.1886  0.6568
 6504SOL    HW130974   4.511   3.665   2.997 -0.5832 -1.1994  0.5978
 6504SOL    HW230975   4.435   3.758   3.085  2.3243  1.1383 -0.4506
 6505SOL     OW30976   4.510   0.488   1.096  0.6437  0.2478 -0.5737
 6505SOL    HW130977   4.516   0.399   1.132  0.4199 -0.6908 -2.8787
 6505SOL    HW230978   4.421   0.478   1.061  1.0055  0.8065 -1.6226
 6506SOL     OW30979   4.378   4.702   5.759 -0.5984  0.3429  0.0812
 6506SOL    HW130980   4.427   0.050   5.719 -1.2866  0.4948 -0.4975
 6506SOL    HW230981   4.433   4.628   5.732 -0.7881  0.5976 -0.9988
 6507SOL     OW30982   2.627   0.742   4.009 -0.1994 -0.0829 -0.0034
 6507SOL    HW130983   2.663   0.729   3.921 -1.2999 -1.4551 -0.2515
 6507SOL    HW230984   2.572   0.665   4.021  1.1060 -0.8734  0.8297
 6508SOL     OW30985   1.646   2.953  11.672  0.5284 -0.5439 -0.7805
 6508SOL    HW130986   1.592   3.001  11.609  0.5608 -0.6472 -0.8878
 6508SOL    HW230987   1.590   2.980  11.745 -0.7873 -0.8515 -1.6602
 6509SOL     OW30988   3.192   1.640   0.759  0.5966 -0.5238 -0.0100
 6509SOL    HW130989   3.142   1.560   0.775 -0.3830  0.0571 -0.1803
 6509SOL    HW230990   3.124   1.707   0.751 -0.4730 -1.6452 -0.2565
 6510SOL     OW30991   3.391   1.447   5.025  0.1222  0.1615 -0.2976
 6510SOL    HW130992   3.311   1.470   5.073  0.8893  2.1351  0.0344
 6510SOL    HW230993   3.423   1.536   5.007  0.6989  0.1209  0.5503
 6511SOL     OW30994   3.927   1.913   8.338 -0.0872  0.2710 -0.3990
 6511SOL    HW130995   3.941   1.871   8.253  0.6850 -1.0179  0.3571
 6511SOL    HW230996   3.856   1.859   8.372 -0.2039 -0.0024 -1.0781
 6512SOL     OW30997   2.775   2.746  17.300  0.1190 -0.2968 -0.9495
 6512SOL    HW130998   2.870   2.753  17.314  0.1739 -0.0552 -1.4567
 6512SOL    HW230999   2.775   2.765  17.207  2.4225 -0.9067 -1.0692
 6513SOL     OW31000   3.697   2.015   4.865  0.0641 -0.8285  0.2740
 6513SOL    HW131001   3.749   2.035   4.787 -1.0490  3.4577  0.6241
 6513SOL    HW231002   3.767   1.972   4.913  2.9988  1.2664 -2.1334
 6514SOL     OW31003   1.378   3.238   2.121 -0.1508 -0.8157 -0.0496
 6514SOL    HW131004   1.406   3.311   2.176 -1.5837 -1.4876  1.5453
 6514SOL    HW231005   1.306   3.277   2.071  2.3971  1.1647 -2.2013
 6515SOL     OW31006   3.759   3.260   5.258 -0.0446 -0.5213  0.5602
 6515SOL    HW131007   3.795   3.317   5.325 -1.5395  1.5636 -0.4295
 6515SOL    HW231008   3.773   3.171   5.290 -2.6986 -1.1032  0.1045
 6516SOL     OW31009   0.013   0.108   3.878  0.0840  0.5635 -0.4625
 6516SOL    HW131010   4.706   0.193   3.908 -0.0634  0.1845  0.4755
 6516SOL    HW231011   0.014   0.113   3.783 -1.4251 -3.0690 -0.6710
 6517SOL     OW31012   3.657   2.330   0.220 -0.2918 -0.0762 -0.7682
 6517SOL    HW131013   3.625   2.330   0.130  0.4574  0.5138 -1.0314
 6517SOL    HW231014   3.618   2.413   0.246 -1.9005 -1.2580  0.6449
 6518SOL     OW31015   2.423   2.931   1.628 -0.0180 -0.0586 -0.1066
 6518SOL    HW131016   2.517   2.920   1.637 -0.1493  2.1217  3.9060
 6518SOL    HW231017   2.416   3.021   1.597 -1.4391 -0.8850 -2.1880
 6519SOL     OW31018   1.824   1.371  13.627  0.0506  0.7017  0.4982
 6519SOL    HW131019   1.884   1.442  13.647  0.1430  0.2805  1.6854
 6519SOL    HW231020   1.741   1.416  13.608 -1.2911 -2.5085 -1.3026
 6520SOL     OW31021   4.037   0.480   6.450  0.3163  0.1076 -0.2937
 6520SOL    HW131022   3.988   0.411   6.496  1.3844 -0.9072 -0.6925
 6520SOL    HW231023   4.015   0.552   6.510 -0.3396 -0.5087  0.2130
 6521SOL     OW31024   2.921   2.438   4.582  0.1905 -0.6521 -0.4217
 6521SOL    HW131025   2.907   2.377   4.655 -0.5359 -1.1694 -1.0064
 6521SOL    HW231026   2.860   2.397   4.521  0.3993  0.5451 -1.4333
 6522SOL     OW31027   0.035   2.818   7.989  0.4205  0.6582  0.0646
 6522SOL    HW131028   0.015   2.816   7.895 -0.9246  2.2382  0.3331
 6522SOL    HW231029   0.029   2.728   8.021  2.5556  1.3616  2.4363
 6523SOL     OW31030   3.807   2.148   4.647  0.4957 -0.0951 -0.2259
 6523SOL    HW131031   3.777   2.213   4.584 -0.8514 -1.9029 -1.4639
 6523SOL    HW231032   3.884   2.110   4.605 -0.0477 -1.1533 -0.2731
 6524SOL     OW31033   1.890   0.511   5.395  1.0471 -0.3282 -0.2838
 6524SOL    HW131034   1.836   0.589   5.381  1.0391 -0.0177  1.4194
 6524SOL    HW231035   1.958   0.531   5.331  1.4849  0.1482  0.3283
 6525SOL     OW31036   4.272   3.449  15.455 -0.1799 -0.2830  0.2329
 6525SOL    HW131037   4.275   3.461  15.360  0.2808 -0.1274  0.2648
 6525SOL    HW231038   4.212   3.520  15.477  2.5305  2.1093  0.0527
 6526SOL     OW31039   3.280   4.411  13.933  0.2199 -0.3185  0.4324
 6526SOL    HW131040   3.287   4.349  13.861 -3.1129  1.5170 -1.4644
 6526SOL    HW231041   3.215   4.468  13.891  0.6458 -1.6520 -2.0371
 6527SOL     OW31042   0.015   1.987   2.420 -0.1487 -0.1729 -0.1378
 6527SOL    HW131043   0.007   1.921   2.351 -0.3717 -1.3017  0.9615
 6527SOL    HW231044   4.669   1.960   2.480  0.1185  0.9784  0.6931
 6528SOL     OW31045   3.723   2.622  11.427  0.0915  0.1591 -0.4231
 6528SOL    HW131046   3.808   2.579  11.419 -0.2469 -0.8369  1.3080
 6528SOL    HW231047   3.683   2.588  11.347  1.8134 -1.3821 -0.6151
 6529SOL     OW31048   2.636   3.332   2.045  0.6865  0.2044 -0.5476
 6529SOL    HW131049   2.596   3.295   1.966 -1.7505  0.2277  0.6674
 6529SOL    HW231050   2.635   3.425   2.024  1.4887 -0.4042 -3.3122
 6530SOL     OW31051   0.662   3.328   2.470  0.1123  0.0974 -0.7478
 6530SOL    HW131052   0.591   3.347   2.531  0.3584  1.0174 -0.7463
 6530SOL    HW231053   0.619   3.354   2.389 -0.9291 -0.0259 -0.2341
 6531SOL     OW31054   4.686   2.136  10.907 -0.1311  0.1741  0.1284
 6531SOL    HW131055   4.613   2.078  10.885  0.6392 -0.9214  0.4619
 6531SOL    HW231056   4.694   2.180  10.822 -0.1059  0.1569  0.1215
 6532SOL     OW31057   2.421   2.555   1.837 -0.0103  0.0710  0.2315
 6532SOL    HW131058   2.336   2.513   1.825  0.4146 -1.2061  1.6767
 6532SOL    HW231059   2.479   2.482   1.816  1.6236  1.3550  0.2342
 6533SOL     OW31060   0.733   4.011   3.265 -0.5565  0.3423  0.2757
 6533SOL    HW131061   0.799   4.050   3.208 -1.1211 -1.2572 -1.4659
 6533SOL    HW231062   0.766   3.922   3.278 -1.2900  0.0098 -0.1420
 6534SOL     OW31063   0.042   0.020   3.319 -0.1771 -0.3631  0.4888
 6534SOL    HW131064   0.002   0.107   3.311  0.8659  0.3144  2.7170
 6534SOL    HW231065   4.690   4.685   3.334 -1.8263  1.1538 -1.8370
 6535SOL     OW31066   2.583   0.325   8.938  0.1990 -0.7151 -0.4134
 6535SOL    HW131067   2.557   0.250   8.885  0.4754 -1.6265  0.7639
 6535SOL    HW231068   2.650   0.291   8.997  1.0996 -0.6820 -1.4095
 6536SOL     OW31069   4.258   1.872   7.750  0.1321  0.9949 -0.4694
 6536SOL    HW131070   4.186   1.927   7.782 -0.8507 -0.2831 -0.5016
 6536SOL    HW231071   4.267   1.897   7.658 -0.9255 -1.5449 -1.2656
 6537SOL     OW31072   4.092   4.498   8.777 -0.6214 -0.2673  0.1861
 6537SOL    HW131073   4.156   4.536   8.718  1.1398 -0.2684  2.0771
 6537SOL    HW231074   4.018   4.487   8.718 -0.4984  0.7901 -0.1619
 6538SOL     OW31075   4.634   3.742   8.564 -0.4746 -0.5610  0.8463
 6538SOL    HW131076   4.668   3.824   8.528 -1.2682  0.7396  3.0428
 6538SOL    HW231077   4.670   3.747   8.652  1.4582  0.3762 -0.0068
 6539SOL     OW31078   0.146   0.087   2.275 -0.4085 -0.6017 -0.5910
 6539SOL    HW131079   0.141   0.032   2.354 -0.5107 -2.5017 -1.9018
 6539SOL    HW231080   0.233   0.126   2.279 -0.4537 -0.4207 -1.5211
 6540SOL     OW31081   1.046   4.369   5.831  0.0519  0.0450 -0.0978
 6540SOL    HW131082   0.975   4.432   5.840  0.5187  0.5360  0.1261
 6540SOL    HW231083   0.998   4.288   5.851 -3.5624  1.8270 -1.5177
 6541SOL     OW31084   3.010   3.712   5.597  0.3395 -0.0100  0.3053
 6541SOL    HW131085   2.994   3.779   5.664  0.2992  0.5962 -0.3083
 6541SOL    HW231086   2.948   3.737   5.529  1.1638  0.2123 -0.3648
 6542SOL     OW31087   2.721   1.154   3.364  0.1599 -0.3751 -0.5254
 6542SOL    HW131088   2.728   1.186   3.274 -1.2017 -0.9731 -0.8452
 6542SOL    HW231089   2.688   1.066   3.347 -3.1470  0.4812  1.5177
 6543SOL     OW31090   3.374   3.914   1.099 -0.0946 -0.2858 -0.2183
 6543SOL    HW131091   3.339   3.826   1.107  0.2197 -0.2396  1.7955
 6543SOL    HW231092   3.418   3.929   1.183 -1.0911 -0.4950  0.3346
 6544SOL     OW31093   1.725   2.716   2.734 -0.1189  0.4915  0.5229
 6544SOL    HW131094   1.798   2.750   2.683 -0.5359 -0.3797 -0.6513
 6544SOL    HW231095   1.660   2.713   2.665  0.5234  1.8236 -0.1495
 6545SOL     OW31096   4.714   3.274   6.314  0.0658  0.0750  0.4839
 6545SOL    HW131097   0.050   3.225   6.256  0.2822  0.9477 -0.0206
 6545SOL    HW231098   0.052   3.340   6.347  0.4744 -0.3658  0.6278
 6546SOL     OW31099   2.703   2.718   6.062 -0.0783  0.5799 -0.0338
 6546SOL    HW131100   2.792   2.712   6.026 -0.0710  2.2479 -0.3020
 6546SOL    HW231101   2.712   2.642   6.119  0.8663 -0.2750 -1.3121
 6547SOL     OW31102   4.309   3.765  11.554  0.1182 -0.3491  0.1011
 6547SOL    HW131103   4.270   3.736  11.636 -1.1195  0.0006 -0.3755
 6547SOL    HW231104   4.328   3.857  11.570 -1.1509 -0.2517  0.9906
 6548SOL     OW31105   4.507   0.332   6.304 -0.2011  0.1753  0.1407
 6548SOL    HW131106   4.504   0.307   6.212  1.9360 -0.4112  0.2222
 6548SOL    HW231107   4.511   0.426   6.290  0.1651  0.4304  1.8933
 6549SOL     OW31108   2.075   2.571   3.041  0.5022 -0.2458 -0.2172
 6549SOL    HW131109   1.999   2.555   2.986  0.7898 -0.5403 -0.5298
 6549SOL    HW231110   2.145   2.538   2.985 -0.1085 -0.5888 -0.7685
 6550SOL     OW31111   0.077   0.789  12.118  0.5134 -0.0342 -0.3616
 6550SOL    HW131112   0.089   0.705  12.162 -0.4909 -0.0134 -0.0519
 6550SOL    HW231113   0.165   0.809  12.088  1.5037 -2.1936  1.1408
 6551SOL     OW31114   3.410   2.036   0.953  0.0951  0.3261 -0.2506
 6551SOL    HW131115   3.353   2.106   0.921  0.8419  0.8787 -0.3537
 6551SOL    HW231116   3.494   2.051   0.911 -0.5704  2.7023 -0.7077
 6552SOL     OW31117   0.538   0.735   2.658 -0.1185  0.2432  0.2773
 6552SOL    HW131118   0.546   0.692   2.572  0.1144  1.5603 -0.3617
 6552SOL    HW231119   0.517   0.658   2.710  2.0072  0.0406  0.8057
 6553SOL     OW31120   4.219   3.893  11.240  0.3953 -0.0840 -0.1852
 6553SOL    HW131121   4.226   3.924  11.330  0.6051  0.2466 -0.3152
 6553SOL    HW231122   4.125   3.883  11.226  1.1759 -2.3866 -3.7666
 6554SOL     OW31123   4.100   2.286  10.070 -0.0604  0.8076 -0.4548
 6554SOL    HW131124   4.008   2.262  10.087  0.0116  0.5201 -0.4743
 6554SOL    HW231125   4.090   2.381  10.067 -2.8015  0.5216 -0.8927
 6555SOL     OW31126   0.624   4.722   8.676 -0.4871 -0.3802  0.1559
 6555SOL    HW131127   0.711   0.009   8.638 -0.7880 -2.7664 -1.1659
 6555SOL    HW231128   0.637   0.029   8.766 -1.3165  0.9571 -0.1711
 6556SOL     OW31129   2.295   3.262   8.014  0.5069  0.4648 -0.6612
 6556SOL    HW131130   2.277   3.333   7.953 -0.5175  0.8512  0.0824
 6556SOL    HW231131   2.280   3.193   7.949 -1.9318  1.0239 -0.7085
 6557SOL     OW31132   2.564   4.494   9.527  0.4609  0.3786 -0.0242
 6557SOL    HW131133   2.481   4.536   9.548 -1.3635 -2.0968 -2.3443
 6557SOL    HW231134   2.622   4.507   9.602 -0.3735 -0.3546  0.7315
 6558SOL     OW31135   0.267   2.799   8.567 -0.3778 -0.5084 -0.1878
 6558SOL    HW131136   0.230   2.749   8.640 -0.6760  1.3455  0.9359
 6558SOL    HW231137   0.197   2.810   8.502 -0.1851 -0.6506 -0.4224
 6559SOL     OW31138   1.640   0.079  17.224 -0.7313  0.7841  0.2268
 6559SOL    HW131139   1.705   0.071  17.294 -2.4931 -3.3382  1.3713
 6559SOL    HW231140   1.640   4.711  17.194 -1.3827  0.8930 -0.1071
 6560SOL     OW31141   3.931   3.765   7.640  0.5607  0.5844  0.2793
 6560SOL    HW131142   3.880   3.821   7.581  0.1781 -0.4528 -0.3700
 6560SOL    HW231143   3.982   3.711   7.580 -0.7062  2.0321 -2.1350
 6561SOL     OW31144   0.224   0.928  12.788 -0.4043  0.1548  0.0882
 6561SOL    HW131145   0.204   1.003  12.845  1.7070  0.6538  0.1874
 6561SOL    HW231146   0.197   0.854  12.842  2.0104 -0.8564 -0.1238
 6562SOL     OW31147   1.448   4.164   3.787 -0.4994  0.0993  0.7245
 6562SOL    HW131148   1.510   4.238   3.787  1.1295 -1.2731 -0.1672
 6562SOL    HW231149   1.426   4.144   3.696  1.1720 -0.3065  0.4097
 6563SOL     OW31150   3.482   1.120   9.094  0.4214 -0.0935 -0.3407
 6563SOL    HW131151   3.387   1.122   9.110  0.6626 -0.7024  1.1338
 6563SOL    HW231152   3.509   1.197   9.143 -1.4759  0.4786 -0.1901
 6564SOL     OW31153   2.214   4.623  12.990  0.3372  0.4333 -0.1910
 6564SOL    HW131154   2.277   4.638  13.061  0.8301  1.8150 -0.9154
 6564SOL    HW231155   2.129   4.639  13.030 -1.3325 -3.3818 -2.1195
 6565SOL     OW31156   0.120   0.227   4.726  0.4320  0.0636  0.2053
 6565SOL    HW131157   0.132   0.137   4.755  1.6800 -0.5608 -2.2829
 6565SOL    HW231158   0.170   0.220   4.645 -0.3792  2.8020 -0.5440
 6566SOL     OW31159   3.069   4.499   7.703 -0.3058 -0.2356  0.5601
 6566SOL    HW131160   3.019   4.425   7.738 -1.1493 -0.7244 -1.6810
 6566SOL    HW231161   3.101   4.544   7.781 -1.1601  1.7466 -0.2119
 6567SOL     OW31162   3.075   2.690  15.107  0.1325 -0.0095  0.1335
 6567SOL    HW131163   3.070   2.594  15.110 -1.3154 -0.0028 -1.8121
 6567SOL    HW231164   3.002   2.718  15.161 -0.7705 -0.5351 -0.8165
 6568SOL     OW31165   3.860   2.640  17.461  0.3279 -0.1317 -0.1873
 6568SOL    HW131166   3.901   2.722  17.431  1.7806 -1.4912 -1.9299
 6568SOL    HW231167   3.875   2.647  17.556 -1.7887  0.5132  0.1047
 6569SOL     OW31168   2.148   2.174  16.019  0.2385  0.6014 -0.1391
 6569SOL    HW131169   2.204   2.177  16.096 -0.2623  1.7332  0.1836
 6569SOL    HW231170   2.205   2.226  15.963  0.6827 -0.9996 -1.1812
 6570SOL     OW31171   3.007   3.229  13.691  0.5755 -0.0224  0.2749
 6570SOL    HW131172   2.978   3.212  13.602 -1.3736 -2.5897  1.3923
 6570SOL    HW231173   3.102   3.217  13.688  0.3493 -1.8915  0.6142
 6571SOL     OW31174   4.385   4.092   6.234 -0.1435  0.1062  0.1971
 6571SOL    HW131175   4.292   4.072   6.247 -0.5009  1.0140 -0.9310
 6571SOL    HW231176   4.417   4.092   6.324 -0.3401 -0.1016  0.2678
 6572SOL     OW31177   2.717   1.299   3.132  0.1837  0.1407 -0.2142
 6572SOL    HW131178   2.761   1.274   3.051  0.3569  0.8379 -0.3382
 6572SOL    HW231179   2.635   1.336   3.100  0.2607 -0.3911 -1.0170
 6573SOL     OW31180   0.949   2.050  14.541  0.0007  0.0495  0.2678
 6573SOL    HW131181   0.873   1.996  14.563 -1.0078  1.3292 -0.0136
 6573SOL    HW231182   1.002   1.995  14.483 -0.9376 -0.0260 -0.5363
 6574SOL     OW31183   3.601   3.059  16.570  0.4571  0.0192 -0.5655
 6574SOL    HW131184   3.596   2.975  16.523 -0.9914 -0.1181 -0.1619
 6574SOL    HW231185   3.521   3.055  16.622  0.3169  1.3257 -0.6729
 6575SOL     OW31186   4.173   1.615   5.337 -0.2971 -0.5569 -0.0117
 6575SOL    HW131187   4.186   1.710   5.333  1.3474 -0.7565  0.6630
 6575SOL    HW231188   4.083   1.608   5.370 -0.0159 -2.4286  0.3551
 6576SOL     OW31189   3.256   0.603   9.342 -0.8336  0.7112 -0.2705
 6576SOL    HW131190   3.191   0.578   9.277 -1.4055  1.3714  0.0463
 6576SOL    HW231191   3.248   0.698   9.350  0.3341  0.7833  0.0730
 6577SOL     OW31192   3.826   2.924   3.077  0.0419  0.6525 -0.2406
 6577SOL    HW131193   3.826   2.839   3.033  0.8518  0.9308 -0.7786
 6577SOL    HW231194   3.917   2.937   3.103  1.4942 -0.9397 -4.6819
 6578SOL     OW31195   1.776   4.070   7.668 -0.5972 -0.5180 -0.0337
 6578SOL    HW131196   1.793   4.162   7.650  0.8157 -0.7968 -0.1237
 6578SOL    HW231197   1.789   4.039   7.578  1.4988 -1.5996  0.6347
 6579SOL     OW31198   2.803   4.202   9.723 -0.0356  0.2248  0.6657
 6579SOL    HW131199   2.870   4.137   9.745  0.7330  1.0379  0.7050
 6579SOL    HW231200   2.761   4.156   9.650 -1.5002  0.9001  1.0809
 6580SOL     OW31201   1.077   1.154  13.631 -0.0457  0.5219  0.0189
 6580SOL    HW131202   1.059   1.231  13.686  0.3037  0.2818  0.4720
 6580SOL    HW231203   1.015   1.168  13.559  1.0820  1.0087 -0.8697
 6581SOL     OW31204   3.262   0.409  13.914 -0.3706 -0.1400  0.0977
 6581SOL    HW131205   3.306   0.336  13.958 -0.4437 -1.8954 -2.6616
 6581SOL    HW231206   3.216   0.443  13.990 -0.4502  2.3724 -1.0712
 6582SOL     OW31207   3.427   0.383  15.066  0.7690  0.2206 -0.7022
 6582SOL    HW131208   3.349   0.377  15.121  1.3110  0.4837  0.0992
 6582SOL    HW231209   3.464   0.464  15.102 -2.9525  1.3342  0.5692
 6583SOL     OW31210   1.774   4.305   1.399  0.0101  0.1990  0.1429
 6583SOL    HW131211   1.760   4.295   1.493  3.2442 -2.8840  0.2872
 6583SOL    HW231212   1.695   4.269   1.358  0.0101  1.9349 -1.4145
 6584SOL     OW31213   4.040   1.646   6.132 -0.3201 -0.3071  0.2081
 6584SOL    HW131214   4.052   1.553   6.151  1.3908  0.0043  0.6895
 6584SOL    HW231215   3.946   1.654   6.115 -0.5525  0.7461  2.0587
 6585SOL     OW31216   1.521   1.674   3.747  0.2959 -0.5536 -0.2380
 6585SOL    HW131217   1.570   1.756   3.758  1.1144 -1.1372  0.5145
 6585SOL    HW231218   1.526   1.638   3.835  1.7501  1.9512  0.7251
 6586SOL     OW31219   4.109   2.102   5.123  0.0701 -0.0856  0.2451
 6586SOL    HW131220   4.036   2.130   5.178 -0.5937 -2.1425  0.4181
 6586SOL    HW231221   4.154   2.185   5.108 -0.1343  0.1103  0.7281
 6587SOL     OW31222   2.897   4.217  15.077  0.5720 -0.7462 -0.2903
 6587SOL    HW131223   2.861   4.133  15.049  2.1910 -0.3883 -3.4128
 6587SOL    HW231224   2.992   4.212  15.065  0.7389 -1.3335  1.2481
 6588SOL     OW31225   2.792   2.705   1.413  0.0490 -0.2597 -0.2646
 6588SOL    HW131226   2.753   2.645   1.350 -0.0245 -0.1953 -0.2809
 6588SOL    HW231227   2.866   2.741   1.364 -0.2169  0.0379 -0.4487
 6589SOL     OW31228   2.264   2.855  11.528 -0.4629  0.4222 -0.4936
 6589SOL    HW131229   2.215   2.773  11.517  0.5723 -0.1071 -1.1926
 6589SOL    HW231230   2.207   2.904  11.468  3.3895  1.2139 -3.5359
 6590SOL     OW31231   0.189   2.867   6.994  0.6699  0.4945  0.0937
 6590SOL    HW131232   0.239   2.788   7.016  1.7531  0.9898 -0.6000
 6590SOL    HW231233   0.111   2.825   6.957 -0.8223  3.6689 -0.3344
 6591SOL     OW31234   1.321   2.738   2.490 -0.5156  0.1110 -0.4179
 6591SOL    HW131235   1.308   2.815   2.435  1.5194 -0.0815 -1.1689
 6591SOL    HW231236   1.415   2.731   2.507  0.0809  1.4711 -3.2538
 6592SOL     OW31237   4.234   1.333   9.663  0.2018 -0.2204 -0.3740
 6592SOL    HW131238   4.160   1.357   9.719  0.1279 -2.9414  0.6646
 6592SOL    HW231239   4.273   1.419   9.645  1.4022 -0.5446  0.6763
 6593SOL     OW31240   3.319   1.547   5.538  0.1640  0.1679  0.1091
 6593SOL    HW131241   3.367   1.532   5.619 -0.7959  1.8523  0.9840
 6593SOL    HW231242   3.303   1.456   5.514 -1.0583  0.1420  1.0454
 6594SOL     OW31243   2.113   2.046   6.749  0.2080  0.2340 -0.4371
 6594SOL    HW131244   2.171   1.973   6.727  0.2764 -0.1272  0.9179
 6594SOL    HW231245   2.032   2.001   6.774  0.1797 -0.6765 -2.1585
 6595SOL     OW31246   4.138   1.173   4.928  0.4316  0.1438 -0.2547
 6595SOL    HW131247   4.132   1.082   4.899  1.4499 -0.0893  0.2721
 6595SOL    HW231248   4.154   1.167   5.023  0.4225  4.1592 -0.0095
 6596SOL     OW31249   4.206   1.247  11.369  0.4095 -0.1113  0.1781
 6596SOL    HW131250   4.180   1.182  11.305  1.8587  1.1945 -1.7288
 6596SOL    HW231251   4.205   1.326  11.316  0.4409 -0.4630 -0.3400
 6597SOL     OW31252   3.066   2.420   1.057 -0.2010  0.2592 -0.0440
 6597SOL    HW131253   3.026   2.451   1.138  1.4797  0.4309  0.7182
 6597SOL    HW231254   3.150   2.464   1.067 -1.4087  2.7481 -0.8702
 6598SOL     OW31255   3.533   3.844   0.713 -0.7610 -0.1784  0.5951
 6598SOL    HW131256   3.613   3.808   0.751  0.4681  1.7001 -0.2469
 6598SOL    HW231257   3.478   3.886   0.779 -0.7050 -0.5036  0.8494
 6599SOL     OW31258   1.487   0.154   3.105 -1.2164 -0.3898  0.1061
 6599SOL    HW131259   1.521   0.065   3.091 -1.3946 -0.4232 -0.1046
 6599SOL    HW231260   1.570   0.190   3.073 -1.0105 -0.2272  0.8014
 6600SOL     OW31261   3.503   2.037   9.712 -0.2876 -0.3708  0.2832
 6600SOL    HW131262   3.499   1.951   9.671 -0.5627  0.8776 -2.3271
 6600SOL    HW231263   3.459   2.037   9.797  1.8459 -1.4484  1.3934
 6601SOL     OW31264   0.997   2.663   8.221 -0.1969  0.1559 -0.1045
 6601SOL    HW131265   0.933   2.616   8.275  1.3751 -0.5415  1.1670
 6601SOL    HW231266   1.079   2.651   8.270  0.1614  0.8380 -0.5436
 6602SOL     OW31267   4.534   2.068   5.491  0.0838  0.5468  0.6838
 6602SOL    HW131268   4.449   2.089   5.454  0.8410 -1.3102 -2.1326
 6602SOL    HW231269   4.515   2.000   5.555 -0.9177 -1.7956 -2.1193
 6603SOL     OW31270   4.539   3.143   6.793 -0.4136 -0.7505 -0.0384
 6603SOL    HW131271   4.521   3.050   6.788  2.1188 -1.2272 -0.4740
 6603SOL    HW231272   4.537   3.165   6.886 -0.4704 -0.6530 -0.0623
 6604SOL     OW31273   3.518   0.858  10.572 -0.0511 -0.0184 -0.0058
 6604SOL    HW131274   3.529   0.778  10.520 -1.4408  0.3134 -0.8122
 6604SOL    HW231275   3.429   0.844  10.603  0.5656 -0.7559  1.3826
 6605SOL     OW31276   3.308   4.048   2.768  0.4030 -0.0198 -0.4617
 6605SOL    HW131277   3.367   4.043   2.693 -0.1367 -0.2209 -0.8662
 6605SOL    HW231278   3.296   4.143   2.774 -0.7979 -0.0845 -1.9836
 6606SOL     OW31279   1.185   3.274   8.265  0.8794  0.0930 -0.1083
 6606SOL    HW131280   1.123   3.206   8.240 -2.0849  2.1623  1.6267
 6606SOL    HW231281   1.247   3.280   8.192  2.2693 -1.2107  0.9623
 6607SOL     OW31282   1.547   1.406   6.430 -0.4590  0.0667  0.6438
 6607SOL    HW131283   1.572   1.336   6.369 -0.0496 -0.0870  0.9886
 6607SOL    HW231284   1.631   1.403   6.477 -0.8796 -1.4483  1.3003
 6608SOL     OW31285   2.106   1.903   1.496 -0.0176 -0.0613 -0.4030
 6608SOL    HW131286   2.187   1.932   1.453  1.0156 -0.8579  1.0093
 6608SOL    HW231287   2.048   1.978   1.506 -1.6717 -1.4906  0.7661
 6609SOL     OW31288   1.008   0.086  14.575  0.0296 -0.5889 -0.5868
 6609SOL    HW131289   1.054   0.087  14.658  0.3196  1.0819 -0.7669
 6609SOL    HW231290   0.962   0.169  14.591  0.0489 -1.1176  2.1120
 6610SOL     OW31291   0.368   4.511   5.183 -0.1598  0.0926 -0.3011
 6610SOL    HW131292   0.332   4.422   5.178  1.7670 -0.6171 -1.8068
 6610SOL    HW231293   0.389   4.532   5.092  0.6300 -0.1670 -0.1841
 6611SOL     OW31294   3.148   3.272   8.849  0.4542 -0.2766  0.5501
 6611SOL    HW131295   3.072   3.215   8.839 -0.5583  1.3213 -0.7026
 6611SOL    HW231296   3.101   3.355   8.855 -2.1469 -1.5368 -2.3575
 6612SOL     OW31297   1.127   2.763   0.135 -0.0379  0.3053 -0.3487
 6612SOL    HW131298   1.142   2.672   0.109 -4.7072 -0.8026  0.8800
 6612SOL    HW231299   1.133   2.747   0.229  1.0618 -1.3362 -0.6993
 6613SOL     OW31300   2.178   1.946   0.922  0.2875 -0.0614 -0.1122
 6613SOL    HW131301   2.172   2.039   0.945 -0.6381 -0.0892 -0.2566
 6613SOL    HW231302   2.090   1.910   0.916  0.2882 -0.6280  3.4599
 6614SOL     OW31303   4.544   0.931   3.626 -0.6530 -0.2256 -0.6289
 6614SOL    HW131304   4.499   1.013   3.609 -2.5161 -0.8759  1.1289
 6614SOL    HW231305   4.524   0.876   3.550 -2.8099 -0.7128  0.2867
 6615SOL     OW31306   4.685   2.970   3.382  0.0129  0.5182 -0.3575
 6615SOL    HW131307   4.596   3.004   3.372 -0.5949 -0.9595  0.0811
 6615SOL    HW231308   0.013   3.025   3.322  0.3839  0.2583 -0.2818
 6616SOL     OW31309   4.293   1.080   3.676  0.0471 -0.1060  0.3646
 6616SOL    HW131310   4.296   1.113   3.766  1.1793 -0.5422  0.4941
 6616SOL    HW231311   4.237   1.008   3.703 -1.9250  1.4696  0.4624
 6617SOL     OW31312   3.949   0.353   3.593  0.4628  0.2174 -0.2586
 6617SOL    HW131313   3.867   0.333   3.547  0.5080  1.2804 -0.8075
 6617SOL    HW231314   3.993   0.405   3.526  2.5791 -0.8096  0.3478
 6618SOL     OW31315   4.014   3.589   0.918 -0.2209  0.0656 -0.0752
 6618SOL    HW131316   4.005   3.671   0.967 -2.9863 -0.0560 -0.4047
 6618SOL    HW231317   3.949   3.542   0.970  1.2315 -0.2474  1.4403
 6619SOL     OW31318   0.118   4.713  17.191 -0.0205  0.2312  0.2897
 6619SOL    HW131319   0.082   0.077  17.207  0.1948  0.6015 -1.2151
 6619SOL    HW231320   0.049   4.667  17.238  0.3461 -3.2535 -2.5933
 6620SOL     OW31321   0.419   0.306   5.960  0.1241 -0.2381 -0.6209
 6620SOL    HW131322   0.400   0.224   6.006  1.4578 -0.3741 -0.3142
 6620SOL    HW231323   0.337   0.307   5.909  0.2184  2.3861 -0.7233
 6621SOL     OW31324   1.079   3.237  14.143 -0.1991  0.0146 -0.1590
 6621SOL    HW131325   1.060   3.213  14.234  0.3233 -0.7389 -0.2429
 6621SOL    HW231326   1.036   3.163  14.099 -1.4302  1.1031 -0.7654
 6622SOL     OW31327   1.729   4.098  11.499 -0.1588 -0.3491 -0.2123
 6622SOL    HW131328   1.821   4.076  11.516  0.2240  0.4438 -1.2154
 6622SOL    HW231329   1.701   4.101  11.590  0.4378 -1.3382  0.0045
 6623SOL     OW31330   3.110   0.441   3.960  0.2144 -0.1808  0.2610
 6623SOL    HW131331   3.020   0.408   3.956  0.5986 -0.9816 -1.9966
 6623SOL    HW231332   3.134   0.439   4.053  0.0762  0.6871  0.3101
 6624SOL     OW31333   2.323   2.754  11.787 -0.2604 -0.2102 -0.6906
 6624SOL    HW131334   2.384   2.704  11.842 -0.3134 -0.0029 -0.4396
 6624SOL    HW231335   2.389   2.775  11.721 -0.7407  1.2843 -0.6800
 6625SOL     OW31336   1.857   3.503   2.351 -0.3921 -0.0961 -0.1733
 6625SOL    HW131337   1.900   3.418   2.336 -0.6587 -0.2826  0.1242
 6625SOL    HW231338   1.847   3.518   2.445  1.2725  1.7635 -0.2894
 6626SOL     OW31339   3.268   2.035   7.927  0.0246 -0.1915  0.1816
 6626SOL    HW131340   3.295   1.952   7.886  1.2770 -0.1389  0.8975
 6626SOL    HW231341   3.332   2.034   7.998 -0.0939  1.2804  0.3005
 6627SOL     OW31342   1.785   4.444   5.661 -0.2176 -0.2627 -0.3340
 6627SOL    HW131343   1.799   4.532   5.626  2.5316 -0.6121 -0.0939
 6627SOL    HW231344   1.739   4.469   5.741 -0.5650 -1.0675 -0.2779
 6628SOL     OW31345   3.367   1.690  17.135 -0.2789  0.1671 -0.3995
 6628SOL    HW131346   3.331   1.778  17.144  0.1127  0.2146  0.6573
 6628SOL    HW231347   3.346   1.659  17.223 -0.6566  1.9656  0.1420
 6629SOL     OW31348   2.773   3.735   0.830  0.2540  0.4055 -0.1263
 6629SOL    HW131349   2.755   3.821   0.866  0.0754 -0.6731  2.3260
 6629SOL    HW231350   2.715   3.687   0.889  1.6673 -2.2329 -0.8707
 6630SOL     OW31351   3.961   0.195  17.175  0.0221 -0.4280 -0.2620
 6630SOL    HW131352   4.022   0.217  17.246  1.7980  0.0452 -1.9321
 6630SOL    HW231353   3.958   0.285  17.143  1.6224 -0.3343 -0.1643
 6631SOL     OW31354   4.641   2.943   1.131  0.2009  0.7855 -0.0689
 6631SOL    HW131355   4.610   2.978   1.048 -1.7417  1.0726  0.7891
 6631SOL    HW231356   4.564   2.915   1.180 -0.8071  3.7006 -0.0465
 6632SOL     OW31357   1.799   2.117   6.511  0.2126  0.1607 -0.1908
 6632SOL    HW131358   1.794   2.022   6.508  2.2596  0.0967 -1.7598
 6632SOL    HW231359   1.782   2.141   6.602  0.1781 -0.1352 -0.1193
 6633SOL     OW31360   2.990   2.705   7.146  0.3669 -0.5250 -0.2044
 6633SOL    HW131361   3.053   2.701   7.218 -0.9348  0.2158  0.9757
 6633SOL    HW231362   3.032   2.649   7.081 -0.4409 -1.1543 -0.1681
 6634SOL     OW31363   0.129   0.104   8.892 -0.4132 -0.1020 -0.1071
 6634SOL    HW131364   0.108   0.060   8.974  3.1754 -0.0308  0.8187
 6634SOL    HW231365   0.189   0.038   8.857 -0.2458 -0.8429  1.6227
 6635SOL     OW31366   1.143   0.389   3.394  0.1705 -0.4397  0.0331
 6635SOL    HW131367   1.140   0.481   3.369  2.3792 -0.7398 -1.3224
 6635SOL    HW231368   1.079   0.348   3.337  0.3661 -2.9979  1.6555
 6636SOL     OW31369   0.733   1.159   6.408 -0.0813  0.3298  0.4756
 6636SOL    HW131370   0.651   1.121   6.376  0.7325 -1.4315  0.4733
 6636SOL    HW231371   0.789   1.131   6.336 -0.7537  0.4704 -0.0985
 6637SOL     OW31372   4.155   3.736  11.800 -0.2676 -0.1335  0.0914
 6637SOL    HW131373   4.106   3.770  11.875 -1.0122  0.6870 -0.7608
 6637SOL    HW231374   4.078   3.719  11.745 -0.2663  0.4068 -0.0826
 6638SOL     OW31375   2.232   3.400   3.164 -0.0340 -0.2178 -0.2450
 6638SOL    HW131376   2.277   3.355   3.093  1.3268  0.8024 -0.0431
 6638SOL    HW231377   2.286   3.386   3.242 -2.0413  2.8361  1.6747
 6639SOL     OW31378   1.506   3.969   2.820 -0.3375 -0.3491  0.2386
 6639SOL    HW131379   1.435   3.913   2.853 -0.4842 -0.8998 -1.0062
 6639SOL    HW231380   1.442   4.032   2.787  0.2672  0.8462  1.3852
 6640SOL     OW31381   2.321   2.782  14.689 -0.3004 -0.2432  0.7867
 6640SOL    HW131382   2.372   2.772  14.770  1.7945  0.3606 -0.4662
 6640SOL    HW231383   2.276   2.864  14.711 -1.2213 -0.4010 -0.5483
 6641SOL     OW31384   1.268   4.689  11.703  0.0763  0.6534  0.7948
 6641SOL    HW131385   1.292   4.599  11.726 -1.1988  0.1538  0.1312
 6641SOL    HW231386   1.181   4.682  11.741  0.9640 -1.6819  2.4063
 6642SOL     OW31387   4.491   3.967  15.078  0.7562  0.4532 -0.3028
 6642SOL    HW131388   4.551   3.956  15.004  1.4577 -3.7496  0.8519
 6642SOL    HW231389   4.506   3.883  15.122 -1.5198 -2.0678 -4.2077
 6643SOL     OW31390   4.295   1.427  15.264  0.0288 -0.2221  0.3940
 6643SOL    HW131391   4.347   1.497  15.226  0.7555 -1.4705 -0.8808
 6643SOL    HW231392   4.253   1.472  15.337 -2.4745 -2.1312  0.1448
 6644SOL     OW31393   3.423   4.707   3.357  0.1808  0.3320 -0.2404
 6644SOL    HW131394   3.409   4.627   3.307  1.7553  0.5455 -1.0293
 6644SOL    HW231395   3.384   4.690   3.442 -1.2665 -1.9261 -1.3684
 6645SOL     OW31396   3.770   2.308   3.780 -0.5996 -0.1426 -0.0383
 6645SOL    HW131397   3.866   2.307   3.784 -0.4935  1.5257 -1.8973
 6645SOL    HW231398   3.758   2.228   3.831 -1.4121 -0.0053 -0.0207
 6646SOL     OW31399   3.655   4.214   8.520 -0.1902  0.3619  0.5038
 6646SOL    HW131400   3.652   4.134   8.573 -0.5159 -0.1296 -0.2581
 6646SOL    HW231401   3.610   4.268   8.585 -2.8956 -0.5784 -0.5909
 6647SOL     OW31402   0.515   0.707   7.286  0.0899  0.2419  0.0204
 6647SOL    HW131403   0.547   0.620   7.261  1.2403  0.9167 -0.8684
 6647SOL    HW231404   0.528   0.696   7.381  1.5688 -4.4289 -0.6884
 6648SOL     OW31405   1.452   0.531  11.848 -0.3913 -0.0922  0.0103
 6648SOL    HW131406   1.491   0.593  11.911 -2.0034  1.0820 -0.1485
 6648SOL    HW231407   1.515   0.459  11.845  0.4541  0.5772  1.3939
 6649SOL     OW31408   4.214   0.596   7.847 -0.5278 -0.1065 -0.1031
 6649SOL    HW131409   4.236   0.628   7.935  2.0068 -1.5082 -0.2048
 6649SOL    HW231410   4.148   0.528   7.853  0.0681 -0.6503  0.2751
 6650SOL     OW31411   3.815   4.202   5.697  0.1700 -0.4266 -0.0791
 6650SOL    HW131412   3.836   4.170   5.609 -1.0847  1.0371 -0.9176
 6650SOL    HW231413   3.901   4.179   5.732  1.4466  0.1707 -2.7806
 6651SOL     OW31414   1.460   4.271   0.469  0.4363 -0.2110 -0.2068
 6651SOL    HW131415   1.521   4.199   0.453  1.8326  0.9718 -0.1778
 6651SOL    HW231416   1.519   4.341   0.443  2.4155 -1.3243  1.3045
 6652SOL     OW31417   0.983   2.051   1.049  0.4043 -0.3520 -0.8650
 6652SOL    HW131418   0.922   2.059   1.122  1.2460  0.0250 -0.2170
 6652SOL    HW231419   0.996   1.956   1.056 -1.6208 -0.4375  1.8052
 6653SOL     OW31420   2.574   3.783   1.968  0.1758  0.3021  0.6540
 6653SOL    HW131421   2.619   3.717   2.022 -0.4063 -1.1611 -0.6800
 6653SOL    HW231422   2.570   3.851   2.035 -2.9816  0.4506  0.3150
 6654SOL     OW31423   1.216   4.276   0.339  0.8874  0.4621  0.3713
 6654SOL    HW131424   1.280   4.282   0.409 -2.4274  1.4691  3.3444
 6654SOL    HW231425   1.234   4.189   0.303 -0.8166 -0.3275  1.3639
 6655SOL     OW31426   2.404   3.036   1.297  0.0055  0.2546  0.0142
 6655SOL    HW131427   2.335   2.977   1.327 -1.2020  0.0112 -3.2701
 6655SOL    HW231428   2.488   2.990   1.291  1.0808  2.4283 -1.6082
 6656SOL     OW31429   2.516   4.379   7.390 -0.3764  0.4984  0.0227
 6656SOL    HW131430   2.565   4.440   7.334 -1.7113  1.4316 -0.1280
 6656SOL    HW231431   2.551   4.416   7.471  0.4795 -0.3680  0.0344
 6657SOL     OW31432   1.513   0.361   6.641  0.3828  0.1698 -0.0134
 6657SOL    HW131433   1.465   0.419   6.700  0.0339 -0.5281  0.3878
 6657SOL    HW231434   1.544   0.432   6.584  1.5624 -1.6450 -1.6554
 6658SOL     OW31435   1.726   0.918  13.859 -0.1060 -0.1443  0.3671
 6658SOL    HW131436   1.816   0.952  13.858 -0.8158  1.7403 -0.2082
 6658SOL    HW231437   1.752   0.827  13.869 -3.5209 -0.9809  1.5456
 6659SOL     OW31438   3.611   1.777   2.024 -0.0285 -0.4581 -0.5918
 6659SOL    HW131439   3.676   1.805   2.088 -0.6438  2.4775 -1.2351
 6659SOL    HW231440   3.664   1.709   1.983  2.8259  2.5368 -1.9389
 6660SOL     OW31441   3.682   2.725   7.815 -0.1566 -0.1313  0.3132
 6660SOL    HW131442   3.682   2.633   7.840  1.9897  0.0378  0.9352
 6660SOL    HW231443   3.595   2.730   7.775 -0.7591  1.3485  1.7932
 6661SOL     OW31444   4.179   1.478   5.106 -0.5267  0.2966 -0.2836
 6661SOL    HW131445   4.125   1.401   5.123 -0.3567  0.7648  2.3276
 6661SOL    HW231446   4.163   1.539   5.178 -0.8195 -0.8685  0.6448
 6662SOL     OW31447   0.309   3.828   2.986  0.0150  0.4372 -0.0031
 6662SOL    HW131448   0.364   3.781   2.924 -0.0661  0.3986 -0.0468
 6662SOL    HW231449   0.220   3.791   2.984  1.4724 -3.0666 -0.1928
 6663SOL     OW31450   4.306   1.290   2.452  0.6662  0.6056 -0.4574
 6663SOL    HW131451   4.365   1.309   2.380 -0.4516 -0.0187 -1.5324
 6663SOL    HW231452   4.218   1.287   2.416 -0.1120 -3.1145  1.7670
 6664SOL     OW31453   3.764   3.344  17.373 -0.4767  0.7920 -0.2131
 6664SOL    HW131454   3.705   3.390  17.432  0.5341 -1.4763  2.6158
 6664SOL    HW231455   3.790   3.412  17.311 -2.2851  0.2674 -1.5609
 6665SOL     OW31456   2.421   2.977   0.451 -0.2378 -0.1325  0.7861
 6665SOL    HW131457   2.357   2.999   0.384  1.3657  0.4219 -0.5719
 6665SOL    HW231458   2.473   3.057   0.461 -0.9536  0.2339  1.5385
 6666SOL     OW31459   2.430   1.298   4.487  1.1690  0.0800 -0.4260
 6666SOL    HW131460   2.440   1.241   4.410  0.1599  1.3800 -1.5105
 6666SOL    HW231461   2.507   1.277   4.540  1.2732 -0.2068 -0.6848
 6667SOL     OW31462   1.697   3.766   2.053  0.5028  0.0993  0.4801
 6667SOL    HW131463   1.667   3.794   1.966  0.7373  0.6053  0.5594
 6667SOL    HW231464   1.659   3.678   2.049 -0.3595  0.4324  1.3955
 6668SOL     OW31465   1.045   4.710  15.289  0.1956 -0.4825  0.7024
 6668SOL    HW131466   1.071   0.016  15.376 -1.5565  1.9490  0.4253
 6668SOL    HW231467   1.120   4.653  15.270  0.7181 -0.1370  1.7357
 6669SOL     OW31468   1.280   2.161   0.218 -0.6903 -0.0231 -0.3655
 6669SOL    HW131469   1.321   2.210   0.147  0.1020  0.2526  0.2814
 6669SOL    HW231470   1.280   2.212   0.299  0.6049 -2.0750  0.9318
 6670SOL     OW31471   2.578   0.359   5.382  0.4606 -0.3653 -0.6605
 6670SOL    HW131472   2.666   0.396   5.386  0.1118  0.3966 -0.0166
 6670SOL    HW231473   2.592   0.271   5.348  1.4076 -0.9068  1.1266
 6671SOL     OW31474   0.225   3.304   2.354  0.0524  0.0674 -0.0799
 6671SOL    HW131475   0.189   3.258   2.278 -1.3389  1.2720 -0.1590
 6671SOL    HW231476   0.298   3.351   2.315 -1.1556  2.0735  0.0357
 6672SOL     OW31477   4.309   2.401   9.305  0.2133  0.1104 -0.5027
 6672SOL    HW131478   4.329   2.391   9.212  0.4973 -3.2193 -0.0786
 6672SOL    HW231479   4.219   2.372   9.315 -0.3501  1.9560 -0.1395
 6673SOL     OW31480   4.427   1.002   4.846 -0.0220 -0.2714 -0.6585
 6673SOL    HW131481   4.412   1.009   4.940 -2.2721 -0.1196 -1.0069
 6673SOL    HW231482   4.464   1.087   4.824  0.5754 -0.5096 -0.5573
 6674SOL     OW31483   3.440   1.663   4.501  0.1869 -0.5899 -0.3359
 6674SOL    HW131484   3.392   1.628   4.426  1.1562  0.2051 -1.3431
 6674SOL    HW231485   3.468   1.751   4.474  1.8532 -1.5849 -1.8594
 6675SOL     OW31486   1.853   1.901   5.245  0.1010  0.1246 -0.6599
 6675SOL    HW131487   1.838   1.838   5.316 -1.1859  0.2620 -0.8115
 6675SOL    HW231488   1.796   1.863   5.179 -0.9358 -1.3343  1.0527
 6676SOL     OW31489   2.552   1.499   2.390 -0.0896 -0.0201 -0.8274
 6676SOL    HW131490   2.461   1.520   2.411 -0.1683  0.2826 -1.4658
 6676SOL    HW231491   2.562   1.564   2.321  1.7308 -0.0315 -0.5548
 6677SOL     OW31492   3.529   2.035  16.181  0.4374 -0.1252 -0.0943
 6677SOL    HW131493   3.543   1.944  16.208  2.2547 -0.0568 -0.8076
 6677SOL    HW231494   3.622   2.060  16.175 -0.2018  2.0233 -0.9558
 6678SOL     OW31495   4.143   2.056  15.256 -0.2963  0.7375 -0.4016
 6678SOL    HW131496   4.150   2.102  15.340 -1.4857  1.2042 -0.5624
 6678SOL    HW231497   4.051   2.064  15.233 -0.4841  0.9245  0.4043
 6679SOL     OW31498   2.407   1.681   3.069 -0.0384  0.0965  0.0795
 6679SOL    HW131499   2.400   1.633   3.151 -1.9266  2.1168  1.1151
 6679SOL    HW231500   2.392   1.769   3.103 -1.8129  0.2607 -1.0944
 6680SOL     OW31501   0.319   0.114   7.291 -0.1669  0.3661  0.1267
 6680SOL    HW131502   0.301   0.122   7.198  0.1127  0.2611  0.0639
 6680SOL    HW231503   0.236   0.080   7.325  1.3390 -1.6750  1.8621
 6681SOL     OW31504   4.612   4.449   2.191 -0.4785  0.6745 -0.0539
 6681SOL    HW131505   4.532   4.496   2.215 -0.7299 -0.2145  0.8386
 6681SOL    HW231506   4.683   4.511   2.210  1.1999 -1.1603 -0.3239
 6682SOL     OW31507   4.269   0.291   2.203  0.3761  0.6002  0.5425
 6682SOL    HW131508   4.182   0.265   2.235  0.2161  0.6865  0.1735
 6682SOL    HW231509   4.316   0.264   2.282 -0.2230  0.1581  0.7438
 6683SOL     OW31510   2.097   4.299   3.956 -0.2310 -0.9852 -0.1794
 6683SOL    HW131511   2.026   4.264   3.902  0.7455 -1.0837 -1.4045
 6683SOL    HW231512   2.094   4.393   3.942  0.2721 -0.8308  0.7374
 6684SOL     OW31513   2.427   2.099   6.972 -0.8566 -0.7879  0.7143
 6684SOL    HW131514   2.363   2.028   6.962 -1.3431 -0.1856 -0.4003
 6684SOL    HW231515   2.419   2.141   6.887  0.3387 -1.2145  0.3983
 6685SOL     OW31516   0.464   0.061  11.110  0.2097 -0.3923 -0.5371
 6685SOL    HW131517   0.413   0.005  11.170  1.2244  1.0554  1.6578
 6685SOL    HW231518   0.405   0.071  11.035  0.6417 -1.0383 -0.9627
 6686SOL     OW31519   1.831   3.344   3.099 -0.1771  0.1601 -0.0976
 6686SOL    HW131520   1.900   3.293   3.058 -2.5736 -1.8013 -1.6545
 6686SOL    HW231521   1.880   3.397   3.163  1.3750  1.4058 -2.3205
 6687SOL     OW31522   2.466   2.423   0.546  0.0090  0.3276 -0.0260
 6687SOL    HW131523   2.385   2.459   0.508 -0.8097 -1.4301  0.0674
 6687SOL    HW231524   2.512   2.498   0.584  2.3696 -1.8201  1.3029
 6688SOL     OW31525   2.794   3.035   9.370  0.0127  0.4346  0.1701
 6688SOL    HW131526   2.887   3.055   9.382 -0.2651  1.5302  0.4467
 6688SOL    HW231527   2.803   2.958   9.313 -0.7329 -1.1952  2.2382
 6689SOL     OW31528   0.056   1.720   1.931 -0.3800 -0.0146 -0.0028
 6689SOL    HW131529   0.100   1.704   2.014 -2.4658 -0.8290  0.9477
 6689SOL    HW231530   0.011   1.637   1.914 -0.7641 -0.3673  2.6573
 6690SOL     OW31531   2.879   4.425   3.520  0.7106  0.0251  0.3778
 6690SOL    HW131532   2.895   4.479   3.443 -1.9494 -0.8633 -0.8218
 6690SOL    HW231533   2.942   4.354   3.502 -2.2262 -1.9760 -2.0492
 6691SOL     OW31534   2.539   3.511   7.750 -0.1763 -0.0467 -0.6754
 6691SOL    HW131535   2.471   3.498   7.816  1.7065  0.0722  1.2599
 6691SOL    HW231536   2.574   3.422   7.758 -0.9753 -0.4648 -1.6827
 6692SOL     OW31537   3.055   1.899   0.766  0.1135  0.3673  0.3156
 6692SOL    HW131538   3.097   1.956   0.701 -0.3869  1.5452  1.0191
 6692SOL    HW231539   3.000   1.967   0.805 -1.4827 -1.5967  1.4202
 6693SOL     OW31540   4.628   3.408   8.928  0.6523 -0.0312  0.0327
 6693SOL    HW131541   4.658   3.440   9.013  2.5545  0.8303 -0.9675
 6693SOL    HW231542   4.674   3.325   8.926 -0.6432 -0.7910  2.2150
 6694SOL     OW31543   2.190   0.603  11.926  0.1637  0.2335  0.2705
 6694SOL    HW131544   2.149   0.532  11.876 -1.1990  2.6606 -2.0876
 6694SOL    HW231545   2.268   0.551  11.946 -1.0835 -2.2408 -1.3940
 6695SOL     OW31546   2.699   0.106   6.562  0.0835  0.0441 -0.3631
 6695SOL    HW131547   2.752   0.158   6.502  2.5548 -0.4470  1.3861
 6695SOL    HW231548   2.771   0.100   6.625 -0.6508 -3.1834  0.1805
 6696SOL     OW31549   4.083   4.675  17.382  0.3635 -0.2359 -0.0293
 6696SOL    HW131550   4.138   4.723  17.444  2.0718  1.0724 -2.5572
 6696SOL    HW231551   4.136   4.687  17.303 -1.0987  0.2877 -0.9223
 6697SOL     OW31552   2.260   3.675   7.109 -0.2717 -0.6891  0.6222
 6697SOL    HW131553   2.310   3.750   7.140  0.4492 -0.6107 -0.7596
 6697SOL    HW231554   2.331   3.614   7.087 -1.7946 -1.3660 -2.4818
 6698SOL     OW31555   1.541   1.749  11.923  1.2111 -0.5031 -0.2680
 6698SOL    HW131556   1.563   1.656  11.914 -0.8372 -1.1456  1.4906
 6698SOL    HW231557   1.471   1.768  11.860  0.7826  0.8202  0.6043
 6699SOL     OW31558   1.898   1.127   2.895 -0.0300  0.1595  0.1503
 6699SOL    HW131559   1.959   1.104   2.825  0.5427 -2.0621  1.3819
 6699SOL    HW231560   1.938   1.072   2.962  4.5398  0.1547 -2.5833
 6700SOL     OW31561   1.267   3.100   7.889  0.2752 -0.6525  0.5978
 6700SOL    HW131562   1.271   3.174   7.951  1.8101 -0.8713  0.7587
 6700SOL    HW231563   1.360   3.101   7.866  0.5914 -1.8506  1.7929
 6701SOL     OW31564   2.751   4.188  10.878  0.4871 -0.0189  0.5211
 6701SOL    HW131565   2.746   4.220  10.788 -2.2196  2.1495  1.4164
 6701SOL    HW231566   2.764   4.095  10.862 -0.2049  0.0262 -0.2979
 6702SOL     OW31567   1.557   0.339  10.521  0.2161 -0.1128 -0.3766
 6702SOL    HW131568   1.499   0.364  10.449 -0.7133  1.5018  0.9190
 6702SOL    HW231569   1.638   0.310  10.479  1.7662  4.0485 -0.2184
 6703SOL     OW31570   2.947   3.964   9.848 -0.1892 -0.5318  0.0662
 6703SOL    HW131571   2.920   4.012   9.926 -2.4165 -1.4779 -0.1254
 6703SOL    HW231572   2.966   3.873   9.869 -1.9571 -1.4234 -2.2104
 6704SOL     OW31573   0.734   0.330   5.399  0.8038  0.3202 -0.2690
 6704SOL    HW131574   0.770   0.276   5.329  0.7361  1.4254 -1.1655
 6704SOL    HW231575   0.807   0.390   5.415  1.6714 -0.8479  0.1574
 6705SOL     OW31576   0.670   2.308  15.664  0.8570  0.2168  0.3133
 6705SOL    HW131577   0.710   2.392  15.644 -0.9169  1.1519  0.6793
 6705SOL    HW231578   0.580   2.322  15.693  0.7575 -1.3937  0.8046
 6706SOL     OW31579   3.815   4.618   6.042  0.2714 -0.0419 -0.3549
 6706SOL    HW131580   3.800   4.539   5.989  1.5001 -0.0001 -0.7501
 6706SOL    HW231581   3.841   4.687   5.982 -2.5694  2.3999  1.1960
 6707SOL     OW31582   1.220   1.935   8.839  0.5216  0.0196  0.4782
 6707SOL    HW131583   1.198   1.924   8.932 -1.5308  0.0636 -0.0180
 6707SOL    HW231584   1.231   2.030   8.837 -0.2489  0.0889 -0.4717
 6708SOL     OW31585   4.483   3.549  13.729 -0.4500 -0.4248 -0.2464
 6708SOL    HW131586   4.507   3.539  13.821 -3.3408 -1.3604  0.4004
 6708SOL    HW231587   4.439   3.634  13.731  0.7432  0.1936 -0.2227
 6709SOL     OW31588   3.862   4.219  13.848 -0.4311  0.0684 -0.3699
 6709SOL    HW131589   3.950   4.197  13.820  0.4531 -0.4964  2.8433
 6709SOL    HW231590   3.856   4.313  13.830  0.9155  0.4469  1.1489
 6710SOL     OW31591   3.951   4.444   3.912 -0.0441 -0.2388 -0.2431
 6710SOL    HW131592   3.985   4.509   3.850 -1.2089  0.0459 -0.5998
 6710SOL    HW231593   3.900   4.491   3.978 -2.2486 -1.7647 -0.8543
 6711SOL     OW31594   2.197   3.994   6.303  0.3628  0.3772 -0.1023
 6711SOL    HW131595   2.264   4.034   6.359  1.2243 -0.8067 -0.2860
 6711SOL    HW231596   2.219   4.024   6.215  0.6306  1.6628  0.4029
 6712SOL     OW31597   1.652   1.946   8.218 -0.5991  0.0960  0.2043
 6712SOL    HW131598   1.670   2.034   8.250 -0.6300  0.5031 -0.9002
 6712SOL    HW231599   1.646   1.942   8.123 -0.2315  1.7555  0.1123
 6713SOL     OW31600   0.812   3.344   8.170 -0.1828  0.0703  0.2187
 6713SOL    HW131601   0.826   3.405   8.097 -1.9855 -1.4371 -1.3826
 6713SOL    HW231602   0.721   3.351   8.197 -0.5365  0.0004 -0.9485
 6714SOL     OW31603   2.120   4.056   5.592  0.2831  0.4276  0.2577
 6714SOL    HW131604   2.069   3.976   5.609 -1.8665  1.9545  1.0384
 6714SOL    HW231605   2.126   4.066   5.497 -1.9384 -0.2337  0.0457
 6715SOL     OW31606   4.586   0.154   4.394  0.5910  0.0045  0.6564
 6715SOL    HW131607   4.547   0.089   4.334 -1.4602  1.5822  0.2825
 6715SOL    HW231608   4.661   0.110   4.434  0.4652 -1.4790 -0.7029
 6716SOL     OW31609   1.117   2.222   6.955 -0.6748 -0.0012  0.4758
 6716SOL    HW131610   1.058   2.146   6.949 -0.0266 -0.3921 -0.9231
 6716SOL    HW231611   1.056   2.272   7.009 -0.4043  1.1731 -0.3153
 6717SOL     OW31612   4.378   2.098   4.679  0.0440 -0.4454  0.3279
 6717SOL    HW131613   4.354   2.048   4.757 -0.4707 -1.2387 -0.3374
 6717SOL    HW231614   4.297   2.150   4.682  1.0464  1.1670 -0.7070
 6718SOL     OW31615   0.562   1.359  11.587  0.5446  0.0845  0.0683
 6718SOL    HW131616   0.582   1.265  11.594  2.4975  0.2694 -3.1196
 6718SOL    HW231617   0.547   1.378  11.680 -1.9932 -0.9141 -0.1375
 6719SOL     OW31618   1.012   0.465   2.674 -0.0115  0.0610  0.5850
 6719SOL    HW131619   1.018   0.423   2.588  1.0139 -0.1504  0.7617
 6719SOL    HW231620   1.096   0.511   2.679 -0.7062  1.5074 -1.3623
 6720SOL     OW31621   0.611   4.299   6.784  0.5384  0.0330  0.0137
 6720SOL    HW131622   0.566   4.383   6.773  0.7172  0.1730  0.3368
 6720SOL    HW231623   0.650   4.310   6.871  0.0311 -2.1126  0.5090
 6721SOL     OW31624   3.205   0.272   9.391 -0.0405  0.6469 -0.1900
 6721SOL    HW131625   3.259   0.222   9.452 -0.0405  1.1369  0.2109
 6721SOL    HW231626   3.159   0.328   9.452 -1.0901 -0.9794  0.5059
 6722SOL     OW31627   1.150   0.132   6.852  0.0387 -0.2262 -0.4739
 6722SOL    HW131628   1.225   0.145   6.793 -1.2655  1.4078 -1.7862
 6722SOL    HW231629   1.182   0.156   6.939  0.9275 -1.9417 -0.3294
 6723SOL     OW31630   2.993   0.855  11.031 -0.0363 -0.3563 -0.7792
 6723SOL    HW131631   3.030   0.820  10.950 -3.7114 -1.1063 -2.1632
 6723SOL    HW231632   2.998   0.950  11.016  0.1606 -0.0165  1.4717
 6724SOL     OW31633   1.496   2.990   2.712  0.1564 -0.2060  0.3046
 6724SOL    HW131634   1.566   2.942   2.755  0.6511 -0.8696 -1.2357
 6724SOL    HW231635   1.518   3.077   2.746  0.0390 -0.9399  2.2356
 6725SOL     OW31636   4.671   2.345   8.209  0.3915  0.2700 -1.1088
 6725SOL    HW131637   0.025   2.291   8.193 -0.2262 -0.2845 -2.1832
 6725SOL    HW231638   4.600   2.281   8.218 -0.2797  1.1069 -0.4663
 6726SOL     OW31639   3.444   1.011   3.198  0.0162  0.2457 -0.5484
 6726SOL    HW131640   3.382   0.982   3.265 -0.3355  1.8252 -0.1754
 6726SOL    HW231641   3.401   0.979   3.118  0.4567 -2.0212  0.1295
 6727SOL     OW31642   2.595   1.296  12.540 -0.1583 -0.3637  0.1724
 6727SOL    HW131643   2.654   1.256  12.476 -1.6371  0.7085 -1.8721
 6727SOL    HW231644   2.637   1.382  12.545 -1.2433  0.3119 -2.3948
 6728SOL     OW31645   0.094   3.358   5.192  0.4334  0.2659 -0.5917
 6728SOL    HW131646   0.052   3.358   5.107  1.3990  0.5602 -1.0675
 6728SOL    HW231647   0.177   3.400   5.172  0.0448  2.0255  1.4982
 6729SOL     OW31648   0.548   0.484   1.417 -0.0288 -0.3031 -0.4516
 6729SOL    HW131649   0.493   0.456   1.344 -1.0068 -1.3770  0.6986
 6729SOL    HW231650   0.546   0.406   1.473  0.6404 -0.1765 -0.2561
 6730SOL     OW31651   1.407   0.653   7.366  0.3055 -0.0644  0.3828
 6730SOL    HW131652   1.452   0.600   7.431 -0.7021  0.4919  1.5242
 6730SOL    HW231653   1.482   0.684   7.315  1.2646 -0.8669  1.3328
 6731SOL     OW31654   3.677   2.466   6.250  0.1159 -0.0699 -0.5590
 6731SOL    HW131655   3.732   2.496   6.177  1.1533  2.6942  1.3850
 6731SOL    HW231656   3.723   2.384   6.270  0.4218 -0.7011 -3.8020
 6732SOL     OW31657   2.110   3.764   8.038 -0.3550  0.6240  0.4144
 6732SOL    HW131658   2.068   3.715   8.109 -0.4227 -1.3203 -0.9926
 6732SOL    HW231659   2.184   3.813   8.074 -0.2863 -0.1554  1.3276
 6733SOL     OW31660   2.376   4.042   5.718 -0.2159 -0.5978 -0.3583
 6733SOL    HW131661   2.353   3.992   5.796 -0.7632 -0.3273 -0.3477
 6733SOL    HW231662   2.286   4.067   5.699  0.4663  0.6629 -1.9605
 6734SOL     OW31663   2.092   1.142   2.386 -0.0180  0.1287 -0.0977
 6734SOL    HW131664   2.185   1.121   2.385  0.2296  1.2011  0.0404
 6734SOL    HW231665   2.061   1.054   2.364 -2.5283  0.7751  0.8246
 6735SOL     OW31666   1.277   0.804   8.263  0.2654 -0.1150  0.3647
 6735SOL    HW131667   1.218   0.749   8.211 -1.6170  1.4240  0.8761
 6735SOL    HW231668   1.262   0.765   8.350  0.5634  2.4408  1.5642
 6736SOL     OW31669   1.261   4.574   7.919 -0.4891  0.0746  0.2342
 6736SOL    HW131670   1.306   4.653   7.887 -2.6830  1.7809  1.3428
 6736SOL    HW231671   1.329   4.510   7.900 -1.1230 -0.2285 -0.9760
 6737SOL     OW31672   1.349   1.447   8.476  0.1476 -0.6201 -0.1265
 6737SOL    HW131673   1.260   1.449   8.511  0.9076  2.5889  1.6711
 6737SOL    HW231674   1.380   1.536   8.460  0.4781 -0.7148 -0.0037
 6738SOL     OW31675   1.542   4.458   4.232  0.5079 -0.2612  0.2695
 6738SOL    HW131676   1.458   4.442   4.275  0.2169  1.5972  0.3598
 6738SOL    HW231677   1.528   4.550   4.212  1.5033  0.2410  1.9488
 6739SOL     OW31678   4.418   4.477   0.171  0.1393 -0.8722 -0.3735
 6739SOL    HW131679   4.346   4.415   0.185  0.2742 -0.8889  0.2331
 6739SOL    HW231680   4.391   4.544   0.108  1.3875  0.4803  0.5294
 6740SOL     OW31681   0.078   2.607  12.180 -0.0450  0.5114 -0.1763
 6740SOL    HW131682   0.147   2.647  12.129  1.0748 -0.0849  0.8644
 6740SOL    HW231683   0.112   2.626  12.267  0.2174 -0.6980 -0.0145
 6741SOL     OW31684   2.224   3.166   2.429  0.0853 -0.1296  0.9429
 6741SOL    HW131685   2.284   3.136   2.497  1.1245  2.4253  1.1591
 6741SOL    HW231686   2.284   3.197   2.361 -3.0172  2.1356 -0.7817
 6742SOL     OW31687   0.965   0.626   1.257 -0.7191 -0.0878  0.8670
 6742SOL    HW131688   1.023   0.658   1.326 -0.1439 -0.1575  0.4208
 6742SOL    HW231689   1.016   0.546   1.245  0.6400  0.8464  0.3484
 6743SOL     OW31690   4.233   1.204   6.457 -0.3331  0.2788 -0.3080
 6743SOL    HW131691   4.226   1.215   6.552  1.4572 -1.3702  0.0110
 6743SOL    HW231692   4.277   1.286   6.433  1.4737 -0.4165  0.6161
 6744SOL     OW31693   0.077   3.565   5.447  0.1199 -0.3282 -0.1915
 6744SOL    HW131694   0.098   3.475   5.471  1.4077  0.1463  0.4586
 6744SOL    HW231695   0.110   3.622   5.517 -2.6941  0.4056  0.5575
 6745SOL     OW31696   3.729   4.494   6.438  0.2058 -0.0696  0.0293
 6745SOL    HW131697   3.701   4.458   6.353 -1.3774  0.2271  0.4300
 6745SOL    HW231698   3.746   4.587   6.424  0.7057 -0.1815 -0.1101
 6746SOL     OW31699   1.962   4.641   2.721  0.3257 -0.0850  0.2259
 6746SOL    HW131700   1.896   4.702   2.754  0.5280  1.1307 -1.6600
 6746SOL    HW231701   1.937   4.567   2.777  1.4557 -1.6205 -1.3029
 6747SOL     OW31702   3.093   0.503   7.953 -0.3653  0.1218 -0.8361
 6747SOL    HW131703   3.028   0.474   8.016  1.2686  0.7038  1.1247
 6747SOL    HW231704   3.042   0.499   7.872 -1.0367 -0.3815 -0.3798
 6748SOL     OW31705   1.338   2.572   7.832  0.7450  0.0684  0.0637
 6748SOL    HW131706   1.314   2.482   7.851 -1.5465  0.9602  1.4363
 6748SOL    HW231707   1.348   2.605   7.921 -1.2889  4.2047 -1.2116
 6749SOL     OW31708   1.972   1.669   5.389  0.4402  0.0802  0.1831
 6749SOL    HW131709   1.966   1.675   5.294  0.8749 -0.2847  0.1320
 6749SOL    HW231710   2.058   1.708   5.403  0.0614  1.2437 -0.7063
 6750SOL     OW31711   0.693   1.826   2.541 -0.0223 -0.4350  0.5653
 6750SOL    HW131712   0.618   1.795   2.491 -0.7342  1.9195  0.1755
 6750SOL    HW231713   0.750   1.863   2.472 -0.0906  0.5706  1.0405
 6751SOL     OW31714   2.258   4.071  16.014  0.2588  0.2351  0.5176
 6751SOL    HW131715   2.190   4.091  15.950  1.0744  0.8243 -0.1684
 6751SOL    HW231716   2.317   4.146  16.004  1.8505 -0.9325  1.0235
 6752SOL     OW31717   4.590   4.562   6.174 -0.0472  0.1420 -0.0925
 6752SOL    HW131718   4.619   4.551   6.264  0.0928  1.3649  0.0066
 6752SOL    HW231719   4.618   4.650   6.147  3.3040 -0.9455 -0.1736
 6753SOL     OW31720   1.970   2.532  17.033  0.3121  0.0817  0.8710
 6753SOL    HW131721   2.000   2.477  16.961  1.4952  0.1203  1.3428
 6753SOL    HW231722   1.888   2.487  17.058  0.8558 -1.5204 -0.2331
 6754SOL     OW31723   2.360   0.436   5.174  0.0321  0.1394  0.0980
 6754SOL    HW131724   2.452   0.442   5.146 -0.0179  1.8861  0.3465
 6754SOL    HW231725   2.321   0.356   5.139 -1.7950  0.5295  1.2424
 6755SOL     OW31726   1.365   2.693   2.166 -0.7040  0.1057 -0.3830
 6755SOL    HW131727   1.370   2.788   2.154 -2.0570  0.1131 -0.9127
 6755SOL    HW231728   1.427   2.673   2.097 -0.0733 -1.8057  0.7394
 6756SOL     OW31729   3.181   3.357   0.031  0.0025 -0.1957 -0.1009
 6756SOL    HW131730   3.229   3.276   0.047  1.4857  0.0350 -3.4226
 6756SOL    HW231731   3.236   3.419   0.079  0.3371 -0.0517 -0.6703
 6757SOL     OW31732   2.728   2.166   8.424 -0.3835 -0.4611  0.1978
 6757SOL    HW131733   2.690   2.101   8.483  2.1275 -1.9677  0.1864
 6757SOL    HW231734   2.817   2.132   8.419 -1.0041 -2.1726  0.8468
 6758SOL     OW31735   2.168   0.224   4.721 -0.2712  0.1298 -0.2504
 6758SOL    HW131736   2.250   0.270   4.702  0.2931 -0.6801  0.2036
 6758SOL    HW231737   2.207   0.169   4.790 -1.8308  0.5442  0.9751
 6759SOL     OW31738   0.458   2.804   2.739 -0.1193  0.3721 -0.1084
 6759SOL    HW131739   0.433   2.714   2.760 -1.9242  1.4167  2.1838
 6759SOL    HW231740   0.552   2.789   2.728 -0.2632 -0.2982 -0.4723
 6760SOL     OW31741   4.545   2.049   7.251  0.0604 -0.0044  0.3087
 6760SOL    HW131742   4.570   2.057   7.159 -1.9485  0.0291 -0.2351
 6760SOL    HW231743   4.450   2.034   7.245  0.3060 -2.6182  2.8240
 6761SOL     OW31744   4.390   1.413  11.695 -0.2309 -0.8473  0.2292
 6761SOL    HW131745   4.424   1.403  11.784 -0.9274 -0.8659  0.4927
 6761SOL    HW231746   4.413   1.504  11.675  1.1811 -1.6736 -1.7825
 6762SOL     OW31747   3.108   1.901   1.248 -0.1674 -0.2646  0.0758
 6762SOL    HW131748   3.135   1.993   1.253  1.5996 -0.8596  1.4235
 6762SOL    HW231749   3.149   1.877   1.165  1.6287  1.1661  0.5335
 6763SOL     OW31750   1.296   2.928  13.103  0.6613 -0.1133  0.3063
 6763SOL    HW131751   1.225   2.864  13.096  0.4910  0.1294 -0.1776
 6763SOL    HW231752   1.345   2.888  13.175 -0.8878 -1.1390  0.7805
 6764SOL     OW31753   1.512   0.118  10.766  0.2614  0.3383  0.2967
 6764SOL    HW131754   1.549   0.113  10.855  2.6641  4.3371 -0.4792
 6764SOL    HW231755   1.558   0.041  10.735  0.3296  1.2879 -1.9503
 6765SOL     OW31756   0.667   0.204   9.533  0.0025 -0.7288  0.1016
 6765SOL    HW131757   0.762   0.194   9.538  0.1595  0.7305  0.0524
 6765SOL    HW231758   0.638   0.151   9.607  1.2336  0.5322  1.4894
 6766SOL     OW31759   1.776   2.148  12.737 -0.3357 -0.7607  0.7824
 6766SOL    HW131760   1.732   2.086  12.795  1.3156 -1.7538  0.9874
 6766SOL    HW231761   1.793   2.213  12.805  0.4756  1.6129 -1.7186
 6767SOL     OW31762   0.879   4.556   3.057  0.8040 -0.2280  0.3541
 6767SOL    HW131763   0.966   4.518   3.068  0.3443 -1.2000  0.5340
 6767SOL    HW231764   0.831   4.511   2.988  0.8342  1.8663 -1.0332
 6768SOL     OW31765   4.487   1.738   6.573  0.5870 -0.0129 -0.4802
 6768SOL    HW131766   4.518   1.796   6.503 -0.1925  1.8122  0.6892
 6768SOL    HW231767   4.394   1.742   6.552  0.7460 -0.6284 -1.3047
 6769SOL     OW31768   0.809   0.185   5.175 -0.3166  0.3134 -0.9986
 6769SOL    HW131769   0.882   0.189   5.113  1.6490  1.2707  1.3798
 6769SOL    HW231770   0.792   0.091   5.183  0.6023  0.1104 -1.5704
 6770SOL     OW31771   4.701   1.807  11.435  0.1698  0.4623 -0.3280
 6770SOL    HW131772   0.060   1.780  11.477  1.4436  0.7448 -2.6273
 6770SOL    HW231773   0.011   1.841  11.352 -1.2715 -0.4283 -1.2645
 6771SOL     OW31774   3.170   3.484   7.109  0.3084 -0.2130  0.7808
 6771SOL    HW131775   3.113   3.413   7.081 -2.0762  1.9277  0.2564
 6771SOL    HW231776   3.243   3.438   7.152  0.2494 -1.2526 -0.2592
 6772SOL     OW31777   2.863   2.363   7.761  0.9084 -0.0370  0.2880
 6772SOL    HW131778   2.769   2.360   7.780  0.9361  0.0724  0.4506
 6772SOL    HW231779   2.862   2.287   7.703  1.4101 -0.7098  1.1544
 6773SOL     OW31780   0.081   3.089   0.184 -0.0111 -0.3357  0.3456
 6773SOL    HW131781   0.012   3.155   0.192 -0.3051 -0.7041  0.8555
 6773SOL    HW231782   0.102   3.069   0.276 -0.0178 -1.6268  0.0579
 6774SOL     OW31783   0.474   2.013   4.710  0.1496 -0.0111  0.0566
 6774SOL    HW131784   0.395   1.960   4.704  0.1485 -0.0758  0.6553
 6774SOL    HW231785   0.472   2.035   4.803  3.8696 -0.0946  0.1647
 6775SOL     OW31786   0.306   3.934   3.838  0.2902  0.0035  0.2552
 6775SOL    HW131787   0.258   3.873   3.783  0.2549 -0.1969  0.5081
 6775SOL    HW231788   0.391   3.937   3.794  0.7568  0.2411  1.1679
 6776SOL     OW31789   0.201   1.560   8.654  0.1196  0.2247 -0.1979
 6776SOL    HW131790   0.268   1.534   8.718 -0.2935 -1.9163 -0.6490
 6776SOL    HW231791   0.132   1.582   8.717  0.3443  2.1609 -0.6421
 6777SOL     OW31792   4.359   0.431   5.630  0.1538  0.0784 -0.6541
 6777SOL    HW131793   4.317   0.405   5.548  1.8289  1.3439 -1.9124
 6777SOL    HW231794   4.448   0.397   5.614 -0.6093 -1.0108 -2.5343
 6778SOL     OW31795   3.933   0.743   8.796 -0.4633 -0.6741 -0.2164
 6778SOL    HW131796   4.012   0.797   8.793  0.4900 -1.8407  2.8996
 6778SOL    HW231797   3.909   0.754   8.704  1.1474  1.1991 -0.4091
 6779SOL     OW31798   1.990   4.641   1.493  0.0877  0.6260  0.5399
 6779SOL    HW131799   2.069   4.643   1.546  0.8705  1.5820 -0.6645
 6779SOL    HW231800   1.981   4.546   1.481  1.1610  0.3119  2.2290
 6780SOL     OW31801   0.036   4.384  15.457  0.1168 -0.5860 -0.6419
 6780SOL    HW131802   0.060   4.461  15.509 -3.1390 -1.2096  1.8121
 6780SOL    HW231803   4.689   4.352  15.514  0.2098  2.6319  1.3228
 6781SOL     OW31804   0.887   0.389   7.537 -0.6643  0.1561  0.5491
 6781SOL    HW131805   0.837   0.326   7.485 -0.2084  1.5606 -1.5999
 6781SOL    HW231806   0.844   0.387   7.623 -1.5596  1.5796  0.1359
 6782SOL     OW31807   1.710   1.485   7.456 -0.3300 -0.0835  0.3062
 6782SOL    HW131808   1.745   1.409   7.409  0.7436 -0.4490  1.6989
 6782SOL    HW231809   1.787   1.541   7.460 -1.4241  1.3288  1.6008
 6783SOL     OW31810   1.289   1.224   1.771  0.0866 -0.0582  0.8880
 6783SOL    HW131811   1.204   1.191   1.800  0.5917 -1.9718  0.1497
 6783SOL    HW231812   1.334   1.148   1.734  1.5639 -1.1191  4.8873
 6784SOL     OW31813   2.755   3.531   6.375  0.6009 -0.4305  0.0738
 6784SOL    HW131814   2.766   3.436   6.380  0.7482 -0.3689  1.0318
 6784SOL    HW231815   2.771   3.544   6.282 -0.8651  2.1941  0.1896
 6785SOL     OW31816   4.635   3.961  14.425  0.1554  0.2575  0.1273
 6785SOL    HW131817   4.710   4.021  14.423 -0.8734  1.4708 -1.6383
 6785SOL    HW231818   4.564   4.016  14.391 -0.4119  1.0151  2.5294
 6786SOL     OW31819   3.854   0.875  16.704  0.0536  0.3458  0.1428
 6786SOL    HW131820   3.879   0.805  16.764  0.5671  0.6722  0.3160
 6786SOL    HW231821   3.789   0.830  16.650  0.1224 -0.9028  1.1030
 6787SOL     OW31822   0.376   2.063   5.881  0.0951  0.2012  0.3335
 6787SOL    HW131823   0.329   2.119   5.819  0.4004 -1.0300 -1.0084
 6787SOL    HW231824   0.412   1.997   5.821 -0.2890  0.9547 -0.7180
 6788SOL     OW31825   4.513   1.260   4.818 -0.0567  0.1678 -0.2409
 6788SOL    HW131826   4.492   1.314   4.742  0.1224 -0.2379 -0.5755
 6788SOL    HW231827   4.607   1.245   4.808  0.2307  0.5656  1.8895
 6789SOL     OW31828   0.955   4.002   4.099  0.6451  0.1431 -0.4174
 6789SOL    HW131829   0.950   3.986   4.005 -0.7805 -2.3429  0.0615
 6789SOL    HW231830   0.936   4.094   4.114  0.6737 -0.0275  0.6631
 6790SOL     OW31831   0.904   3.714   8.127  0.4086 -0.1853  0.0345
 6790SOL    HW131832   0.956   3.793   8.115 -0.9104  0.6209 -0.3273
 6790SOL    HW231833   0.919   3.662   8.048  0.3776  0.3266 -0.3051
 6791SOL     OW31834   2.751   1.896   2.946  0.4715  0.4219 -0.0689
 6791SOL    HW131835   2.673   1.852   2.911  1.0216 -0.2429 -0.4787
 6791SOL    HW231836   2.725   1.932   3.030  0.3419 -0.1711  0.1486
 6792SOL     OW31837   0.791   0.046  13.541  0.4742 -0.6795 -0.2507
 6792SOL    HW131838   0.746   4.687  13.519 -1.3103  0.2288  0.0284
 6792SOL    HW231839   0.746   0.077  13.620 -0.5129 -1.2423 -0.5876
 6793SOL     OW31840   4.204   1.207  17.635  0.7382  0.6767 -0.0858
 6793SOL    HW131841   4.284   1.185  17.682  0.3698  0.9422  0.6554
 6793SOL    HW231842   4.202   1.140  17.566 -0.5088  1.9832 -1.3391
 6794SOL     OW31843   2.898   3.398   4.332 -0.0404  0.2841 -0.3647
 6794SOL    HW131844   2.973   3.451   4.305 -1.9892  1.2218 -3.8430
 6794SOL    HW231845   2.932   3.398   4.422 -0.2865 -2.3463 -0.2864
 6795SOL     OW31846   2.324   2.663   4.915  0.5800  0.1207  0.4936
 6795SOL    HW131847   2.336   2.569   4.931  1.3787 -0.1042 -1.4250
 6795SOL    HW231848   2.417   2.684   4.909  0.1072  2.0771  0.1777
 6796SOL     OW31849   0.580   0.400   7.255 -0.0657 -0.3340  0.0641
 6796SOL    HW131850   0.635   0.333   7.295 -1.8414 -0.9590  1.4356
 6796SOL    HW231851   0.510   0.399   7.320 -1.0541  0.0374 -0.9949
 6797SOL     OW31852   1.610   3.024   8.635 -0.1054 -0.0352  0.3514
 6797SOL    HW131853   1.662   3.060   8.563 -3.1444  0.8102 -1.4436
 6797SOL    HW231854   1.683   2.985   8.683 -1.7445 -1.3663  1.7457
 6798SOL     OW31855   0.477   1.264   4.817 -0.4873 -0.0607  0.1336
 6798SOL    HW131856   0.473   1.177   4.857  0.2069 -0.1265  0.0469
 6798SOL    HW231857   0.497   1.233   4.728  0.1216 -1.9084  0.9150
 6799SOL     OW31858   4.407   4.709  13.713 -0.4631  0.1736 -0.3905
 6799SOL    HW131859   4.444   0.059  13.664  0.5428 -0.0161  0.1017
 6799SOL    HW231860   4.444   4.637  13.662 -0.3097 -1.7835  2.4589
 6800SOL     OW31861   1.266   0.503   4.138  0.4163  0.8767  0.6501
 6800SOL    HW131862   1.262   0.541   4.051 -0.3169  0.7517  0.6248
 6800SOL    HW231863   1.345   0.450   4.140  0.6149  1.0496 -3.1257
 6801SOL     OW31864   1.493   4.231   7.285 -0.2603  0.8275 -0.2016
 6801SOL    HW131865   1.495   4.265   7.375 -1.2143 -0.8064  0.4505
 6801SOL    HW231866   1.581   4.260   7.263  0.1530  0.6122  1.1327
 6802SOL     OW31867   0.240   3.618   7.003 -0.4871  0.3247 -0.1231
 6802SOL    HW131868   0.319   3.564   6.998 -1.4880 -0.9756 -2.3367
 6802SOL    HW231869   0.254   3.699   6.955 -2.0107  0.7184  0.0869
 6803SOL     OW31870   2.596   4.606   8.718  0.2379 -0.6445  0.5941
 6803SOL    HW131871   2.689   4.624   8.709  0.1042 -0.6457 -0.7398
 6803SOL    HW231872   2.558   4.688   8.751 -1.2990 -0.9813 -0.3326
 6804SOL     OW31873   0.514   0.467   8.632  0.6750 -0.1476 -0.2514
 6804SOL    HW131874   0.482   0.497   8.717  3.3384 -1.0707  1.0682
 6804SOL    HW231875   0.450   0.405   8.597 -0.6751  0.4790  1.1230
 6805SOL     OW31876   2.054   1.389   7.075  0.5979 -0.0296 -0.0452
 6805SOL    HW131877   2.127   1.403   7.014 -0.5433  0.0352 -1.3917
 6805SOL    HW231878   2.056   1.294   7.070 -1.1074 -0.0083 -1.0921
 6806SOL     OW31879   4.669   3.466   5.929 -0.0442 -0.4131 -0.1425
 6806SOL    HW131880   4.631   3.554   5.929 -0.3036 -0.5259  0.5528
 6806SOL    HW231881   4.599   3.415   5.970 -0.4976  0.1102 -0.2620
 6807SOL     OW31882   4.061   1.442   0.655  0.0806 -0.2128  0.2756
 6807SOL    HW131883   4.092   1.483   0.736  2.4522  0.0445 -0.7673
 6807SOL    HW231884   4.131   1.379   0.638 -0.0140 -0.5044  0.9655
 6808SOL     OW31885   2.342   3.352  13.736  0.1925 -0.2676  0.1116
 6808SOL    HW131886   2.435   3.372  13.738  0.6644 -2.4531 -0.7890
 6808SOL    HW231887   2.355   3.263  13.767 -2.0737 -0.2034  1.2415
 6809SOL     OW31888   1.894   4.049  12.792 -0.6617 -1.0101  0.8878
 6809SOL    HW131889   1.965   3.988  12.813  0.0170 -0.3851  0.4002
 6809SOL    HW231890   1.817   3.992  12.795 -0.3954 -1.2750  2.7421
 6810SOL     OW31891   4.479   4.680  10.710 -0.4566 -0.1735 -0.2431
 6810SOL    HW131892   4.561   0.006  10.703  0.4480 -1.4929  0.9724
 6810SOL    HW231893   4.431   4.712  10.633 -0.8333 -0.8633 -0.2984
 6811SOL     OW31894   3.589   1.554  15.862  0.0008 -0.5196  0.2846
 6811SOL    HW131895   3.663   1.494  15.853 -0.2432 -0.9341  0.9638
 6811SOL    HW231896   3.558   1.546  15.772  2.9255 -0.7773 -0.6753
 6812SOL     OW31897   1.971   2.292   3.035 -0.2729 -0.5936 -0.7059
 6812SOL    HW131898   1.977   2.371   3.090 -2.2005 -1.2641  0.4417
 6812SOL    HW231899   1.877   2.286   3.022 -0.5663  0.4290  0.9329
 6813SOL     OW31900   4.049   1.545   8.221  0.2570  0.5049  0.5704
 6813SOL    HW131901   4.134   1.518   8.188 -1.2628 -2.6807 -0.7695
 6813SOL    HW231902   4.004   1.461   8.206 -1.4508  1.4333  0.4538
 6814SOL     OW31903   3.048   0.422  10.759  0.1138 -0.2913 -0.3542
 6814SOL    HW131904   3.137   0.416  10.722  0.7894  1.0169  1.0268
 6814SOL    HW231905   3.001   0.413  10.676 -3.5173  0.6211  1.6258
 6815SOL     OW31906   1.603   1.033   4.721  0.2402  0.3883  0.3499
 6815SOL    HW131907   1.680   1.090   4.722  0.2741  0.3420  0.3550
 6815SOL    HW231908   1.639   0.960   4.670 -1.0271 -0.7880  1.1289
 6816SOL     OW31909   3.679   3.686   6.817 -0.1350  0.1777 -0.3572
 6816SOL    HW131910   3.599   3.733   6.838 -0.2028  0.3101 -0.8997
 6816SOL    HW231911   3.657   3.666   6.726 -2.3471 -0.8483  0.3998
 6817SOL     OW31912   0.729   0.705   2.295 -0.0781 -0.6309  0.1294
 6817SOL    HW131913   0.656   0.670   2.346 -0.0343 -0.7979  0.0760
 6817SOL    HW231914   0.802   0.707   2.357 -0.1529 -1.7094  0.2448
 6818SOL     OW31915   4.150   1.287  12.215 -0.4914  0.3526  0.6193
 6818SOL    HW131916   4.124   1.284  12.308 -1.5385 -1.5198  0.2713
 6818SOL    HW231917   4.240   1.256  12.223 -0.3970  0.1870 -1.0964
 6819SOL     OW31918   1.928   3.720   1.448 -0.4022  0.0996 -0.3405
 6819SOL    HW131919   1.855   3.658   1.459  0.3647 -0.5739  0.9995
 6819SOL    HW231920   1.915   3.772   1.527 -0.7163 -0.6895  0.1291
 6820SOL     OW31921   0.308   2.248   8.778  0.1335  0.2797  0.8524
 6820SOL    HW131922   0.282   2.277   8.690 -1.1678 -0.5136  0.9802
 6820SOL    HW231923   0.223   2.246   8.821  0.6925 -1.1540  1.8651
 6821SOL     OW31924   1.443   0.080   5.957  0.9741 -0.4197  0.3719
 6821SOL    HW131925   1.392   0.045   5.884  0.8765 -0.2314  0.3522
 6821SOL    HW231926   1.387   0.067   6.034 -1.6092  0.0032 -1.4629
 6822SOL     OW31927   3.714   3.379   3.151 -0.0074  0.1744  0.3206
 6822SOL    HW131928   3.797   3.426   3.165  0.2966  0.2383 -1.7769
 6822SOL    HW231929   3.656   3.434   3.204 -1.7772 -2.6429  1.3024
 6823SOL     OW31930   4.383   2.379   6.973  0.1841 -0.4245 -0.2765
 6823SOL    HW131931   4.455   2.323   7.003 -0.0281 -1.3838 -1.5305
 6823SOL    HW231932   4.307   2.320   6.974  0.0130 -0.2002  0.7108
 6824SOL     OW31933   3.784   3.971   9.557 -0.1114  0.1641  0.1516
 6824SOL    HW131934   3.740   4.038   9.505 -1.0086 -1.6983 -1.4865
 6824SOL    HW231935   3.707   3.916   9.570 -0.1036  0.2426  0.5308
 6825SOL     OW31936   2.809   3.958   2.470  0.7153  0.1239 -0.5985
 6825SOL    HW131937   2.863   4.009   2.531 -0.2538  0.0968  0.2837
 6825SOL    HW231938   2.823   4.004   2.387  1.0098 -0.6940 -0.9970
 6826SOL     OW31939   4.651   1.847  14.740 -0.0176  0.5055 -0.7401
 6826SOL    HW131940   4.605   1.895  14.672  1.1062  1.0641 -1.1077
 6826SOL    HW231941   0.022   1.853  14.721 -0.1561  0.5614 -1.4102
 6827SOL     OW31942   4.680   1.777   8.174  0.2091 -0.0048  0.4289
 6827SOL    HW131943   4.649   1.689   8.196  0.3958 -0.3653 -0.7843
 6827SOL    HW231944   4.605   1.800   8.119  0.1975 -0.0033  0.4452
 6828SOL     OW31945   2.778   2.765  13.656  0.1834 -0.6380  0.4712
 6828SOL    HW131946   2.827   2.843  13.683  1.2800 -1.5081  1.0115
 6828SOL    HW231947   2.834   2.698  13.697 -2.2835 -3.0148 -0.0636
 6829SOL     OW31948   0.703   1.369   3.072 -0.0054 -0.2965 -0.4098
 6829SOL    HW131949   0.702   1.425   2.994 -1.2684 -0.9201 -0.8432
 6829SOL    HW231950   0.793   1.370   3.102  0.2823  1.2938 -1.3082
 6830SOL     OW31951   3.565   1.936   1.629 -0.2517 -0.2461 -0.3237
 6830SOL    HW131952   3.612   1.923   1.546 -0.1590 -3.6423  0.2788
 6830SOL    HW231953   3.573   1.847   1.662 -1.3954  0.1461  0.9807
 6831SOL     OW31954   0.667   1.302   2.547 -0.4872 -0.3078  0.1371
 6831SOL    HW131955   0.576   1.306   2.577 -0.7762 -1.2063 -0.6086
 6831SOL    HW231956   0.656   1.323   2.455  0.1426 -0.8605 -0.0618
 6832SOL     OW31957   2.005   2.860   2.568 -0.0780  0.0012 -0.0322
 6832SOL    HW131958   2.055   2.793   2.521 -1.0458  0.5002 -1.7633
 6832SOL    HW231959   2.001   2.941   2.517 -1.5815  0.4432  0.7600
 6833SOL     OW31960   2.930   2.286   9.022  0.4328 -0.6903 -0.0478
 6833SOL    HW131961   2.861   2.348   9.047  0.6270 -1.8773  3.4949
 6833SOL    HW231962   3.009   2.338   9.010  0.2173 -0.2624  0.3649
 6834SOL     OW31963   3.942   4.486  13.793  0.1932  0.5247  0.1888
 6834SOL    HW131964   3.920   4.571  13.831 -0.0168  0.7947 -0.5158
 6834SOL    HW231965   4.035   4.496  13.813  0.8925 -1.3945 -2.0797
 6835SOL     OW31966   0.634   0.074  11.553 -0.0390  0.4565  0.1650
 6835SOL    HW131967   0.610   0.128  11.477  0.8523 -1.7992 -1.7389
 6835SOL    HW231968   0.664   4.719  11.506 -1.0515  0.2517 -0.1326
 6836SOL     OW31969   3.933   1.444   6.520 -0.2960 -0.4862 -0.8546
 6836SOL    HW131970   3.988   1.375   6.556 -0.6376 -0.3972 -0.1535
 6836SOL    HW231971   3.922   1.413   6.430  0.3398 -0.0847 -1.0635
 6837SOL     OW31972   0.127   0.646  17.497  0.6057  0.2603 -0.6942
 6837SOL    HW131973   0.117   0.703  17.573 -0.0952 -3.0767  1.6837
 6837SOL    HW231974   0.041   0.604  17.496  0.1369  1.2086 -0.1107
 6838SOL     OW31975   1.317   4.615   7.530 -0.3092 -0.5509  0.3697
 6838SOL    HW131976   1.365   4.578   7.455 -1.7647 -0.4153 -0.6185
 6838SOL    HW231977   1.383   4.659   7.583  1.1301 -0.8305 -1.1696
 6839SOL     OW31978   3.701   4.088   1.535 -0.6030  0.2609  0.2889
 6839SOL    HW131979   3.779   4.120   1.488 -0.3823 -1.8283 -0.7335
 6839SOL    HW231980   3.746   4.025   1.591 -1.6695 -0.8129 -0.0573
 6840SOL     OW31981   0.138   0.369  12.680 -0.2531 -0.5500 -0.2836
 6840SOL    HW131982   0.054   0.353  12.636 -0.7053  1.1980 -0.0817
 6840SOL    HW231983   0.198   0.320  12.624 -0.6260  1.3244 -2.3463
 6841SOL     OW31984   1.181   3.862   5.059  0.8664  0.2385 -0.2036
 6841SOL    HW131985   1.096   3.880   5.097  1.1804  0.2379  0.4943
 6841SOL    HW231986   1.220   3.809   5.128  2.6935  1.6149 -0.1528
 6842SOL     OW31987   1.351   2.654   1.544 -0.7407  0.3753  0.0532
 6842SOL    HW131988   1.395   2.571   1.523 -0.1893  1.0443 -1.4016
 6842SOL    HW231989   1.286   2.667   1.475 -2.8321 -1.1823  1.7377
 6843SOL     OW31990   2.938   1.516  14.619  0.3779  0.0620 -0.7749
 6843SOL    HW131991   2.951   1.570  14.540 -3.6329  2.3484  0.0875
 6843SOL    HW231992   2.843   1.520  14.628  0.8244  0.7014  3.4610
 6844SOL     OW31993   4.093   2.166   2.529  0.4189  0.0454 -0.4105
 6844SOL    HW131994   4.050   2.091   2.486  1.6502 -1.8087  1.5850
 6844SOL    HW231995   4.183   2.167   2.496  0.2968 -3.0738 -0.8343
 6845SOL     OW31996   1.546   4.479  12.099 -0.5225  0.5541 -0.2915
 6845SOL    HW131997   1.526   4.386  12.090 -0.7116  0.6768 -1.0658
 6845SOL    HW231998   1.468   4.527  12.073 -1.2570 -1.8171 -2.4563
 6846SOL     OW31999   0.624   3.105   9.951 -0.0688  0.5165 -0.1116
 6846SOL    HW132000   0.653   3.150  10.031  1.8280 -1.8822  0.5425
 6846SOL    HW232001   0.528   3.100   9.959  0.0560  1.4476  1.9943
 6847SOL     OW32002   2.096   2.521  15.778  0.0004 -0.2041 -0.0349
 6847SOL    HW132003   2.095   2.600  15.724  2.1154 -2.0247 -2.7251
 6847SOL    HW232004   2.183   2.487  15.758  0.4743  0.1123  1.5254
 6848SOL     OW32005   2.255   2.881   2.369 -0.0026 -0.2823  0.5775
 6848SOL    HW132006   2.222   2.963   2.405 -0.9934 -1.1958  1.7591
 6848SOL    HW232007   2.258   2.902   2.276  2.8366  1.5553  1.0911
 6849SOL     OW32008   2.972   3.091   4.378 -0.5193 -0.3772  0.1652
 6849SOL    HW132009   2.985   3.185   4.394  0.7658 -0.7384  1.1985
 6849SOL    HW232010   2.878   3.088   4.358 -0.4774  1.5726 -0.3865
 6850SOL     OW32011   2.484   4.708  10.315 -0.0138 -0.2159  0.2747
 6850SOL    HW132012   2.547   0.053  10.340  1.0148 -0.6037 -1.2265
 6850SOL    HW232013   2.553   4.650  10.285  0.1957  0.5689 -0.7696
 6851SOL     OW32014   4.199   1.793  12.864  0.1156 -0.1825 -0.1513
 6851SOL    HW132015   4.267   1.733  12.833 -1.0239 -2.1796  1.1859
 6851SOL    HW232016   4.144   1.737  12.920 -0.0587 -0.3129 -0.4528
 6852SOL     OW32017   2.032   4.116   6.951  0.4688 -0.7883  0.7563
 6852SOL    HW132018   2.043   4.049   7.018  0.9218 -1.3021  0.1703
 6852SOL    HW232019   2.100   4.090   6.888  0.1125 -0.0140  0.0553
 6853SOL     OW32020   1.462   3.719   3.309 -0.8099 -0.3331  0.1656
 6853SOL    HW132021   1.504   3.678   3.234  0.3608  0.0164  0.6219
 6853SOL    HW232022   1.544   3.730   3.358 -1.0113  1.3101  0.1104
 6854SOL     OW32023   2.205   0.326   8.548 -0.2983 -0.3602  0.1520
 6854SOL    HW132024   2.131   0.372   8.588  0.0371  1.5041 -1.3798
 6854SOL    HW232025   2.259   0.397   8.513  1.0519 -1.0044  0.9102
 6855SOL     OW32026   1.243   1.283   2.214  0.9933 -0.6126  0.2056
 6855SOL    HW132027   1.307   1.343   2.177 -0.6070  0.5556 -0.6590
 6855SOL    HW232028   1.166   1.299   2.161 -0.4712 -0.5323  2.3474
 6856SOL     OW32029   3.912   3.445   5.448  0.1447  0.0957  0.1291
 6856SOL    HW132030   3.829   3.485   5.474  0.2309  1.1568 -1.2472
 6856SOL    HW232031   3.944   3.509   5.384 -1.3072  1.0762  0.3760
 6857SOL     OW32032   4.454   3.811   9.012  0.9877 -0.2519  0.7955
 6857SOL    HW132033   4.429   3.775   8.927  0.3061 -0.3689  1.0420
 6857SOL    HW232034   4.379   3.779   9.062  0.6913  2.2634  1.9511
 6858SOL     OW32035   1.334   1.896  16.250  0.0531 -0.4327 -0.8250
 6858SOL    HW132036   1.312   1.988  16.236 -0.7421 -0.7891 -2.0097
 6858SOL    HW232037   1.408   1.893  16.190 -1.2788 -0.0366 -2.4890
 6859SOL     OW32038   2.296   1.423   8.551  0.2572 -0.2172  0.2898
 6859SOL    HW132039   2.212   1.453   8.517  0.9712  1.7890  0.2635
 6859SOL    HW232040   2.353   1.499   8.539  1.3877 -1.3375 -1.5165
 6860SOL     OW32041   3.054   3.618   8.688 -0.4478  0.1213 -0.2016
 6860SOL    HW132042   3.144   3.614   8.721 -1.2570 -1.4859  1.8556
 6860SOL    HW232043   3.014   3.591   8.771  0.0061 -1.5237 -0.5034
 6861SOL     OW32044   2.344   2.774   7.618 -0.9667  0.1252  0.1223
 6861SOL    HW132045   2.338   2.834   7.544  2.4510 -0.8612 -0.9764
 6861SOL    HW232046   2.426   2.728   7.597  0.2056  1.6128  1.3813
 6862SOL     OW32047   2.351   0.078   4.120 -0.1111  0.0084  0.7342
 6862SOL    HW132048   2.367   0.010   4.186  0.1814 -1.8705 -1.2929
 6862SOL    HW232049   2.363   0.150   4.183  1.1914  0.2762  0.1635
 6863SOL     OW32050   1.906   1.874   7.902  0.7619 -0.7774 -0.1754
 6863SOL    HW132051   1.966   1.903   7.971  1.3347 -0.1142 -0.9708
 6863SOL    HW232052   1.947   1.894   7.819  1.2921 -2.1710 -0.2550
 6864SOL     OW32053   0.688   1.068   6.035 -0.2496  0.3876  0.1027
 6864SOL    HW132054   0.645   1.096   5.954 -0.7264  0.5551  0.4154
 6864SOL    HW232055   0.624   1.108   6.094 -0.2033 -0.1966  0.5448
 6865SOL     OW32056   4.577   1.088   6.843 -0.2181 -0.4218 -0.1979
 6865SOL    HW132057   4.546   1.020   6.783 -0.5336  0.2817 -0.8470
 6865SOL    HW232058   4.668   1.060   6.844 -0.5784 -1.5436  0.8632
 6866SOL     OW32059   3.473   4.023   7.420  0.3023  0.3271  0.3837
 6866SOL    HW132060   3.541   3.982   7.366 -0.9225 -1.2403  0.0344
 6866SOL    HW232061   3.502   4.112   7.402 -0.4998  0.7635  1.2820
 6867SOL     OW32062   1.579   0.805   6.926 -0.0351  0.1417  0.0557
 6867SOL    HW132063   1.556   0.813   6.833 -0.0408 -0.2830  0.0206
 6867SOL    HW232064   1.499   0.820   6.976 -0.4949 -0.7373 -0.4221
 6868SOL     OW32065   2.598   1.986  15.783  0.6182  0.0459  0.1452
 6868SOL    HW132066   2.648   2.036  15.719  1.8709 -3.6916 -1.8131
 6868SOL    HW232067   2.668   1.933  15.821 -0.2961  0.1292  1.9837
 6869SOL     OW32068   2.741   3.656   8.434 -0.3094 -0.1806  0.2270
 6869SOL    HW132069   2.793   3.576   8.438  0.6408  0.6640  4.2171
 6869SOL    HW232070   2.651   3.625   8.431 -0.5729  0.6028 -0.1172
 6870SOL     OW32071   1.799   1.408  10.878  0.3027  0.3904  0.6973
 6870SOL    HW132072   1.706   1.392  10.861  0.2310  0.6290  0.8562
 6870SOL    HW232073   1.825   1.329  10.923  0.4373  1.4791  2.5246
 6871SOL     OW32074   0.620   4.698   3.666  0.4561  0.4988  0.0524
 6871SOL    HW132075   0.651   4.610   3.688 -2.3050 -0.9108 -1.7258
 6871SOL    HW232076   0.677   0.024   3.726 -1.8922 -0.5764  3.1547
 6872SOL     OW32077   1.853   2.365  11.124  0.0474 -0.0381 -0.6174
 6872SOL    HW132078   1.848   2.291  11.063 -0.3767  0.4244 -1.1390
 6872SOL    HW232079   1.932   2.407  11.090  0.3596  0.7491  1.0940
 6873SOL     OW32080   1.200   4.473   2.415  0.7185 -0.7277  0.5024
 6873SOL    HW132081   1.150   4.439   2.341  0.6493  1.2244 -0.3639
 6873SOL    HW232082   1.292   4.466   2.389  0.5950  0.1898 -0.1887
 6874SOL     OW32083   0.523   4.486   8.605  0.9379 -0.1719  0.0382
 6874SOL    HW132084   0.583   4.482   8.531  0.0807 -1.5147 -0.5694
 6874SOL    HW232085   0.541   4.575   8.636  0.4769  0.3172 -1.1171
 6875SOL     OW32086   1.322   1.373   2.964 -0.4747  0.6751 -0.2491
 6875SOL    HW132087   1.344   1.281   2.944 -1.8872 -0.0128  1.3777
 6875SOL    HW232088   1.367   1.385   3.048  0.3811  0.6530 -0.7054
 6876SOL     OW32089   3.903   3.752   6.930 -0.4261  0.1308 -0.1454
 6876SOL    HW132090   3.927   3.797   6.849 -0.0147  0.9780  0.4413
 6876SOL    HW232091   3.812   3.731   6.908  0.1172 -2.3120  0.0071
 6877SOL     OW32092   4.651   1.629   3.582 -0.0839  0.5888 -0.2464
 6877SOL    HW132093   4.663   1.591   3.495 -0.5192 -2.0910  0.8746
 6877SOL    HW232094   4.556   1.642   3.581 -0.5913 -3.2967 -0.1681
 6878SOL     OW32095   2.571   1.716   8.687 -0.1305 -0.2688 -0.1672
 6878SOL    HW132096   2.533   1.658   8.753  1.2783 -0.7615  0.2177
 6878SOL    HW232097   2.615   1.775   8.748 -0.0292 -0.0337 -0.4714
 6879SOL     OW32098   2.909   0.084   3.797 -0.3758 -0.3637 -0.5994
 6879SOL    HW132099   2.829   0.059   3.750 -0.9565 -1.9651  1.2758
 6879SOL    HW232100   2.886   0.165   3.843  4.8277  0.2823  0.8666
 6880SOL     OW32101   2.835   1.442   3.342  0.7821 -0.6537  0.3203
 6880SOL    HW132102   2.766   1.411   3.284  0.1688  2.0319 -0.3682
 6880SOL    HW232103   2.782   1.450   3.422 -0.7070 -2.4562 -0.4859
 6881SOL     OW32104   4.014   0.545   6.172  0.4093  0.5548  0.0966
 6881SOL    HW132105   4.017   0.641   6.178 -1.1863  0.5021  1.4102
 6881SOL    HW232106   4.006   0.517   6.262  1.7948  1.8063  0.6227
 6882SOL     OW32107   0.511   0.087   7.843  0.4522  0.5342  0.4361
 6882SOL    HW132108   0.569   0.026   7.888 -2.5700 -2.5319  0.1708
 6882SOL    HW232109   0.433   0.075   7.897 -0.2562 -0.3192 -0.7807
 6883SOL     OW32110   3.926   0.213   9.146 -0.2314  0.2765 -0.5798
 6883SOL    HW132111   3.942   0.271   9.221 -0.7517 -0.1154 -0.1703
 6883SOL    HW232112   3.863   0.151   9.183  3.6206 -2.9808  0.4176
 6884SOL     OW32113   3.319   2.221   9.074 -0.0172  0.7938 -0.5567
 6884SOL    HW132114   3.403   2.233   9.031 -0.2769 -1.4425 -1.6748
 6884SOL    HW232115   3.262   2.275   9.019  0.9947  1.6183 -0.7978
 6885SOL     OW32116   1.723   2.447  10.735 -0.2763  0.0077  0.7928
 6885SOL    HW132117   1.753   2.367  10.693 -0.9248 -1.3693  2.9771
 6885SOL    HW232118   1.811   2.481  10.752  0.4942 -1.3787 -0.5239
 6886SOL     OW32119   3.003   3.283   3.195  0.3778  0.0642 -0.1317
 6886SOL    HW132120   3.088   3.247   3.169  0.5682  0.9119 -0.6906
 6886SOL    HW232121   3.037   3.366   3.228 -2.4450  0.5329  1.6082
 6887SOL     OW32122   3.369   3.655   0.627  0.6073  0.2259  0.2675
 6887SOL    HW132123   3.309   3.629   0.697 -0.3355  1.7283  0.0209
 6887SOL    HW232124   3.420   3.732   0.653 -0.0304  0.9275 -0.5604
 6888SOL     OW32125   2.941   0.413   6.122 -0.1279  0.0203  0.3995
 6888SOL    HW132126   3.017   0.356   6.114 -0.0632 -0.1177  2.0799
 6888SOL    HW232127   2.893   0.367   6.053  2.3470  0.3407 -1.5549
 6889SOL     OW32128   0.021   2.698   0.329  0.1052  0.1736 -1.3172
 6889SOL    HW132129   0.092   2.652   0.283  0.3064 -1.7278  0.9607
 6889SOL    HW232130   0.059   2.786   0.335  0.6768 -0.2795  1.6128
 6890SOL     OW32131   1.454   0.105   2.764  0.0579  0.4044  0.4098
 6890SOL    HW132132   1.441   0.198   2.745  1.4342  0.1535 -1.7787
 6890SOL    HW232133   1.530   0.086   2.708 -0.6230 -2.7235  0.5571
 6891SOL     OW32134   3.512   0.088   5.280  0.0323  0.2574  0.4614
 6891SOL    HW132135   3.458   0.166   5.290  0.3738  0.5574 -0.0562
 6891SOL    HW232136   3.564   0.077   5.360 -1.3391  0.5528  1.3765
 6892SOL     OW32137   4.198   4.096   1.305  0.2719  0.6905 -0.6414
 6892SOL    HW132138   4.238   4.175   1.339 -0.6986  0.5932  0.7279
 6892SOL    HW232139   4.229   4.091   1.214  0.3254  1.4621 -0.6685
 6893SOL     OW32140   2.491   1.121  15.069 -0.9594 -0.0343  0.2572
 6893SOL    HW132141   2.512   1.049  15.128 -1.1376 -0.7132 -0.5052
 6893SOL    HW232142   2.563   1.102  15.009 -1.0135  0.0070  0.1778
 6894SOL     OW32143   1.502   1.446   2.123  0.1946 -0.2024 -0.1544
 6894SOL    HW132144   1.484   1.457   2.029  0.8170  4.4419  0.2660
 6894SOL    HW232145   1.597   1.453   2.126  0.1792 -0.9613  2.4608
 6895SOL     OW32146   4.091   2.369   0.885 -0.4914  0.0045 -0.0284
 6895SOL    HW132147   4.062   2.385   0.795 -0.7349  1.8768  0.3745
 6895SOL    HW232148   4.065   2.277   0.886 -0.6781  0.0449 -1.0903
 6896SOL     OW32149   1.178   3.290  16.319  0.0805 -0.3271 -0.1847
 6896SOL    HW132150   1.202   3.269  16.229  0.1277 -1.1200  0.0183
 6896SOL    HW232151   1.227   3.224  16.367  1.0892  0.9446  0.5638
 6897SOL     OW32152   4.313   2.317  10.248  0.0773  0.0882  0.5986
 6897SOL    HW132153   4.263   2.322  10.330 -1.7913  0.4183 -0.5697
 6897SOL    HW232154   4.244   2.291  10.188 -0.8829  1.2667  1.1870
 6898SOL     OW32155   0.872   1.548   4.037 -0.1194 -0.3569 -0.3848
 6898SOL    HW132156   0.840   1.531   4.126  0.8781 -1.0518 -0.1632
 6898SOL    HW232157   0.787   1.553   3.992 -0.7926 -0.8315  0.8180
 6899SOL     OW32158   0.768   2.542   8.305 -0.2096  0.0707  0.0951
 6899SOL    HW132159   0.770   2.447   8.313 -1.5410  0.3949  4.4773
 6899SOL    HW232160   0.700   2.546   8.238  0.6565  1.4229 -0.7107
 6900SOL     OW32161   1.905   4.652   9.235  0.0985 -0.2760 -0.2092
 6900SOL    HW132162   1.812   4.676   9.235  0.3260  0.5556  2.3780
 6900SOL    HW232163   1.934   0.002   9.180 -0.4236 -0.5130 -0.7983
 6901SOL     OW32164   1.081   1.356  13.843 -0.3098  0.3303  0.2667
 6901SOL    HW132165   1.084   1.337  13.937  0.9326  1.7142  0.5053
 6901SOL    HW232166   1.149   1.424  13.845 -1.3794  1.3861  0.6064
 6902SOL     OW32167   4.550   3.674   2.788 -0.0596  0.2310  0.2544
 6902SOL    HW132168   4.599   3.751   2.760 -0.1485  0.2878  0.2564
 6902SOL    HW232169   4.572   3.604   2.727 -0.3348 -1.4270  2.0496
 6903SOL     OW32170   1.576   1.662   5.500 -0.4718 -0.1779 -0.5371
 6903SOL    HW132171   1.616   1.669   5.587  0.1201 -2.9227 -0.5924
 6903SOL    HW232172   1.497   1.715   5.512  0.6183  1.2069  0.5154
 6904SOL     OW32173   2.205   0.405   1.757 -0.3290 -0.0441  0.0785
 6904SOL    HW132174   2.294   0.424   1.730 -0.2558 -0.3976  0.0635
 6904SOL    HW232175   2.236   0.334   1.814 -0.3529 -0.7084 -0.7323
 6905SOL     OW32176   4.591   0.662   7.802  0.8071  0.6586  0.1463
 6905SOL    HW132177   4.541   0.681   7.881 -1.8574 -1.0056 -1.1050
 6905SOL    HW232178   4.615   0.570   7.813 -0.1656  0.3356 -0.3478
 6906SOL     OW32179   1.671   4.089   4.960 -0.1870  0.4433 -0.1415
 6906SOL    HW132180   1.656   4.164   4.903  2.5896  0.6699 -0.5528
 6906SOL    HW232181   1.750   4.115   5.008  0.9710 -0.0300 -1.7996
 6907SOL     OW32182   3.446   0.493   2.881 -0.0963  0.0055 -0.2490
 6907SOL    HW132183   3.487   0.413   2.848  0.1905  0.5022 -1.0926
 6907SOL    HW232184   3.486   0.562   2.827 -0.5574  1.3438  1.1100
 6908SOL     OW32185   0.515   4.251  14.670  0.0914  0.5082 -0.1558
 6908SOL    HW132186   0.479   4.167  14.639  0.4258  0.0353  0.7461
 6908SOL    HW232187   0.606   4.229  14.649 -0.2133 -0.5495 -0.3626
 6909SOL     OW32188   3.865   2.533   4.367  0.2863  0.4153  0.3101
 6909SOL    HW132189   3.784   2.581   4.352  0.0730  0.0093  0.1708
 6909SOL    HW232190   3.911   2.605   4.411 -1.0213  0.3961  1.7159
 6910SOL     OW32191   0.360   2.527   2.478  0.0925  0.0052  0.2603
 6910SOL    HW132192   0.430   2.534   2.413 -0.8778  0.9846 -0.6875
 6910SOL    HW232193   0.370   2.439   2.516  1.0902  0.1186  0.2463
 6911SOL     OW32194   2.341   1.226  17.253  0.1439  0.0681 -0.4126
 6911SOL    HW132195   2.410   1.243  17.188  1.5960 -0.3915  1.0079
 6911SOL    HW232196   2.384   1.272  17.325 -1.0533  1.3066 -0.4903
 6912SOL     OW32197   0.446   4.187  11.285  0.3419 -0.7604  0.3307
 6912SOL    HW132198   0.527   4.236  11.275 -0.8407  1.2162  0.5095
 6912SOL    HW232199   0.394   4.257  11.324 -1.0513 -0.1718 -2.6060
 6913SOL     OW32200   0.623   2.720   7.469  0.4815 -0.1460 -0.1903
 6913SOL    HW132201   0.604   2.699   7.561  2.3882 -0.4072  0.1302
 6913SOL    HW232202   0.666   2.801   7.494 -1.1144 -0.1705  2.6800
 6914SOL     OW32203   0.012   1.106   0.986 -0.3533  0.2585 -0.3724
 6914SOL    HW132204   4.723   1.064   1.071 -0.2867 -0.3805 -0.6767
 6914SOL    HW232205   4.693   1.191   0.995  0.4311  0.8199 -2.0788
 6915SOL     OW32206   3.853   1.403   7.145  0.2360 -0.0640 -0.5498
 6915SOL    HW132207   3.902   1.458   7.206  0.4159  0.1349 -0.8719
 6915SOL    HW232208   3.806   1.337   7.195  0.5482 -1.1888 -1.7405
 6916SOL     OW32209   2.143   0.228   5.423 -0.0146 -0.2102 -1.1660
 6916SOL    HW132210   2.056   0.255   5.394 -0.4913 -1.0117 -0.4925
 6916SOL    HW232211   2.196   0.307   5.428  0.9777 -1.0413  1.4440
 6917SOL     OW32212   4.377   2.513   1.253 -0.5311  0.1854  0.0602
 6917SOL    HW132213   4.337   2.557   1.329 -2.4266 -1.9895  0.3126
 6917SOL    HW232214   4.342   2.424   1.255  2.0913 -0.8309  0.1845
 6918SOL     OW32215   3.868   3.936   8.789 -0.3909 -0.5325 -0.2243
 6918SOL    HW132216   3.781   3.948   8.750 -1.2184  0.2328  1.8136
 6918SOL    HW232217   3.879   3.841   8.781  1.4327 -0.1397 -2.4493
 6919SOL     OW32218   4.695   3.715  14.506  0.1859  0.2765 -0.7370
 6919SOL    HW132219   4.700   3.678  14.418 -1.8213  0.4907 -0.9537
 6919SOL    HW232220   4.668   3.805  14.485 -0.6999  0.0577 -0.5260
 6920SOL     OW32221   3.549   0.851   4.211  0.1167  0.1271 -0.4721
 6920SOL    HW132222   3.472   0.794   4.209 -0.5474  0.9083  1.7601
 6920SOL    HW232223   3.579   0.845   4.121 -0.1705  0.1738 -0.5729
 6921SOL     OW32224   0.259   2.260   8.161  0.0121  0.1087 -0.0266
 6921SOL    HW132225   0.306   2.326   8.213  0.7429  0.7484 -1.5102
 6921SOL    HW232226   0.291   2.270   8.072 -0.1173 -0.7227 -0.1613
 6922SOL     OW32227   0.358   2.723   4.626 -0.1501  0.2591 -0.5432
 6922SOL    HW132228   0.450   2.704   4.639 -0.5081 -0.9653  0.2156
 6922SOL    HW232229   0.308   2.680   4.695  0.7546 -2.8352 -1.8076
 6923SOL     OW32230   1.469   3.042  13.798 -0.4064 -0.0275  0.0099
 6923SOL    HW132231   1.390   3.013  13.751 -0.1334 -2.7695  1.2775
 6923SOL    HW232232   1.515   2.960  13.815 -0.1803 -0.2920 -1.8867
 6924SOL     OW32233   1.519   4.672   4.488  0.1328  0.3109 -0.0420
 6924SOL    HW132234   1.455   4.609   4.520  0.4711 -1.1259 -2.1610
 6924SOL    HW232235   1.490   4.672   4.397  1.3561  0.2197 -0.4358
 6925SOL     OW32236   0.137   1.863  16.500 -0.9671 -0.0523  0.5860
 6925SOL    HW132237   0.180   1.933  16.549 -0.0832  0.0225 -0.2796
 6925SOL    HW232238   0.217   1.825  16.463  0.6712  2.6578  1.3656
 6926SOL     OW32239   2.971   3.451  16.414 -0.4690 -0.0586 -0.2112
 6926SOL    HW132240   2.919   3.512  16.466 -0.0589  1.3513 -1.4793
 6926SOL    HW232241   3.005   3.510  16.347  0.3497 -1.3518 -0.9279
 6927SOL     OW32242   1.865   0.128  13.976  0.2929  0.2087  0.0769
 6927SOL    HW132243   1.898   0.193  13.913  0.1596 -0.7237 -0.9492
 6927SOL    HW232244   1.934   0.064  13.961  0.0744 -0.5945  2.5961
 6928SOL     OW32245   2.711   2.183   7.357  0.3138 -0.6008  0.3906
 6928SOL    HW132246   2.638   2.227   7.314 -0.3619 -2.0759  0.0381
 6928SOL    HW232247   2.690   2.176   7.450 -1.3975 -1.5761 -0.0756
 6929SOL     OW32248   4.520   2.222  13.036 -0.7654 -0.2681  0.3551
 6929SOL    HW132249   4.471   2.150  12.998 -0.3431 -0.0715 -0.5668
 6929SOL    HW232250   4.606   2.182  13.039  0.4515  2.2704 -0.3924
 6930SOL     OW32251   0.727   3.236   4.560  0.1662  0.2831 -0.6626
 6930SOL    HW132252   0.740   3.156   4.510 -2.7295 -0.2137 -0.6566
 6930SOL    HW232253   0.693   3.213   4.647  0.0864 -0.3926 -0.8744
 6931SOL     OW32254   4.714   2.649   5.198  0.3592 -0.2693 -0.4018
 6931SOL    HW132255   0.029   2.719   5.251  2.2911 -0.5185 -1.4557
 6931SOL    HW232256   0.058   2.629   5.132  1.0667 -0.0480  0.2491
 6932SOL     OW32257   1.742   4.131   8.744  0.5327 -0.3203 -0.7310
 6932SOL    HW132258   1.714   4.199   8.806 -0.7362 -1.4372 -0.0912
 6932SOL    HW232259   1.660   4.081   8.737 -0.4356  1.5738 -3.0153
 6933SOL     OW32260   0.411   2.550   9.013  0.9401  0.7219 -0.1726
 6933SOL    HW132261   0.480   2.576   9.074 -0.1978  0.6538  1.1480
 6933SOL    HW232262   0.458   2.517   8.937  2.2252 -0.2671  1.0506
 6934SOL     OW32263   2.612   2.653  11.183 -0.1581 -0.3207  0.6205
 6934SOL    HW132264   2.641   2.568  11.148  0.3199  0.2528 -0.4004
 6934SOL    HW232265   2.686   2.703  11.149  0.1552 -1.4391 -0.3856
 6935SOL     OW32266   1.967   3.003   2.080 -0.7176 -0.2472 -0.0273
 6935SOL    HW132267   1.984   3.041   1.994 -2.2738 -1.3086 -0.7937
 6935SOL    HW232268   2.056   2.974   2.101 -1.5499 -2.1625  0.9057
 6936SOL     OW32269   1.547   4.722   7.697 -0.0620  0.3018 -0.0687
 6936SOL    HW132270   1.581   0.032   7.614 -2.0056  0.6862 -0.7107
 6936SOL    HW232271   1.609   4.650   7.710  1.1944  1.2682 -0.7463
 6937SOL     OW32272   3.191   1.972   3.490 -0.0503  0.1831  0.7844
 6937SOL    HW132273   3.282   2.003   3.492 -0.5670  1.6941  0.6087
 6937SOL    HW232274   3.179   1.971   3.395 -2.1910 -0.5040  1.0677
 6938SOL     OW32275   1.697   2.666   3.816  0.4530 -0.0532  0.1262
 6938SOL    HW132276   1.726   2.575   3.813 -1.1856 -0.5412 -0.7642
 6938SOL    HW232277   1.692   2.694   3.725  1.0570  1.7587  0.6452
 6939SOL     OW32278   2.090   2.037   3.114 -0.0329 -0.2243 -0.3109
 6939SOL    HW132279   2.055   2.120   3.082  1.9477  1.4768  1.9562
 6939SOL    HW232280   2.058   1.982   3.042 -1.1341 -1.5735  1.2052
 6940SOL     OW32281   1.383   4.488  11.463  0.1480 -0.1588  0.2138
 6940SOL    HW132282   1.457   4.531  11.506 -0.3173  0.1917  0.6648
 6940SOL    HW232283   1.336   4.449  11.536  1.7377 -0.2453  1.1693
 6941SOL     OW32284   1.243   2.674  13.488 -0.1850 -0.3242 -0.1189
 6941SOL    HW132285   1.255   2.768  13.477  0.4209 -0.0289  3.0541
 6941SOL    HW232286   1.241   2.670  13.584  1.4055  2.7369  0.0232
 6942SOL     OW32287   0.988   2.314   0.927  0.0096 -0.0467  0.1953
 6942SOL    HW132288   0.963   2.275   0.843  0.3012  0.0489  0.0655
 6942SOL    HW232289   0.989   2.238   0.985 -3.3501 -0.0678  0.2695
 6943SOL     OW32290   2.864   2.570   5.269  0.0137  0.3280  0.6296
 6943SOL    HW132291   2.931   2.618   5.221  1.6050 -1.7239  0.8178
 6943SOL    HW232292   2.787   2.591   5.216 -0.0500 -1.8157 -0.1256
 6944SOL     OW32293   4.692   2.104   0.506  0.8289  0.0911 -0.0217
 6944SOL    HW132294   4.648   2.174   0.554 -0.0481 -0.0253 -0.6504
 6944SOL    HW232295   0.053   2.100   0.552  0.9650  0.3671 -0.2452
 6945SOL     OW32296   1.877   3.380   3.529 -0.0091  0.0046 -0.6898
 6945SOL    HW132297   1.850   3.426   3.449  0.4114 -0.6974 -1.2347
 6945SOL    HW232298   1.973   3.378   3.520 -0.1768 -2.3661 -1.7464
 6946SOL     OW32299   3.903   2.614  10.778  0.0347 -1.0994 -0.0825
 6946SOL    HW132300   3.832   2.569  10.824 -0.8386 -0.2258 -0.5809
 6946SOL    HW232301   3.947   2.636  10.859 -1.1021 -0.6121  0.4074
 6947SOL     OW32302   1.342   3.793   2.946  0.0653  0.0062 -0.1460
 6947SOL    HW132303   1.303   3.750   2.870  0.1271 -0.1744 -0.0743
 6947SOL    HW232304   1.285   3.779   3.021  0.8422  0.0407  0.4567
 6948SOL     OW32305   2.763   1.650  12.452 -0.3574 -0.0776 -0.3332
 6948SOL    HW132306   2.791   1.717  12.390  1.8941  0.7311  1.5968
 6948SOL    HW232307   2.781   1.565  12.411 -0.3186 -0.3034  0.1467
 6949SOL     OW32308   4.272   4.310   6.901  0.0833  0.3505  0.8573
 6949SOL    HW132309   4.354   4.269   6.875  0.5141  1.7352  0.0688
 6949SOL    HW232310   4.224   4.232   6.931  0.9347 -0.2207  0.7451
 6950SOL     OW32311   1.312   4.223   5.542  0.0490 -0.1304  0.0387
 6950SOL    HW132312   1.256   4.274   5.483  1.2551  0.7238 -0.3685
 6950SOL    HW232313   1.372   4.173   5.487 -1.6396 -0.8714 -1.1422
 6951SOL     OW32314   1.717   3.146  12.528 -0.2178  0.1955 -0.6896
 6951SOL    HW132315   1.800   3.162  12.572  0.0394 -0.9685 -0.7497
 6951SOL    HW232316   1.661   3.151  12.605  0.5050 -0.8655 -0.0919
 6952SOL     OW32317   2.595   1.198   4.985  0.1722 -0.0188 -0.7431
 6952SOL    HW132318   2.572   1.141   5.058 -0.6218  0.2635 -0.7697
 6952SOL    HW232319   2.671   1.150   4.952  1.5582  1.4004  0.3821
 6953SOL     OW32320   3.708   2.982   4.461  0.4367 -0.1436  0.0667
 6953SOL    HW132321   3.619   2.970   4.429  0.1346  2.7430 -0.1121
 6953SOL    HW232322   3.717   3.076   4.475 -1.6006 -0.3840  2.9559
 6954SOL     OW32323   1.116   2.177   4.958  0.5779  0.2638 -0.6131
 6954SOL    HW132324   1.116   2.089   4.920 -0.4512  0.2833 -0.6449
 6954SOL    HW232325   1.114   2.156   5.051 -0.2381 -2.3893 -1.2301
 6955SOL     OW32326   1.896   0.579   3.054 -0.2675  0.3726  0.4519
 6955SOL    HW132327   1.841   0.654   3.033  0.7245  1.5193  2.0163
 6955SOL    HW232328   1.921   0.548   2.966  0.0820  2.2984 -0.1185
 6956SOL     OW32329   3.017   1.354   3.623  0.1569  0.3960  0.3365
 6956SOL    HW132330   3.092   1.341   3.565  1.2184  3.1720  1.0739
 6956SOL    HW232331   3.051   1.309   3.700 -2.1861  0.8441  1.6503
 6957SOL     OW32332   3.363   3.189   2.977 -0.0853  0.4560  1.2279
 6957SOL    HW132333   3.444   3.225   3.013  0.8507 -0.9784  0.5615
 6957SOL    HW232334   3.394   3.107   2.938 -1.8363  0.3439  0.0985
 6958SOL     OW32335   1.379   2.423   0.341  0.2351 -0.2122 -0.3023
 6958SOL    HW132336   1.370   2.473   0.423 -1.6675 -0.1913 -0.5341
 6958SOL    HW232337   1.448   2.358   0.358  1.0855  0.0421 -2.8358
 6959SOL     OW32338   4.102   1.716   3.533  0.0219 -0.8057 -0.3562
 6959SOL    HW132339   4.078   1.742   3.444  1.5360  1.7458 -0.0128
 6959SOL    HW232340   4.074   1.796   3.577  0.1874 -0.7315 -0.3864
 6960SOL     OW32341   1.812   1.577   1.223 -0.1215  0.0130 -0.4881
 6960SOL    HW132342   1.721   1.586   1.193  0.4610  0.8756 -1.9601
 6960SOL    HW232343   1.843   1.661   1.189 -0.0560 -0.3082 -1.2195
 6961SOL     OW32344   3.630   0.312   3.554  0.0119 -0.1376  0.2208
 6961SOL    HW132345   3.547   0.264   3.550  1.8367 -3.3919  1.0393
 6961SOL    HW232346   3.609   0.378   3.489 -1.2513  1.6303  2.4065
 6962SOL     OW32347   3.069   4.419   6.976  0.0319  0.1076 -0.2404
 6962SOL    HW132348   3.080   4.358   6.902  0.9246  0.3712 -0.3253
 6962SOL    HW232349   2.976   4.440   6.977  0.1405  0.5269  0.6120
 6963SOL     OW32350   4.409   4.203   3.091  0.5210 -0.1032 -0.3837
 6963SOL    HW132351   4.378   4.273   3.148  0.7163  0.9379 -1.5602
 6963SOL    HW232352   4.455   4.155   3.160 -1.5306 -1.5824 -0.0232
 6964SOL     OW32353   0.834   3.745   5.020  0.1399  0.0539 -0.5623
 6964SOL    HW132354   0.789   3.828   5.007  2.9523  1.7109  0.2939
 6964SOL    HW232355   0.815   3.721   5.110 -3.5425 -3.0119 -2.1540
 6965SOL     OW32356   4.711   1.701  16.330 -0.1798 -0.0378 -0.3629
 6965SOL    HW132357   0.009   1.777  16.385  0.4871 -0.0093 -0.6630
 6965SOL    HW232358   0.055   1.718  16.264  0.6460 -1.1096  0.1953
 6966SOL     OW32359   2.149   3.744   8.964  0.5425 -0.0048  0.3489
 6966SOL    HW132360   2.082   3.675   8.968 -0.5120  1.0373  0.8750
 6966SOL    HW232361   2.108   3.831   8.970 -1.0537 -0.9234  2.8350
 6967SOL     OW32362   3.539   2.819   3.772 -0.0314 -0.1975 -0.7300
 6967SOL    HW132363   3.532   2.882   3.700  0.5163  2.7108  1.7789
 6967SOL    HW232364   3.606   2.759   3.740  1.3832  1.4478 -0.8309
 6968SOL     OW32365   1.976   2.588   0.151 -0.1149  0.0623 -0.4285
 6968SOL    HW132366   1.956   2.629   0.235  0.3230 -0.3406 -0.1333
 6968SOL    HW232367   1.996   2.667   0.100 -0.5289  0.9194  0.7297
 6969SOL     OW32368   3.714   1.535   1.928 -0.1054  1.0904 -0.7362
 6969SOL    HW132369   3.670   1.453   1.907  1.6871 -0.9675  3.6235
 6969SOL    HW232370   3.778   1.504   1.992 -0.8413  1.3839  0.1354
 6970SOL     OW32371   1.229   2.470   8.643 -0.8019 -0.3676  0.9596
 6970SOL    HW132372   1.146   2.460   8.690 -0.2960  1.1798  2.1701
 6970SOL    HW232373   1.244   2.564   8.656 -4.7205  0.3516  0.2724
 6971SOL     OW32374   0.236   2.707   3.478 -0.3040  0.1420  0.6975
 6971SOL    HW132375   0.210   2.752   3.397 -0.9688 -1.5695 -0.0379
 6971SOL    HW232376   0.254   2.621   3.440 -0.6868 -0.0873  1.0340
 6972SOL     OW32377   3.233   1.732   8.917 -0.8030  0.2639 -0.1674
 6972SOL    HW132378   3.318   1.744   8.873 -0.7561 -0.6049 -0.3117
 6972SOL    HW232379   3.222   1.639   8.895  1.5662 -0.5052  1.7928
 6973SOL     OW32380   2.293   0.707   7.686  0.1357 -0.2116  0.1832
 6973SOL    HW132381   2.285   0.781   7.626 -2.6853  0.5422  1.4794
 6973SOL    HW232382   2.378   0.723   7.727  0.6759 -3.9227  0.4939
 6974SOL     OW32383   0.829   1.506  14.480  0.1624  0.1005  0.1718
 6974SOL    HW132384   0.867   1.524  14.394 -2.1886  0.3824 -0.8214
 6974SOL    HW232385   0.911   1.511  14.529 -0.2757 -0.7904  0.9967
 6975SOL     OW32386   2.721   3.963   0.957 -0.2133  0.1081 -0.1794
 6975SOL    HW132387   2.632   3.998   0.951 -0.1513  0.4837  1.1853
 6975SOL    HW232388   2.759   4.008   1.032  1.2374  1.2180 -1.5991
 6976SOL     OW32389   0.867   0.074   6.805 -0.4454  0.0602 -0.0914
 6976SOL    HW132390   0.944   0.080   6.861 -0.3617  0.4947 -0.2460
 6976SOL    HW232391   0.860   0.162   6.766 -3.4973  0.9409  2.4522
 6977SOL     OW32392   0.474   1.614   7.946  0.0907 -0.1060  0.5178
 6977SOL    HW132393   0.487   1.525   7.979 -0.6588  0.0692  1.2807
 6977SOL    HW232394   0.565   1.643   7.943 -0.0038  0.2507  1.0579
 6978SOL     OW32395   2.125   2.248   4.458  0.0685 -0.5269  0.4694
 6978SOL    HW132396   2.189   2.261   4.388 -1.5492 -2.0211 -1.2601
 6978SOL    HW232397   2.048   2.209   4.418  0.6752  0.1618 -1.3703
 6979SOL     OW32398   2.337   2.362   2.366  0.2852 -0.4320 -0.1535
 6979SOL    HW132399   2.280   2.286   2.366 -1.7442  1.0761  0.2089
 6979SOL    HW232400   2.422   2.317   2.364  0.2668 -0.5566  1.4227
 6980SOL     OW32401   1.269   4.500   4.195 -0.1177 -0.2627 -0.6070
 6980SOL    HW132402   1.225   4.540   4.120 -1.5452 -3.2390 -1.3633
 6980SOL    HW232403   1.197   4.497   4.259 -0.2830 -0.2636 -0.7912
 6981SOL     OW32404   3.949   3.646   4.290 -0.2534 -0.0428  0.6225
 6981SOL    HW132405   3.979   3.555   4.289 -1.1474 -0.3545  3.2988
 6981SOL    HW232406   4.012   3.677   4.355  0.2220 -2.8164  1.4710
 6982SOL     OW32407   1.096   1.769  14.129 -0.1144  0.3171  0.4607
 6982SOL    HW132408   1.094   1.860  14.098 -1.8117 -0.6956 -2.4668
 6982SOL    HW232409   1.121   1.717  14.052 -0.4613 -0.3294  0.7813
 6983SOL     OW32410   2.655   0.612   8.048  0.4067 -0.1510  0.4507
 6983SOL    HW132411   2.598   0.681   8.082  1.1431 -0.1825  1.7769
 6983SOL    HW232412   2.605   0.530   8.055  1.2513 -0.8344 -1.6329
 6984SOL     OW32413   1.949   2.881   5.894  0.3705 -0.0867  0.6171
 6984SOL    HW132414   1.956   2.921   5.981  1.8221 -2.5542  1.6403
 6984SOL    HW232415   2.031   2.832   5.902 -0.5273 -1.7184 -0.1245
 6985SOL     OW32416   1.621   4.372   8.250 -0.6813 -0.1787 -0.0473
 6985SOL    HW132417   1.708   4.411   8.246 -0.7789  0.1443  0.9515
 6985SOL    HW232418   1.618   4.316   8.172  1.3534  0.0733 -0.3232
 6986SOL     OW32419   1.155   3.663  12.386 -0.4444  0.2893  0.1403
 6986SOL    HW132420   1.133   3.627  12.471 -2.8237 -0.4791 -0.7945
 6986SOL    HW232421   1.249   3.673  12.400 -1.1480  2.5067  3.1546
 6987SOL     OW32422   4.721   1.022   4.538 -0.1335  0.5868 -0.9868
 6987SOL    HW132423   4.631   1.055   4.538 -1.1792 -2.2012  0.1945
 6987SOL    HW232424   4.706   0.946   4.481  1.1421 -1.1791  1.0296
 6988SOL     OW32425   0.220   1.935   4.156  0.0678 -0.3201  0.2376
 6988SOL    HW132426   0.283   2.007   4.164 -2.1048  1.5056  0.8731
 6988SOL    HW232427   0.273   1.861   4.125  0.6375  0.2787 -0.2121
 6989SOL     OW32428   3.975   4.285   0.515 -0.0977  0.4300  0.1981
 6989SOL    HW132429   4.003   4.219   0.452 -0.4928 -1.9711  2.5512
 6989SOL    HW232430   3.889   4.318   0.489  0.4834  1.2507 -0.6688
 6990SOL     OW32431   3.202   4.216   1.615 -0.2882  0.7237 -0.1086
 6990SOL    HW132432   3.296   4.197   1.612  0.2329  3.4592 -0.7553
 6990SOL    HW232433   3.193   4.252   1.703 -1.6121 -0.3954  0.2172
 6991SOL     OW32434   4.348   1.071   9.656 -0.2457 -0.5243  0.0110
 6991SOL    HW132435   4.340   1.016   9.735 -0.8323 -4.2578 -2.6320
 6991SOL    HW232436   4.294   1.147   9.676  3.2906  1.5043  1.7903
 6992SOL     OW32437   0.687   1.780  16.596  0.1929 -0.2981 -0.4924
 6992SOL    HW132438   0.592   1.772  16.598  0.2027 -0.4256 -0.5339
 6992SOL    HW232439   0.702   1.792  16.690  2.6095 -0.9602 -0.8094
 6993SOL     OW32440   4.677   3.439   6.613  0.3816  0.1057  0.1133
 6993SOL    HW132441   4.679   3.473   6.702  0.0158  0.7179 -0.1099
 6993SOL    HW232442   4.601   3.383   6.622 -1.2263  1.7802 -2.9560
 6994SOL     OW32443   4.571   4.434   2.758 -0.4757  0.0215 -0.5846
 6994SOL    HW132444   4.585   4.367   2.824 -1.0576  1.2118  0.7414
 6994SOL    HW232445   4.655   4.480   2.756 -0.4117 -0.1665 -2.6560
 6995SOL     OW32446   2.128   2.669  11.371  0.6640 -0.0495  0.2182
 6995SOL    HW132447   2.058   2.618  11.330  0.7154 -0.3424  0.4946
 6995SOL    HW232448   2.185   2.665  11.295  0.4542  3.4319 -0.1210
 6996SOL     OW32449   3.619   2.685  13.753  0.3394 -0.1686 -0.5275
 6996SOL    HW132450   3.692   2.653  13.807 -0.5913  1.2250  1.5667
 6996SOL    HW232451   3.603   2.774  13.785  0.1606 -0.1630 -0.6350
 6997SOL     OW32452   2.924   0.994   5.500 -0.3307 -0.0109  0.4831
 6997SOL    HW132453   2.945   1.084   5.472 -2.8933  0.5309  0.3451
 6997SOL    HW232454   2.930   1.013   5.594 -0.9193 -0.9678  0.7088
 6998SOL     OW32455   3.570   1.185   5.015 -0.4521  0.1984 -0.4997
 6998SOL    HW132456   3.502   1.249   5.035 -2.1792 -1.7375 -0.1695
 6998SOL    HW232457   3.569   1.198   4.920 -1.4369 -0.6052 -0.5963
 6999SOL     OW32458   3.415   2.661   7.742 -0.1876 -0.9288  0.1868
 6999SOL    HW132459   3.366   2.645   7.823  0.4649  1.8958  1.1388
 6999SOL    HW232460   3.382   2.750   7.732  2.6875 -0.0973 -2.0788
 7000SOL     OW32461   4.454   4.671   2.228 -0.1594 -0.6992 -0.1470
 7000SOL    HW132462   4.445   0.010   2.156 -0.2691  0.1871  0.6386
 7000SOL    HW232463   4.366   4.674   2.265  0.5807  0.6531  1.4761
 7001SOL     OW32464   1.072   2.304  15.759 -0.1630  0.6710  0.1481
 7001SOL    HW132465   1.088   2.210  15.774 -1.3130  0.4493 -0.0394
 7001SOL    HW232466   1.070   2.312  15.664 -1.8861  1.6386  0.2724
 7002SOL     OW32467   3.347   2.696   4.708  0.0672  0.5225 -0.3351
 7002SOL    HW132468   3.367   2.603   4.707 -1.1914  0.2454 -0.2485
 7002SOL    HW232469   3.435   2.732   4.704 -0.7771  2.7488  1.2344
 7003SOL     OW32470   0.091   1.947   5.614  0.0268 -0.1310 -0.6591
 7003SOL    HW132471   0.107   1.854   5.629  0.3116  0.1135  0.5675
 7003SOL    HW232472   0.069   1.952   5.521 -1.8549 -0.8632 -0.2731
 7004SOL     OW32473   2.204   2.580   2.459  0.5084  0.3629 -0.2206
 7004SOL    HW132474   2.252   2.514   2.409  1.0070 -1.4774  2.6641
 7004SOL    HW232475   2.186   2.647   2.393 -0.3229 -1.7386 -2.1283
 7005SOL     OW32476   3.111   4.546   7.997  0.2012 -0.4714 -0.0596
 7005SOL    HW132477   3.026   4.504   7.998 -0.3595  0.6939  3.0441
 7005SOL    HW232478   3.164   4.467   8.004  2.0941  0.9882  2.2465
 7006SOL     OW32479   0.867   4.255   2.025  0.0485 -0.3167  0.2076
 7006SOL    HW132480   0.806   4.181   2.036 -1.0747  0.5107 -0.4506
 7006SOL    HW232481   0.936   4.216   1.972 -0.3081 -2.2595  1.1487
 7007SOL     OW32482   3.090   2.225   6.280 -0.0770 -0.3946 -0.1434
 7007SOL    HW132483   3.091   2.320   6.290  0.0138 -0.3795 -0.2968
 7007SOL    HW232484   3.149   2.205   6.353 -1.7177  0.3230  1.4032
 7008SOL     OW32485   0.636   0.287   7.678 -0.0504  0.5346 -0.2377
 7008SOL    HW132486   0.578   0.279   7.602 -0.4866  0.4522  0.1054
 7008SOL    HW232487   0.591   0.216   7.723 -0.5405  0.5500 -0.6995
 7009SOL     OW32488   3.205   2.347   8.278  0.0022 -0.3481 -0.1845
 7009SOL    HW132489   3.117   2.310   8.287  0.1326 -1.2814 -2.8002
 7009SOL    HW232490   3.229   2.296   8.200 -0.2251 -2.2443  0.9682
 7010SOL     OW32491   4.343   3.392   3.251  0.1992  0.2973  0.1085
 7010SOL    HW132492   4.318   3.384   3.343 -0.6154  1.4272 -0.0116
 7010SOL    HW232493   4.423   3.443   3.260  0.3986 -0.1752  0.9939
 7011SOL     OW32494   0.561   0.017   6.585  0.1130  0.2143  0.0376
 7011SOL    HW132495   0.500   0.091   6.578 -1.0449 -0.9914 -2.5671
 7011SOL    HW232496   0.643   0.062   6.604  0.9742  0.2329 -3.6563
 7012SOL     OW32497   4.019   1.313   8.929  0.6094 -0.1128 -0.3102
 7012SOL    HW132498   4.072   1.308   9.008  1.1672 -1.1643 -0.7585
 7012SOL    HW232499   4.051   1.383   8.871  0.1872 -0.9434 -1.5318
 7013SOL     OW32500   2.572   3.699   1.260  0.3768 -0.1267  0.0856
 7013SOL    HW132501   2.521   3.619   1.271 -0.0338 -0.0058 -0.9104
 7013SOL    HW232502   2.575   3.728   1.351 -0.5070 -2.9454  0.9966
 7014SOL     OW32503   3.108   3.700   9.886 -0.0900 -0.2537  0.0594
 7014SOL    HW132504   3.134   3.649   9.963  0.4507  0.5509  0.4119
 7014SOL    HW232505   3.175   3.769   9.886 -0.4127  0.0786  1.9458
 7015SOL     OW32506   4.706   3.300   0.636 -0.5910 -0.1921 -0.0215
 7015SOL    HW132507   0.016   3.368   0.694 -0.2519 -2.2479  2.2237
 7015SOL    HW232508   4.666   3.358   0.571  1.9334  1.0180 -0.5014
 7016SOL     OW32509   2.860   2.437   2.137  0.1752  0.0614 -0.2549
 7016SOL    HW132510   2.799   2.460   2.066 -0.6586  3.5696  1.5969
 7016SOL    HW232511   2.808   2.473   2.209  0.5668  1.0374 -0.4625
 7017SOL     OW32512   4.245   2.269   2.745 -0.1848  0.2411 -0.1479
 7017SOL    HW132513   4.200   2.242   2.665  1.6390  0.1952 -1.1549
 7017SOL    HW232514   4.285   2.352   2.719  0.1082  0.3117  0.5371
 7018SOL     OW32515   1.819   0.080  14.422 -0.1027  0.6521  0.1211
 7018SOL    HW132516   1.820   0.104  14.514 -0.2901 -0.0497  0.3008
 7018SOL    HW232517   1.776   4.718  14.421 -0.3611  0.7661  2.1882
 7019SOL     OW32518   3.537   4.560   9.412 -0.0925 -0.1937  0.1051
 7019SOL    HW132519   3.566   4.488   9.468 -2.0975 -0.4926  0.7865
 7019SOL    HW232520   3.479   4.597   9.478 -0.0051 -0.7816  0.5120
 7020SOL     OW32521   3.658   3.915   2.799  0.4723 -0.0208  0.8290
 7020SOL    HW132522   3.677   3.966   2.879  0.7352  0.5823  0.3832
 7020SOL    HW232523   3.681   3.824   2.818 -0.2995 -0.7340 -1.7534
 7021SOL     OW32524   4.402   4.576   2.592 -0.3925 -0.0548  0.2436
 7021SOL    HW132525   4.485   4.550   2.631 -0.1349 -1.3367 -1.1669
 7021SOL    HW232526   4.406   4.530   2.509  0.8650  1.0275 -0.2930
 7022SOL     OW32527   2.643   3.189   7.034 -0.1952  0.2096 -0.2683
 7022SOL    HW132528   2.574   3.233   7.085 -0.5669 -1.6480  0.8083
 7022SOL    HW232529   2.597   3.106   7.021  1.3749 -1.1319  2.8873
 7023SOL     OW32530   3.058   1.590  15.422 -0.0379 -0.5406 -0.0335
 7023SOL    HW132531   3.094   1.541  15.496 -2.0933  1.6299  2.4248
 7023SOL    HW232532   2.972   1.597  15.465 -0.1307 -0.6719 -0.1983
 7024SOL     OW32533   4.443   2.560   4.556  0.2869  0.5892  0.2338
 7024SOL    HW132534   4.364   2.523   4.516 -0.5896  2.3022  0.4007
 7024SOL    HW232535   4.483   2.583   4.472 -0.4158  0.5257 -0.1171
 7025SOL     OW32536   3.185   1.985   0.506 -0.1199  0.7239  0.0125
 7025SOL    HW132537   3.166   1.891   0.498 -1.0800  0.8903  0.3502
 7025SOL    HW232538   3.280   1.994   0.505  0.1664 -2.4482 -0.8337
 7026SOL     OW32539   1.319   3.932  13.312 -0.3129 -0.3122 -0.0374
 7026SOL    HW132540   1.390   3.993  13.293 -0.3001 -0.4438 -0.4188
 7026SOL    HW232541   1.307   3.945  13.406 -0.2227  0.9764 -0.2058
 7027SOL     OW32542   3.663   2.454   5.361  0.4183 -0.0432  0.2681
 7027SOL    HW132543   3.745   2.447   5.313  0.5591  0.9497  0.3653
 7027SOL    HW232544   3.640   2.545   5.339  0.5889  0.0631  0.5263
 7028SOL     OW32545   4.042   2.195  16.884 -0.8964 -0.1359  0.1879
 7028SOL    HW132546   3.982   2.145  16.940 -1.1767  1.2387  1.1065
 7028SOL    HW232547   4.100   2.242  16.944  1.8853 -1.2247 -1.6434
 7029SOL     OW32548   2.124   0.991   3.265  0.3613 -0.0804  0.0884
 7029SOL    HW132549   2.091   0.969   3.178 -1.3584  0.6482  0.5697
 7029SOL    HW232550   2.166   0.907   3.281  0.4217 -0.1521 -0.4336
 7030SOL     OW32551   3.700   3.200  13.793 -0.2425 -0.2400 -0.2450
 7030SOL    HW132552   3.782   3.229  13.833  0.0702  0.1909 -1.2043
 7030SOL    HW232553   3.677   3.283  13.752 -0.2444 -0.1026  0.0310
 7031SOL     OW32554   3.275   3.148   1.100 -0.7962  0.3213  0.5990
 7031SOL    HW132555   3.204   3.083   1.106  0.2699 -1.0113 -1.3152
 7031SOL    HW232556   3.228   3.226   1.131 -0.2947 -0.3516  3.0465
 7032SOL     OW32557   0.840   0.176  11.208 -0.3711 -0.1925 -0.6746
 7032SOL    HW132558   0.932   0.189  11.185 -0.7402 -1.7802 -3.0098
 7032SOL    HW232559   0.791   0.248  11.167 -0.5837 -0.3267 -0.6544
 7033SOL     OW32560   2.377   2.966   3.425  0.0152  0.7034  0.3977
 7033SOL    HW132561   2.446   2.905   3.397  0.2814  0.4200  1.6619
 7033SOL    HW232562   2.305   2.950   3.365  0.0476 -0.6834  0.7509
 7034SOL     OW32563   4.099   3.241   2.006 -0.3315 -0.3276  0.5740
 7034SOL    HW132564   4.158   3.315   1.996  2.4928 -2.6868 -0.3842
 7034SOL    HW232565   4.158   3.195   2.066 -0.2002  0.3113  0.9297
 7035SOL     OW32566   4.608   1.960   6.456  0.5671  0.5875 -0.4067
 7035SOL    HW132567   4.669   1.917   6.396  0.1034 -0.0900 -0.3887
 7035SOL    HW232568   4.562   2.016   6.393 -0.3713 -0.6803 -0.8614
 7036SOL     OW32569   3.299   2.204   4.064 -0.2387  0.3878 -0.1393
 7036SOL    HW132570   3.379   2.234   4.106 -2.0783  1.3548  2.6058
 7036SOL    HW232571   3.317   2.233   3.974  1.4725 -1.5991 -0.4569
 7037SOL     OW32572   1.747   4.381   8.964  0.0726 -0.1698  0.4839
 7037SOL    HW132573   1.785   4.367   9.051  0.0802 -0.7767  0.3843
 7037SOL    HW232574   1.777   4.470   8.943 -1.3092 -0.0676 -1.0438
 7038SOL     OW32575   3.970   0.410  15.401  0.5147  0.4176  0.1561
 7038SOL    HW132576   3.998   0.459  15.324  3.9918 -1.0636  0.4884
 7038SOL    HW232577   3.979   0.321  15.366 -0.5320  0.7590 -0.9646
 7039SOL     OW32578   3.797   2.467   1.041  0.5267  0.5158 -0.1912
 7039SOL    HW132579   3.737   2.421   1.099 -0.1912  0.6622 -0.8094
 7039SOL    HW232580   3.754   2.456   0.956 -1.2370 -0.4736  0.8227
 7040SOL     OW32581   2.180   0.674   1.772  0.2115 -0.2413  0.6114
 7040SOL    HW132582   2.179   0.584   1.805  2.8066  0.0229  1.4405
 7040SOL    HW232583   2.195   0.724   1.853 -0.2916 -1.0251  1.1820
 7041SOL     OW32584   2.494   1.057   8.627 -0.0327 -0.1675  0.2813
 7041SOL    HW132585   2.405   1.083   8.650  0.3741 -0.8192  2.6266
 7041SOL    HW232586   2.543   1.098   8.698  1.6060  2.1328 -2.1863
 7042SOL     OW32587   4.688   4.233  17.676  0.3059  0.9357 -0.1647
 7042SOL    HW132588   4.594   4.218  17.674  0.5517 -0.2165 -2.9903
 7042SOL    HW232589   4.702   4.225   0.077  0.4304 -1.8292 -0.4164
 7043SOL     OW32590   0.957   2.306  11.888  0.0604 -0.3120 -0.1713
 7043SOL    HW132591   0.920   2.369  11.826  0.8587  1.0113  0.6944
 7043SOL    HW232592   1.040   2.351  11.902 -0.5405  0.4860  0.8504
 7044SOL     OW32593   1.593   4.284   4.022  0.6006 -0.1509  0.1152
 7044SOL    HW132594   1.595   4.328   4.107 -3.0766 -0.0182  0.1118
 7044SOL    HW232595   1.586   4.195   4.056 -0.4273  0.1515  0.6649
 7045SOL     OW32596   0.405   3.666   1.811 -0.7551  0.7789 -0.5186
 7045SOL    HW132597   0.320   3.638   1.843 -0.7442 -1.7596 -2.6871
 7045SOL    HW232598   0.426   3.586   1.763 -3.3747 -0.1683 -0.0643
 7046SOL     OW32599   1.318   4.171  10.817  0.9852 -0.5261  0.2330
 7046SOL    HW132600   1.249   4.151  10.880 -0.0945 -0.2500 -0.8417
 7046SOL    HW232601   1.344   4.260  10.841  1.1488 -0.4174 -0.3353
 7047SOL     OW32602   3.497   0.844   7.742 -0.1646 -0.2334  0.1473
 7047SOL    HW132603   3.529   0.755   7.755  0.6950 -0.1000 -1.0620
 7047SOL    HW232604   3.426   0.863   7.804  0.8114  0.5520  1.0409
 7048SOL     OW32605   4.423   4.680   7.713 -0.2355 -0.2055 -0.2160
 7048SOL    HW132606   4.376   4.713   7.637 -0.2807 -1.1080 -0.5765
 7048SOL    HW232607   4.360   4.700   7.783 -1.0824  1.1629 -1.3759
 7049SOL     OW32608   0.211   2.874   4.949  0.1668  0.2845 -0.2448
 7049SOL    HW132609   0.220   2.790   4.903  3.3472  0.5022 -0.0692
 7049SOL    HW232610   0.153   2.928   4.895  0.9594  0.4706 -0.9237
 7050SOL     OW32611   0.547   3.259   5.737  0.3055  0.0805  1.1355
 7050SOL    HW132612   0.508   3.343   5.712 -0.4857 -0.4099  0.7137
 7050SOL    HW232613   0.531   3.260   5.831  2.1101 -2.8875  1.4702
 7051SOL     OW32614   2.686   1.793   8.470  0.3442 -0.1610 -0.2447
 7051SOL    HW132615   2.690   1.882   8.505 -0.2347 -0.2968  0.1580
 7051SOL    HW232616   2.640   1.747   8.540 -0.6797 -1.2985 -1.6711
 7052SOL     OW32617   3.902   0.388  10.888 -0.7088  0.0100  0.4063
 7052SOL    HW132618   3.891   0.475  10.849  1.5867  1.3347  2.6287
 7052SOL    HW232619   3.994   0.389  10.916 -0.2180 -0.3569 -1.1753
 7053SOL     OW32620   3.119   4.633   3.800 -0.2589  0.2389  1.0498
 7053SOL    HW132621   3.097   4.590   3.883 -1.0863  0.3362  0.8725
 7053SOL    HW232622   3.040   4.686   3.794  0.8196  1.8673  1.0951
 7054SOL     OW32623   0.817   1.451   9.810  0.1312 -0.1725  0.7412
 7054SOL    HW132624   0.760   1.464   9.885  1.1060  0.3184  1.3925
 7054SOL    HW232625   0.902   1.431   9.848 -0.1561 -0.1186  1.4042
 7055SOL     OW32626   2.921   2.230  12.718 -0.4485 -0.3134 -0.2374
 7055SOL    HW132627   2.943   2.245  12.810  1.5631  0.1040 -0.7772
 7055SOL    HW232628   2.970   2.150  12.698  0.4154  0.2733 -0.4829
 7056SOL     OW32629   4.369   3.884   8.214  0.9080 -0.0247  0.3209
 7056SOL    HW132630   4.324   3.806   8.181 -0.7772  1.1334 -0.1535
 7056SOL    HW232631   4.307   3.903   8.286 -0.1211  1.1930 -0.8737
 7057SOL     OW32632   4.566   0.200   5.080  0.6148  0.7348  0.3564
 7057SOL    HW132633   4.479   0.188   5.041 -0.1171  1.0043  1.9388
 7057SOL    HW232634   4.601   0.113   5.067 -0.3180  0.4399 -0.2625
 7058SOL     OW32635   0.967   2.803   6.531 -0.4488 -0.8123  0.3177
 7058SOL    HW132636   0.961   2.751   6.450  0.9842 -1.5700  0.6972
 7058SOL    HW232637   1.029   2.748   6.578  0.0662 -0.3290  0.1994
 7059SOL     OW32638   3.881   1.892   2.911  0.0066 -0.2435 -0.1494
 7059SOL    HW132639   3.939   1.931   2.846 -0.7937 -1.6749 -1.7125
 7059SOL    HW232640   3.868   1.805   2.873  0.6230 -0.5878  0.4116
 7060SOL     OW32641   4.578   2.972   7.594  0.3770  0.2302  0.2099
 7060SOL    HW132642   4.631   3.027   7.651  2.3287  0.3746 -1.7660
 7060SOL    HW232643   4.510   3.038   7.583  1.0436  0.6606 -1.4034
 7061SOL     OW32644   1.067   3.046   7.701 -0.0684 -0.1113  0.2799
 7061SOL    HW132645   1.116   3.040   7.783  0.7877  0.9601 -0.1397
 7061SOL    HW232646   1.114   3.122   7.667 -0.8235  1.2137  2.2103
 7062SOL     OW32647   3.689   0.755  13.343 -0.1707  1.0743 -0.4532
 7062SOL    HW132648   3.677   0.721  13.432 -1.0178  0.2100 -0.9017
 7062SOL    HW232649   3.710   0.845  13.371  1.1501 -0.2141  2.6899
 7063SOL     OW32650   1.609   1.610   3.051  0.0383 -0.1337  0.1915
 7063SOL    HW132651   1.553   1.685   3.030  0.4790  0.1675  0.0906
 7063SOL    HW232652   1.639   1.576   2.967  1.4145 -1.0203  1.0601
 7064SOL     OW32653   0.798   0.385   3.558  0.0192  0.0281 -0.1611
 7064SOL    HW132654   0.737   0.382   3.484  1.3932 -2.1815 -1.1912
 7064SOL    HW232655   0.883   0.398   3.516  0.5906  1.7975  1.5392
 7065SOL     OW32656   0.493   0.156   3.481 -0.2606 -0.1259 -0.0450
 7065SOL    HW132657   0.554   0.135   3.551  1.7124  1.1264 -1.4017
 7065SOL    HW232658   0.509   0.085   3.419  1.2754  0.3327 -0.1691
 7066SOL     OW32659   0.533   3.200  10.730  0.4762  0.3657  0.0492
 7066SOL    HW132660   0.468   3.270  10.743 -0.7095 -0.6381 -0.4372
 7066SOL    HW232661   0.581   3.202  10.813  1.2339  1.7016 -0.4370
 7067SOL     OW32662   4.653   4.687  12.591 -0.0769  0.9017 -0.3529
 7067SOL    HW132663   4.568   4.654  12.619  0.2753  0.9634  0.7751
 7067SOL    HW232664   4.707   4.667  12.667  1.7479 -0.8661 -2.1122
 7068SOL     OW32665   2.972   1.518   6.510  0.6840 -0.3391 -0.4581
 7068SOL    HW132666   2.921   1.561   6.578 -2.0248 -1.8713 -1.4981
 7068SOL    HW232667   3.059   1.540   6.541  0.0392  2.4168 -0.5730
 7069SOL     OW32668   0.084   2.325  15.400 -0.6573 -0.4677 -0.2150
 7069SOL    HW132669   0.104   2.418  15.409  0.2460 -0.4413 -2.4596
 7069SOL    HW232670   4.715   2.316  15.374 -1.2477  1.6744  1.1104
 7070SOL     OW32671   2.586   0.935   4.217  0.0405  0.1788  0.3380
 7070SOL    HW132672   2.609   0.889   4.136  0.6653 -1.8121  1.6479
 7070SOL    HW232673   2.605   1.026   4.197  0.5802  0.5250  2.4129
 7071SOL     OW32674   3.123   1.608  14.829  0.3369  0.0539 -0.3060
 7071SOL    HW132675   3.190   1.610  14.761  1.1906 -3.7001  0.4201
 7071SOL    HW232676   3.044   1.579  14.783 -0.2391 -0.7895  1.2194
 7072SOL     OW32677   0.189   0.039   5.756  0.7439 -0.2346 -0.3679
 7072SOL    HW132678   0.256   0.006   5.816 -0.0452  0.5204  0.9369
 7072SOL    HW232679   0.221   0.006   5.672 -0.9871 -0.1335 -1.0693
 7073SOL     OW32680   2.469   0.528   4.842  0.0508 -0.3307 -0.5021
 7073SOL    HW132681   2.547   0.580   4.821 -1.0372  0.2340 -3.1276
 7073SOL    HW232682   2.518   0.478   4.907  0.0189  0.4568  0.1346
 7074SOL     OW32683   1.273   2.744   4.721  0.5905 -0.2028  0.1052
 7074SOL    HW132684   1.253   2.792   4.801 -2.5752 -0.4572 -0.5292
 7074SOL    HW232685   1.304   2.811   4.661 -1.7665  0.4905 -0.3472
 7075SOL     OW32686   2.744   1.083   8.882  0.2820  0.0436 -0.0082
 7075SOL    HW132687   2.784   1.154   8.932  0.5879 -0.1348  0.0001
 7075SOL    HW232688   2.654   1.114   8.895  0.6389  0.4005  1.6029
 7076SOL     OW32689   3.654   1.871   6.116  0.0409  0.2360 -0.4555
 7076SOL    HW132690   3.635   1.924   6.039  0.0260  0.0182 -0.6024
 7076SOL    HW232691   3.570   1.857   6.159  0.5295 -0.3812  0.3175
 7077SOL     OW32692   0.321   2.161  14.502 -0.7167 -0.0390 -0.7815
 7077SOL    HW132693   0.288   2.178  14.414 -0.0603  2.1314 -0.6043
 7077SOL    HW232694   0.243   2.125  14.544 -0.6197  2.0603  1.1818
 7078SOL     OW32695   4.070   2.577   0.536  0.3991  0.1235  0.5425
 7078SOL    HW132696   4.019   2.589   0.615  0.7712 -0.1051  0.8189
 7078SOL    HW232697   4.071   2.481   0.541 -1.7690  0.1841  1.8609
 7079SOL     OW32698   4.338   3.190   8.087  0.0723  0.0322  0.1104
 7079SOL    HW132699   4.351   3.241   8.006  0.1455  0.5774  0.4676
 7079SOL    HW232700   4.428   3.160   8.095 -0.3532 -1.4773 -0.7441
 7080SOL     OW32701   0.425   4.210  12.706  0.2684 -0.7532 -0.0331
 7080SOL    HW132702   0.464   4.143  12.650 -0.2612 -0.9791 -0.1246
 7080SOL    HW232703   0.493   4.214  12.774  0.5349 -1.5356 -0.2504
 7081SOL     OW32704   2.084   1.628   6.039  0.1380  0.2037 -0.2621
 7081SOL    HW132705   2.174   1.661   6.044 -0.3275  0.6320  5.1928
 7081SOL    HW232706   2.036   1.711   6.037  2.6578  1.6940  0.7251
 7082SOL     OW32707   0.904   3.433   5.459 -0.3103  0.2821 -0.2646
 7082SOL    HW132708   0.850   3.491   5.512 -1.7447 -1.0848 -0.2130
 7082SOL    HW232709   0.990   3.456   5.494  0.3535 -0.4359 -1.4127
 7083SOL     OW32710   0.703   4.575  11.946  0.4882 -0.3540 -0.2234
 7083SOL    HW132711   0.613   4.557  11.919  0.6201 -0.4101 -0.6416
 7083SOL    HW232712   0.679   4.657  11.989  1.5914  1.2412 -2.6361
 7084SOL     OW32713   2.151   2.591   4.122 -0.5607 -0.3717  0.2288
 7084SOL    HW132714   2.100   2.580   4.041  2.7817 -1.2058 -1.7889
 7084SOL    HW232715   2.196   2.669   4.089 -1.1902 -0.2013 -0.2340
 7085SOL     OW32716   1.616   4.402   9.324 -0.1889 -0.0165  0.5945
 7085SOL    HW132717   1.687   4.337   9.318 -0.0162  0.1897  0.4388
 7085SOL    HW232718   1.548   4.340   9.299 -0.5365 -0.3867  2.4406
 7086SOL     OW32719   0.594   2.975   5.254  0.4771  0.1609  0.2906
 7086SOL    HW132720   0.552   2.960   5.169  2.2424  2.4673 -0.9920
 7086SOL    HW232721   0.685   2.974   5.225  0.2130  1.7488 -0.6058
 7087SOL     OW32722   0.196   3.886   2.507 -0.1561  0.0245 -0.1016
 7087SOL    HW132723   0.233   3.965   2.469  0.0950 -0.2165 -0.3536
 7087SOL    HW232724   0.253   3.879   2.584  0.1573 -0.2146 -0.3595
 7088SOL     OW32725   1.043   4.007   6.532  0.4919  0.1092  0.3550
 7088SOL    HW132726   1.038   4.025   6.626 -1.2216  0.7761  0.1240
 7088SOL    HW232727   0.949   3.997   6.517  0.8332 -1.2773 -0.9321
 7089SOL     OW32728   0.136   1.227   4.387 -0.1233 -0.0893  0.2913
 7089SOL    HW132729   0.086   1.166   4.442  0.8362 -0.8146  0.3575
 7089SOL    HW232730   0.110   1.217   4.295 -0.2938  0.8076  0.2423
 7090SOL     OW32731   3.817   1.549   0.661 -0.4684 -0.4226 -0.4201
 7090SOL    HW132732   3.815   1.495   0.741  0.0128 -1.1371 -0.8940
 7090SOL    HW232733   3.884   1.498   0.616 -0.7232  0.2988 -1.5909
 7091SOL     OW32734   0.064   1.819   2.848  0.2299 -0.2506 -0.0365
 7091SOL    HW132735   4.697   1.788   2.838 -0.0217  0.4382  0.0937
 7091SOL    HW232736   0.071   1.837   2.942  0.0343 -0.6938  0.0601
 7092SOL     OW32737   0.239   0.490   7.100 -0.1525 -0.6318  0.6229
 7092SOL    HW132738   0.183   0.468   7.174  0.6198 -0.0949  1.3751
 7092SOL    HW232739   0.191   0.453   7.026 -0.6843 -2.3789  1.8271
 7093SOL     OW32740   2.878   2.136   8.156  0.3363 -0.2166  0.2647
 7093SOL    HW132741   2.929   2.098   8.228  1.0365  0.1223 -0.0540
 7093SOL    HW232742   2.918   2.115   8.072 -0.5809 -1.4690  0.1399
 7094SOL     OW32743   0.765   2.719   5.766  0.1401  0.3729  0.2325
 7094SOL    HW132744   0.817   2.786   5.811 -2.0825  2.4624 -0.3056
 7094SOL    HW232745   0.697   2.702   5.831 -0.4654  2.0939  0.0522
 7095SOL     OW32746   2.541   0.836   2.083 -0.0197 -0.3063 -0.0566
 7095SOL    HW132747   2.453   0.836   2.045 -0.2211  1.1541  0.4158
 7095SOL    HW232748   2.575   0.918   2.046 -1.3347  0.6320  0.8373
 7096SOL     OW32749   0.111   2.810   5.446 -0.3542 -0.6722 -0.1362
 7096SOL    HW132750   0.174   2.779   5.511 -1.5603  0.3476  1.5013
 7096SOL    HW232751   0.168   2.842   5.376 -1.6272  2.0286  0.0518
 7097SOL     OW32752   0.731   0.187  13.282  0.0170  0.3370 -1.1079
 7097SOL    HW132753   0.748   0.100  13.316 -1.4353 -0.2953 -2.0230
 7097SOL    HW232754   0.638   0.182  13.259 -0.5790 -0.3090  1.4740
 7098SOL     OW32755   3.086   0.477  15.652  0.0766  0.2025  0.0848
 7098SOL    HW132756   3.156   0.516  15.599 -0.7633 -0.3159 -1.4088
 7098SOL    HW232757   3.123   0.480  15.740 -2.3034  2.6593  0.9960
 7099SOL     OW32758   1.165   4.130   4.361  0.3590  0.3749 -0.5513
 7099SOL    HW132759   1.116   4.133   4.279 -3.2085 -1.2956  1.4957
 7099SOL    HW232760   1.141   4.043   4.392 -0.0582  0.9316  0.7411
 7100SOL     OW32761   4.417   4.588   6.801  0.3664 -0.2280  0.2473
 7100SOL    HW132762   4.430   4.552   6.888  0.6238 -1.6867 -0.4095
 7100SOL    HW232763   4.353   4.524   6.769 -0.1497  0.8447 -0.8758
 7101SOL     OW32764   2.638   1.302   6.267 -0.3755  0.3054  0.0904
 7101SOL    HW132765   2.681   1.384   6.289  0.6222 -0.5168  1.2823
 7101SOL    HW232766   2.563   1.316   6.325 -2.5962 -1.6445 -2.3357
 7102SOL     OW32767   2.026   0.065   5.043 -0.0202 -0.1527 -0.0978
 7102SOL    HW132768   1.958   0.027   5.099  0.1500 -0.1661  0.0993
 7102SOL    HW232769   1.999   0.157   5.044 -2.1935 -0.7953  1.5445
 7103SOL     OW32770   3.558   3.980   8.951  0.2195 -0.3774  0.2103
 7103SOL    HW132771   3.493   3.954   8.886 -0.4293  2.6570 -0.3103
 7103SOL    HW232772   3.586   3.896   8.989  2.0138 -0.3816 -1.1244
 7104SOL     OW32773   4.310   1.415   8.319 -0.0570 -0.0985  0.0711
 7104SOL    HW132774   4.240   1.415   8.385  0.3080 -0.0300  0.4591
 7104SOL    HW232775   4.348   1.329   8.338 -0.7874 -0.1970  1.1297
 7105SOL     OW32776   2.204   4.502   0.127 -0.0385 -0.6500  0.0041
 7105SOL    HW132777   2.262   4.429   0.150  2.3534  0.8111 -1.4676
 7105SOL    HW232778   2.234   4.577   0.178 -1.8585  1.6224 -2.2534
 7106SOL     OW32779   1.453   3.132  11.119 -0.0809 -0.1842 -0.3186
 7106SOL    HW132780   1.392   3.091  11.181 -1.2403 -0.6311 -1.7510
 7106SOL    HW232781   1.418   3.101  11.035 -0.1996 -0.5949 -0.1166
 7107SOL     OW32782   3.780   2.907   1.893  0.2682 -0.5018 -0.0524
 7107SOL    HW132783   3.694   2.878   1.861 -0.0743 -3.1202  3.3174
 7107SOL    HW232784   3.812   2.826   1.933  0.5557  1.0225  2.7805
 7108SOL     OW32785   1.626   4.343   6.851  0.1722 -0.6363  0.3158
 7108SOL    HW132786   1.649   4.435   6.865  1.1873 -0.4337 -2.6303
 7108SOL    HW232787   1.698   4.297   6.894  1.1121  1.5948  1.1320
 7109SOL     OW32788   3.631   0.405   5.567 -0.0129 -0.1773  0.7781
 7109SOL    HW132789   3.680   0.477   5.606  0.4450  0.5880 -1.1874
 7109SOL    HW232790   3.586   0.361   5.639 -0.7068  0.6199  0.8350
 7110SOL     OW32791   3.778   3.582   1.653  0.7148  0.0484  0.2302
 7110SOL    HW132792   3.837   3.650   1.620  0.7910  0.3835  1.0542
 7110SOL    HW232793   3.807   3.550   1.738 -2.8023 -0.1102  1.3715
 7111SOL     OW32794   4.399   1.587   4.245  0.2214  0.5711 -0.0730
 7111SOL    HW132795   4.396   1.621   4.156  1.7306  0.2653 -0.2508
 7111SOL    HW232796   4.484   1.614   4.282 -0.3337  2.6953 -0.3580
 7112SOL     OW32797   1.030   4.206   1.379 -0.6137  0.5093 -0.2261
 7112SOL    HW132798   1.075   4.169   1.303  0.5947 -0.1985  0.8256
 7112SOL    HW232799   1.012   4.295   1.347 -2.0263  0.7598  1.2452
 7113SOL     OW32800   3.012   2.793   0.738 -0.2607  0.0029  0.2660
 7113SOL    HW132801   3.104   2.805   0.713 -0.1347 -0.9715  0.2318
 7113SOL    HW232802   2.978   2.751   0.659 -1.7401 -0.1052  0.9650
 7114SOL     OW32803   1.530   0.876   4.957  0.4868 -0.0183 -0.5055
 7114SOL    HW132804   1.469   0.805   4.937  0.9497 -0.3889 -0.6395
 7114SOL    HW232805   1.537   0.922   4.873  3.9753 -1.5124 -1.0452
 7115SOL     OW32806   1.972   0.080   2.076  0.6716  0.1850 -0.2061
 7115SOL    HW132807   1.960   0.152   2.014  0.8448  0.1740 -0.2527
 7115SOL    HW232808   1.903   0.022   2.043  2.4828 -1.7124 -0.7209
 7116SOL     OW32809   2.816   3.563   6.689  0.2405 -0.6602  0.3154
 7116SOL    HW132810   2.737   3.609   6.718 -1.7742 -2.5792 -2.0750
 7116SOL    HW232811   2.818   3.596   6.599  2.3665  2.2413  1.4232
 7117SOL     OW32812   3.487   4.407   5.735 -0.0511  0.0635 -0.2434
 7117SOL    HW132813   3.393   4.407   5.720  0.2323 -2.1284 -1.9692
 7117SOL    HW232814   3.524   4.383   5.650 -1.4344  0.6875 -1.0252
 7118SOL     OW32815   2.205   4.336   3.225 -0.2975 -0.4813 -0.0187
 7118SOL    HW132816   2.146   4.364   3.155  0.0463 -0.4137 -0.2845
 7118SOL    HW232817   2.269   4.287   3.172  0.3402 -0.7816  1.0407
 7119SOL     OW32818   0.555   2.187   1.591  0.2446  0.0697  0.0487
 7119SOL    HW132819   0.475   2.137   1.610 -0.2634  1.1892  0.8851
 7119SOL    HW232820   0.538   2.261   1.649  0.2613 -0.8205  1.1953
 7120SOL     OW32821   3.294   2.488   5.487 -0.0398  0.3221 -0.3293
 7120SOL    HW132822   3.297   2.489   5.582  1.7963 -0.0890 -0.3851
 7120SOL    HW232823   3.199   2.489   5.484 -0.0141 -0.6792 -1.5635
 7121SOL     OW32824   3.410   1.376   2.859  0.2481 -0.1054  0.0220
 7121SOL    HW132825   3.323   1.336   2.861  0.8943 -1.5437 -0.5235
 7121SOL    HW232826   3.471   1.310   2.891 -2.2140 -3.2190 -1.6159
 7122SOL     OW32827   1.175   3.001  14.438 -1.0475 -0.9284  0.2460
 7122SOL    HW132828   1.221   2.930  14.483 -1.0649 -0.3958  1.1055
 7122SOL    HW232829   1.092   2.996  14.486 -0.9913 -3.4960  0.0465
 7123SOL     OW32830   2.293   2.386   4.208  0.3891 -0.4014 -0.4371
 7123SOL    HW132831   2.238   2.461   4.188 -0.6863 -1.0137  0.2646
 7123SOL    HW232832   2.269   2.326   4.138 -0.8107 -0.1698 -0.2133
 7124SOL     OW32833   0.162   0.217  14.506 -1.0729 -0.4913 -0.2195
 7124SOL    HW132834   0.130   0.138  14.463 -0.4482 -0.3445 -0.9506
 7124SOL    HW232835   0.174   0.277  14.432 -1.2769  0.9060  0.8723
 7125SOL     OW32836   3.533   4.518  11.042  0.0148 -0.2328  0.8684
 7125SOL    HW132837   3.617   4.523  10.995  0.7781 -3.6131  1.8765
 7125SOL    HW232838   3.550   4.582  11.111 -0.3967  0.1410  0.6254
 7126SOL     OW32839   1.414   3.732   7.487  0.1063  0.0145 -0.0974
 7126SOL    HW132840   1.497   3.701   7.523  0.8457  2.7345  0.5176
 7126SOL    HW232841   1.448   3.796   7.425 -3.5709 -0.2018 -2.3443
 7127SOL     OW32842   4.510   4.629   5.294  0.2951 -0.5602 -0.3553
 7127SOL    HW132843   4.469   4.597   5.374 -1.2711 -1.2520 -1.4350
 7127SOL    HW232844   4.574   4.693   5.326 -0.7379  0.1770  0.1953
 7128SOL     OW32845   0.366   2.454  11.686 -0.3385  0.1190 -0.2432
 7128SOL    HW132846   0.296   2.392  11.663 -0.2742  0.2111 -0.6923
 7128SOL    HW232847   0.430   2.414  11.627 -1.4426 -2.0996  0.0407
 7129SOL     OW32848   0.658   4.468  13.962  0.1313 -0.0947  0.1990
 7129SOL    HW132849   0.738   4.418  13.947 -0.4243  0.2270 -3.6604
 7129SOL    HW232850   0.704   4.528  14.021 -3.0313  0.6938  1.8715
 7130SOL     OW32851   0.520   3.946   3.458 -0.8809 -0.8808 -0.1778
 7130SOL    HW132852   0.473   3.913   3.381  1.4844  1.3979 -2.5849
 7130SOL    HW232853   0.596   3.984   3.413 -1.8033  2.1349  0.8743
 7131SOL     OW32854   1.156   0.613   5.281 -0.0855  0.1089 -0.1871
 7131SOL    HW132855   1.126   0.566   5.358 -1.1806 -0.1526 -0.7739
 7131SOL    HW232856   1.075   0.659   5.260 -0.7091 -0.6451  0.5808
 7132SOL     OW32857   4.157   3.970   4.494 -0.2337 -0.2728  0.1611
 7132SOL    HW132858   4.247   3.963   4.527 -0.8524  0.4376  2.0099
 7132SOL    HW232859   4.138   3.880   4.519 -0.8075 -0.3618 -0.6008
 7133SOL     OW32860   4.026   1.087   0.510  0.5173 -0.0315  0.1220
 7133SOL    HW132861   3.998   1.030   0.582  0.8246 -1.0927 -0.6022
 7133SOL    HW232862   3.972   1.161   0.538 -0.4690  0.8807 -4.1413
 7134SOL     OW32863   2.783   2.508   7.197 -0.5838  0.3909 -0.0870
 7134SOL    HW132864   2.795   2.510   7.292  0.9492  3.8078 -0.3476
 7134SOL    HW232865   2.873   2.531   7.174 -0.2034 -0.9033  0.1392
 7135SOL     OW32866   2.844   0.104   2.697 -0.2344  0.0073 -0.5484
 7135SOL    HW132867   2.874   0.187   2.661 -0.4814  1.9773  3.7575
 7135SOL    HW232868   2.804   0.059   2.622 -2.3218  0.6350  0.1774
 7136SOL     OW32869   3.522   0.812   7.456  0.4352 -0.3165 -0.1129
 7136SOL    HW132870   3.504   0.819   7.549  0.3057 -0.6930 -0.1097
 7136SOL    HW232871   3.480   0.728   7.435  1.2086 -1.1483  1.7261
 7137SOL     OW32872   4.367   3.396   9.073  0.0468 -0.3359  0.0566
 7137SOL    HW132873   4.431   3.426   9.009 -2.0482  1.9603 -0.9607
 7137SOL    HW232874   4.317   3.477   9.085 -2.1470 -1.4606 -1.4512
 7138SOL     OW32875   4.273   3.796   3.440 -0.0320 -1.1495  0.3842
 7138SOL    HW132876   4.273   3.842   3.356 -2.1758  0.7092  1.4041
 7138SOL    HW232877   4.272   3.866   3.506 -1.6670  0.0962 -0.9633
 7139SOL     OW32878   2.284   1.459   5.805 -0.2994  0.3324 -0.1590
 7139SOL    HW132879   2.290   1.513   5.726 -0.0028 -0.6890 -0.8349
 7139SOL    HW232880   2.316   1.522   5.869 -1.2797  1.6992 -0.9925
 7140SOL     OW32881   3.685   2.922   2.332 -0.5211  0.2872  0.1715
 7140SOL    HW132882   3.701   2.953   2.421 -0.5079 -1.1202  0.6537
 7140SOL    HW232883   3.683   3.007   2.286  0.9618  0.2902  0.1100
 7141SOL     OW32884   3.653   2.502   3.911 -0.0612 -0.6554  0.3010
 7141SOL    HW132885   3.740   2.538   3.929  0.4526 -0.9233 -1.6723
 7141SOL    HW232886   3.684   2.428   3.860 -0.7157 -0.0545 -0.9910
 7142SOL     OW32887   2.063   3.959   2.683  0.0690 -0.0050  0.2362
 7142SOL    HW132888   1.994   4.026   2.689 -0.1252 -0.2106  0.2819
 7142SOL    HW232889   2.124   3.990   2.750  0.4079  1.0081 -0.5539
 7143SOL     OW32890   2.462   1.937  11.312  0.1578  0.6132  0.1251
 7143SOL    HW132891   2.406   1.977  11.245  0.5417 -1.1613 -1.2598
 7143SOL    HW232892   2.440   1.844  11.307 -1.1493  0.9130  0.2839
 7144SOL     OW32893   2.154   1.673   6.372 -0.2106  0.3180 -0.0419
 7144SOL    HW132894   2.159   1.755   6.325  0.6165 -1.5871 -3.2523
 7144SOL    HW232895   2.078   1.686   6.429 -0.7044 -0.4409 -0.5252
 7145SOL     OW32896   0.150   4.519   3.001 -0.4923 -0.3953 -0.0988
 7145SOL    HW132897   0.107   4.459   3.062  2.7110 -0.8532  1.6898
 7145SOL    HW232898   0.186   4.584   3.061 -3.4373  0.6466  0.5469
 7146SOL     OW32899   0.459   1.120   5.783  0.6284  0.6506 -0.2785
 7146SOL    HW132900   0.455   1.214   5.768 -0.6028  0.6069 -0.2276
 7146SOL    HW232901   0.419   1.085   5.704  0.8700  0.8995 -0.5123
 7147SOL     OW32902   4.100   3.008   3.475 -0.5793  0.2296  0.3702
 7147SOL    HW132903   4.032   2.941   3.469  0.9449 -1.3786  0.9876
 7147SOL    HW232904   4.080   3.063   3.400 -2.7694  0.5891  1.2276
 7148SOL     OW32905   2.769   4.137   8.424 -0.4195  0.1689 -0.1155
 7148SOL    HW132906   2.808   4.175   8.345 -1.1020 -0.6246 -0.8319
 7148SOL    HW232907   2.823   4.177   8.492 -1.7599  0.1261  0.9752
 7149SOL     OW32908   1.877   0.311   3.513 -0.2286 -0.1103  0.1012
 7149SOL    HW132909   1.803   0.306   3.452 -1.3895 -0.2577  1.4928
 7149SOL    HW232910   1.858   0.229   3.559  2.0370  0.2377  1.6622
 7150SOL     OW32911   2.999   0.345   0.392  0.9670 -0.3097  0.0491
 7150SOL    HW132912   3.023   0.254   0.409  0.0202 -0.9706 -2.2312
 7150SOL    HW232913   3.072   0.375   0.338  2.7910 -1.0434  2.0935
 7151SOL     OW32914   3.942   1.241   1.509 -0.4428  0.7010 -0.6407
 7151SOL    HW132915   4.023   1.209   1.467 -1.2701 -0.2774 -1.4907
 7151SOL    HW232916   3.885   1.170   1.479 -1.0817  0.7525  0.4711
 7152SOL     OW32917   0.752   3.239  12.375 -0.4069 -0.7489 -0.3838
 7152SOL    HW132918   0.693   3.257  12.448 -1.2950  2.2216 -1.8319
 7152SOL    HW232919   0.712   3.297  12.311 -0.5123 -2.0501 -1.4993
 7153SOL     OW32920   0.448   0.819  14.310  0.6802 -0.3158 -0.0114
 7153SOL    HW132921   0.522   0.881  14.316 -0.3798  1.0600 -1.1142
 7153SOL    HW232922   0.462   0.764  14.387 -1.4205 -2.1070 -0.9522
 7154SOL     OW32923   4.345   3.926   7.653 -0.1784 -0.0661 -0.1941
 7154SOL    HW132924   4.365   3.931   7.560 -1.1435 -0.8813 -0.4479
 7154SOL    HW232925   4.398   3.999   7.684  1.2497 -0.5463 -1.4802
 7155SOL     OW32926   3.275   1.890  11.383  0.7283  0.1026 -0.1962
 7155SOL    HW132927   3.268   1.948  11.307  1.0322 -0.5016 -0.6852
 7155SOL    HW232928   3.293   1.805  11.344  1.2088  0.6926 -1.2878
 7156SOL     OW32929   4.285   2.177   8.002 -0.6619 -0.4133  0.2418
 7156SOL    HW132930   4.327   2.093   8.022  2.6184  0.9911 -0.8073
 7156SOL    HW232931   4.201   2.152   8.040 -1.0106 -1.2249 -1.0632
 7157SOL     OW32932   3.188   4.131  10.035  0.4236 -0.1241  0.2730
 7157SOL    HW132933   3.220   4.046  10.005 -2.4002 -1.1050  0.0513
 7157SOL    HW232934   3.123   4.148   9.967  3.3742 -0.5705 -2.6372
 7158SOL     OW32935   2.946   2.418  14.436 -0.7652  0.2121  0.0554
 7158SOL    HW132936   2.920   2.381  14.520  1.7243 -0.0555  0.6903
 7158SOL    HW232937   2.964   2.507  14.465 -2.1209  0.2438  0.8160
 7159SOL     OW32938   2.093   3.658  14.426  0.3799  0.3183 -0.4112
 7159SOL    HW132939   2.015   3.617  14.463  0.4803  0.6082  0.1358
 7159SOL    HW232940   2.069   3.678  14.336  0.5336  1.6176 -0.1675
 7160SOL     OW32941   1.552   3.627   5.160 -0.0955 -0.3752  0.2892
 7160SOL    HW132942   1.567   3.721   5.162 -1.5771 -0.1491  0.7036
 7160SOL    HW232943   1.639   3.586   5.159  0.6895  1.2979  0.3785
 7161SOL     OW32944   4.485   3.520   1.743 -0.3722  0.3025 -0.0509
 7161SOL    HW132945   4.407   3.572   1.760 -0.0560  0.8870 -0.3858
 7161SOL    HW232946   4.557   3.559   1.792 -0.8909 -0.2535  1.1771
 7162SOL     OW32947   1.960   0.482   6.051 -0.3583  0.4824 -0.0493
 7162SOL    HW132948   1.940   0.389   6.062 -0.9310  0.4820 -1.0904
 7162SOL    HW232949   2.010   0.502   6.130 -1.7432 -2.8718  1.6383
 7163SOL     OW32950   2.501   2.527   4.690 -0.3051 -0.0576 -0.2892
 7163SOL    HW132951   2.426   2.467   4.696  1.2761 -1.9075  1.0505
 7163SOL    HW232952   2.547   2.489   4.615  0.9440 -0.0781  0.4981
 7164SOL     OW32953   1.836   0.590   7.912  0.2059  0.0034 -0.0856
 7164SOL    HW132954   1.818   0.667   7.967  2.3241  1.1366 -0.9960
 7164SOL    HW232955   1.894   0.627   7.845  1.9178 -0.7105  1.0088
 7165SOL     OW32956   3.371   3.303   8.675 -0.2839 -0.2873 -0.9941
 7165SOL    HW132957   3.302   3.300   8.742  3.1503 -2.1110  2.4534
 7165SOL    HW232958   3.396   3.395   8.684 -1.0272 -0.1101 -0.7368
 7166SOL     OW32959   0.665   1.533   9.569 -0.0004  0.0125  0.5362
 7166SOL    HW132960   0.705   1.617   9.546 -1.4137  0.2530 -0.9895
 7166SOL    HW232961   0.729   1.505   9.634  0.6228 -2.7428 -1.2652
 7167SOL     OW32962   4.595   4.277   0.242  0.3208  0.0252  0.1739
 7167SOL    HW132963   4.556   4.284   0.329 -1.3255  2.5779 -0.7869
 7167SOL    HW232964   4.542   4.339   0.192 -0.4362 -0.1425  0.7823
 7168SOL     OW32965   1.445   1.286   8.719 -0.5000 -0.0217 -0.0712
 7168SOL    HW132966   1.408   1.251   8.638 -2.8602  0.3674  0.8364
 7168SOL    HW232967   1.379   1.354   8.732  0.5347  1.0323 -0.3286
 7169SOL     OW32968   4.503   0.972   7.761 -0.7387 -0.5089 -0.1614
 7169SOL    HW132969   4.447   0.923   7.701 -1.1449 -0.9339  0.5716
 7169SOL    HW232970   4.589   0.938   7.737 -0.0953  1.7695 -1.1232
 7170SOL     OW32971   1.602   0.618   0.762 -0.3758 -0.1757  0.1886
 7170SOL    HW132972   1.513   0.588   0.780 -0.0573 -1.5458 -0.4933
 7170SOL    HW232973   1.645   0.533   0.765 -0.0725  0.0325  1.4679
 7171SOL     OW32974   3.699   0.589   4.628  0.5734  0.0172  0.0584
 7171SOL    HW132975   3.672   0.664   4.575 -0.4335  0.2420  0.9009
 7171SOL    HW232976   3.792   0.585   4.605  0.3175 -0.3252 -0.8998
 7172SOL     OW32977   0.447   3.427   1.687  0.0153  0.1895 -0.1690
 7172SOL    HW132978   0.429   3.347   1.737  0.9817  1.1353  1.6811
 7172SOL    HW232979   0.409   3.398   1.604  0.4525 -1.8778  0.3484
 7173SOL     OW32980   3.667   2.291   1.237 -0.7631  1.0694 -0.4227
 7173SOL    HW132981   3.700   2.256   1.319 -1.0296 -0.0349 -0.7826
 7173SOL    HW232982   3.722   2.241   1.177 -0.5499  0.8259 -0.0199
 7174SOL     OW32983   4.677   2.507  16.685  0.1728 -0.1208 -0.3043
 7174SOL    HW132984   4.670   2.594  16.645  1.6392 -0.3373 -1.0050
 7174SOL    HW232985   4.606   2.469  16.633 -0.0293 -0.9192  0.5434
 7175SOL     OW32986   4.512   4.187   3.740 -0.4427  0.5900 -0.2547
 7175SOL    HW132987   4.585   4.246   3.722 -0.5184  0.8694  0.3554
 7175SOL    HW232988   4.492   4.224   3.826 -0.0302 -0.5843  0.3475
 7176SOL     OW32989   3.980   4.664  16.509  0.2699  0.3933 -0.2855
 7176SOL    HW132990   3.997   4.574  16.480  2.2566  1.6679 -3.0894
 7176SOL    HW232991   3.979   4.656  16.604  3.2543  0.4388 -0.2440
 7177SOL     OW32992   4.148   3.704   8.560 -0.2480  0.2052 -0.1804
 7177SOL    HW132993   4.204   3.762   8.612  2.0696 -1.6798 -0.5882
 7177SOL    HW232994   4.213   3.638   8.536 -1.3894 -0.0675 -2.4866
 7178SOL     OW32995   1.385   3.193   3.480  0.0426  0.2880  0.5577
 7178SOL    HW132996   1.331   3.230   3.551 -0.7559 -2.0339  1.1423
 7178SOL    HW232997   1.376   3.105   3.517  0.7271  1.0828  2.6172
 7179SOL     OW32998   0.859   1.414   5.354 -0.4769 -0.5670  0.5647
 7179SOL    HW132999   0.878   1.416   5.448  3.8407 -1.6564 -0.2483
 7179SOL    HW233000   0.830   1.323   5.345 -3.7818  0.6511 -0.8381
 7180SOL     OW33001   4.350   3.043   1.921 -0.0572  0.0825  0.2788
 7180SOL    HW133002   4.369   3.122   1.870 -0.9385  1.4581  2.0715
 7180SOL    HW233003   4.432   2.995   1.911 -1.1397 -2.1897  2.2958
 7181SOL     OW33004   1.591   4.589  11.086  0.0929 -0.4822 -0.5282
 7181SOL    HW133005   1.519   4.652  11.089  0.0630 -0.5390 -0.1442
 7181SOL    HW233006   1.650   4.622  11.018  0.4292  1.1207  0.5296
 7182SOL     OW33007   2.605   0.094   4.540  0.0525  0.5851  0.3512
 7182SOL    HW133008   2.532   0.143   4.576 -1.2337 -0.8053 -0.3748
 7182SOL    HW233009   2.618   0.021   4.601 -2.0066 -1.8611 -2.1630
 7183SOL     OW33010   3.787   1.510   7.412 -0.1984 -0.7136 -0.4467
 7183SOL    HW133011   3.744   1.576   7.358  0.4294  0.1706  0.1143
 7183SOL    HW233012   3.743   1.428   7.390 -0.7760 -0.3447 -0.6479
 7184SOL     OW33013   1.907   2.701  16.190 -0.0146  0.0807  0.3253
 7184SOL    HW133014   1.926   2.737  16.103 -0.3392  0.8476  0.5760
 7184SOL    HW233015   1.815   2.721  16.203  0.1107  0.3760  0.7477
 7185SOL     OW33016   2.230   0.659   5.961  0.0021  0.6689 -0.8985
 7185SOL    HW133017   2.150   0.659   5.909  0.8872 -1.1928 -2.2866
 7185SOL    HW233018   2.203   0.637   6.050  2.9980 -0.4677 -0.2679
 7186SOL     OW33019   0.941   3.546   0.453  0.0176 -0.2197  0.2918
 7186SOL    HW133020   0.898   3.517   0.533 -0.2423 -0.8643 -0.0838
 7186SOL    HW233021   0.888   3.615   0.413  0.3918 -0.7567 -1.1433
 7187SOL     OW33022   2.587   2.139  13.195  0.1019 -0.3248 -0.2324
 7187SOL    HW133023   2.616   2.080  13.125 -2.2031 -1.0053 -0.6131
 7187SOL    HW233024   2.649   2.116  13.264 -1.0538 -0.1944  0.8371
 7188SOL     OW33025   0.855   2.047   2.106  0.0196  0.4306 -0.0636
 7188SOL    HW133026   0.918   2.075   2.040 -1.0561  0.6402 -1.0168
 7188SOL    HW233027   0.785   2.097   2.064 -0.4512 -2.7966 -3.0810
 7189SOL     OW33028   3.452   4.209   2.232  0.4925  0.3575  0.1888
 7189SOL    HW133029   3.527   4.169   2.277 -0.8588 -0.4931  1.6600
 7189SOL    HW233030   3.482   4.226   2.142 -1.7545 -2.3787 -1.0603
 7190SOL     OW33031   4.343   3.052   4.802  0.6598  0.2611 -0.4727
 7190SOL    HW133032   4.339   2.995   4.726  2.6740  1.4067 -1.4197
 7190SOL    HW233033   4.252   3.044   4.829 -0.2604  3.6208 -2.5025
 7191SOL     OW33034   0.731   1.814  10.963 -0.3638 -0.5149 -0.1077
 7191SOL    HW133035   0.738   1.877  11.035  0.1574 -0.0732 -0.5493
 7191SOL    HW233036   0.816   1.832  10.923  1.0455 -1.1870  2.6053
 7192SOL     OW33037   3.204   2.921   4.347 -0.3544 -0.2928 -0.0323
 7192SOL    HW133038   3.186   2.844   4.402  1.8407 -1.0811 -0.3981
 7192SOL    HW233039   3.124   2.971   4.359  1.2154  2.6149 -1.8183
 7193SOL     OW33040   0.520   2.804   5.460 -0.5574 -0.0345  0.2887
 7193SOL    HW133041   0.532   2.882   5.407 -1.0130  0.1461  0.4541
 7193SOL    HW233042   0.604   2.760   5.445  0.6066  1.5970  2.1489
 7194SOL     OW33043   2.909   1.668   5.541 -0.6948  0.0244  0.7638
 7194SOL    HW133044   2.998   1.687   5.510  0.1647 -0.5240  2.8594
 7194SOL    HW233045   2.873   1.753   5.514  2.3581  0.7269 -1.1358
 7195SOL     OW33046   3.617   1.854   8.198  0.1822  0.1936 -0.2349
 7195SOL    HW133047   3.564   1.784   8.162 -0.5259  0.0964  0.9939
 7195SOL    HW233048   3.705   1.817   8.187 -0.0363 -0.2483 -0.4808
 7196SOL     OW33049   1.224   1.410   4.893 -0.2173  0.1799 -0.6918
 7196SOL    HW133050   1.155   1.367   4.842  1.8451 -2.6698 -1.1015
 7196SOL    HW233051   1.307   1.365   4.876 -0.2379 -0.6683  1.4275
 7197SOL     OW33052   4.441   3.451  13.492  0.2943 -0.0524  0.2168
 7197SOL    HW133053   4.445   3.479  13.583 -0.9338 -0.9656  0.5477
 7197SOL    HW233054   4.530   3.482  13.471  0.0928 -0.4130 -1.2056
 7198SOL     OW33055   2.045   4.250   2.168 -0.0199 -0.1566  0.0418
 7198SOL    HW133056   2.038   4.163   2.208  0.2750 -1.4564 -2.7906
 7198SOL    HW233057   2.089   4.300   2.237  2.0033 -0.6676 -0.8752
 7199SOL     OW33058   0.562   1.441   5.392 -0.8473  0.2711 -0.3807
 7199SOL    HW133059   0.643   1.413   5.348 -1.3938  0.1185 -1.2842
 7199SOL    HW233060   0.502   1.451   5.318  1.4521 -0.1367 -2.3111
 7200SOL     OW33061   4.472   0.115   8.963  0.6211 -0.2392  0.1345
 7200SOL    HW133062   4.420   0.180   8.916  3.1623  1.7880  0.0789
 7200SOL    HW233063   4.538   0.100   8.894  1.1360  1.4159  0.2621
 7201SOL     OW33064   0.514   3.740   9.462 -0.3299 -0.0397 -0.5843
 7201SOL    HW133065   0.484   3.650   9.445 -0.4560  0.2379 -1.8302
 7201SOL    HW233066   0.467   3.760   9.543  1.0860 -0.7135  0.3947
 7202SOL     OW33067   2.199   2.113   5.616 -0.1997 -0.3208  0.2476
 7202SOL    HW133068   2.254   2.085   5.543 -0.6915 -0.6579  0.0126
 7202SOL    HW233069   2.113   2.093   5.579 -0.6013  1.2344  0.3443
 7203SOL     OW33070   0.615   0.128   9.176  0.1021 -0.4459 -0.1474
 7203SOL    HW133071   0.597   0.208   9.226  0.6972 -1.2817  1.4069
 7203SOL    HW233072   0.680   0.089   9.235  0.0512  1.5306  1.2177
 7204SOL     OW33073   3.005   3.347   4.568 -0.1312  0.0380 -0.5140
 7204SOL    HW133074   3.073   3.283   4.590  1.4911  2.4839  1.5637
 7204SOL    HW233075   2.938   3.309   4.626 -0.7153 -0.1326 -1.3072
 7205SOL     OW33076   2.543   4.677  13.359  0.5586 -0.1285  0.0821
 7205SOL    HW133077   2.569   4.700  13.448 -0.2988  0.7969  0.0948
 7205SOL    HW233078   2.605   0.010  13.311  1.2783 -0.6015  0.4624
 7206SOL     OW33079   1.989   1.240   7.435  0.1313 -0.0816 -0.1742
 7206SOL    HW133080   1.998   1.206   7.524  0.7362 -0.6030 -0.4319
 7206SOL    HW233081   2.071   1.213   7.394 -1.1638 -1.1084 -2.0828
 7207SOL     OW33082   4.411   4.055   6.705  0.2165 -0.1407  0.3061
 7207SOL    HW133083   4.323   4.085   6.683  0.9739 -0.3842 -3.0092
 7207SOL    HW233084   4.389   4.000   6.781  0.1787 -0.4734  0.0550
 7208SOL     OW33085   0.114   2.771   0.688  0.0397  0.1579  0.1820
 7208SOL    HW133086   0.083   2.859   0.670 -0.7727 -0.2093 -0.2247
 7208SOL    HW233087   0.165   2.783   0.769 -1.2793 -0.8450  1.1626
 7209SOL     OW33088   4.709   3.785   2.338  0.3178  0.0964 -0.3545
 7209SOL    HW133089   0.050   3.759   2.403  0.4906 -1.5621 -1.1982
 7209SOL    HW233090   0.028   3.870   2.321  2.7021 -1.2554 -1.1891
 7210SOL     OW33091   4.193   0.851  17.093  0.1140  0.1083  0.0542
 7210SOL    HW133092   4.226   0.886  17.175  0.2028 -2.4232  1.0847
 7210SOL    HW233093   4.115   0.903  17.075 -1.3116 -1.6391  1.2541
 7211SOL     OW33094   0.329   0.838  12.565 -0.6360  0.2352  0.2637
 7211SOL    HW133095   0.327   0.922  12.519  2.3136  0.8907  1.3734
 7211SOL    HW233096   0.288   0.863  12.648 -1.7273  0.8729 -0.4694
 7212SOL     OW33097   4.213   2.096   3.442  0.6874  0.1489  0.0089
 7212SOL    HW133098   4.122   2.082   3.468  0.3544 -0.9577 -1.7380
 7212SOL    HW233099   4.254   2.085   3.528  2.4723 -1.5871 -1.0787
 7213SOL     OW33100   3.852   2.275  15.518  0.5508 -0.1434  0.1091
 7213SOL    HW133101   3.916   2.205  15.505  0.4430 -0.4074  0.9899
 7213SOL    HW233102   3.828   2.300  15.429  0.9444 -2.1549 -0.5663
 7214SOL     OW33103   4.107   0.673   8.534  0.2206 -0.5853 -0.1483
 7214SOL    HW133104   4.157   0.754   8.528  1.9078 -1.4222  3.0122
 7214SOL    HW233105   4.079   0.683   8.443  1.5551 -0.2937 -0.5281
 7215SOL     OW33106   1.721   3.511   3.933 -0.0418 -0.3438  0.1148
 7215SOL    HW133107   1.760   3.578   3.877 -0.8799 -1.3344 -1.6749
 7215SOL    HW233108   1.733   3.425   3.893 -0.5096  0.5725 -1.9870
 7216SOL     OW33109   0.037   0.833   4.304  0.0284 -0.0802  0.1882
 7216SOL    HW133110   0.125   0.858   4.329  0.2064  0.1089 -0.6116
 7216SOL    HW233111   0.057   0.799   4.217 -0.0010  1.7989 -0.5523
 7217SOL     OW33112   1.962   4.697   7.592  0.2397  0.4287 -0.6538
 7217SOL    HW133113   1.945   4.708   7.498 -1.0841 -0.4667 -0.5218
 7217SOL    HW233114   1.994   0.060   7.619 -0.7437  0.4443  0.4794
 7218SOL     OW33115   3.543   2.898   0.633  0.0712  0.6496 -0.4375
 7218SOL    HW133116   3.449   2.889   0.620  0.1299 -0.1800 -0.2657
 7218SOL    HW233117   3.562   2.979   0.585  1.0611  0.2084 -0.7920
 7219SOL     OW33118   3.634   2.122   3.956 -0.1168  0.1709  0.0288
 7219SOL    HW133119   3.559   2.067   3.934 -0.9091  0.5741  1.8017
 7219SOL    HW233120   3.597   2.187   4.015  1.3688 -0.7861  2.0351
 7220SOL     OW33121   3.585   2.801  11.838  0.1041  0.0786  0.1183
 7220SOL    HW133122   3.521   2.825  11.906  1.1108  2.7125  0.1200
 7220SOL    HW233123   3.592   2.710  11.867  2.6702 -0.0632 -0.9669
 7221SOL     OW33124   2.546   1.018   3.158  0.0164  0.9353  0.1049
 7221SOL    HW133125   2.473   1.056   3.207  0.9107  3.2303 -0.3470
 7221SOL    HW233126   2.534   1.068   3.077 -0.4746 -2.2466 -1.8062
 7222SOL     OW33127   1.269   4.537  10.480 -0.4075  0.2643 -0.1418
 7222SOL    HW133128   1.209   4.582  10.540 -2.0261 -0.2013 -1.3876
 7222SOL    HW233129   1.335   4.604  10.466 -0.6015 -0.0626 -2.7917
 7223SOL     OW33130   4.032   1.382   2.749 -0.3377 -0.1556 -0.1380
 7223SOL    HW133131   3.939   1.396   2.731 -0.1712 -0.5233 -1.2986
 7223SOL    HW233132   4.048   1.303   2.698  0.3292  0.6465 -1.1728
 7224SOL     OW33133   2.205   0.844   1.982 -0.3793  0.2268  0.3499
 7224SOL    HW133134   2.115   0.829   2.009 -1.1016  2.2235 -0.9405
 7224SOL    HW233135   2.196   0.938   1.972  1.4932  0.5469  1.5921
 7225SOL     OW33136   3.141   3.062   1.441  0.1272  0.0230  0.0670
 7225SOL    HW133137   3.153   3.154   1.421 -2.0367 -0.0917 -1.6712
 7225SOL    HW233138   3.233   3.045   1.460 -0.1902 -0.7157  0.9771
 7226SOL     OW33139   2.222   2.668   4.670 -0.1229  0.1348  0.4697
 7226SOL    HW133140   2.251   2.661   4.761 -0.0237 -2.7738  0.2240
 7226SOL    HW233141   2.270   2.750   4.665 -2.0459  1.3493  1.5191
 7227SOL     OW33142   3.075   3.285  16.249 -0.0224  0.3362 -0.5415
 7227SOL    HW133143   3.024   3.328  16.318  1.2152  0.5378  0.2330
 7227SOL    HW233144   3.154   3.327  16.282  1.0374  0.1228 -2.7927
 7228SOL     OW33145   3.061   0.607   5.019 -0.1484 -0.0278  0.5396
 7228SOL    HW133146   3.061   0.539   5.086  3.3309  2.0764  2.6539
 7228SOL    HW233147   2.984   0.658   5.043  0.0738  0.4822  0.1690
 7229SOL     OW33148   1.348   3.146   7.207 -0.6373 -0.4653  0.2884
 7229SOL    HW133149   1.263   3.141   7.251 -1.6114 -2.8674 -1.8611
 7229SOL    HW233150   1.317   3.178   7.122 -0.0557 -0.9635 -0.1093
 7230SOL     OW33151   1.172   3.181  12.291 -0.0469  0.4078 -0.4930
 7230SOL    HW133152   1.235   3.219  12.230 -0.0900 -1.7145 -1.8656
 7230SOL    HW233153   1.189   3.245  12.360 -2.0181  0.5110 -0.1012
 7231SOL     OW33154   2.989   1.260   5.475  0.0480  0.4019  0.3826
 7231SOL    HW133155   3.039   1.281   5.395 -1.2620  0.1489 -0.4927
 7231SOL    HW233156   2.903   1.299   5.461  1.7518  3.5151 -1.6201
 7232SOL     OW33157   0.346   0.038   8.058 -0.1485  1.1055 -0.4687
 7232SOL    HW133158   0.318   0.105   8.120 -0.0641  0.0795  0.6818
 7232SOL    HW233159   0.348   4.685   8.116  1.2739  1.6061  0.1495
 7233SOL     OW33160   2.685   1.656   2.182  0.3980 -0.4239 -0.3375
 7233SOL    HW133161   2.635   1.585   2.143 -0.6496 -0.5602  1.2117
 7233SOL    HW233162   2.699   1.701   2.099 -0.0760 -0.9024 -0.6763
 7234SOL     OW33163   3.076   3.844   3.794  0.2791  0.3903  0.5643
 7234SOL    HW133164   3.051   3.819   3.705  0.3078  1.4820  0.2427
 7234SOL    HW233165   3.048   3.936   3.796  3.1556  1.2305  2.7062
 7235SOL     OW33166   2.882   1.970   1.401  0.2864  0.1011 -0.2603
 7235SOL    HW133167   2.906   1.906   1.468  3.3049 -0.3193 -1.7575
 7235SOL    HW233168   2.946   1.943   1.335 -0.8027  0.9282 -1.6590
 7236SOL     OW33169   3.348   4.634   7.864 -0.3398 -0.3161 -0.5944
 7236SOL    HW133170   3.398   4.560   7.829  2.4120  0.9684  0.6159
 7236SOL    HW233171   3.292   4.575   7.915  0.7711  0.0872  1.1047
 7237SOL     OW33172   3.455   3.618   7.946 -0.0074  0.1740  0.5060
 7237SOL    HW133173   3.537   3.653   7.910 -0.2607 -0.5481 -0.7699
 7237SOL    HW233174   3.403   3.695   7.968 -0.4027  0.2601 -0.7822
 7238SOL     OW33175   1.953   1.970   7.357 -0.1807 -0.2676 -0.3934
 7238SOL    HW133176   1.937   2.064   7.356  0.6918 -0.1053  0.9174
 7238SOL    HW233177   2.044   1.961   7.329  0.2505 -1.3822  1.3541
 7239SOL     OW33178   1.089   0.424  16.458  0.2518 -0.1505 -0.2415
 7239SOL    HW133179   1.027   0.367  16.412 -1.1889  1.7752 -0.6783
 7239SOL    HW233180   1.052   0.509  16.434  2.2369  1.1713  1.3830
 7240SOL     OW33181   3.241   2.876   3.313 -0.2578  0.3326 -0.6455
 7240SOL    HW133182   3.322   2.913   3.278  0.3818 -0.2756  0.1831
 7240SOL    HW233183   3.170   2.918   3.265 -0.8432 -0.4045 -0.4090
 7241SOL     OW33184   1.184   2.675   0.778 -0.1234 -0.3479  0.2559
 7241SOL    HW133185   1.170   2.585   0.747 -2.3201  0.7983 -2.0990
 7241SOL    HW233186   1.130   2.715   0.710  0.0661 -0.1746  0.2096
 7242SOL     OW33187   1.610   2.165   6.225 -0.4692 -0.0755 -0.6297
 7242SOL    HW133188   1.704   2.149   6.218 -0.7411 -0.9521 -2.3169
 7242SOL    HW233189   1.615   2.257   6.252 -1.9250  0.1584 -1.1123
 7243SOL     OW33190   4.106   0.099   8.754 -0.0566 -0.1511  0.1886
 7243SOL    HW133191   4.180   0.159   8.749 -0.7693  0.6148 -1.2373
 7243SOL    HW233192   4.108   0.081   8.848 -0.0479 -0.4450  0.1331
 7244SOL     OW33193   4.244   2.652   3.964  0.1052 -0.1951  0.9159
 7244SOL    HW133194   4.313   2.609   4.016  1.2365  0.1436 -0.3280
 7244SOL    HW233195   4.298   2.695   3.899 -0.2152 -3.0735 -1.2578
 7245SOL     OW33196   0.684   3.529  10.248  0.4600 -0.1634  0.0336
 7245SOL    HW133197   0.736   3.576  10.313  0.8835 -0.3977 -0.1303
 7245SOL    HW233198   0.747   3.521  10.176 -0.9269  3.2818 -1.5190
 7246SOL     OW33199   2.503   0.337  11.457  0.7121  0.0454 -0.1416
 7246SOL    HW133200   2.458   0.409  11.501  1.2000  1.3638 -1.8033
 7246SOL    HW233201   2.572   0.378  11.404  3.0516 -1.0756  2.0039
 7247SOL     OW33202   0.914   1.908   4.241 -0.1452  0.0111 -0.0613
 7247SOL    HW133203   0.834   1.939   4.199 -0.2010  1.9856  1.5037
 7247SOL    HW233204   0.974   1.911   4.166  0.6631  1.0008  0.6301
 7248SOL     OW33205   3.063   2.899   5.423  0.0015  0.3943 -0.4181
 7248SOL    HW133206   2.973   2.901   5.455  0.1820  1.6709  0.0191
 7248SOL    HW233207   3.051   2.924   5.331  1.4233 -0.1561 -0.7560
 7249SOL     OW33208   3.395   4.216   6.491 -0.1217  0.0262  0.0901
 7249SOL    HW133209   3.339   4.171   6.428 -1.0254 -0.8983  1.5532
 7249SOL    HW233210   3.480   4.173   6.476  0.3232  1.0979 -0.4400
 7250SOL     OW33211   2.586   2.649   5.696  0.0874 -0.0727 -0.1826
 7250SOL    HW133212   2.674   2.612   5.700 -0.2311 -0.8155  0.0655
 7250SOL    HW233213   2.554   2.607   5.776  0.6493  1.6524  0.9299
 7251SOL     OW33214   0.012   2.681   2.852 -0.3757 -0.5057  0.3123
 7251SOL    HW133215   0.081   2.618   2.874 -1.3125 -2.1781 -1.5425
 7251SOL    HW233216   0.058   2.759   2.821 -0.0873 -0.3066  1.2394
 7252SOL     OW33217   0.253   2.212   9.892 -0.5443  0.3539 -0.2576
 7252SOL    HW133218   0.279   2.301   9.869 -1.7694  0.4358 -1.3298
 7252SOL    HW233219   0.159   2.210   9.872 -0.5409  0.1420 -0.2433
 7253SOL     OW33220   0.538   2.900   8.025  0.0569  0.6574  0.6369
 7253SOL    HW133221   0.514   2.873   8.114  1.0028 -0.0298  0.6822
 7253SOL    HW233222   0.633   2.891   8.036 -0.1199 -0.2742  1.4227
 7254SOL     OW33223   2.841   3.210   7.894 -0.2867 -0.0110  0.2359
 7254SOL    HW133224   2.837   3.272   7.967 -1.0315  2.2979 -1.7951
 7254SOL    HW233225   2.835   3.126   7.941  2.7740 -0.4753 -0.2319
 7255SOL     OW33226   3.419   0.255  11.073 -0.6455  0.1278 -0.2457
 7255SOL    HW133227   3.419   0.268  11.168 -1.6657  1.1284 -0.3856
 7255SOL    HW233228   3.331   0.219  11.066 -0.7412  0.4534 -0.7612
 7256SOL     OW33229   1.687   1.229   3.500  0.7272 -0.0820  0.9229
 7256SOL    HW133230   1.659   1.224   3.592 -3.6416 -0.1630 -0.3869
 7256SOL    HW233231   1.773   1.271   3.500  0.3958  0.5757 -1.1262
 7257SOL     OW33232   0.337   2.314   7.480 -0.1701  0.6974  0.2047
 7257SOL    HW133233   0.353   2.285   7.570 -0.2761  0.2614  0.0809
 7257SOL    HW233234   0.248   2.347   7.487 -0.1279  0.2809  2.9929
 7258SOL     OW33235   4.270   2.429  17.333  1.0379  0.3661  0.0290
 7258SOL    HW133236   4.220   2.358  17.373  0.0471  0.7603 -0.5317
 7258SOL    HW233237   4.358   2.408  17.366  0.0842 -0.8985  1.7305
 7259SOL     OW33238   3.982   3.126   7.745  0.0011  0.2938  0.0674
 7259SOL    HW133239   4.010   3.169   7.826 -1.3912  1.5993 -0.1458
 7259SOL    HW233240   3.918   3.064   7.780  1.4013 -0.1050  1.9221
 7260SOL     OW33241   0.583   3.935   3.724 -0.1993  0.0893 -0.1239
 7260SOL    HW133242   0.556   3.914   3.635 -0.7269 -2.2358  0.6010
 7260SOL    HW233243   0.600   4.029   3.720 -1.0668  0.2519  0.0567
 7261SOL     OW33244   2.216   1.050   3.876 -0.4355 -0.4219  0.5505
 7261SOL    HW133245   2.270   0.971   3.875 -0.1343 -0.2579  2.8358
 7261SOL    HW233246   2.280   1.121   3.868  1.3436 -2.1205 -0.2039
 7262SOL     OW33247   4.267   2.671   8.296  0.5227 -0.5715 -0.3469
 7262SOL    HW133248   4.358   2.699   8.290  0.2933 -0.0322 -1.3621
 7262SOL    HW233249   4.235   2.721   8.371  0.2293 -1.4110  0.0837
 7263SOL     OW33250   1.269   1.347   6.904  0.0935  0.4340 -0.1631
 7263SOL    HW133251   1.240   1.437   6.891  1.2872  0.8006 -0.2644
 7263SOL    HW233252   1.259   1.320   6.813  0.4308  2.8641 -0.9002
 7264SOL     OW33253   1.396   2.287   0.009  0.3844 -0.2533  0.3199
 7264SOL    HW133254   1.491   2.285   0.000  0.2262  0.0736 -1.5656
 7264SOL    HW233255   1.370   2.229  17.631 -0.9009  1.4804 -0.6129
 7265SOL     OW33256   0.649   3.196  16.715 -0.3289  0.0977 -0.2871
 7265SOL    HW133257   0.738   3.231  16.710 -0.8545  1.3191 -0.9414
 7265SOL    HW233258   0.641   3.155  16.629 -0.4475  0.0266 -0.2418
 7266SOL     OW33259   2.656   2.429  14.191 -0.5192  0.3562  0.0170
 7266SOL    HW133260   2.616   2.417  14.105  0.3174 -1.9098 -0.0496
 7266SOL    HW233261   2.695   2.345  14.216  1.2208  0.8890 -0.8893
 7267SOL     OW33262   1.602   2.602   2.953 -0.4883  0.8414  0.8023
 7267SOL    HW133263   1.547   2.557   2.888 -0.2025 -0.5034  1.4826
 7267SOL    HW233264   1.659   2.659   2.901 -1.3412  1.3677  0.4527
 7268SOL     OW33265   3.055   1.623   7.185  0.3699  0.4325 -0.0687
 7268SOL    HW133266   2.970   1.619   7.142 -0.7053  0.9785  2.0088
 7268SOL    HW233267   3.048   1.564   7.260 -0.5457  0.0997 -0.4194
 7269SOL     OW33268   0.771   2.107   6.242  0.1532 -0.0842  0.5801
 7269SOL    HW133269   0.702   2.142   6.187 -0.2327 -2.2697 -0.3109
 7269SOL    HW233270   0.797   2.032   6.188 -1.2043 -0.4070  0.3887
 7270SOL     OW33271   2.690   0.516  12.998  0.3825 -0.6839 -0.1899
 7270SOL    HW133272   2.747   0.529  12.923  1.5364 -1.0935  0.6174
 7270SOL    HW233273   2.617   0.465  12.962 -1.3608  0.1721  2.1039
 7271SOL     OW33274   1.348   2.822   0.932 -0.2544 -0.1190 -0.4871
 7271SOL    HW133275   1.325   2.781   1.015  1.0966 -3.1004 -1.5839
 7271SOL    HW233276   1.296   2.766   0.874 -0.3196 -1.1492  0.5757
 7272SOL     OW33277   1.947   1.848   6.844 -0.2900  0.9911 -0.7540
 7272SOL    HW133278   1.860   1.847   6.885 -0.8369 -2.9239 -2.0189
 7272SOL    HW233279   1.999   1.816   6.918  1.4343  2.9025 -1.1218
 7273SOL     OW33280   3.641   1.877   3.610 -0.7681 -0.2666  0.5253
 7273SOL    HW133281   3.570   1.827   3.649 -1.7394  2.2981  2.1185
 7273SOL    HW233282   3.706   1.877   3.681  0.6440 -0.2903 -0.7595
 7274SOL     OW33283   4.321   4.539   3.141 -0.1372  0.1614  0.5331
 7274SOL    HW133284   4.281   4.480   3.205 -2.1141  1.3027  0.3855
 7274SOL    HW233285   4.254   4.607   3.155 -1.8447 -1.7366  1.4909
 7275SOL     OW33286   4.056   2.028  13.723 -0.6984 -0.2115 -0.1424
 7275SOL    HW133287   4.051   1.932  13.727  2.0408 -0.3757 -0.6870
 7275SOL    HW233288   3.970   2.052  13.756 -0.1288 -0.1754  1.3405
 7276SOL     OW33289   2.783   4.578  10.581  0.0333 -0.0808  0.2019
 7276SOL    HW133290   2.874   4.553  10.590 -0.1217 -0.3100  1.1648
 7276SOL    HW233291   2.782   4.619  10.495  0.2567  2.7557  1.5410
 7277SOL     OW33292   4.085   2.855   0.862 -0.2114  0.9038  0.0837
 7277SOL    HW133293   4.162   2.825   0.910  0.6330  0.4330 -1.5581
 7277SOL    HW233294   4.111   2.819   0.777 -0.2507 -0.1877  0.5267
 7278SOL     OW33295   3.867   0.153   4.263 -0.2011 -0.4970  0.3958
 7278SOL    HW133296   3.874   0.214   4.189  0.6429 -0.4269  0.5284
 7278SOL    HW233297   3.951   0.165   4.307 -0.4410 -1.6059  1.1467
 7279SOL     OW33298   0.033   3.656   8.798  0.0452  0.8108  0.1505
 7279SOL    HW133299   0.074   3.648   8.884 -1.9592 -0.0625  1.0138
 7279SOL    HW233300   4.717   3.568   8.798 -0.3047  0.9650 -0.2924
 7280SOL     OW33301   4.137   2.251   4.707  0.0941 -0.3256  0.0119
 7280SOL    HW133302   4.104   2.168   4.672  2.0399 -1.4476  0.8439
 7280SOL    HW233303   4.112   2.255   4.799  0.8329 -0.9903  0.2415
 7281SOL     OW33304   2.027   1.307  13.829 -0.1320  0.2890 -0.2156
 7281SOL    HW133305   1.950   1.315  13.773 -0.9273  0.1603  0.8570
 7281SOL    HW233306   1.998   1.360  13.902 -1.6847 -1.1304  0.1931
 7282SOL     OW33307   2.928   3.548  17.099  0.4124 -0.0634 -0.1828
 7282SOL    HW133308   2.952   3.508  17.183  0.9923  1.2500  0.2680
 7282SOL    HW233309   2.893   3.635  17.120 -0.6832 -0.6464  0.4370
 7283SOL     OW33310   0.636   2.544   4.597 -0.3552  0.0163 -0.5438
 7283SOL    HW133311   0.669   2.455   4.613 -2.3518 -0.1683  2.4888
 7283SOL    HW233312   0.717   2.595   4.591  0.5698 -1.5981 -1.8147
 7284SOL     OW33313   3.818   3.244   4.541 -0.0075  0.0773 -0.1700
 7284SOL    HW133314   3.769   3.304   4.597 -2.2707 -2.5027  0.5824
 7284SOL    HW233315   3.890   3.211   4.594  0.1052  0.7185  0.0668
 7285SOL     OW33316   2.690   4.650   7.788  0.0857 -0.2352 -0.0378
 7285SOL    HW133317   2.745   4.619   7.861  0.2062  1.0138  0.4076
 7285SOL    HW233318   2.659   0.012   7.822 -2.0066 -1.1085  0.2421
 7286SOL     OW33319   0.543   1.212   6.965 -0.2338 -0.3089  0.1996
 7286SOL    HW133320   0.481   1.139   6.965  0.3082 -0.7695  0.7617
 7286SOL    HW233321   0.628   1.170   6.974  0.5508  1.1097 -0.6642
 7287SOL     OW33322   4.009   1.565  13.887  0.3200  0.1126  0.3328
 7287SOL    HW133323   4.053   1.482  13.906 -1.8257 -0.7188  1.5816
 7287SOL    HW233324   4.030   1.623  13.960 -0.2961 -1.9484  2.1294
 7288SOL     OW33325   1.424   4.345  11.240 -0.1118  0.1091 -0.0009
 7288SOL    HW133326   1.415   4.391  11.324  0.4102  0.2910 -0.0436
 7288SOL    HW233327   1.508   4.307  11.265  0.6957  2.0681  0.2944
 7289SOL     OW33328   2.786   3.849   1.805 -0.0392  0.0988  0.0343
 7289SOL    HW133329   2.710   3.810   1.850  1.5593 -0.2016  2.4997
 7289SOL    HW233330   2.856   3.850   1.870 -0.2066 -0.2452  0.2267
 7290SOL     OW33331   3.843   4.198   4.256  0.0206  0.4818  0.1965
 7290SOL    HW133332   3.806   4.223   4.172 -0.4305  0.0392  0.2640
 7290SOL    HW233333   3.766   4.210   4.312  0.7175  3.6871  0.4767
 7291SOL     OW33334   4.122   0.386   5.747 -0.5198 -0.5193  0.7632
 7291SOL    HW133335   4.211   0.366   5.718  0.2640  2.0334  1.4292
 7291SOL    HW233336   4.074   0.307   5.723 -0.5051 -0.0067 -0.9138
 7292SOL     OW33337   0.669   1.973   4.076  0.2158  0.2506 -0.4913
 7292SOL    HW133338   0.622   2.056   4.076 -2.7193 -1.3896 -0.0628
 7292SOL    HW233339   0.596   1.915   4.052 -0.3213  0.9670 -0.5821
 7293SOL     OW33340   2.028   1.126   0.125  0.0298 -0.3975  0.1962
 7293SOL    HW133341   1.939   1.161   0.130 -0.0875 -0.7416  0.5061
 7293SOL    HW233342   2.088   1.200   0.118 -0.6652  0.0712 -0.7977
 7294SOL     OW33343   1.962   1.292   3.453 -0.4187 -0.4518  0.6116
 7294SOL    HW133344   1.984   1.359   3.389 -0.2117 -0.6532  0.4725
 7294SOL    HW233345   1.983   1.334   3.536  3.4751 -1.6938  0.2646
 7295SOL     OW33346   4.142   1.652   4.294 -0.7684 -0.3096  0.5998
 7295SOL    HW133347   4.232   1.665   4.325 -0.3780 -1.6906  0.0599
 7295SOL    HW233348   4.150   1.582   4.230 -1.8547 -0.2040  0.3637
 7296SOL     OW33349   4.581   3.360  16.793 -0.4607  0.3883  0.1751
 7296SOL    HW133350   4.509   3.305  16.823  0.7246 -0.7687  0.8866
 7296SOL    HW233351   4.651   3.337  16.855 -0.6998 -2.5355 -0.6338
 7297SOL     OW33352   3.731   1.280   9.591  0.0838  0.1502  0.1375
 7297SOL    HW133353   3.668   1.341   9.629  0.0443 -0.5251  1.1569
 7297SOL    HW233354   3.798   1.346   9.575 -0.7109  0.8281 -0.3863
 7298SOL     OW33355   0.201   3.574   9.905  0.0560 -0.1623  0.1491
 7298SOL    HW133356   0.210   3.515   9.830  0.1894  0.1894 -0.1129
 7298SOL    HW233357   0.121   3.620   9.880  0.3803 -0.3582 -1.2873
 7299SOL     OW33358   2.916   0.635  17.165  0.2100  0.4435  0.2734
 7299SOL    HW133359   2.993   0.667  17.211  1.3396 -2.3854  0.3434
 7299SOL    HW233360   2.871   0.717  17.144 -0.1765  0.2931  0.5233
 7300SOL     OW33361   1.198   1.067   4.216 -0.0632  0.7437 -0.4346
 7300SOL    HW133362   1.277   1.077   4.162 -0.5984  0.1519 -1.3439
 7300SOL    HW233363   1.142   1.015   4.157 -0.5913 -0.0556  0.7862
 7301SOL     OW33364   2.083   0.077   7.356 -0.0374 -0.8301  0.5044
 7301SOL    HW133365   2.085   0.025   7.276  3.3170 -1.3447  0.9571
 7301SOL    HW233366   2.158   0.137   7.360  2.0408 -3.5353  1.7711
 7302SOL     OW33367   2.191   1.244   7.980  0.0505 -0.1481 -0.9905
 7302SOL    HW133368   2.198   1.202   8.066  1.7771  1.0841 -0.5055
 7302SOL    HW233369   2.144   1.185   7.922  0.8968 -2.1001  0.3111
 7303SOL     OW33370   3.340   0.468   9.986  0.0981  0.1542  0.2457
 7303SOL    HW133371   3.419   0.413   9.982 -0.8543 -1.1559 -0.7313
 7303SOL    HW233372   3.314   0.437  10.073  0.3929  1.3288  0.7497
 7304SOL     OW33373   2.014   1.440   4.972  0.1495 -0.7261  0.4754
 7304SOL    HW133374   1.922   1.464   4.958 -0.0713 -1.9449 -0.1280
 7304SOL    HW233375   2.020   1.367   4.911  1.8585 -1.6469  1.7236
 7305SOL     OW33376   4.414   3.284   3.561 -0.4998  0.2739  0.4217
 7305SOL    HW133377   4.398   3.374   3.592  0.7289  0.0019  1.8550
 7305SOL    HW233378   4.499   3.263   3.601  1.5418 -0.8238 -4.4788
 7306SOL     OW33379   1.098   2.922  12.358  1.4276 -0.0596  0.0314
 7306SOL    HW133380   1.014   2.965  12.376 -0.4328 -2.5417 -2.6975
 7306SOL    HW233381   1.139   2.998  12.317  1.2198 -0.1590 -0.3566
 7307SOL     OW33382   3.990   4.078   5.504 -0.1026 -0.2260  0.6018
 7307SOL    HW133383   4.013   4.009   5.441 -0.4500  0.1774  0.0354
 7307SOL    HW233384   4.034   4.154   5.466 -4.6195  0.6427 -3.0204
 7308SOL     OW33385   4.050   2.692   6.369  0.3826  0.2221 -0.5627
 7308SOL    HW133386   4.073   2.668   6.459 -1.0857 -0.5035 -0.3850
 7308SOL    HW233387   4.119   2.641   6.326  1.5012 -0.3898  1.9393
 7309SOL     OW33388   2.184   0.432   0.691  0.0244 -0.6915  0.2307
 7309SOL    HW133389   2.193   0.351   0.741  1.6434 -1.2301 -0.9499
 7309SOL    HW233390   2.225   0.411   0.607 -0.2633 -1.0571  0.1795
 7310SOL     OW33391   0.480   2.488   7.349 -0.9795  0.1128  0.3548
 7310SOL    HW133392   0.431   2.421   7.396 -0.1474 -0.7213  0.0337
 7310SOL    HW233393   0.538   2.521   7.417  0.8130  0.0672 -1.1551
 7311SOL     OW33394   4.500   1.471   2.863 -0.0143 -0.4207 -0.0304
 7311SOL    HW133395   4.411   1.443   2.839 -0.0567 -0.0217 -0.3356
 7311SOL    HW233396   4.558   1.400   2.836 -1.4300 -1.6019  0.0292
 7312SOL     OW33397   1.253   0.571   2.671 -0.3486  0.7777 -0.1737
 7312SOL    HW133398   1.345   0.551   2.652  0.1538  1.3929  1.7312
 7312SOL    HW233399   1.265   0.659   2.706 -3.8264  1.4607 -0.6897
 7313SOL     OW33400   1.444   4.409   6.344 -0.3664 -0.7384  0.2550
 7313SOL    HW133401   1.485   4.385   6.262  0.5430  0.6367  0.2977
 7313SOL    HW233402   1.488   4.344   6.398  1.7535 -1.2239 -2.0881
 7314SOL     OW33403   2.270   2.133   2.010 -0.3248  0.5763  0.4793
 7314SOL    HW133404   2.205   2.200   1.988 -2.1770 -2.0725 -2.1694
 7314SOL    HW233405   2.331   2.183   2.064 -1.5894 -1.3464  3.6488
 7315SOL     OW33406   0.031   0.881   3.769  0.7320 -0.0157  0.4566
 7315SOL    HW133407   0.103   0.906   3.711 -1.0875  3.1417 -0.4500
 7315SOL    HW233408   4.684   0.905   3.709  0.0801  0.3969  1.3660
 7316SOL     OW33409   2.760   2.675  16.822 -0.1119  0.5435 -0.1175
 7316SOL    HW133410   2.671   2.672  16.857 -0.1337 -1.5051 -0.3106
 7316SOL    HW233411   2.804   2.708  16.900 -0.7249  2.2843 -0.5141
 7317SOL     OW33412   3.091   3.235   3.676 -0.2620 -0.0366 -0.2914
 7317SOL    HW133413   3.164   3.235   3.613 -0.2794 -0.3737 -0.3127
 7317SOL    HW233414   3.021   3.203   3.618  0.9318  1.2456 -2.4596
 7318SOL     OW33415   0.775   2.195   7.698 -0.9762  0.3483 -0.0893
 7318SOL    HW133416   0.837   2.243   7.753 -0.6525  1.9257 -1.8469
 7318SOL    HW233417   0.820   2.112   7.683 -1.2044  0.5063 -1.6007
 7319SOL     OW33418   1.300   0.850   2.447  0.2551 -0.0974  0.1321
 7319SOL    HW133419   1.297   0.755   2.452  1.4129 -0.0548  1.7295
 7319SOL    HW233420   1.208   0.872   2.434  0.0183 -1.4698 -0.4761
 7320SOL     OW33421   4.150   3.736   5.620 -0.2648  1.1722  0.0856
 7320SOL    HW133422   4.184   3.781   5.697  0.9418 -0.8102  0.7115
 7320SOL    HW233423   4.056   3.753   5.628  0.0778  2.4405  1.4248
 7321SOL     OW33424   0.804   2.693   3.892  0.4076  0.1997  0.2683
 7321SOL    HW133425   0.891   2.731   3.897  0.3036  0.7124 -1.5791
 7321SOL    HW233426   0.784   2.683   3.799 -1.3735  1.4440  0.4982
 7322SOL     OW33427   4.297   0.155   7.915 -0.2882 -0.3283 -0.1787
 7322SOL    HW133428   4.388   0.156   7.945 -0.1664  0.5888 -0.5796
 7322SOL    HW233429   4.302   0.202   7.831  1.4694  0.5120  0.4114
 7323SOL     OW33430   3.124   3.030   6.221  0.0724 -0.0018 -0.3583
 7323SOL    HW133431   3.202   3.074   6.188  1.1543 -0.3054  1.7806
 7323SOL    HW233432   3.122   3.040   6.316  0.0873  2.3046 -0.5906
 7324SOL     OW33433   1.660   1.127   5.142  0.7255  0.0358  0.0281
 7324SOL    HW133434   1.693   1.038   5.144 -0.3371 -0.4036 -1.5119
 7324SOL    HW233435   1.599   1.127   5.216  1.7809 -0.7262  0.8774
 7325SOL     OW33436   2.465   1.619  11.506  0.3220 -0.3979 -0.7804
 7325SOL    HW133437   2.551   1.655  11.485  0.5159  0.4195  1.4658
 7325SOL    HW233438   2.424   1.644  11.423 -1.8883 -0.9391  0.1279
 7326SOL     OW33439   4.315   0.980   5.105  0.2892  0.4408  0.1731
 7326SOL    HW133440   4.369   0.928   5.165 -3.7621 -1.8593  1.8189
 7326SOL    HW233441   4.317   1.061   5.156 -0.7238  1.0830 -0.8118
 7327SOL     OW33442   1.878   1.749   1.746 -0.4536 -0.0625 -0.0545
 7327SOL    HW133443   1.823   1.788   1.678 -0.0740  2.5153  1.1250
 7327SOL    HW233444   1.909   1.685   1.683  0.3273 -2.0582  2.3556
 7328SOL     OW33445   1.705   2.152   3.273 -0.4356 -0.2303 -0.4442
 7328SOL    HW133446   1.647   2.098   3.220  0.2570 -0.8132 -0.6000
 7328SOL    HW233447   1.727   2.222   3.212  0.8889  0.4672  0.8218
 7329SOL     OW33448   4.706   0.224   3.144  0.6718 -0.4018  0.7757
 7329SOL    HW133449   0.076   0.246   3.146  0.1549  1.7735  0.2103
 7329SOL    HW233450   4.659   0.307   3.147 -1.1057 -1.4627  2.5479
 7330SOL     OW33451   3.797   4.031   2.091 -0.0697  0.1212 -0.4656
 7330SOL    HW133452   3.863   4.097   2.113 -0.6216  0.1917  1.0329
 7330SOL    HW233453   3.738   4.035   2.167 -2.0609  0.4032 -2.0227
 7331SOL     OW33454   0.237   4.541  16.360 -0.4130 -0.5142 -0.8348
 7331SOL    HW133455   0.256   4.447  16.359 -1.8047 -0.7892 -1.0442
 7331SOL    HW233456   0.326   4.578  16.362 -0.4920 -0.3866  0.1411
 7332SOL     OW33457   2.053   3.631   7.822 -0.0621  0.3922  0.6282
 7332SOL    HW133458   2.069   3.686   7.898  0.4402 -0.5325  1.1883
 7332SOL    HW233459   2.063   3.689   7.747  2.4013  0.1098  0.7351
 7333SOL     OW33460   2.660   1.426   9.102  0.4345  0.0107  0.5819
 7333SOL    HW133461   2.640   1.520   9.102  1.6745  0.2786 -0.7990
 7333SOL    HW233462   2.572   1.389   9.107  0.6418 -0.3245  1.6593
 7334SOL     OW33463   2.590   2.717  11.679 -0.1003 -0.3577 -0.1110
 7334SOL    HW133464   2.616   2.646  11.620 -0.5865 -1.2780  0.7896
 7334SOL    HW233465   2.591   2.686  11.769  1.2582 -0.4104 -0.1547
 7335SOL     OW33466   2.098   1.584  12.573  0.5117 -0.2492  0.2266
 7335SOL    HW133467   2.128   1.638  12.646  1.1808  0.5141 -0.6199
 7335SOL    HW233468   2.004   1.591  12.589  0.5492  0.3178  0.1962
 7336SOL     OW33469   0.733   2.777   6.224 -0.5823  0.1772  0.5653
 7336SOL    HW133470   0.715   2.848   6.286 -2.7155 -0.0413  0.1662
 7336SOL    HW233471   0.821   2.744   6.244  0.2202  1.8762 -0.1640
 7337SOL     OW33472   2.023   1.670   5.121  0.5917  0.0154  0.4417
 7337SOL    HW133473   2.111   1.698   5.096  0.2653  0.8639  0.2171
 7337SOL    HW233474   2.006   1.587   5.076  1.0674  1.6157 -2.7494
 7338SOL     OW33475   2.429   4.044   2.418  0.3779  0.0402  0.3405
 7338SOL    HW133476   2.394   3.966   2.461 -2.9723  2.3469  1.8185
 7338SOL    HW233477   2.386   4.112   2.471 -1.1104  0.4870 -1.4066
 7339SOL     OW33478   3.608   0.435   6.111  0.7730  0.5485 -0.4002
 7339SOL    HW133479   3.597   0.526   6.085  0.7883  0.6598 -0.0072
 7339SOL    HW233480   3.657   0.461   6.189  2.5796 -0.1173 -1.3199
 7340SOL     OW33481   1.644   2.305   7.193 -0.5774  0.2036  0.1657
 7340SOL    HW133482   1.680   2.219   7.211 -1.0299  0.0742  0.4555
 7340SOL    HW233483   1.559   2.299   7.236 -0.9748 -1.7710 -0.8855
 7341SOL     OW33484   2.838   2.525   7.472 -0.2515 -1.0107  0.2908
 7341SOL    HW133485   2.830   2.491   7.561  1.9938  0.8705  1.2106
 7341SOL    HW233486   2.929   2.552   7.466 -0.3114 -0.5339  1.3777
 7342SOL     OW33487   2.086   4.584   2.310 -0.1174  0.1997  0.2463
 7342SOL    HW133488   2.124   4.612   2.393 -1.1604 -1.0881  1.1567
 7342SOL    HW233489   2.005   4.548   2.346  1.4633 -2.2629  1.3211
 7343SOL     OW33490   1.372   2.939  16.167 -0.0811  0.0170 -0.3124
 7343SOL    HW133491   1.309   2.884  16.122 -0.7476 -0.4665  1.2102
 7343SOL    HW233492   1.395   3.007  16.103  0.0767 -2.3622 -2.7427
 7344SOL     OW33493   2.286   0.140  11.786 -0.2192  0.2940  0.3465
 7344SOL    HW133494   2.316   0.214  11.838 -1.9134  0.6998  0.7480
 7344SOL    HW233495   2.293   0.178  11.699  0.0572  2.1002  1.1559
 7345SOL     OW33496   4.204   1.885   5.340 -0.4038 -0.0067  0.2395
 7345SOL    HW133497   4.290   1.877   5.299 -0.0016  1.1171  0.8592
 7345SOL    HW233498   4.202   1.980   5.349 -0.4887  0.2566 -2.4100
 7346SOL     OW33499   0.347   3.397   9.145  0.4238  0.3249  0.2103
 7346SOL    HW133500   0.410   3.419   9.077 -0.1940 -0.6649 -0.6895
 7346SOL    HW233501   0.366   3.305   9.163  0.7935  0.3975  0.1927
 7347SOL     OW33502   3.125   2.867  10.515  0.5033 -0.7273  0.0660
 7347SOL    HW133503   3.142   2.842  10.606  0.2081  1.4482  0.7200
 7347SOL    HW233504   3.160   2.956  10.515  2.4441 -1.4775 -2.1161
 7348SOL     OW33505   3.895   0.351   4.038 -0.5375  0.1248 -0.2403
 7348SOL    HW133506   3.832   0.292   3.997 -2.0590  1.5088  0.1001
 7348SOL    HW233507   3.942   0.397   3.968 -2.9137  2.2463 -0.4750
 7349SOL     OW33508   1.964   4.633  13.664 -1.1551  0.6410 -0.5973
 7349SOL    HW133509   2.009   4.563  13.617  0.6250 -0.2524  2.4852
 7349SOL    HW233510   1.894   4.578  13.698 -1.1307 -0.2454 -1.9735
 7350SOL     OW33511   0.493   4.529   6.756 -0.1433  0.0799  0.4828
 7350SOL    HW133512   0.515   4.599   6.696  0.4428  1.4612  2.3048
 7350SOL    HW233513   0.509   4.575   6.839  2.6728 -0.1550  0.0591
 7351SOL     OW33514   2.401   3.114   5.797  0.5901  0.9288 -0.1538
 7351SOL    HW133515   2.458   3.072   5.732  0.5627  0.2626  0.2528
 7351SOL    HW233516   2.321   3.076   5.761  1.6075 -1.1369 -0.2303
 7352SOL     OW33517   4.415   1.442  15.679  0.1932 -0.6381 -0.1723
 7352SOL    HW133518   4.347   1.457  15.613  0.5254 -0.5261 -0.4844
 7352SOL    HW233519   4.376   1.388  15.748  0.3461 -0.2213  0.2427
 7353SOL     OW33520   3.822   4.505   5.549 -0.1612 -0.1547 -0.2053
 7353SOL    HW133521   3.747   4.447   5.534  1.6328 -2.4340 -0.3733
 7353SOL    HW233522   3.884   4.467   5.487 -0.2520  1.3361 -1.1978
 7354SOL     OW33523   2.339   1.620   5.597 -0.0855 -0.1005  0.3580
 7354SOL    HW133524   2.326   1.540   5.546  2.3436 -0.7494  0.7429
 7354SOL    HW233525   2.269   1.685   5.590 -0.0724  0.1895  3.0242
 7355SOL     OW33526   2.553   1.362   7.634  0.2244 -0.0344  0.7484
 7355SOL    HW133527   2.595   1.338   7.716  1.6673 -1.9369 -0.5357
 7355SOL    HW233528   2.461   1.378   7.657  0.6816  0.8799  1.9148
 7356SOL     OW33529   4.592   1.278  16.856 -0.0996  0.0270 -0.1460
 7356SOL    HW133530   4.581   1.296  16.763 -0.5040  0.6929  0.0351
 7356SOL    HW233531   4.523   1.217  16.883 -0.3596 -0.1911 -1.2946
 7357SOL     OW33532   3.812   3.762   1.294 -0.0861 -0.7903 -0.2898
 7357SOL    HW133533   3.837   3.763   1.387 -0.1878 -2.2859 -0.2578
 7357SOL    HW233534   3.788   3.670   1.283  0.8536 -1.3858  2.5783
 7358SOL     OW33535   2.659   3.817   5.856  0.5762  0.3569 -0.0861
 7358SOL    HW133536   2.565   3.799   5.860  0.7123 -0.0427  1.4952
 7358SOL    HW233537   2.684   3.745   5.799 -0.4638  0.8655 -1.1876
 7359SOL     OW33538   3.632   3.981  14.788  0.7774 -0.3896  0.2335
 7359SOL    HW133539   3.567   3.930  14.740  0.0935  0.3576  0.3747
 7359SOL    HW233540   3.683   3.908  14.825 -2.6489 -2.6072  0.5438
 7360SOL     OW33541   0.474   4.423  14.145 -0.7089  0.2835 -0.1420
 7360SOL    HW133542   0.531   4.353  14.176  0.7150  0.0685 -3.3617
 7360SOL    HW233543   0.511   4.435  14.058 -1.7902  0.6163 -0.5589
 7361SOL     OW33544   2.617   2.056   1.337  0.4850 -0.4983 -0.3301
 7361SOL    HW133545   2.614   2.051   1.242 -3.4861 -0.8497 -0.1891
 7361SOL    HW233546   2.692   1.999   1.351  1.4879  1.0608  0.6321
 7362SOL     OW33547   1.094   1.402   3.959  0.0446  0.3484 -0.5069
 7362SOL    HW133548   1.008   1.441   3.971  0.0878  0.3576 -0.2290
 7362SOL    HW233549   1.103   1.380   3.866 -1.1105  2.1309 -1.0367
 7363SOL     OW33550   1.243   0.548  13.074 -0.3583 -0.3224  0.2632
 7363SOL    HW133551   1.193   0.545  13.155 -1.0711  0.7117 -0.1337
 7363SOL    HW233552   1.189   0.609  13.022 -0.6283 -0.9713 -0.2178
 7364SOL     OW33553   4.689   0.870   8.298 -0.4095 -0.0477  0.8509
 7364SOL    HW133554   4.639   0.791   8.319 -2.1329  0.9165  0.3567
 7364SOL    HW233555   4.608   0.918   8.281 -0.2327 -0.0238  0.0680
 7365SOL     OW33556   0.125   0.920  11.801 -0.2128 -0.6712 -0.0213
 7365SOL    HW133557   0.118   0.829  11.832  2.5584 -0.9875 -0.2966
 7365SOL    HW233558   0.038   0.949  11.828 -0.0353 -0.5307  0.4061
 7366SOL     OW33559   4.487   1.878  11.892 -0.7880  0.1717 -0.1082
 7366SOL    HW133560   4.445   1.952  11.849  0.7010  0.2398 -1.4698
 7366SOL    HW233561   4.417   1.848  11.949  0.4736  0.2429  1.4826
 7367SOL     OW33562   1.107   2.368   6.661 -0.2359  1.2790  0.1233
 7367SOL    HW133563   1.023   2.324   6.670  0.5741 -0.3556 -0.2579
 7367SOL    HW233564   1.150   2.336   6.740 -1.0828  1.1969  0.5500
 7368SOL     OW33565   4.247   2.779   6.068  0.0040 -0.0333  0.2569
 7368SOL    HW133566   4.313   2.826   6.119 -0.7678 -0.2275  1.4095
 7368SOL    HW233567   4.240   2.698   6.119 -1.7068 -0.2618 -0.3594
 7369SOL     OW33568   1.075   4.287   6.352 -0.4910  0.4885  0.2641
 7369SOL    HW133569   1.049   4.298   6.444  1.1946  1.1307  0.6637
 7369SOL    HW233570   1.141   4.355   6.344 -0.9705  0.7472 -1.5006
 7370SOL     OW33571   0.764   2.073  16.488  0.3493  0.5769  0.0601
 7370SOL    HW133572   0.679   2.099  16.451  0.9057 -0.2114 -1.7603
 7370SOL    HW233573   0.727   2.021  16.560 -0.0373 -0.8580 -1.1667
 7371SOL     OW33574   0.412   3.403   3.518  0.1741 -0.1175 -0.0765
 7371SOL    HW133575   0.495   3.357   3.525  0.0976 -0.4736 -1.5342
 7371SOL    HW233576   0.354   3.333   3.549 -0.2093  0.0876 -0.3342
 7372SOL     OW33577   2.599   2.359  12.126 -0.3813  0.4060  0.4460
 7372SOL    HW133578   2.632   2.409  12.050 -0.4091 -1.2856 -0.6679
 7372SOL    HW233579   2.669   2.298  12.146 -1.7995 -1.7454 -1.1628
 7373SOL     OW33580   0.204   1.511   3.267 -0.3147  0.0828  0.2494
 7373SOL    HW133581   0.262   1.516   3.191  0.5814 -3.1096  0.6978
 7373SOL    HW233582   0.199   1.417   3.287 -0.5076 -0.3312 -1.7326
 7374SOL     OW33583   3.470   1.088   6.477 -0.0881 -0.4175  0.1194
 7374SOL    HW133584   3.541   1.027   6.456  0.0993 -0.5677  1.1783
 7374SOL    HW233585   3.500   1.137   6.554  1.0392  1.4790 -1.5081
 7375SOL     OW33586   3.322   0.229  16.546 -0.4189 -0.1004  0.0366
 7375SOL    HW133587   3.396   0.181  16.583 -0.9823  0.0224  1.3269
 7375SOL    HW233588   3.250   0.208  16.604  0.6791  0.6211  1.6731
 7376SOL     OW33589   1.107   0.085   6.452  0.3678 -0.6792 -0.0848
 7376SOL    HW133590   1.132   0.002   6.412 -1.7454 -0.6621 -1.3882
 7376SOL    HW233591   1.015   0.069   6.475  1.1013 -0.2807  3.1494
 7377SOL     OW33592   0.183   1.098   9.943 -0.2667  0.3936 -0.2974
 7377SOL    HW133593   0.152   1.010   9.961 -0.6633  0.6953  0.5056
 7377SOL    HW233594   0.108   1.158   9.941  0.0119  0.6658 -2.5844
 7378SOL     OW33595   0.851   2.563  14.924  0.5602 -0.1417 -0.5553
 7378SOL    HW133596   0.860   2.487  14.981  1.7387  3.2736  3.7646
 7378SOL    HW233597   0.785   2.618  14.964  0.2949 -3.9591  4.2371
 7379SOL     OW33598   0.424   4.345   2.961 -0.0886 -0.0004 -0.5528
 7379SOL    HW133599   0.345   4.328   3.012 -0.1219 -0.5931 -0.8021
 7379SOL    HW233600   0.407   4.327   2.868  0.0918 -0.3295 -0.5210
 7380SOL     OW33601   0.912   3.307   7.287  0.1152  0.9337  0.4827
 7380SOL    HW133602   0.832   3.283   7.333  1.3933 -0.1236  2.1477
 7380SOL    HW233603   0.869   3.318   7.203  1.1222 -3.0617 -0.5343
 7381SOL     OW33604   3.553   2.645   8.423 -0.0915  0.3878 -0.3704
 7381SOL    HW133605   3.538   2.564   8.374 -2.4683  0.3530  0.3973
 7381SOL    HW233606   3.643   2.631   8.453 -1.0645 -1.8166  1.5268
 7382SOL     OW33607   3.734   2.341   5.834  0.0287 -0.1929 -0.1358
 7382SOL    HW133608   3.801   2.289   5.791  0.0667 -0.5038  0.2955
 7382SOL    HW233609   3.688   2.387   5.764  0.5033 -3.4947 -2.5864
 7383SOL     OW33610   4.580   2.706   3.422 -0.2673 -0.6628 -0.9439
 7383SOL    HW133611   4.639   2.773   3.387  0.4034 -0.4697  0.5696
 7383SOL    HW233612   4.515   2.766   3.458  0.8852  0.0187 -0.0068
 7384SOL     OW33613   4.453   1.509  11.944  0.1078 -0.4296 -0.2941
 7384SOL    HW133614   4.399   1.587  11.932  1.1938  0.4643  0.6089
 7384SOL    HW233615   4.418   1.463  12.019 -1.2467 -0.0598 -0.7073
 7385SOL     OW33616   2.650   3.171  11.557 -0.6063  0.1696  0.3337
 7385SOL    HW133617   2.626   3.262  11.546 -0.7155  0.2805  1.4832
 7385SOL    HW233618   2.615   3.124  11.481 -1.6209  1.7662 -0.1620
 7386SOL     OW33619   2.638   4.219   2.451  0.0600 -0.1729  0.4714
 7386SOL    HW133620   2.697   4.177   2.389  1.4888  1.5566  0.6858
 7386SOL    HW233621   2.557   4.173   2.428  0.2854 -0.3065 -0.0444
 7387SOL     OW33622   1.434   3.604   4.346  0.7797  0.0836 -0.0278
 7387SOL    HW133623   1.485   3.531   4.382 -3.4763 -3.8845 -1.8913
 7387SOL    HW233624   1.462   3.596   4.255  1.0600  0.1188  0.0553
 7388SOL     OW33625   4.501   2.240   1.721  0.0275 -0.3991  0.0329
 7388SOL    HW133626   4.533   2.161   1.677  0.4837  0.1353 -0.5967
 7388SOL    HW233627   4.584   2.288   1.721 -0.3998  0.3152  2.0626
 7389SOL     OW33628   1.835   0.659   2.302  0.2910 -0.1567 -0.7417
 7389SOL    HW133629   1.809   0.586   2.359 -0.0298 -1.1161 -2.1393
 7389SOL    HW233630   1.754   0.687   2.259 -0.1692  1.6333  1.2467
 7390SOL     OW33631   2.550   1.973  11.584  0.3263  0.7136 -0.8918
 7390SOL    HW133632   2.639   1.981  11.549  0.5475  2.0554 -0.0137
 7390SOL    HW233633   2.510   1.976  11.497  0.0426 -0.5985 -0.8075
 7391SOL     OW33634   1.132   2.163   6.235 -0.2156 -0.1565  0.2933
 7391SOL    HW133635   1.210   2.188   6.285  1.0002 -0.0643 -1.6338
 7391SOL    HW233636   1.077   2.126   6.304 -1.5581  4.1062  1.4974
 7392SOL     OW33637   0.046   1.533   3.803 -0.2915 -0.2169  0.0472
 7392SOL    HW133638   4.709   1.575   3.742 -1.8373  1.1207  2.4852
 7392SOL    HW233639   0.078   1.616   3.838 -2.1723  0.1928  0.8012
 7393SOL     OW33640   4.346   0.329  16.489  0.7645 -0.5795  0.3364
 7393SOL    HW133641   4.418   0.368  16.439 -0.4046  0.6811 -0.3632
 7393SOL    HW233642   4.320   0.268  16.419  1.1177  0.1641 -0.4490
 7394SOL     OW33643   2.281   3.670   1.066 -0.1274 -0.2501 -0.2257
 7394SOL    HW133644   2.204   3.685   1.121  0.7048 -0.1343  0.8970
 7394SOL    HW233645   2.240   3.652   0.981  2.0512 -0.8581 -1.1367
 7395SOL     OW33646   1.855   3.614  17.463  0.1658 -1.3653 -0.4769
 7395SOL    HW133647   1.859   3.699  17.419 -0.5275  0.5220  3.0961
 7395SOL    HW233648   1.838   3.638  17.554 -0.1128 -1.8821 -0.3924
 7396SOL     OW33649   0.865   2.310   2.673  0.0897 -0.4344 -0.0777
 7396SOL    HW133650   0.777   2.348   2.665  0.6374  0.8211 -0.2297
 7396SOL    HW233651   0.885   2.280   2.585  3.5066 -0.4057  0.7094
 7397SOL     OW33652   0.712   2.260   9.021 -0.2356  0.2169 -0.3156
 7397SOL    HW133653   0.624   2.223   9.022 -0.7968  1.5329 -3.0774
 7397SOL    HW233654   0.762   2.181   9.044 -0.0633 -0.0990 -1.7720
 7398SOL     OW33655   1.449   0.876   5.225  0.4401 -0.1631 -0.0749
 7398SOL    HW133656   1.455   0.888   5.130 -5.6114 -2.7072 -0.7709
 7398SOL    HW233657   1.522   0.816   5.239  0.4579 -0.7854 -2.8266
 7399SOL     OW33658   2.484   0.073   6.158  0.2030 -0.1298  0.1340
 7399SOL    HW133659   2.420   0.141   6.140 -0.6564 -1.1672 -0.7557
 7399SOL    HW233660   2.433   4.715   6.154  0.8376 -0.5480  0.5159
 7400SOL     OW33661   3.783   4.087   8.080 -0.0411 -0.3923 -0.5213
 7400SOL    HW133662   3.841   4.156   8.112 -0.7903 -0.5563  1.2429
 7400SOL    HW233663   3.853   4.033   8.043  0.5228  0.1012 -0.1702
 7401SOL     OW33664   4.657   2.273   3.296 -0.8815  0.2272  0.1746
 7401SOL    HW133665   4.604   2.351   3.312 -0.9307  0.3372 -0.4917
 7401SOL    HW233666   4.632   2.235   3.211 -0.2196  2.1445 -0.8932
 7402SOL     OW33667   2.930   3.666   2.214 -0.3965  0.2406 -0.4028
 7402SOL    HW133668   2.924   3.758   2.186 -2.3963  0.7741  1.7846
 7402SOL    HW233669   3.008   3.661   2.268 -0.1164  0.8331 -0.7510
 7403SOL     OW33670   4.014   2.194   9.803 -0.0334 -0.3907 -0.3914
 7403SOL    HW133671   3.984   2.284   9.788 -1.5764 -1.1087 -1.5640
 7403SOL    HW233672   4.079   2.219   9.868 -0.6934  0.4651 -0.0628
 7404SOL     OW33673   1.582   0.901   2.342 -0.1245 -0.1676 -0.0347
 7404SOL    HW133674   1.598   0.971   2.279 -1.2356  1.0547  1.0379
 7404SOL    HW233675   1.493   0.923   2.371  2.0297  3.0970  3.9485
 7405SOL     OW33676   2.740   3.989   4.422 -0.4494 -0.0418  0.0974
 7405SOL    HW133677   2.750   4.007   4.329 -2.8774 -1.0480 -0.3640
 7405SOL    HW233678   2.794   3.910   4.429  0.6336  0.6217 -0.8281
 7406SOL     OW33679   1.348   3.455   7.136 -0.3694 -0.2825  0.1218
 7406SOL    HW133680   1.410   3.405   7.188  1.3014 -0.5982 -2.1433
 7406SOL    HW233681   1.271   3.452   7.192 -0.5484 -1.0764 -0.1655
 7407SOL     OW33682   2.288   0.666   0.790 -0.8237 -0.1103 -0.2265
 7407SOL    HW133683   2.266   0.573   0.785 -0.8820 -0.0971 -0.2116
 7407SOL    HW233684   2.208   0.710   0.762  0.4851  3.0059  0.8557
 7408SOL     OW33685   1.526   1.288   7.269  0.4073 -0.3294  0.2373
 7408SOL    HW133686   1.539   1.287   7.174 -1.1521 -3.0771  0.0235
 7408SOL    HW233687   1.620   1.290   7.287  1.0457  0.1256 -3.1636
 7409SOL     OW33688   0.421   1.635   2.681 -0.5563 -0.1043 -0.2771
 7409SOL    HW133689   0.500   1.604   2.726  0.5528 -0.2590 -2.3293
 7409SOL    HW233690   0.468   1.650   2.599  1.2361 -0.6232  0.6396
 7410SOL     OW33691   1.697   1.884  17.422  0.1178  0.2533 -0.0953
 7410SOL    HW133692   1.678   1.797  17.388 -1.3077  0.0535  1.2195
 7410SOL    HW233693   1.706   1.870  17.517 -1.3042 -4.1662 -0.6154
 7411SOL     OW33694   0.224   4.324  12.431 -0.3034 -0.4557 -0.3584
 7411SOL    HW133695   0.299   4.266  12.418 -0.9269 -0.8607 -2.1341
 7411SOL    HW233696   0.258   4.381  12.500  1.8545 -1.0133 -0.9739
 7412SOL     OW33697   3.342   0.284   5.386 -0.3442  0.3239  0.1236
 7412SOL    HW133698   3.289   0.205   5.379 -0.0519  0.1329  0.0510
 7412SOL    HW233699   3.349   0.285   5.482  0.9877 -1.0957  0.0445
 7413SOL     OW33700   4.708   1.497   4.986  0.0635  0.4925  0.0523
 7413SOL    HW133701   4.658   1.542   4.918  0.5423  0.5741 -0.2491
 7413SOL    HW233702   4.642   1.477   5.052 -0.8763  2.4977 -0.2806
 7414SOL     OW33703   3.722   0.990   6.642  0.3433  0.0265  0.3880
 7414SOL    HW133704   3.676   0.916   6.681  1.7131 -0.6649  0.6611
 7414SOL    HW233705   3.667   1.067   6.660 -4.0441 -2.6234 -1.6326
 7415SOL     OW33706   0.366   0.244  16.264  0.1665  0.3549 -0.1444
 7415SOL    HW133707   0.373   0.167  16.320 -0.4412  0.5701  0.2150
 7415SOL    HW233708   0.362   0.199  16.180 -1.5191 -0.4389  0.3776
 7416SOL     OW33709   3.979   2.099   0.892  0.3584 -0.4295  0.5381
 7416SOL    HW133710   3.917   2.068   0.826 -0.0907  1.2800  0.1579
 7416SOL    HW233711   3.922   2.081   0.966 -0.2770  1.4206  0.4927
 7417SOL     OW33712   2.383   0.329  11.932 -0.3632 -0.2335 -0.0332
 7417SOL    HW133713   2.415   0.271  12.000  2.9769  0.7537 -0.7400
 7417SOL    HW233714   2.435   0.404  11.960 -1.3937  0.7273 -0.6361
 7418SOL     OW33715   2.170   2.472   8.387  0.4348 -0.4772 -0.0057
 7418SOL    HW133716   2.178   2.524   8.467  0.0487  1.1594 -1.0368
 7418SOL    HW233717   2.181   2.538   8.318  0.4907  1.1921  1.5995
 7419SOL     OW33718   2.135   0.505  12.488  0.0730 -0.2439  0.0309
 7419SOL    HW133719   2.132   0.591  12.446  0.5879 -1.2547 -2.0599
 7419SOL    HW233720   2.082   0.460  12.423 -0.4575 -0.4239  0.5872
 7420SOL     OW33721   3.047   1.644   8.712 -0.8049  0.2156 -0.6313
 7420SOL    HW133722   2.972   1.630   8.770 -0.4985  0.0099 -0.2812
 7420SOL    HW233723   3.083   1.556   8.699  0.3164  0.6319 -0.4216
 7421SOL     OW33724   1.361   2.952   8.716  0.3590  0.8021  0.6421
 7421SOL    HW133725   1.454   2.975   8.707  1.0473 -1.7109  1.3916
 7421SOL    HW233726   1.323   3.011   8.651  0.5704 -1.9737 -1.9450
 7422SOL     OW33727   1.521   0.562   1.080 -0.4435  0.1946  0.0210
 7422SOL    HW133728   1.506   0.651   1.111 -1.9200  0.0482 -0.2666
 7422SOL    HW233729   1.464   0.562   1.002 -1.3884 -0.7257  0.7186
 7423SOL     OW33730   0.782   1.163   4.747  0.3482 -0.4809  0.0895
 7423SOL    HW133731   0.728   1.084   4.744  1.2122 -1.0865  0.4635
 7423SOL    HW233732   0.852   1.136   4.687 -0.0768 -0.3769 -0.4512
 7424SOL     OW33733   3.769   1.586  16.143  0.1575  0.2308 -0.0146
 7424SOL    HW133734   3.821   1.608  16.066  0.1085 -0.3000 -0.1948
 7424SOL    HW233735   3.784   1.492  16.147  0.2743  0.2834  0.9157
 7425SOL     OW33736   0.842   2.291  14.693 -0.4072  0.3880 -0.8058
 7425SOL    HW133737   0.750   2.301  14.669 -0.1707  1.6076 -1.2047
 7425SOL    HW233738   0.866   2.208  14.653  2.5107  1.6519 -1.7110
 7426SOL     OW33739   1.699   3.640  12.945  0.5342  0.3579  0.0403
 7426SOL    HW133740   1.653   3.563  12.910  1.2212 -1.3869  3.0261
 7426SOL    HW233741   1.783   3.603  12.975  0.2724 -0.7962 -0.6210
 7427SOL     OW33742   2.331   1.669  11.034 -0.4388  0.2584  0.5648
 7427SOL    HW133743   2.281   1.651  10.955  2.3506 -0.5606 -1.0176
 7427SOL    HW233744   2.370   1.754  11.011 -0.2823 -0.1126 -0.5432
 7428SOL     OW33745   4.560   0.385  14.421  0.0972 -0.3072  0.5054
 7428SOL    HW133746   4.475   0.392  14.376 -1.0486 -2.0785  2.3770
 7428SOL    HW233747   4.533   0.374  14.512 -1.3153  4.6140  0.7080
 7429SOL     OW33748   2.499   0.411   7.404 -0.3683  0.2456  0.2665
 7429SOL    HW133749   2.585   0.443   7.432  0.7072 -1.5893 -0.9419
 7429SOL    HW233750   2.483   0.466   7.327 -0.8466 -1.9658 -1.2080
 7430SOL     OW33751   2.883   4.278   8.210 -0.0803 -0.0381 -0.0890
 7430SOL    HW133752   2.883   4.355   8.266  1.2426 -0.2001  0.1320
 7430SOL    HW233753   2.973   4.278   8.179  0.2483 -2.6303  0.8795
 7431SOL     OW33754   3.820   0.909  16.074  0.5787  0.1078  0.4031
 7431SOL    HW133755   3.894   0.920  16.134  1.9042 -0.6846 -1.0700
 7431SOL    HW233756   3.755   0.966  16.115 -0.2593 -0.1084 -0.6347
 7432SOL     OW33757   1.086   4.032   4.873  0.4474 -0.0876 -0.1627
 7432SOL    HW133758   1.117   3.980   4.947 -1.1486  0.9168  1.2072
 7432SOL    HW233759   1.161   4.032   4.814  1.5501  0.0929  1.2600
 7433SOL     OW33760   2.919   4.515  10.072  0.0819 -0.3585 -0.3254
 7433SOL    HW133761   2.828   4.528  10.045  0.1964  1.7759  0.3374
 7433SOL    HW233762   2.947   4.468   9.993  1.2906 -0.2136  0.0198
 7434SOL     OW33763   2.733   1.883   4.060 -0.0182 -0.5254  0.0257
 7434SOL    HW133764   2.672   1.879   4.134 -0.0593  0.9581  0.0801
 7434SOL    HW233765   2.824   1.883   4.090  0.2849 -0.5677 -0.8960
 7435SOL     OW33766   0.267   0.848   2.836  0.1339 -0.0780 -0.0430
 7435SOL    HW133767   0.240   0.787   2.767  0.4745 -0.7071  0.3818
 7435SOL    HW233768   0.186   0.841   2.888 -1.1882 -0.5811 -2.1652
 7436SOL     OW33769   1.549   2.636   1.710  0.6743  0.1699 -0.0969
 7436SOL    HW133770   1.608   2.623   1.636  2.7240  1.1539  1.3625
 7436SOL    HW233771   1.476   2.678   1.664  0.3007 -0.4104 -0.0307
 7437SOL     OW33772   3.016   3.049   1.872  0.0953 -0.3157  0.0156
 7437SOL    HW133773   3.042   3.123   1.928  0.7609 -1.3465  1.0594
 7437SOL    HW233774   2.973   3.098   1.802  1.0709 -1.1166 -1.1309
 7438SOL     OW33775   2.420   4.642  17.109  0.1549 -0.2753  0.2134
 7438SOL    HW133776   2.437   4.619  17.018 -0.9276 -1.6326  0.3441
 7438SOL    HW233777   2.349   4.586  17.139 -1.4871  2.1835  0.8928
 7439SOL     OW33778   0.615   0.078  12.095  0.9357 -0.4051 -0.2624
 7439SOL    HW133779   0.648   0.124  12.017  0.0472 -1.2060 -1.1103
 7439SOL    HW233780   0.556   0.146  12.129 -0.3287 -2.0658  0.8267
 7440SOL     OW33781   4.455   3.259   7.599 -0.0341  1.5722 -0.0439
 7440SOL    HW133782   4.510   3.325   7.557  1.2967  1.0401  0.8735
 7440SOL    HW233783   4.393   3.238   7.529 -0.2162  0.8536  0.3330
 7441SOL     OW33784   1.544   1.084  11.443 -0.1428 -0.1779  0.6891
 7441SOL    HW133785   1.602   1.122  11.378 -1.4616 -0.0757 -0.4231
 7441SOL    HW233786   1.546   1.158  11.503 -0.7292 -0.0565  0.5657
 7442SOL     OW33787   3.505   3.932   2.570 -0.3798 -0.3535 -0.0470
 7442SOL    HW133788   3.499   3.837   2.561 -1.9041 -0.3187  0.5254
 7442SOL    HW233789   3.553   3.940   2.653 -1.7092  0.2053  0.6830
 7443SOL     OW33790   1.197   4.343   5.320  0.5703 -0.2208  0.1844
 7443SOL    HW133791   1.123   4.316   5.266  0.0369 -0.9125  1.2637
 7443SOL    HW233792   1.260   4.349   5.248 -1.6229 -1.9410 -1.8725
 7444SOL     OW33793   2.169   2.435   1.775 -0.1154 -0.2001  0.0949
 7444SOL    HW133794   2.119   2.514   1.754 -1.7571 -0.5166  2.8049
 7444SOL    HW233795   2.143   2.409   1.864  0.9017  1.1353  0.7696
 7445SOL     OW33796   0.210   0.203  12.418  0.3366  0.1382  0.3586
 7445SOL    HW133797   0.218   0.130  12.480 -0.1534 -2.6502 -2.8361
 7445SOL    HW233798   0.157   0.161  12.351  0.1679 -1.2960  1.3702
 7446SOL     OW33799   4.659   3.375   4.581  0.4769 -0.1533  0.4808
 7446SOL    HW133800   4.700   3.318   4.517  0.9552 -0.3072  0.9158
 7446SOL    HW233801   4.643   3.317   4.656 -3.3956  0.5117  0.1427
 7447SOL     OW33802   4.059   2.672   8.598 -0.1542  0.7176  0.6913
 7447SOL    HW133803   4.087   2.698   8.686  0.0674  1.0015  0.5399
 7447SOL    HW233804   4.097   2.746   8.550 -0.5307  0.1165 -0.5105
 7448SOL     OW33805   1.329   0.051   4.906 -0.3382 -0.4925  0.1098
 7448SOL    HW133806   1.277   0.049   4.826  1.6978  1.1027 -1.2631
 7448SOL    HW233807   1.396   0.115   4.881 -1.7527  0.9057 -0.0675
 7449SOL     OW33808   2.334   1.578   3.325 -0.1469  0.0484 -0.2410
 7449SOL    HW133809   2.266   1.632   3.365 -0.9887 -0.5367 -0.8599
 7449SOL    HW233810   2.391   1.574   3.401  0.2941 -2.8582 -0.7354
 7450SOL     OW33811   0.286   3.096  13.182  1.3576 -0.4962  0.0286
 7450SOL    HW133812   0.225   3.159  13.218  0.8386  0.0399 -1.8049
 7450SOL    HW233813   0.241   3.012  13.190  2.3555 -0.9363  1.1319
 7451SOL     OW33814   1.173   1.132   3.509 -0.5184 -0.2211  0.4861
 7451SOL    HW133815   1.136   1.217   3.486  0.1906  0.1466  0.6753
 7451SOL    HW233816   1.251   1.139   3.454 -1.6820  0.2773 -1.0812
 7452SOL     OW33817   2.504   2.288   5.198 -0.3529 -0.3296 -0.2036
 7452SOL    HW133818   2.538   2.288   5.108  2.5811 -0.9218  0.8847
 7452SOL    HW233819   2.417   2.252   5.184 -0.2434  0.3062 -2.4633
 7453SOL     OW33820   2.538   2.278   2.892 -0.3008  0.3055  0.2960
 7453SOL    HW133821   2.570   2.318   2.811 -0.7194  0.2238  0.0885
 7453SOL    HW233822   2.604   2.317   2.949  0.9799 -1.7917  0.2388
 7454SOL     OW33823   0.956   3.768  11.060  0.2014  0.1708  0.8600
 7454SOL    HW133824   0.928   3.687  11.102  2.7346 -0.6583  0.9512
 7454SOL    HW233825   0.985   3.730  10.977 -3.3117 -0.7467  0.0494
 7455SOL     OW33826   4.711   2.463  10.020  1.0575 -0.1572  0.3148
 7455SOL    HW133827   4.682   2.466   9.929  0.4445 -0.9232  0.4872
 7455SOL    HW233828   4.669   2.382  10.049 -0.5619  0.1861 -1.1373
 7456SOL     OW33829   2.095   4.523  10.532 -0.7285  0.2140  0.6915
 7456SOL    HW133830   2.071   4.431  10.521 -1.9275  0.9300 -2.7370
 7456SOL    HW233831   2.190   4.519  10.522 -0.6252 -0.3323  1.8153
 7457SOL     OW33832   1.297   1.685  14.366 -0.1362 -0.0124  1.0900
 7457SOL    HW133833   1.253   1.701  14.282  1.3015  0.8384  0.4981
 7457SOL    HW233834   1.341   1.770  14.377 -1.6449  0.8116  0.7092
 7458SOL     OW33835   1.511   3.105  10.559 -0.5218 -0.2974 -0.3482
 7458SOL    HW133836   1.566   3.029  10.578 -0.5348 -0.2741 -0.2200
 7458SOL    HW233837   1.488   3.130  10.648  1.6646  1.4415 -0.2641
 7459SOL     OW33838   2.534   1.722   1.278 -0.1863 -0.1841  0.0717
 7459SOL    HW133839   2.526   1.805   1.230 -2.0973  0.3238  1.2550
 7459SOL    HW233840   2.474   1.660   1.236  0.2707 -1.7478  1.7778
 7460SOL     OW33841   3.181   1.263   5.844  0.0104  0.1221 -0.0052
 7460SOL    HW133842   3.091   1.273   5.875  0.2789  0.1179  0.7914
 7460SOL    HW233843   3.226   1.311   5.914 -1.4426 -0.7204  1.5174
 7461SOL     OW33844   2.907   4.203  17.542 -0.2335  0.2840 -0.0148
 7461SOL    HW133845   2.990   4.226  17.583  0.3544  1.1386 -1.6913
 7461SOL    HW233846   2.940   4.133  17.485  1.0501  1.7496 -1.0320
 7462SOL     OW33847   3.560   3.954   1.324 -0.0371  0.5169  0.2904
 7462SOL    HW133848   3.639   3.911   1.292  0.1743  1.1694 -0.0645
 7462SOL    HW233849   3.602   4.033   1.359 -0.7742  0.6960  0.7835
 7463SOL     OW33850   1.918   1.663  12.808 -0.5059 -0.1083 -0.0456
 7463SOL    HW133851   1.949   1.749  12.779 -3.7568  1.4930  1.1807
 7463SOL    HW233852   1.898   1.663  12.902 -0.6971 -0.8528 -0.0920
 7464SOL     OW33853   0.854   0.347  13.456  0.1917 -0.3395 -0.3626
 7464SOL    HW133854   0.818   0.285  13.393 -0.8011 -1.0792  0.9359
 7464SOL    HW233855   0.796   0.324  13.529 -0.1698  0.0049 -0.5370
 7465SOL     OW33856   1.170   2.460  11.885  0.7966 -0.9293 -0.2095
 7465SOL    HW133857   1.190   2.534  11.942  0.8554 -0.8851 -0.2875
 7465SOL    HW233858   1.130   2.504  11.810  2.9469 -0.4065 -1.0459
 7466SOL     OW33859   0.630   0.511  13.000  0.0520 -0.1888 -0.2677
 7466SOL    HW133860   0.706   0.568  13.000 -0.1709  0.1208  1.4620
 7466SOL    HW233861   0.633   0.469  13.086 -2.2698 -0.7444 -0.4567
 7467SOL     OW33862   4.389   1.069   0.090 -0.4498 -0.1584  0.0600
 7467SOL    HW133863   4.311   1.055   0.144  1.7758 -1.7430  2.8579
 7467SOL    HW233864   4.395   0.984   0.046  0.2153 -1.0569  1.8576
 7468SOL     OW33865   2.304   3.022   9.574 -0.2723 -1.1553 -0.0199
 7468SOL    HW133866   2.371   3.051   9.511 -0.7783 -0.0249 -0.0331
 7468SOL    HW233867   2.232   3.081   9.556  2.0798  0.7794 -3.1038
 7469SOL     OW33868   2.902   1.153   6.888 -0.0025  0.3252 -0.1361
 7469SOL    HW133869   2.823   1.204   6.908  0.2674  0.2791  1.0787
 7469SOL    HW233870   2.892   1.150   6.793 -0.0321  1.4721 -0.1780
 7470SOL     OW33871   2.527   3.990  12.133  0.0966 -0.2051  0.2234
 7470SOL    HW133872   2.468   3.942  12.192  0.9990 -1.4152  0.1501
 7470SOL    HW233873   2.538   3.920  12.068 -1.7577 -0.8672  0.6204
 7471SOL     OW33874   1.018   3.194   5.603  0.1675 -0.5998 -0.0862
 7471SOL    HW133875   1.085   3.252   5.566  0.3546 -0.2164  0.8471
 7471SOL    HW233876   1.064   3.112   5.620  0.3877 -0.2855  0.8599
 7472SOL     OW33877   3.052   4.690   4.633 -0.5458 -0.0044 -0.5216
 7472SOL    HW133878   3.110   4.674   4.708 -1.7777  0.1517  0.4723
 7472SOL    HW233879   2.973   0.005   4.670 -0.4759  0.7706 -1.1925
 7473SOL     OW33880   4.658   4.140  15.277 -0.7621  0.3525 -0.5931
 7473SOL    HW133881   4.574   4.183  15.263 -1.1337 -0.4613 -0.8745
 7473SOL    HW233882   4.707   4.216  15.306 -1.1418  0.7079 -0.8902
 7474SOL     OW33883   2.953   4.654   9.055  0.1063 -0.4045  0.7527
 7474SOL    HW133884   2.892   4.623   9.122  0.4085  2.0103  2.1447
 7474SOL    HW233885   3.031   4.660   9.111  0.0104  1.0839  0.7290
 7475SOL     OW33886   1.156   1.044   2.064 -0.5343  0.3012  0.1404
 7475SOL    HW133887   1.096   1.049   2.138 -0.9359  0.0211 -0.1620
 7475SOL    HW233888   1.232   1.092   2.096  0.5334 -1.2775 -0.0041
 7476SOL     OW33889   1.118   1.336   4.216 -0.3430 -0.3674 -0.0904
 7476SOL    HW133890   1.134   1.243   4.231 -0.0124 -0.4972 -1.2548
 7476SOL    HW233891   1.142   1.340   4.123  0.5432  0.0511  0.1628
 7477SOL     OW33892   2.827   3.082   3.800  0.0357 -0.1866  0.4449
 7477SOL    HW133893   2.889   3.079   3.872  1.9249  0.1923 -1.1661
 7477SOL    HW233894   2.777   3.161   3.822  0.1368  0.4564 -1.5759
 7478SOL     OW33895   4.605   3.608  14.760 -0.1955 -0.3108 -0.5698
 7478SOL    HW133896   4.657   3.561  14.825 -0.7134 -2.8580 -1.9872
 7478SOL    HW233897   4.670   3.639  14.697  0.9768  1.7626  1.7113
 7479SOL     OW33898   1.393   2.859   4.166 -0.3420 -0.1690  0.6527
 7479SOL    HW133899   1.383   2.803   4.243  0.4324  1.3387  1.8499
 7479SOL    HW233900   1.320   2.822   4.117 -0.1481  1.6487 -1.0242
 7480SOL     OW33901   2.413   4.156  11.055 -0.1337 -0.8203 -0.4672
 7480SOL    HW133902   2.339   4.116  11.100  0.4544  2.0140  3.1166
 7480SOL    HW233903   2.477   4.085  11.050 -0.7175 -1.6213  2.9257
 7481SOL     OW33904   3.382   0.136   9.121 -0.5586 -0.0750  0.1975
 7481SOL    HW133905   3.441   0.177   9.184 -0.8154 -2.9953  2.3171
 7481SOL    HW233906   3.334   0.217   9.101  0.5642  0.5871  0.2039
 7482SOL     OW33907   4.471   1.686  12.889 -0.2368 -0.2080  0.1585
 7482SOL    HW133908   4.515   1.744  12.828  1.1256 -0.2574  1.0959
 7482SOL    HW233909   4.491   1.598  12.855  2.7158  0.6793 -0.3608
 7483SOL     OW33910   0.071   1.184  14.450  0.1845 -0.3194 -0.3293
 7483SOL    HW133911   0.145   1.242  14.431  1.0920 -1.6024 -0.7520
 7483SOL    HW233912   0.067   1.183  14.545 -0.9021  1.5579 -0.3708
 7484SOL     OW33913   0.910   2.341   7.106 -0.1722  0.2825  0.1235
 7484SOL    HW133914   0.885   2.433   7.099 -1.5855 -0.0488  0.7828
 7484SOL    HW233915   0.828   2.301   7.134  0.8944 -0.5914  2.0430
 7485SOL     OW33916   2.345   1.408   5.426 -0.3440  0.2736 -0.6942
 7485SOL    HW133917   2.440   1.419   5.414 -0.3283 -1.5803 -2.0978
 7485SOL    HW233918   2.308   1.352   5.359 -0.8061 -0.1931 -0.0536
 7486SOL     OW33919   4.132   3.668   2.138 -0.5456  0.4727  0.5320
 7486SOL    HW133920   4.070   3.660   2.211 -1.4397  0.2390 -0.2479
 7486SOL    HW233921   4.075   3.623   2.075 -2.1386  1.9255  0.9231
 7487SOL     OW33922   3.420   4.232  13.146  0.0671 -0.5024 -0.0957
 7487SOL    HW133923   3.410   4.288  13.069  2.0515  4.8197  3.5616
 7487SOL    HW233924   3.515   4.244  13.145 -0.2984  2.3332  1.5175
 7488SOL     OW33925   2.911   0.493   2.886  0.4582 -0.0763 -0.2802
 7488SOL    HW133926   2.869   0.525   2.965  3.7692  0.2111  1.3884
 7488SOL    HW233927   2.999   0.472   2.919 -0.5110 -1.6005  1.3305
 7489SOL     OW33928   2.061   3.771   7.559 -0.0125 -0.2893 -0.0663
 7489SOL    HW133929   1.993   3.828   7.523 -1.1901 -1.3842  0.4221
 7489SOL    HW233930   2.072   3.711   7.484 -1.3616 -1.8458  0.9782
 7490SOL     OW33931   3.546   0.149  10.827  0.2829 -0.1348 -0.3854
 7490SOL    HW133932   3.509   0.209  10.891  0.8123 -1.0823  0.8036
 7490SOL    HW233933   3.492   0.070  10.834 -0.6127  0.7598  2.8377
 7491SOL     OW33934   3.013   1.951   3.263 -0.1741  0.4473 -0.6691
 7491SOL    HW133935   2.926   1.963   3.300  1.1851  0.5932  2.5244
 7491SOL    HW233936   3.019   2.040   3.230 -1.2229  0.7135 -0.1440
 7492SOL     OW33937   4.047   3.031   2.619  0.4106  1.1679  0.0816
 7492SOL    HW133938   4.092   3.066   2.696  0.0852 -1.3864  1.4313
 7492SOL    HW233939   4.112   2.970   2.586  0.9994  3.3146 -2.7773
 7493SOL     OW33940   3.138   1.570  15.752  0.1237  0.5351  0.2382
 7493SOL    HW133941   3.147   1.650  15.804  1.0501  1.3366 -1.1824
 7493SOL    HW233942   3.230   1.558  15.729  0.3988  0.6880  1.2482
 7494SOL     OW33943   1.378   1.914   8.043 -0.4102 -0.3697  0.0020
 7494SOL    HW133944   1.433   1.836   8.048 -2.9595 -2.2739 -1.2370
 7494SOL    HW233945   1.365   1.920   7.948  0.5994 -0.3718 -0.1300
 7495SOL     OW33946   0.570   1.061  16.909  0.0849  0.0274 -0.5396
 7495SOL    HW133947   0.595   1.121  16.979 -2.2372 -0.1712  0.4333
 7495SOL    HW233948   0.607   0.982  16.950  0.1977  0.7468  0.7218
 7496SOL     OW33949   1.494   0.001   5.552  0.0982 -0.0072 -0.8315
 7496SOL    HW133950   1.439   4.671   5.494 -1.0217  1.3764 -1.0246
 7496SOL    HW233951   1.425   0.049   5.597  0.5858  1.2322 -1.3819
 7497SOL     OW33952   2.134   1.950   5.224 -0.4697  0.3076  0.2892
 7497SOL    HW133953   2.051   1.935   5.179 -0.2596  3.8360 -1.2464
 7497SOL    HW233954   2.108   2.018   5.286 -1.4161  1.7247 -1.6769
 7498SOL     OW33955   1.356   1.511   6.291  0.3384  0.0931  0.0600
 7498SOL    HW133956   1.430   1.484   6.346  0.4400 -0.5582 -0.3966
 7498SOL    HW233957   1.297   1.436   6.294 -0.5892  0.8234 -0.0634
 7499SOL     OW33958   1.949   4.059   8.609  0.1466  0.1176 -0.3104
 7499SOL    HW133959   1.875   4.076   8.667  0.0978  0.9627 -0.6117
 7499SOL    HW233960   1.946   4.144   8.564  2.2309  0.5094  0.2623
 7500SOL     OW33961   0.015   3.383  15.988  0.0978 -0.3155  0.3481
 7500SOL    HW133962   0.016   3.314  15.922 -0.1631  0.2984 -0.2954
 7500SOL    HW233963   0.059   3.452  15.938  2.9661 -0.6397  2.4093
 7501SOL     OW33964   4.530   3.037   0.883  0.2218  0.3385  0.3181
 7501SOL    HW133965   4.477   3.114   0.861  0.9492  0.8311  0.2817
 7501SOL    HW233966   4.609   3.052   0.832 -0.8951 -0.9190 -1.8081
 7502SOL     OW33967   0.413   3.289   3.240  0.2436 -0.6225  0.4601
 7502SOL    HW133968   0.493   3.289   3.293  1.6494  1.5888 -1.7188
 7502SOL    HW233969   0.408   3.367   3.185  1.1318  0.4262  1.8649
 7503SOL     OW33970   2.099   3.911   7.108  0.0000  0.0120 -0.1477
 7503SOL    HW133971   2.121   3.819   7.097  1.1983  0.0339  2.0419
 7503SOL    HW233972   2.177   3.936   7.158  0.9471 -1.4874 -0.8700
 7504SOL     OW33973   4.319   4.056  10.143  0.0103 -0.2410 -0.1047
 7504SOL    HW133974   4.351   4.045  10.233 -0.8832 -0.4156  0.1974
 7504SOL    HW233975   4.367   3.978  10.116 -0.5861 -1.1985  1.5766
 7505SOL     OW33976   3.458   0.971   2.710 -0.2941 -0.0399 -0.1865
 7505SOL    HW133977   3.386   1.012   2.662 -0.0189 -0.7765 -1.2015
 7505SOL    HW233978   3.518   0.960   2.637 -1.2723  0.9587 -1.1390
 7506SOL     OW33979   2.167   0.263   8.925  0.4164 -0.0841 -0.5264
 7506SOL    HW133980   2.205   0.217   8.851  0.8637  1.0077 -0.9827
 7506SOL    HW233981   2.228   0.334   8.947 -0.9125  0.6011  0.9348
 7507SOL     OW33982   1.004   3.745   2.923 -0.3225  0.5623  0.1212
 7507SOL    HW133983   1.033   3.657   2.900 -1.7783  0.0919  0.0958
 7507SOL    HW233984   0.913   3.745   2.891 -0.3473  0.6376  0.1901
 7508SOL     OW33985   2.272   2.104  11.722  0.2529 -0.1400  0.3015
 7508SOL    HW133986   2.184   2.078  11.749  0.0397  0.9236  0.6052
 7508SOL    HW233987   2.285   2.182  11.775  0.5093  0.3703 -0.5109
 7509SOL     OW33988   2.794   2.118   5.167  0.4614 -0.3964 -0.1015
 7509SOL    HW133989   2.738   2.174   5.221 -1.0169 -0.8696 -1.1426
 7509SOL    HW233990   2.884   2.139   5.193 -0.5090  0.0618  2.9775
 7510SOL     OW33991   3.613   1.212   9.369 -0.0680  0.3282 -0.0577
 7510SOL    HW133992   3.681   1.182   9.309  1.2708  0.7687  1.2330
 7510SOL    HW233993   3.665   1.226   9.448  0.3072 -1.0922 -0.0607
 7511SOL     OW33994   0.443   4.447  11.489 -0.0451  0.0922  0.0636
 7511SOL    HW133995   0.374   4.410  11.544  0.2983  1.1503  1.2157
 7511SOL    HW233996   0.421   4.540  11.483 -2.6938 -0.5697 -0.0594
 7512SOL     OW33997   3.877   1.414   5.132 -0.5866  0.0535  0.3766
 7512SOL    HW133998   3.804   1.365   5.171  1.1058 -3.4940 -0.9433
 7512SOL    HW233999   3.837   1.436   5.048 -1.6410 -0.5875  0.7167
 7513SOL     OW34000   0.862   0.461   9.554  0.2670 -0.2072  0.1212
 7513SOL    HW134001   0.890   0.370   9.565  0.9037  0.2306  2.2712
 7513SOL    HW234002   0.792   0.469   9.620  1.9333 -1.8246  2.0758
 7514SOL     OW34003   4.483   1.228  10.892 -0.3463 -0.3118  0.5749
 7514SOL    HW134004   4.565   1.278  10.898  0.7828 -1.9894 -0.8091
 7514SOL    HW234005   4.524   1.151  10.851 -1.0758 -0.3062 -0.1795
 7515SOL     OW34006   0.597   3.281  13.008  0.0235 -0.3411  0.9662
 7515SOL    HW134007   0.546   3.297  12.929  1.8374 -2.1377 -0.5793
 7515SOL    HW234008   0.674   3.243  12.966  1.4354  1.9420  1.5312
 7516SOL     OW34009   2.058   0.513   5.695 -0.3750 -0.1065  0.3143
 7516SOL    HW134010   1.992   0.574   5.728  0.6344 -0.8014  3.6108
 7516SOL    HW234011   2.010   0.430   5.697 -1.3423  0.4449  0.0292
 7517SOL     OW34012   0.709   3.336   3.523 -0.2570 -0.1815 -0.6872
 7517SOL    HW134013   0.782   3.302   3.472 -0.2324 -1.3341  0.1163
 7517SOL    HW234014   0.709   3.270   3.593 -3.5311 -0.3549 -0.8293
 7518SOL     OW34015   3.756   0.986   5.316 -0.4362 -0.0563  0.6670
 7518SOL    HW134016   3.716   0.948   5.237 -0.4146 -0.4862  0.8584
 7518SOL    HW234017   3.760   0.910   5.374 -2.2628 -0.7195 -0.0549
 7519SOL     OW34018   4.615   1.612   6.319 -0.3378 -0.4114  0.2802
 7519SOL    HW134019   4.533   1.570   6.344 -0.9856 -0.7813 -2.3984
 7519SOL    HW234020   4.677   1.539   6.328 -0.2758 -0.5070 -0.9054
 7520SOL     OW34021   3.915   0.670   8.308  0.3530 -0.3625 -0.1485
 7520SOL    HW134022   3.855   0.602   8.277 -0.9216  0.4937  0.4170
 7520SOL    HW234023   3.886   0.682   8.399  0.5551  2.0824 -0.4259
 7521SOL     OW34024   1.942   0.204   6.067  0.0627 -0.0413 -0.5252
 7521SOL    HW134025   1.861   0.164   6.035  0.0349 -0.8729  0.5861
 7521SOL    HW234026   1.988   0.127   6.099  2.1406  0.7907 -1.5103
 7522SOL     OW34027   4.301   3.872   1.154  0.0953 -0.5081 -0.2254
 7522SOL    HW134028   4.332   3.856   1.065  1.4105  1.4469 -0.1085
 7522SOL    HW234029   4.207   3.860   1.139  0.1100  0.6181 -1.2193
 7523SOL     OW34030   1.108   0.221  14.351 -0.0374  0.4513 -1.0067
 7523SOL    HW134031   1.185   0.276  14.339  0.6192 -0.2361  0.1201
 7523SOL    HW234032   1.122   0.174  14.433 -1.3079  0.6244 -0.6928
 7524SOL     OW34033   1.655   0.562  11.072 -0.2485  0.5217  0.2998
 7524SOL    HW134034   1.730   0.602  11.115 -0.9248 -0.0302  1.9871
 7524SOL    HW234035   1.662   0.470  11.096 -0.5946  0.6198  0.7643
 7525SOL     OW34036   1.303   4.605  12.055 -0.3135 -0.4064 -0.1680
 7525SOL    HW134037   1.229   4.590  11.997 -2.6844  3.4472  1.8468
 7525SOL    HW234038   1.262   4.637  12.136 -1.5806  0.2694 -1.0924
 7526SOL     OW34039   1.023   0.270   6.005 -0.4245  1.3852  0.2163
 7526SOL    HW134040   0.950   0.224   6.048  0.2036  1.0884  0.9621
 7526SOL    HW234041   1.081   0.270   6.082 -0.2948 -2.7559  0.1308
 7527SOL     OW34042   4.032   4.246  12.589 -0.2163  0.2001 -0.4639
 7527SOL    HW134043   3.963   4.263  12.524  0.9675 -0.5093 -1.9248
 7527SOL    HW234044   4.046   4.151  12.580 -0.3483  0.4649 -3.4307
 7528SOL     OW34045   0.354   4.254   7.069  0.0593  0.2093  0.3967
 7528SOL    HW134046   0.270   4.274   7.110 -1.0366  1.3187 -2.3910
 7528SOL    HW234047   0.394   4.181   7.117  0.7815 -0.2455 -0.8866
 7529SOL     OW34048   4.692   0.632   7.352 -0.5074 -0.9029 -0.1579
 7529SOL    HW134049   0.003   0.554   7.397 -1.1202 -0.8567  0.3868
 7529SOL    HW234050   0.040   0.696   7.360 -0.7330 -0.2033 -3.7947
 7530SOL     OW34051   2.792   1.324   2.157 -0.1964 -0.0471 -0.5705
 7530SOL    HW134052   2.800   1.392   2.089 -1.3547 -1.1091 -1.7638
 7530SOL    HW234053   2.804   1.246   2.103 -1.3572 -0.3468 -0.3885
 7531SOL     OW34054   2.489   2.472   4.393 -0.5086 -0.1080  0.7804
 7531SOL    HW134055   2.425   2.430   4.335 -0.4832  0.0681  0.6263
 7531SOL    HW234056   2.456   2.562   4.390 -0.4120 -0.0488  1.6172
 7532SOL     OW34057   0.151   3.881  14.661  0.2847  0.0582  0.1768
 7532SOL    HW134058   0.217   3.946  14.635  2.5943 -2.2388  0.2961
 7532SOL    HW234059   0.194   3.800  14.635  2.8190  0.6527  2.5385
 7533SOL     OW34060   4.004   1.167  14.782 -0.0712 -0.4538  0.2255
 7533SOL    HW134061   4.036   1.257  14.776 -1.1829 -0.1583 -1.1929
 7533SOL    HW234062   4.002   1.141  14.690  1.9937  1.1227 -0.2776
 7534SOL     OW34063   1.376   3.145   3.083 -0.3716 -0.2006  0.1825
 7534SOL    HW134064   1.439   3.075   3.066 -1.0184 -1.1469  1.7005
 7534SOL    HW234065   1.446   3.208   3.098 -0.8339  0.5107 -0.6521
 7535SOL     OW34066   1.133   0.655   5.010  0.1034 -0.0709  0.6996
 7535SOL    HW134067   1.138   0.628   5.101 -0.7309  0.8108  1.0044
 7535SOL    HW234068   1.105   0.745   5.024  2.7551  0.9658 -0.5548
 7536SOL     OW34069   2.972   1.877   7.694 -0.2459 -0.0994 -0.2503
 7536SOL    HW134070   3.056   1.865   7.651 -0.5009  2.2212 -1.3932
 7536SOL    HW234071   2.940   1.786   7.696  1.4407 -0.6436  1.1188
 7537SOL     OW34072   0.340   1.503   1.840  0.4311 -0.6865 -0.3210
 7537SOL    HW134073   0.286   1.441   1.890 -2.2950  1.7464 -0.1758
 7537SOL    HW234074   0.320   1.584   1.889  4.1639 -2.3454  3.9424
 7538SOL     OW34075   2.079   0.022   9.015  0.7219  0.3786 -0.1771
 7538SOL    HW134076   2.165   4.702   9.024  0.6527  0.1626 -0.5370
 7538SOL    HW234077   2.108   0.111   8.999 -0.3454  1.0751  1.8128
 7539SOL     OW34078   2.037   4.033   8.979  0.0158 -0.1920  0.5060
 7539SOL    HW134079   2.080   4.115   8.954 -3.1929  1.3381  0.0268
 7539SOL    HW234080   1.947   4.062   8.990 -0.2485  0.1566 -2.5239
 7540SOL     OW34081   4.714   1.640  15.278 -0.6025  0.3635 -0.4712
 7540SOL    HW134082   4.714   1.570  15.212  0.4663 -0.3939  0.3457
 7540SOL    HW234083   4.669   1.605  15.354 -0.3509  2.6841  0.7322
 7541SOL     OW34084   0.700   1.165   7.240  0.1457 -0.3307 -0.2712
 7541SOL    HW134085   0.674   1.074   7.229  2.5273 -0.8385 -1.6377
 7541SOL    HW234086   0.784   1.160   7.196  0.2710 -0.5264 -0.0094
 7542SOL     OW34087   0.686   2.129   5.237 -0.5150 -0.0415  0.2397
 7542SOL    HW134088   0.716   2.043   5.209  0.5290  1.2085 -2.4172
 7542SOL    HW234089   0.757   2.180   5.199 -0.7535  0.7621  0.8698
 7543SOL     OW34090   0.627   4.336   3.206  0.4092 -0.1130 -0.5004
 7543SOL    HW134091   0.541   4.375   3.189  0.2394 -0.5134 -0.5477
 7543SOL    HW234092   0.641   4.279   3.131  0.4319 -1.1977  0.3407
 7544SOL     OW34093   3.718   0.477   9.115  0.4003  0.5117 -0.3654
 7544SOL    HW134094   3.642   0.497   9.060  0.8581 -0.2226 -1.2702
 7544SOL    HW234095   3.727   0.554   9.170 -2.1031  1.1973 -0.9211
 7545SOL     OW34096   4.073   3.127   0.780  0.3306  0.1070  0.0407
 7545SOL    HW134097   4.092   3.054   0.838 -0.7195 -0.9372 -0.9285
 7545SOL    HW234098   3.979   3.110   0.777  0.1496  1.1765 -0.3454
 7546SOL     OW34099   4.593   3.504   0.483 -0.4008 -0.0664  0.0605
 7546SOL    HW134100   4.531   3.510   0.410 -0.5399  2.0027  0.3619
 7546SOL    HW234101   4.660   3.564   0.454  0.8959 -1.1586  0.7832
 7547SOL     OW34102   0.642   4.678   6.912 -0.3647  0.9511 -0.1569
 7547SOL    HW134103   0.692   4.637   6.982 -2.1499 -1.8182 -0.5174
 7547SOL    HW234104   0.708   0.002   6.861  0.0538  0.4502 -0.0709
 7548SOL     OW34105   0.141   0.589  13.398  0.2048 -0.1589  0.1438
 7548SOL    HW134106   0.148   0.655  13.329 -1.4426  0.4978  0.6101
 7548SOL    HW234107   0.220   0.599  13.452  0.5882 -0.7576 -0.3091
 7549SOL     OW34108   4.153   0.868   8.891  0.0115  0.0227  0.2274
 7549SOL    HW134109   4.170   0.932   8.960  1.6456 -1.9804  1.6664
 7549SOL    HW234110   4.237   0.858   8.848 -0.2360  1.0187 -0.4667
 7550SOL     OW34111   3.777   3.082   3.404 -0.0495  0.0303  0.0755
 7550SOL    HW134112   3.858   3.130   3.424  0.7647 -1.4072  0.1886
 7550SOL    HW234113   3.812   2.993   3.400 -0.5654 -0.0560 -2.1645
 7551SOL     OW34114   2.547   1.818   2.764 -0.4889  0.8158  0.0647
 7551SOL    HW134115   2.495   1.751   2.809  1.6838  0.0269  1.4310
 7551SOL    HW234116   2.500   1.899   2.785 -1.7102 -0.7283  3.3525
 7552SOL     OW34117   3.762   3.588   3.526  0.0557  0.1988 -0.4491
 7552SOL    HW134118   3.849   3.608   3.491 -1.3964  1.1583 -3.4645
 7552SOL    HW234119   3.752   3.633   3.611 -0.9933  0.9612 -0.9686
 7553SOL     OW34120   0.550   1.366   4.555  0.4410 -0.7136  0.5968
 7553SOL    HW134121   0.612   1.399   4.621  1.3021  2.5400 -1.8365
 7553SOL    HW234122   0.506   1.444   4.522 -0.3486 -0.3642  2.4649
 7554SOL     OW34123   0.735   3.780   6.794 -0.1159  0.2257  0.0095
 7554SOL    HW134124   0.662   3.720   6.777 -1.1780  1.1735  1.2253
 7554SOL    HW234125   0.695   3.865   6.813 -0.7460 -0.4481  1.6693
 7555SOL     OW34126   4.652   1.583   8.759 -0.7887  0.3843 -0.0490
 7555SOL    HW134127   4.640   1.676   8.739 -0.0811  0.1628 -1.5731
 7555SOL    HW234128   4.646   1.588   8.854  0.3818 -3.1210  0.2309
 7556SOL     OW34129   4.590   4.618   8.014 -0.3503 -0.5153 -0.0113
 7556SOL    HW134130   4.617   4.593   8.102  1.5878 -1.0004 -0.7475
 7556SOL    HW234131   4.518   4.557   7.998  1.0682 -2.0091 -0.7204
 7557SOL     OW34132   3.091   3.341   1.084  0.2739 -0.5256  0.0274
 7557SOL    HW134133   3.018   3.281   1.064 -0.5599  0.6277 -0.3911
 7557SOL    HW234134   3.064   3.419   1.036  1.2810 -1.0006 -1.3078
 7558SOL     OW34135   0.213   4.380   6.810 -0.1124 -0.6245 -0.1177
 7558SOL    HW134136   0.243   4.336   6.890 -1.5339  0.0151  0.7610
 7558SOL    HW234137   0.277   4.450   6.799  1.5275 -2.1215 -0.2316
 7559SOL     OW34138   4.652   2.809   6.943  0.2993  0.4520  0.3421
 7559SOL    HW134139   4.575   2.847   6.985  0.3000 -0.9505  1.6064
 7559SOL    HW234140   4.623   2.719   6.929 -2.8983  1.1314  2.6654
 7560SOL     OW34141   4.675   2.029  15.018  0.1530 -0.7595 -0.1828
 7560SOL    HW134142   0.002   1.953  15.046  1.4222 -0.0741 -0.5904
 7560SOL    HW234143   4.595   1.979  14.998 -1.9169  2.0044  1.2384
 7561SOL     OW34144   0.036   3.937   9.466 -0.7737 -0.6714  0.6785
 7561SOL    HW134145   4.670   3.956   9.435 -0.7660 -1.4113  0.1968
 7561SOL    HW234146   0.091   3.983   9.402 -0.1883 -0.9430  0.9829
 7562SOL     OW34147   4.315   0.457   6.556  0.1078  0.0537  0.1471
 7562SOL    HW134148   4.260   0.420   6.625  0.8993 -2.5589 -0.6094
 7562SOL    HW234149   4.403   0.426   6.581  0.6759  1.2569 -0.3579
 7563SOL     OW34150   4.194   1.072   3.408 -0.0152 -0.1130  0.2278
 7563SOL    HW134151   4.276   1.078   3.359 -0.1427  1.7548  0.2501
 7563SOL    HW234152   4.219   1.093   3.497 -1.7284 -2.3975  1.2465
 7564SOL     OW34153   0.510   0.302   8.375  0.1340  0.1587 -0.0693
 7564SOL    HW134154   0.603   0.324   8.380  0.0753  0.0754  1.3998
 7564SOL    HW234155   0.457   0.381   8.367  1.6969  1.2913  0.9786
 7565SOL     OW34156   2.162   1.260   3.646 -0.4274  0.2754 -0.0526
 7565SOL    HW134157   2.137   1.190   3.706  2.6488 -0.4111  0.4012
 7565SOL    HW234158   2.140   1.342   3.691  0.0295 -0.4086  1.3959
 7566SOL     OW34159   3.163   3.656   1.735 -0.0823 -0.6726 -0.0923
 7566SOL    HW134160   3.151   3.750   1.746 -2.3017 -1.1217  1.3713
 7566SOL    HW234161   3.203   3.649   1.648  0.4295 -1.8099  0.2350
 7567SOL     OW34162   4.197   4.630   7.452  0.2900 -0.0078 -0.4671
 7567SOL    HW134163   4.230   4.541   7.437  1.8743  0.5466 -0.2503
 7567SOL    HW234164   4.119   4.602   7.499  0.9771  0.2446  0.8423
 7568SOL     OW34165   1.190   3.867   5.805 -0.3349 -0.3318  0.7222
 7568SOL    HW134166   1.252   3.921   5.854 -2.7875  1.2563  2.0536
 7568SOL    HW234167   1.151   3.932   5.746 -1.2060 -3.1659 -1.8370
 7569SOL     OW34168   1.740   1.555   4.250 -0.0955 -0.0419 -0.0904
 7569SOL    HW134169   1.742   1.630   4.310  0.4973  0.1446 -0.3461
 7569SOL    HW234170   1.828   1.518   4.260 -1.0594 -1.9671  1.2724
 7570SOL     OW34171   4.038   1.861  11.202 -0.6590  0.2378 -0.0943
 7570SOL    HW134172   4.098   1.790  11.184 -1.3167 -0.0785 -1.0287
 7570SOL    HW234173   4.078   1.928  11.258 -1.5739 -0.2920  1.2038
 7571SOL     OW34174   2.876   1.071   2.063  0.6285  0.5109  0.3931
 7571SOL    HW134175   2.880   1.054   2.157  0.5429  0.8184  0.4509
 7571SOL    HW234176   2.968   1.081   2.040  0.3010  2.8176  0.1588
 7572SOL     OW34177   3.699   1.638   4.643  0.3407  0.1638  0.4067
 7572SOL    HW134178   3.610   1.626   4.610  0.3256 -0.0053  0.5122
 7572SOL    HW234179   3.730   1.715   4.595 -0.8774 -1.2057 -2.6183
 7573SOL     OW34180   4.507   0.010  16.616  0.0790  0.6241 -0.8993
 7573SOL    HW134181   4.487   0.047  16.530  2.6355 -1.2354 -2.3169
 7573SOL    HW234182   4.450   0.047  16.683  3.1366  0.5053  1.7715
 7574SOL     OW34183   4.665   1.424   6.822  0.4846 -0.1049  0.0646
 7574SOL    HW134184   4.604   1.362   6.861 -0.4255 -1.2455 -3.2014
 7574SOL    HW234185   4.611   1.446   6.746  1.5524 -1.1105 -0.9858
 7575SOL     OW34186   1.991   2.959  11.255  0.1090 -0.0479 -0.4666
 7575SOL    HW134187   1.932   2.956  11.331 -0.3472 -0.9048 -0.8579
 7575SOL    HW234188   1.944   3.023  11.202 -0.4402  1.4052  1.7297
 7576SOL     OW34189   3.987   3.685   2.388  0.2307 -0.2749 -0.0069
 7576SOL    HW134190   3.914   3.740   2.361 -1.0446 -2.4819 -1.1282
 7576SOL    HW234191   3.982   3.683   2.484 -1.3260  1.8753 -0.0511
 7577SOL     OW34192   1.976   2.256   3.875  0.3916  0.1337 -0.1831
 7577SOL    HW134193   2.009   2.202   3.947 -0.8238 -0.1696  0.1479
 7577SOL    HW234194   1.940   2.183   3.824 -0.9538 -0.1537  1.1450
 7578SOL     OW34195   4.202   2.106  12.010 -0.0107 -0.3263  0.3713
 7578SOL    HW134196   4.153   2.025  12.018  1.3597 -1.0438  1.5788
 7578SOL    HW234197   4.278   2.069  12.054  0.4339  0.8883  0.6238
 7579SOL     OW34198   2.410   0.225   7.599  0.3302 -0.6024  0.3696
 7579SOL    HW134199   2.436   0.294   7.538 -1.0207 -1.6175 -1.3455
 7579SOL    HW234200   2.378   0.160   7.537 -0.5015 -1.9249  2.1847
 7580SOL     OW34201   3.133   0.174   6.046  0.0156 -0.2953 -0.6401
 7580SOL    HW134202   3.173   0.221   5.973 -0.4020  1.0227 -0.0299
 7580SOL    HW234203   3.187   0.095   6.045 -0.5139 -0.6879  0.5750
 7581SOL     OW34204   0.904   4.495  10.300 -0.0462  0.7004  0.1521
 7581SOL    HW134205   0.935   4.452  10.221 -1.8894  2.5681 -1.5784
 7581SOL    HW234206   0.952   4.452  10.371  1.3812  1.5233 -0.3059
 7582SOL     OW34207   2.698   4.077  12.518 -0.0886 -0.4270 -0.3717
 7582SOL    HW134208   2.697   4.093  12.613 -2.2288 -0.6185 -0.3604
 7582SOL    HW234209   2.723   4.167  12.497  2.0655 -1.0179 -0.3081
 7583SOL     OW34210   3.723   1.743   0.489  0.6502 -0.2683 -0.4280
 7583SOL    HW134211   3.630   1.722   0.483  0.4862  0.4248 -0.3429
 7583SOL    HW234212   3.757   1.670   0.540  0.3134 -0.3074 -0.2633
 7584SOL     OW34213   3.434   3.122   1.430  0.1450  0.1805  0.3979
 7584SOL    HW134214   3.465   3.146   1.343 -1.4399 -1.6889 -0.6799
 7584SOL    HW234215   3.458   3.199   1.481  2.1650  1.3307 -2.2943
 7585SOL     OW34216   2.248   0.096  11.430 -0.0181 -0.0279 -0.1000
 7585SOL    HW134217   2.169   0.052  11.399  0.3491 -1.8180  1.4945
 7585SOL    HW234218   2.208   0.173  11.470 -0.4334 -0.7925  0.9743
 7586SOL     OW34219   3.408   0.761  13.132  0.3700  1.1200  0.1585
 7586SOL    HW134220   3.407   0.697  13.062  0.1973 -0.8030  1.9155
 7586SOL    HW234221   3.320   0.769  13.168 -0.2755 -1.0862 -1.0001
 7587SOL     OW34222   3.403   0.662   4.801  0.1116 -0.2851 -0.1103
 7587SOL    HW134223   3.413   0.666   4.705  1.5786  2.4132  0.1485
 7587SOL    HW234224   3.474   0.720   4.828  0.3883 -1.6903  2.0958
 7588SOL     OW34225   2.412   3.661  14.388  0.3786  0.2696 -0.0899
 7588SOL    HW134226   2.427   3.718  14.312  1.1732  0.0810 -0.0722
 7588SOL    HW234227   2.328   3.696  14.416  0.3860 -0.6728  1.0692
 7589SOL     OW34228   3.408   2.534   9.358 -0.1402 -0.1664  0.4746
 7589SOL    HW134229   3.500   2.548   9.379  0.2770  1.1463 -2.1473
 7589SOL    HW234230   3.391   2.613   9.306 -2.1560 -0.8089  0.1606
 7590SOL     OW34231   0.042   2.115  14.563  0.4638  0.0039  0.0550
 7590SOL    HW134232   0.006   2.189  14.613  3.4405  1.6755 -0.2697
 7590SOL    HW234233   4.682   2.070  14.546  0.8296 -0.4475 -0.5001
 7591SOL     OW34234   2.738   2.814  15.598  0.5482  0.5836 -0.3728
 7591SOL    HW134235   2.712   2.906  15.591 -2.0731 -0.1113  0.1666
 7591SOL    HW234236   2.804   2.804  15.529  3.1077  0.0366  2.2007
 7592SOL     OW34237   2.408   3.665   3.900  0.2409 -0.6984  0.8668
 7592SOL    HW134238   2.468   3.591   3.892  2.5276  1.4618 -1.8104
 7592SOL    HW234239   2.348   3.639   3.830 -0.3973 -0.7416  1.4292
 7593SOL     OW34240   2.899   2.147   0.767  0.0565  0.5519 -0.2685
 7593SOL    HW134241   2.855   2.211   0.710  0.1068  2.3997  1.7786
 7593SOL    HW234242   2.846   2.169   0.843  0.7123  1.4778 -0.0747
 7594SOL     OW34243   0.821   2.426   5.610 -0.2577 -0.9783 -0.1532
 7594SOL    HW134244   0.786   2.470   5.687  2.4391  1.9828 -0.6043
 7594SOL    HW234245   0.878   2.367   5.658 -0.0600 -1.8819 -1.4907
 7595SOL     OW34246   4.596   4.648  13.331  0.5192  0.0411 -0.5064
 7595SOL    HW134247   4.642   4.713  13.384 -4.5642  0.9656  2.7553
 7595SOL    HW234248   4.671   4.622  13.278  1.0570  2.7379 -1.0667
 7596SOL     OW34249   3.927   4.580   4.702 -0.8055  0.4499 -0.3585
 7596SOL    HW134250   3.976   4.593   4.621 -2.3836  0.7139 -1.2640
 7596SOL    HW234251   3.996   4.611   4.761 -0.9489  1.8325 -0.9267
 7597SOL     OW34252   4.117   1.238  12.488 -0.3860  0.1775  0.5948
 7597SOL    HW134253   4.180   1.237  12.560  1.7134  0.6924 -1.2396
 7597SOL    HW234254   4.040   1.188  12.514 -0.1542 -0.9268 -0.9015
 7598SOL     OW34255   4.293   4.380   6.532 -0.5194  0.2420  0.0087
 7598SOL    HW134256   4.258   4.435   6.602  1.2351  0.8143  0.4185
 7598SOL    HW234257   4.209   4.346   6.500  0.2085 -0.8481 -0.7545
 7599SOL     OW34258   4.208   3.828  14.059  0.0063 -0.0628  0.5744
 7599SOL    HW134259   4.183   3.735  14.053 -0.7356  0.0194  2.3810
 7599SOL    HW234260   4.273   3.815  14.128 -0.4154 -1.3431  0.7390
 7600SOL     OW34261   2.600   2.608   5.142  0.3573  0.0304 -0.0547
 7600SOL    HW134262   2.543   2.620   5.218 -0.1758 -0.4199 -0.3833
 7600SOL    HW234263   2.598   2.698   5.109 -5.9467  0.2081  0.6450
 7601SOL     OW34264   0.320   4.610   4.230 -0.0823  0.3114 -0.6263
 7601SOL    HW134265   0.266   4.668   4.284  0.1040  0.7771 -0.9383
 7601SOL    HW234266   0.276   4.618   4.145 -0.7732  0.6278 -0.2435
 7602SOL     OW34267   3.890   4.303   2.047  0.5026  0.7112 -0.2375
 7602SOL    HW134268   3.983   4.322   2.052  0.8356 -0.9441 -0.2434
 7602SOL    HW234269   3.879   4.304   1.951  1.0493 -1.6333 -0.3084
 7603SOL     OW34270   0.177   2.286   8.545  0.2655 -0.3182 -0.3487
 7603SOL    HW134271   0.246   2.257   8.486  0.3095  0.3066 -0.6092
 7603SOL    HW234272   0.110   2.218   8.544 -1.2056  1.1182  0.6088
 7604SOL     OW34273   1.726   4.074  11.001 -0.4006  0.2236  0.1108
 7604SOL    HW134274   1.808   4.038  11.034 -0.7318  0.5124  1.2697
 7604SOL    HW234275   1.697   4.005  10.942 -1.0443  2.5783 -2.3192
 7605SOL     OW34276   4.022   1.897  10.772  0.1249 -0.2556  1.0127
 7605SOL    HW134277   4.110   1.877  10.742 -0.7843  1.5652 -2.8802
 7605SOL    HW234278   4.008   1.822  10.830  0.8268 -0.7454  0.5362
 7606SOL     OW34279   0.666   0.465   1.010  0.8914  0.2850 -0.1128
 7606SOL    HW134280   0.636   0.555   0.998 -1.0214 -0.4166 -0.5962
 7606SOL    HW234281   0.587   0.414   1.027  0.1817  0.7270 -2.0120
 7607SOL     OW34282   1.267   3.854   3.408 -0.8633  0.3419  0.7340
 7607SOL    HW134283   1.206   3.830   3.339  2.8740 -0.3683 -2.2925
 7607SOL    HW234284   1.340   3.803   3.373  0.4222  1.4177  1.8335
 7608SOL     OW34285   2.866   0.234   5.462 -0.2873  0.2449  0.3776
 7608SOL    HW134286   2.801   0.164   5.457  1.6009 -1.4918  0.0463
 7608SOL    HW234287   2.925   0.216   5.389  0.6009 -1.5337  1.5107
 7609SOL     OW34288   3.670   4.299   0.619 -0.0457 -0.2866  0.0217
 7609SOL    HW134289   3.606   4.228   0.615  3.1934 -3.3046  2.1144
 7609SOL    HW234290   3.667   4.300   0.715 -3.5202 -0.4138 -0.0959
 7610SOL     OW34291   0.604   0.711  10.823 -0.2703  0.1635 -0.0923
 7610SOL    HW134292   0.586   0.654  10.897  0.0716  0.3034  0.0986
 7610SOL    HW234293   0.642   0.647  10.764 -1.0955  0.0199 -0.4676
 7611SOL     OW34294   4.469   0.067  17.027 -0.3734 -0.7962  0.0163
 7611SOL    HW134295   4.521   0.117  17.090  2.4352  0.4692 -3.3094
 7611SOL    HW234296   4.400   0.129  17.003 -0.3593  0.3070  2.8571
 7612SOL     OW34297   3.955   3.857   0.320 -0.1084  0.1819  0.1493
 7612SOL    HW134298   3.925   3.945   0.342 -0.9409  0.0471 -0.4809
 7612SOL    HW234299   3.968   3.866   0.226 -0.8456 -1.3966 -0.1098
 7613SOL     OW34300   3.536   4.453   1.175  0.4992  0.6993  0.1625
 7613SOL    HW134301   3.548   4.484   1.264 -2.3979  1.6695  0.2263
 7613SOL    HW234302   3.590   4.522   1.137  2.8324 -0.9118  0.5540
 7614SOL     OW34303   2.784   3.947  15.007  0.1689  0.0840 -1.0509
 7614SOL    HW134304   2.740   3.969  15.089  1.3464  0.3473 -0.4849
 7614SOL    HW234305   2.786   3.851  15.007  0.7526  0.0944 -1.1999
 7615SOL     OW34306   3.268   0.769   6.850 -0.3139  0.1372  0.0170
 7615SOL    HW134307   3.243   0.691   6.802  0.9173 -0.5792  0.5442
 7615SOL    HW234308   3.336   0.797   6.789 -1.6621  0.8638 -1.1458
 7616SOL     OW34309   3.684   3.376   4.771 -0.0306  0.0704 -0.5670
 7616SOL    HW134310   3.613   3.418   4.819 -1.0353 -0.2496 -1.7390
 7616SOL    HW234311   3.762   3.407   4.816  0.5174 -0.1624 -1.3462
 7617SOL     OW34312   1.659   1.338  12.787 -0.4340 -0.3357  0.1518
 7617SOL    HW134313   1.607   1.261  12.810  0.8123 -2.0409 -2.7803
 7617SOL    HW234314   1.697   1.308  12.704 -0.5960 -0.1873  0.0232
 7618SOL     OW34315   0.943   2.936   8.731 -0.1983  0.2040 -0.2780
 7618SOL    HW134316   0.909   3.022   8.753 -1.1422 -0.0542 -0.7411
 7618SOL    HW234317   0.892   2.882   8.792 -0.6223  1.5379  0.5342
 7619SOL     OW34318   1.582   3.366   7.880 -0.7346  0.3479 -0.2213
 7619SOL    HW134319   1.638   3.417   7.821 -2.9543  2.0229 -0.8912
 7619SOL    HW234320   1.545   3.434   7.937 -2.0281  0.8476 -1.6303
 7620SOL     OW34321   4.437   1.683   3.993  0.6762  0.3203 -0.0115
 7620SOL    HW134322   4.522   1.725   3.988  0.0252  1.6784  0.3945
 7620SOL    HW234323   4.405   1.685   3.903 -1.0610 -0.7719  0.5671
 7621SOL     OW34324   3.273   0.435   4.188 -0.4595 -0.4098 -0.0268
 7621SOL    HW134325   3.324   0.392   4.119 -2.6194 -0.9392 -1.2661
 7621SOL    HW234326   3.319   0.519   4.194 -1.2894 -0.0620  1.4997
 7622SOL     OW34327   4.250   0.576   4.896 -0.5283  0.0911  0.3648
 7622SOL    HW134328   4.188   0.645   4.872  0.6513  0.6705 -1.0103
 7622SOL    HW234329   4.335   0.620   4.894  0.0930 -1.0384  1.9173
 7623SOL     OW34330   0.838   1.373   2.747 -0.4475  0.1038  0.7889
 7623SOL    HW134331   0.801   1.337   2.667  0.5422 -1.4752  1.0499
 7623SOL    HW234332   0.892   1.300   2.777  2.1190  3.6400  4.8164
 7624SOL     OW34333   1.388   1.399   0.802  0.6317 -0.1719 -0.6570
 7624SOL    HW134334   1.401   1.489   0.833 -1.5345 -0.1597  0.1600
 7624SOL    HW234335   1.468   1.351   0.825  1.0187  2.0507  2.5927
 7625SOL     OW34336   1.239   3.793   2.390  0.0298 -0.5485 -0.4698
 7625SOL    HW134337   1.243   3.777   2.296  3.3141  0.6454 -0.5268
 7625SOL    HW234338   1.247   3.711   2.438 -2.4154  0.6321  2.0517
 7626SOL     OW34339   4.521   0.745  10.057 -0.1477 -0.3113 -0.1124
 7626SOL    HW134340   4.503   0.839  10.061 -3.2421 -0.9532  1.1365
 7626SOL    HW234341   4.597   0.744   9.999 -0.3847  1.1836 -0.4435
 7627SOL     OW34342   1.859   2.894   1.536 -0.0726  0.6738  0.5071
 7627SOL    HW134343   1.877   2.933   1.450  0.1689  0.8679  0.6450
 7627SOL    HW234344   1.876   2.801   1.523 -1.1025  0.4251  0.9797
 7628SOL     OW34345   3.225   1.491   2.369 -0.1406  0.9841  0.0152
 7628SOL    HW134346   3.248   1.524   2.456  0.1121  0.0161  0.3157
 7628SOL    HW234347   3.167   1.562   2.339 -1.7468 -0.0909  0.5456
 7629SOL     OW34348   2.862   0.390   2.627  0.2411 -0.0785  1.1475
 7629SOL    HW134349   2.771   0.362   2.618 -0.1276  1.1579  0.9954
 7629SOL    HW234350   2.852   0.449   2.701  1.4746  1.8482 -0.2049
 7630SOL     OW34351   3.774   1.035   0.333  0.4416  0.3152 -0.3229
 7630SOL    HW134352   3.817   1.059   0.251  2.8257 -1.5971  0.3845
 7630SOL    HW234353   3.807   1.087   0.406  0.3064  0.2614 -0.2223
 7631SOL     OW34354   0.913   3.020   8.414 -0.3973  0.6191  0.0124
 7631SOL    HW134355   0.868   2.957   8.470  1.3947  0.1207  0.9122
 7631SOL    HW234356   0.898   3.100   8.465  2.8981  1.4810 -0.3853
 7632SOL     OW34357   0.938   3.634   7.185  0.0708  0.3306  0.0052
 7632SOL    HW134358   0.984   3.620   7.268 -0.0053  1.5101  0.2409
 7632SOL    HW234359   0.926   3.729   7.176 -0.6881  0.4899  2.7110
 7633SOL     OW34360   4.147   2.634   6.601 -0.0615  0.2937  0.4498
 7633SOL    HW134361   4.238   2.661   6.588 -0.0546  0.6762  1.2654
 7633SOL    HW234362   4.159   2.553   6.651  1.4818  0.6200  0.5923
 7634SOL     OW34363   3.200   1.552   6.649  0.2837 -0.0801  0.1254
 7634SOL    HW134364   3.219   1.486   6.716  0.1456  0.6030  0.8439
 7634SOL    HW234365   3.277   1.559   6.593 -1.1497  0.4901 -1.7900
 7635SOL     OW34366   0.602   4.336   4.830 -0.1732  0.1452 -0.1818
 7635SOL    HW134367   0.595   4.418   4.879  0.6870  0.7607 -1.0875
 7635SOL    HW234368   0.553   4.276   4.886 -1.3155  1.2674  0.0259
 7636SOL     OW34369   1.263   2.522   0.104 -0.6726 -0.1311  0.0540
 7636SOL    HW134370   1.308   2.503   0.186 -0.6304 -1.5946 -0.2960
 7636SOL    HW234371   1.301   2.462   0.039 -0.9652  0.9686 -1.1251
 7637SOL     OW34372   2.807   0.271   7.173  0.0834  0.8078  0.1270
 7637SOL    HW134373   2.774   0.360   7.159  4.0890  2.2406 -0.2489
 7637SOL    HW234374   2.883   0.261   7.115 -2.1682  1.9369 -3.0174
 7638SOL     OW34375   1.796   3.755   7.973 -0.1978  0.1300 -0.2812
 7638SOL    HW134376   1.883   3.793   7.958 -0.1737  0.0681 -0.2986
 7638SOL    HW234377   1.806   3.711   8.058  2.3964 -0.6674 -1.0024
 7639SOL     OW34378   1.873   3.957   3.899 -0.4700 -0.2205 -0.2505
 7639SOL    HW134379   1.841   4.047   3.896  0.0554  0.0209  1.3622
 7639SOL    HW234380   1.954   3.965   3.950  0.1515  0.7404 -1.3900
 7640SOL     OW34381   0.420   3.625  15.290 -0.3124  0.2228  0.4926
 7640SOL    HW134382   0.361   3.558  15.325  1.0165 -1.1811  0.0730
 7640SOL    HW234383   0.364   3.693  15.254 -0.7613 -0.5833 -0.3268
 7641SOL     OW34384   0.476   1.000   4.099 -0.7266 -0.3190  0.1204
 7641SOL    HW134385   0.440   1.088   4.107  1.1165  0.3945  0.5314
 7641SOL    HW234386   0.437   0.956   4.024 -1.5513 -1.0459  0.9632
 7642SOL     OW34387   4.377   2.229   1.354  0.1851  0.1135  0.0664
 7642SOL    HW134388   4.413   2.261   1.437  1.3791 -2.4479  0.5278
 7642SOL    HW234389   4.310   2.167   1.380  1.2962 -1.4731 -0.8561
 7643SOL     OW34390   3.927   3.494   7.319  0.2081 -0.1818 -0.1519
 7643SOL    HW134391   3.920   3.399   7.324  1.5497 -0.2351  0.8251
 7643SOL    HW234392   3.848   3.507   7.371  1.0957  1.1507  0.9050
 7644SOL     OW34393   0.766   4.144   2.598 -0.2736  0.7104 -0.1386
 7644SOL    HW134394   0.801   4.149   2.509  0.8731  0.4546  0.2887
 7644SOL    HW234395   0.683   4.097   2.597 -0.1891  0.5424  0.5116
 7645SOL     OW34396   4.483   0.790   6.505 -0.2883 -0.3464  0.0778
 7645SOL    HW134397   4.552   0.732   6.473 -1.2385 -0.8378 -1.1078
 7645SOL    HW234398   4.516   0.878   6.483 -1.6772 -0.4135 -2.3494
 7646SOL     OW34399   2.249   0.431   4.060  0.7480  0.3995 -0.4005
 7646SOL    HW134400   2.218   0.519   4.038 -0.2683 -0.1156 -1.0391
 7646SOL    HW234401   2.234   0.416   4.153 -0.7743  0.1070 -0.6993
 7647SOL     OW34402   2.846   0.351  10.224 -0.1039  0.2249  0.1878
 7647SOL    HW134403   2.931   0.387  10.249 -0.1387 -0.9020  1.9077
 7647SOL    HW234404   2.860   0.307  10.140  0.5538  0.8841 -0.0475
 7648SOL     OW34405   1.556   1.964  16.119 -0.2608 -0.4904 -0.9310
 7648SOL    HW134406   1.573   2.039  16.062 -1.3438  1.4385  1.2846
 7648SOL    HW234407   1.627   1.982  16.181  0.9104  1.9932 -3.0167
 7649SOL     OW34408   3.652   1.270   1.709 -0.7265 -0.6927  0.2718
 7649SOL    HW134409   3.645   1.180   1.738  0.0892 -1.2531 -1.2475
 7649SOL    HW234410   3.748   1.275   1.706 -0.6050 -2.2914  1.7706
 7650SOL     OW34411   1.468   3.291   4.088  0.0916  0.4292 -0.0646
 7650SOL    HW134412   1.469   3.383   4.060  2.0835  0.6634  0.7643
 7650SOL    HW234413   1.394   3.279   4.148  0.1502  1.0478  0.1403
 7651SOL     OW34414   0.883   2.934   5.890 -0.1097  0.4955 -0.3161
 7651SOL    HW134415   0.932   2.921   5.971  0.2291 -0.0695 -0.6141
 7651SOL    HW234416   0.935   3.004   5.850  0.8917 -0.9824 -1.6164
 7652SOL     OW34417   2.857   4.532  11.966  0.2594  0.2639 -0.2968
 7652SOL    HW134418   2.946   4.563  11.981  0.2831  0.0296  0.0320
 7652SOL    HW234419   2.860   4.450  12.015 -0.4064  0.6451  0.3932
 7653SOL     OW34420   0.339   2.796   5.918 -0.0968  0.7092 -0.2311
 7653SOL    HW134421   0.358   2.796   5.824  2.1050 -0.4690  0.2106
 7653SOL    HW234422   0.425   2.832   5.940  0.9552 -2.8670  1.4706
 7654SOL     OW34423   1.447   4.340  16.275  0.0587 -0.7537  0.5407
 7654SOL    HW134424   1.405   4.262  16.240  2.7883 -1.9191 -0.0830
 7654SOL    HW234425   1.530   4.308  16.310  0.0398 -2.9631 -1.4308
 7655SOL     OW34426   4.323   4.632   8.596  0.1841 -0.1016 -0.7694
 7655SOL    HW134427   4.282   4.719   8.592 -0.6922 -0.3523  2.6349
 7655SOL    HW234428   4.409   4.643   8.637 -0.0832  0.0266 -0.2475
 7656SOL     OW34429   4.426   1.345  11.132  0.0101 -0.3946 -0.9521
 7656SOL    HW134430   4.381   1.408  11.076 -0.7756 -0.7640 -0.7292
 7656SOL    HW234431   4.469   1.286  11.069 -0.0529 -1.0307 -0.4059
 7657SOL     OW34432   3.882   4.231   1.099  0.1952  0.5684 -0.4392
 7657SOL    HW134433   3.838   4.253   1.181  1.1746 -0.4679  0.3675
 7657SOL    HW234434   3.976   4.240   1.118  0.1983 -0.5024  0.0522
 7658SOL     OW34435   3.670   3.935  13.136 -0.0148  0.1697 -0.0598
 7658SOL    HW134436   3.670   4.030  13.144 -0.3446  0.2292 -0.7925
 7658SOL    HW234437   3.750   3.919  13.187  1.9952 -0.3500 -3.3772
 7659SOL     OW34438   2.106   1.555  15.983 -0.5038 -0.6142 -0.7390
 7659SOL    HW134439   2.093   1.649  15.973  1.2263 -0.4270 -1.2511
 7659SOL    HW234440   2.162   1.544  16.060  0.6849  2.3763 -1.1704
 7660SOL     OW34441   1.847   1.706  13.083  0.6203  0.2792  0.7164
 7660SOL    HW134442   1.806   1.620  13.094 -0.3606  0.8338  1.4839
 7660SOL    HW234443   1.772   1.761  13.109  2.3301  2.8792  0.2040
 7661SOL     OW34444   0.821   0.611   2.832 -0.2548  0.5439 -0.1821
 7661SOL    HW134445   0.877   0.629   2.908 -2.2562  2.8028  0.7561
 7661SOL    HW234446   0.872   0.548   2.781  1.0467  2.3693 -1.1353
 7662SOL     OW34447   2.697   2.846   2.221  0.1841 -0.3989  0.3478
 7662SOL    HW134448   2.704   2.866   2.127 -0.4560 -0.4848  0.2768
 7662SOL    HW234449   2.629   2.909   2.248 -1.7568 -2.6507  0.7290
 7663SOL     OW34450   2.224   3.147   6.018  0.0777  0.1937 -0.0362
 7663SOL    HW134451   2.213   3.054   5.999 -2.0830  0.5629 -0.6826
 7663SOL    HW234452   2.275   3.165   5.940 -1.1231  2.9615 -0.1990
 7664SOL     OW34453   1.949   1.931   2.898 -0.1023  0.3636  0.5865
 7664SOL    HW134454   1.860   1.914   2.929 -0.8521  1.4714 -0.9731
 7664SOL    HW234455   1.954   1.916   2.803 -0.3744 -2.9944  1.1115
 7665SOL     OW34456   1.729   2.019   4.284  0.1971  0.2889  0.6020
 7665SOL    HW134457   1.660   2.034   4.349 -1.2104  1.8688 -1.2367
 7665SOL    HW234458   1.717   1.925   4.269 -0.4325  0.1947  1.6982
 7666SOL     OW34459   1.736   2.871   1.769 -0.0145 -0.2959 -0.1995
 7666SOL    HW134460   1.785   2.860   1.688 -0.2806  1.0555 -0.5550
 7666SOL    HW234461   1.666   2.806   1.766 -0.1981 -0.1349  0.6356
 7667SOL     OW34462   3.781   0.179  15.460  0.3695  0.2994 -0.5125
 7667SOL    HW134463   3.801   0.178  15.366 -1.0783 -0.3618 -0.8182
 7667SOL    HW234464   3.728   0.100  15.471 -1.2502  1.5197  0.5123
 7668SOL     OW34465   3.386   2.017  17.034 -0.4219 -0.0466 -0.5657
 7668SOL    HW134466   3.476   2.013  17.064 -0.2904  0.2521 -0.9253
 7668SOL    HW234467   3.376   1.944  16.972 -1.3844  0.1790 -0.6772
 7669SOL     OW34468   0.482   2.951   5.004 -0.0281  0.3592  0.3660
 7669SOL    HW134469   0.386   2.949   5.009 -0.1289 -0.1331 -1.4575
 7669SOL    HW234470   0.501   2.869   4.957  1.9445  0.2792  1.3162
 7670SOL     OW34471   2.404   2.053   2.869  0.0421 -0.3302  0.0718
 7670SOL    HW134472   2.388   2.040   2.962  0.2003  0.4275  0.2004
 7670SOL    HW234473   2.462   2.128   2.882 -0.1824 -0.4079  1.5008
 7671SOL     OW34474   0.836   2.990  12.408  0.0774 -0.0378 -0.2395
 7671SOL    HW134475   0.817   3.075  12.369 -0.0622  0.2650  0.4958
 7671SOL    HW234476   0.821   3.011  12.500  0.7934 -0.3983 -0.0405
 7672SOL     OW34477   3.582   1.736  16.963  0.6801 -0.0765  0.3117
 7672SOL    HW134478   3.516   1.713  17.028 -1.1004  1.3534 -0.9957
 7672SOL    HW234479   3.527   1.753  16.887  1.1475  0.4764  0.0935
 7673SOL     OW34480   4.211   1.581  12.205  0.7860 -0.0267 -0.2323
 7673SOL    HW134481   4.123   1.602  12.236  0.4267 -0.2030 -1.1379
 7673SOL    HW234482   4.251   1.527  12.274 -0.7759  1.3160  1.7064
 7674SOL     OW34483   4.151   0.325   9.602 -0.2094  0.2079 -0.3449
 7674SOL    HW134484   4.108   0.396   9.555 -2.6131 -1.0348 -0.0369
 7674SOL    HW234485   4.220   0.376   9.645 -1.6590 -0.2525  2.5302
 7675SOL     OW34486   0.328   1.333  14.888  0.3432  0.1572  0.1479
 7675SOL    HW134487   0.240   1.300  14.870  0.9571 -1.0948 -0.5295
 7675SOL    HW234488   0.365   1.276  14.955 -1.7601 -1.1776  0.1651
 7676SOL     OW34489   0.038   3.639   8.360  1.0181  0.7276  1.1410
 7676SOL    HW134490   4.702   3.656   8.433  2.9320  1.1566  2.5879
 7676SOL    HW234491   0.055   3.730   8.335  1.4157 -0.0262 -1.3671
 7677SOL     OW34492   3.586   2.217   6.017  0.3103 -0.3675 -0.3900
 7677SOL    HW134493   3.502   2.261   6.026  0.4343 -0.4029  0.8226
 7677SOL    HW234494   3.634   2.252   5.942  1.8692 -1.0409  0.2972
 7678SOL     OW34495   3.257   3.228   3.456  0.3810  0.0251  0.3211
 7678SOL    HW134496   3.332   3.204   3.401  1.0045 -0.3179  1.3245
 7678SOL    HW234497   3.269   3.322   3.468  2.1065 -0.2623  0.8319
 7679SOL     OW34498   3.045   3.687  10.775  0.0085  0.1596 -0.2532
 7679SOL    HW134499   2.964   3.694  10.825  0.2037  0.8959 -0.0411
 7679SOL    HW234500   3.017   3.739  10.699  1.0268  0.4604 -0.4290
 7680SOL     OW34501   0.452   2.782   1.927 -0.3795 -0.6816 -0.4741
 7680SOL    HW134502   0.375   2.838   1.938  1.1404  1.6446 -1.6895
 7680SOL    HW234503   0.464   2.768   1.833  1.3661  0.7242 -0.4534
 7681SOL     OW34504   2.443   0.053   6.833 -0.1417  0.0203  0.0229
 7681SOL    HW134505   2.524   0.004   6.844  1.5836  2.8584 -0.1691
 7681SOL    HW234506   2.484   0.137   6.813 -3.3193  0.7441 -3.4924
 7682SOL     OW34507   1.744   4.538   7.683 -0.7243  0.4203  0.4958
 7682SOL    HW134508   1.754   4.485   7.762  0.1012 -2.4829 -1.5493
 7682SOL    HW234509   1.818   4.598   7.673 -0.4002 -0.2570 -1.1465
 7683SOL     OW34510   3.802   1.423  12.419  0.6269 -0.0941 -0.0713
 7683SOL    HW134511   3.724   1.367  12.427  0.4848 -0.0029 -0.7997
 7683SOL    HW234512   3.826   1.413  12.511 -0.6382  1.8863  0.4600
 7684SOL     OW34513   1.978   2.101   5.395 -0.0353 -0.4671  0.1873
 7684SOL    HW134514   1.906   2.108   5.458  2.3130 -0.8856  2.9622
 7684SOL    HW234515   1.932   2.063   5.321 -0.9513  0.6459  0.1777
 7685SOL     OW34516   2.197   0.694   4.025 -0.1045 -0.2089 -0.4608
 7685SOL    HW134517   2.262   0.749   3.981  1.5735 -1.6611  0.1969
 7685SOL    HW234518   2.132   0.686   3.955 -0.9494 -1.9875  0.5429
 7686SOL     OW34519   4.468   3.618   4.708 -0.1846  0.3863  0.1632
 7686SOL    HW134520   4.531   3.565   4.659  0.6004  1.0474  0.4620
 7686SOL    HW234521   4.405   3.547   4.724  1.6167 -1.1923  0.2823
 7687SOL     OW34522   2.546   3.613   6.754  0.1693  0.0717 -0.4856
 7687SOL    HW134523   2.485   3.549   6.791 -0.2044 -0.1806 -1.5176
 7687SOL    HW234524   2.511   3.697   6.783 -1.2082 -0.1776 -1.4109
 7688SOL     OW34525   2.566   2.573  14.491 -0.3604  0.1389 -0.2635
 7688SOL    HW134526   2.629   2.590  14.421 -0.4943  1.5509 -0.0461
 7688SOL    HW234527   2.622   2.590  14.566 -1.7770 -1.5504  1.1782
 7689SOL     OW34528   4.181   2.888   2.072 -0.0903 -0.5348 -0.2464
 7689SOL    HW134529   4.211   2.961   2.019 -1.7990 -0.8352 -1.5980
 7689SOL    HW234530   4.157   2.920   2.159  2.0348  0.6736 -0.0988
 7690SOL     OW34531   3.288   0.270   7.040  0.3896 -0.5704 -0.2091
 7690SOL    HW134532   3.358   0.301   7.097  1.0190 -1.3954 -0.5381
 7690SOL    HW234533   3.310   0.177   7.050 -0.9407 -0.7769  0.7856
 7691SOL     OW34534   1.616   3.130   3.378  0.4076 -0.4719 -0.2545
 7691SOL    HW134535   1.528   3.132   3.416  0.7825  0.3395  0.5709
 7691SOL    HW234536   1.604   3.066   3.308  0.3632 -0.2986 -0.4055
 7692SOL     OW34537   3.848   0.163   5.230  0.5682  0.0484 -0.1336
 7692SOL    HW134538   3.843   0.123   5.317 -1.8579 -0.5818 -0.5629
 7692SOL    HW234539   3.819   0.252   5.252  1.9750  0.6568 -0.7394
 7693SOL     OW34540   3.219   4.039   6.847  0.0767  1.0616  0.3484
 7693SOL    HW134541   3.142   3.996   6.883  0.1379  0.6403 -0.0243
 7693SOL    HW234542   3.260   3.967   6.799 -1.5581 -0.6585  1.5774
 7694SOL     OW34543   0.110   4.608  16.630  0.2725 -0.1973 -0.5388
 7694SOL    HW134544   0.085   4.532  16.577  1.4691  1.0904 -2.9530
 7694SOL    HW234545   0.196   4.624  16.591 -0.6072  0.4180 -2.2240
 7695SOL     OW34546   3.665   4.129  10.101  0.1019  0.4967  0.2047
 7695SOL    HW134547   3.696   4.079  10.026 -2.8029 -0.1352 -0.5656
 7695SOL    HW234548   3.586   4.171  10.070  0.0726  0.7395  0.6016
 7696SOL     OW34549   0.269   0.106   5.009 -0.1865  0.3774  0.0192
 7696SOL    HW134550   0.347   0.157   5.031  0.6591 -0.3767 -1.1879
 7696SOL    HW234551   0.206   0.146   5.068  0.8204 -0.0840  1.4278
 7697SOL     OW34552   0.290   2.063   1.664  0.4165 -0.2518 -0.1781
 7697SOL    HW134553   0.287   2.039   1.757 -2.0477  0.8941  0.0338
 7697SOL    HW234554   0.222   2.000   1.640 -0.7780  1.0487 -0.2077
 7698SOL     OW34555   1.251   3.791   4.390 -0.2525 -0.8817 -0.1804
 7698SOL    HW134556   1.319   3.726   4.372 -0.4190 -1.1460  0.1565
 7698SOL    HW234557   1.234   3.821   4.300  0.9558  0.4324  0.0267
 7699SOL     OW34558   1.935   2.285   6.325 -0.7859 -0.5342 -0.0116
 7699SOL    HW134559   1.937   2.374   6.361 -0.9817 -0.7891  0.6318
 7699SOL    HW234560   1.892   2.234   6.394  3.0108  0.0298  2.8038
 7700SOL     OW34561   3.370   3.230   6.465  0.3267  0.4565  0.0792
 7700SOL    HW134562   3.362   3.135   6.458  0.6176  0.1271  4.1601
 7700SOL    HW234563   3.304   3.253   6.400  0.7888 -0.2900 -0.6681
 7701SOL     OW34564   1.875   4.197   2.509  0.3361 -0.2809  0.1256
 7701SOL    HW134565   1.822   4.180   2.587 -1.7553 -0.3606 -1.3181
 7701SOL    HW234566   1.839   4.133   2.447 -0.7411  1.2807 -0.8674
 7702SOL     OW34567   1.819   2.815  17.019 -0.5481 -0.4312 -0.4778
 7702SOL    HW134568   1.835   2.819  16.924 -0.7888 -0.1224 -0.5062
 7702SOL    HW234569   1.830   2.720  17.024  1.5647 -0.1389  0.2010
 7703SOL     OW34570   0.319   1.379   3.673  0.1923 -0.1543  0.0237
 7703SOL    HW134571   0.244   1.404   3.620 -0.8160 -4.0044 -0.3559
 7703SOL    HW234572   0.388   1.434   3.634  0.3985 -0.1412  0.3980
 7704SOL     OW34573   2.809   1.226  14.658 -0.2624 -0.7223  0.3492
 7704SOL    HW134574   2.840   1.302  14.608 -1.3923 -0.5665 -0.1180
 7704SOL    HW234575   2.734   1.202  14.604  1.3972 -0.9692 -1.8272
 7705SOL     OW34576   1.661   4.513   2.601 -0.5238 -0.0782 -0.1109
 7705SOL    HW134577   1.590   4.535   2.540 -1.4232 -0.4877  0.7877
 7705SOL    HW234578   1.615   4.518   2.685 -2.9482  1.2447 -1.5086
 7706SOL     OW34579   4.267   4.126  15.098 -0.3158 -0.2118  0.4402
 7706SOL    HW134580   4.345   4.071  15.093 -0.3419 -0.1303 -0.8179
 7706SOL    HW234581   4.220   4.104  15.018  1.3671 -0.8933 -0.3414
 7707SOL     OW34582   3.708   0.813   3.963  0.1312  0.4083  0.1117
 7707SOL    HW134583   3.672   0.822   3.875 -0.3009 -0.6021  0.1793
 7707SOL    HW234584   3.694   0.720   3.981  1.3535  0.3605  0.8384
 7708SOL     OW34585   2.806   2.514   5.628  0.4428 -0.1612 -0.3243
 7708SOL    HW134586   2.750   2.452   5.582 -1.1942  0.1500  1.2342
 7708SOL    HW234587   2.886   2.511   5.575  1.0444 -0.5774  0.6005
 7709SOL     OW34588   2.992   1.090   8.113 -0.2601 -0.1012 -0.4335
 7709SOL    HW134589   3.041   1.023   8.065  0.1220 -0.9955  1.1748
 7709SOL    HW234590   2.956   1.028   8.177  0.5574  0.3733  0.4848
 7710SOL     OW34591   0.710   3.214  10.961 -0.0035  0.2513  0.2655
 7710SOL    HW134592   0.781   3.278  10.964  1.1996 -0.9509 -2.2315
 7710SOL    HW234593   0.766   3.142  10.987 -0.7305  0.3451  2.0670
 7711SOL     OW34594   1.626   0.523   3.401  0.0097  0.1850 -0.6908
 7711SOL    HW134595   1.712   0.561   3.385  0.3052  0.1049  0.7761
 7711SOL    HW234596   1.634   0.429   3.385  1.1694 -0.2297  2.3621
 7712SOL     OW34597   4.312   3.398   4.732  0.3076  0.2628 -0.1964
 7712SOL    HW134598   4.246   3.345   4.688 -2.2798  2.3434  1.1910
 7712SOL    HW234599   4.374   3.334   4.767  0.6844  0.5619 -0.3076
 7713SOL     OW34600   1.957   0.929  10.037  0.1094 -0.9338  0.1788
 7713SOL    HW134601   1.951   0.908   9.944 -0.6011  1.8411 -0.3971
 7713SOL    HW234602   1.889   0.995  10.052  0.4727 -0.1840 -1.4208
 7714SOL     OW34603   3.300   2.149   6.453  0.0693  0.2535  0.5175
 7714SOL    HW134604   3.392   2.168   6.470 -0.6415  1.8044  2.6842
 7714SOL    HW234605   3.299   2.056   6.474 -1.6660  0.7480  2.7128
 7715SOL     OW34606   1.873   3.647   8.211  0.1773  0.4037 -0.1139
 7715SOL    HW134607   1.820   3.577   8.248  0.7774 -0.2228 -0.4356
 7715SOL    HW234608   1.887   3.701   8.289  2.4352 -0.7643  0.2846
 7716SOL     OW34609   1.483   2.692   6.362  0.0195 -0.0463  0.3952
 7716SOL    HW134610   1.494   2.775   6.314  2.4399  0.3778  1.6385
 7716SOL    HW234611   1.425   2.647   6.302  0.9924 -0.4456 -0.2495
 7717SOL     OW34612   1.569   3.101  11.450  0.1891 -0.5509  0.2806
 7717SOL    HW134613   1.487   3.057  11.426 -1.1868  2.6398 -0.8479
 7717SOL    HW234614   1.542   3.188  11.480 -1.7163 -1.3340  0.8571
 7718SOL     OW34615   2.310   2.391   5.975 -0.3263 -0.2848 -0.3103
 7718SOL    HW134616   2.227   2.372   6.019 -0.0370  3.6734  1.9615
 7718SOL    HW234617   2.271   2.384   5.888 -1.3286  4.3726 -0.2411
 7719SOL     OW34618   1.541   4.610   3.120 -0.2678  0.4825  0.7839
 7719SOL    HW134619   1.583   4.598   3.206  0.6619 -0.2164  0.2242
 7719SOL    HW234620   1.479   4.537   3.127  1.3632 -1.0508 -0.7844
 7720SOL     OW34621   2.536   3.553   7.081  0.1831  0.0201  0.3696
 7720SOL    HW134622   2.632   3.548   7.088  0.1968  0.4027  0.4949
 7720SOL    HW234623   2.510   3.461   7.085 -0.7510  0.2917  0.5255
 7721SOL     OW34624   1.022   2.720   3.053  0.4100  0.0316 -0.5540
 7721SOL    HW134625   1.049   2.661   2.982 -2.5264 -0.8512 -0.9579
 7721SOL    HW234626   1.049   2.804   3.018 -2.7171  1.0323 -0.6030
 7722SOL     OW34627   1.208   0.005   4.678 -0.2511 -0.0054  0.0622
 7722SOL    HW134628   1.221   0.034   4.588  0.8210 -0.9025 -0.0737
 7722SOL    HW234629   1.119   4.697   4.695  0.2857 -0.8999  1.1780
 7723SOL     OW34630   0.480   2.653   9.669  0.0792  0.1721  0.6836
 7723SOL    HW134631   0.408   2.713   9.688 -1.4396 -0.5589 -2.6695
 7723SOL    HW234632   0.456   2.567   9.703 -2.5313  0.2425 -0.9742
 7724SOL     OW34633   0.588   1.141  15.612 -0.0415 -0.0665  0.4841
 7724SOL    HW134634   0.518   1.195  15.649  1.8623  1.7350  1.4668
 7724SOL    HW234635   0.579   1.152  15.517 -1.8995 -0.4952  0.6188
 7725SOL     OW34636   2.232   3.718  13.863  0.3344 -0.1094 -0.0048
 7725SOL    HW134637   2.164   3.785  13.868  1.5867  0.8960  4.3675
 7725SOL    HW234638   2.246   3.700  13.771 -1.4036  2.6547 -0.8330
 7726SOL     OW34639   3.450   2.846   6.093 -0.1619  0.2707  0.0880
 7726SOL    HW134640   3.444   2.803   6.179 -1.3474 -1.6483 -0.9597
 7726SOL    HW234641   3.411   2.776   6.042  3.7374 -1.1604 -0.9315
 7727SOL     OW34642   0.482   3.983   9.338 -0.0203  0.1055 -0.4750
 7727SOL    HW134643   0.511   3.902   9.381  1.2299  0.9023  0.1777
 7727SOL    HW234644   0.515   4.049   9.399 -0.5595 -0.3672  0.3370
 7728SOL     OW34645   2.534   2.555   7.116  0.2856  0.1050 -0.3976
 7728SOL    HW134646   2.629   2.554   7.126  0.0758 -1.5169  1.2563
 7728SOL    HW234647   2.520   2.466   7.146 -4.0620  0.2594 -1.9706
 7729SOL     OW34648   3.895   3.891   5.897 -0.0351 -0.3535 -0.1801
 7729SOL    HW134649   3.924   3.802   5.874  0.9578 -0.6696  2.2988
 7729SOL    HW234650   3.959   3.941   5.846  0.1744 -0.1275  0.3001
 7730SOL     OW34651   2.208   3.786   0.522  0.2381  0.0963 -0.1394
 7730SOL    HW134652   2.122   3.796   0.483  0.8670 -0.1041 -1.5863
 7730SOL    HW234653   2.219   3.875   0.556 -1.6902  0.9924 -1.8772
 7731SOL     OW34654   0.868   2.813   7.113 -0.9923  0.0808  0.3724
 7731SOL    HW134655   0.875   2.744   7.180 -3.3226  0.0871  0.6304
 7731SOL    HW234656   0.781   2.848   7.131 -1.3427 -1.0033  0.8000
 7732SOL     OW34657   1.232   4.373   4.897  0.1071  0.2768 -0.1070
 7732SOL    HW134658   1.215   4.440   4.963 -0.5078 -0.1873  0.2009
 7732SOL    HW234659   1.162   4.382   4.833 -0.7521 -0.2223  0.7563
 7733SOL     OW34660   0.073   1.878  11.191  0.0269 -0.3388  0.3842
 7733SOL    HW134661   0.037   1.840  11.110  0.8107  0.5978 -0.4071
 7733SOL    HW234662   0.044   1.969  11.192 -2.3713 -1.0922  0.0551
 7734SOL     OW34663   2.239   3.931   5.919 -0.4155  0.0975  0.0143
 7734SOL    HW134664   2.145   3.938   5.903 -0.2007  1.9885 -0.3742
 7734SOL    HW234665   2.241   3.856   5.979  1.0616 -1.2242 -1.6908
 7735SOL     OW34666   3.992   1.706   9.910 -0.0565  0.1430 -0.3014
 7735SOL    HW134667   3.953   1.784   9.870  2.4900  1.2657 -0.5361
 7735SOL    HW234668   4.013   1.651   9.834 -1.5145 -2.7908  1.4175
 7736SOL     OW34669   1.247   3.657  16.176 -0.0754  0.2175  0.3934
 7736SOL    HW134670   1.341   3.672  16.167  0.0753 -2.2447 -2.3020
 7736SOL    HW234671   1.213   3.739  16.211 -2.8419 -0.2887 -1.0831
 7737SOL     OW34672   3.097   1.526  12.661  0.0252 -0.3394  0.1192
 7737SOL    HW134673   3.190   1.543  12.648  0.1986 -1.5066 -0.1349
 7737SOL    HW234674   3.068   1.616  12.678  2.3206  0.0789  1.7759
 7738SOL     OW34675   0.508   0.432  13.335  0.4892 -0.2621  0.0080
 7738SOL    HW134676   0.457   0.357  13.305  1.8199 -1.5680  1.0024
 7738SOL    HW234677   0.598   0.401  13.326 -0.4458 -2.4415 -1.6435
 7739SOL     OW34678   2.649   1.424   8.469  0.4849  0.1694 -0.0758
 7739SOL    HW134679   2.663   1.519   8.472  1.1665  0.1071 -1.0470
 7739SOL    HW234680   2.652   1.408   8.563  3.0662 -1.2043 -0.3703
 7740SOL     OW34681   2.257   3.492   4.067  0.2078 -0.5952 -0.2175
 7740SOL    HW134682   2.299   3.572   4.035 -0.5674 -0.1844 -0.2210
 7740SOL    HW234683   2.207   3.464   3.990 -2.8947  0.1915  1.4890
 7741SOL     OW34684   2.064   4.183   2.892  0.2594 -0.2305 -1.0373
 7741SOL    HW134685   1.989   4.203   2.948  1.3035 -0.5192  0.4682
 7741SOL    HW234686   2.130   4.148   2.952  0.2356 -0.1392 -0.9585
 7742SOL     OW34687   1.316   4.096   3.523 -0.0110  0.1266 -0.0475
 7742SOL    HW134688   1.368   4.127   3.449 -0.5491  0.8133 -0.1458
 7742SOL    HW234689   1.303   4.007   3.491  1.9056 -0.3925  0.6148
 7743SOL     OW34690   2.677   1.753   7.787  0.9181 -0.5331  0.3967
 7743SOL    HW134691   2.706   1.717   7.871 -0.2852 -1.5904  0.3608
 7743SOL    HW234692   2.617   1.822   7.814  1.0588 -0.6503  1.0077
 7744SOL     OW34693   0.435   4.120   1.945  0.0329 -0.0509 -0.5374
 7744SOL    HW134694   0.390   4.154   1.868  0.0806 -0.2198 -0.6408
 7744SOL    HW234695   0.398   4.173   2.015  0.5657 -0.4029  0.0142
 7745SOL     OW34696   4.717   0.297   1.907 -0.5977 -0.1197 -0.1670
 7745SOL    HW134697   0.008   0.206   1.931 -1.8229 -0.8050 -2.0649
 7745SOL    HW234698   0.058   0.340   1.964 -1.7955  1.9342 -0.3597
 7746SOL     OW34699   1.494   2.005   6.872 -0.2524 -0.3104 -0.0683
 7746SOL    HW134700   1.453   2.043   6.950 -1.4906 -0.9177 -0.4162
 7746SOL    HW234701   1.427   1.948   6.834 -0.1189  0.8290 -2.0003
 7747SOL     OW34702   0.403   2.455   6.384 -0.2709  0.2023 -0.1896
 7747SOL    HW134703   0.382   2.376   6.333 -0.7590  1.5063 -2.0220
 7747SOL    HW234704   0.352   2.430   6.461  2.1614  2.0510  2.0161
 7748SOL     OW34705   2.957   3.217  15.026  0.9186 -0.0336  0.0385
 7748SOL    HW134706   2.972   3.197  15.119 -0.6262 -1.3539  0.0079
 7748SOL    HW234707   2.947   3.312  15.033 -0.5996 -0.0335 -1.9727
 7749SOL     OW34708   2.235   1.459  14.560 -0.6686 -0.0026  0.0382
 7749SOL    HW134709   2.279   1.516  14.622  0.9734  0.7241 -1.7969
 7749SOL    HW234710   2.144   1.484  14.573 -0.6080  0.1605  0.1483
 7750SOL     OW34711   0.675   4.082   7.624 -0.0132  0.3861  0.1106
 7750SOL    HW134712   0.601   4.062   7.681 -0.4926  0.4617 -0.4841
 7750SOL    HW234713   0.645   4.155   7.570 -0.1305 -0.8281 -1.4685
 7751SOL     OW34714   0.798   1.888   5.176  1.1251 -0.4267 -0.1006
 7751SOL    HW134715   0.777   1.830   5.103 -1.5525 -0.1931  0.4874
 7751SOL    HW234716   0.887   1.860   5.197  0.7035 -1.1557  0.7073
 7752SOL     OW34717   4.066   3.957   5.275  0.7013  0.2458 -0.0382
 7752SOL    HW134718   4.153   3.969   5.236  0.0824  0.1112 -1.4364
 7752SOL    HW234719   4.016   4.018   5.222  1.8374  0.7554 -0.5248
 7753SOL     OW34720   4.425   3.966   4.573 -0.2280 -0.2494  1.1557
 7753SOL    HW134721   4.432   4.037   4.637  0.2977  0.9658 -0.2520
 7753SOL    HW234722   4.487   3.902   4.607  1.8860  1.0544 -0.2935
 7754SOL     OW34723   3.916   2.864   1.257  0.0720 -0.6000 -0.0755
 7754SOL    HW134724   3.846   2.800   1.246 -0.2324 -0.7418  2.6169
 7754SOL    HW234725   3.902   2.874   1.351  2.5537  1.6124  0.0845
 7755SOL     OW34726   3.384   2.868   6.909  0.1679  0.1011  0.2679
 7755SOL    HW134727   3.457   2.905   6.958 -1.7232  0.5968  2.6843
 7755SOL    HW234728   3.317   2.855   6.976 -0.9803  5.1616  0.0853
 7756SOL     OW34729   4.387   2.826   7.060  0.0641  0.0076  0.2306
 7756SOL    HW134730   4.373   2.733   7.077 -1.5431 -0.0661 -1.4655
 7756SOL    HW234731   4.299   2.856   7.086 -0.7282 -1.1233 -1.1658
 7757SOL     OW34732   1.362   2.018   3.003  0.1314 -0.1054 -0.3418
 7757SOL    HW134733   1.406   1.994   3.085 -2.5150 -2.8824  0.2857
 7757SOL    HW234734   1.367   1.937   2.951  1.6051 -1.6901  2.2514
 7758SOL     OW34735   1.053   3.108  12.921 -0.1247 -0.6593 -0.0434
 7758SOL    HW134736   1.112   3.157  12.978 -0.6842  0.1797 -0.1946
 7758SOL    HW234737   1.101   3.115  12.838 -0.9597  2.0134 -0.2824
 7759SOL     OW34738   1.450   0.087   5.280 -0.3650  0.1103  0.3581
 7759SOL    HW134739   1.431   4.716   5.268 -0.2239  0.0254  0.7979
 7759SOL    HW234740   1.470   0.090   5.373  0.9185 -2.4411  0.1775
 7760SOL     OW34741   1.590   2.413   6.374 -0.4874  0.5195 -0.0252
 7760SOL    HW134742   1.581   2.429   6.468  0.8021 -0.0677  0.2103
 7760SOL    HW234743   1.502   2.440   6.350 -0.2643  0.7908 -0.5248
 7761SOL     OW34744   2.896   2.603   8.106 -0.3282  0.2837 -0.1392
 7761SOL    HW134745   2.914   2.677   8.164  0.6281  0.0671 -0.1600
 7761SOL    HW234746   2.896   2.527   8.165  0.4070  0.1456 -0.3199
 7762SOL     OW34747   2.523   2.124   0.346  0.3465 -0.5653  0.2405
 7762SOL    HW134748   2.554   2.092   0.262 -3.4096  0.7818 -1.6293
 7762SOL    HW234749   2.432   2.151   0.336 -0.5040 -2.8600  1.7277
 7763SOL     OW34750   0.365   1.547   7.578  0.2806  0.3167  0.1689
 7763SOL    HW134751   0.439   1.504   7.621  1.4744  2.1922  0.0172
 7763SOL    HW234752   0.346   1.632   7.618  0.2040  0.1037  0.5842
 7764SOL     OW34753   4.500   2.706   4.978 -0.4591 -0.5399  0.0321
 7764SOL    HW134754   4.406   2.721   4.981 -0.3746 -0.2141  1.0729
 7764SOL    HW234755   4.511   2.689   5.071 -2.5582 -0.3932  0.2981
 7765SOL     OW34756   3.835   1.991   5.531  0.2112 -0.1126  0.0131
 7765SOL    HW134757   3.873   1.917   5.578 -0.8824  0.0890  1.2138
 7765SOL    HW234758   3.860   2.064   5.589 -2.0297  0.4372  0.2687
 7766SOL     OW34759   4.474   0.462   8.544 -0.1542 -0.1342  0.5711
 7766SOL    HW134760   4.520   0.385   8.511  0.0018  1.0015 -1.8398
 7766SOL    HW234761   4.382   0.439   8.538 -0.0723 -0.6630  1.3766
 7767SOL     OW34762   4.446   1.535  11.353 -0.4049  0.2216 -0.0482
 7767SOL    HW134763   4.428   1.462  11.411 -0.1119  1.2943  1.3993
 7767SOL    HW234764   4.456   1.493  11.268 -0.3221 -0.4969  0.3186
 7768SOL     OW34765   0.748   1.211   7.517  0.2138 -0.4397 -0.6829
 7768SOL    HW134766   0.715   1.205   7.427 -1.5637 -1.4141  0.0177
 7768SOL    HW234767   0.815   1.143   7.522  0.1511 -0.3356  1.6901
 7769SOL     OW34768   3.606   0.369   8.050  0.0154 -0.1133 -0.4493
 7769SOL    HW134769   3.514   0.389   8.067 -0.3404 -1.6470 -0.5865
 7769SOL    HW234770   3.602   0.274   8.040  0.6610 -0.1148 -0.6597
 7770SOL     OW34771   2.110   2.874   8.559 -0.3676  0.3465  0.2154
 7770SOL    HW134772   2.082   2.826   8.481  0.0056  0.7864 -0.1933
 7770SOL    HW234773   2.049   2.946   8.570 -0.5254  0.2873 -0.2364
 7771SOL     OW34774   2.554   0.180  15.318 -0.4885  0.3740 -0.3749
 7771SOL    HW134775   2.487   0.203  15.253 -1.5354 -0.5416  0.3936
 7771SOL    HW234776   2.628   0.224  15.275 -0.8714  1.9887  0.6112
 7772SOL     OW34777   1.247   1.499  16.837 -0.0990 -0.4896  0.0190
 7772SOL    HW134778   1.270   1.574  16.892  2.6486 -1.4559  0.1810
 7772SOL    HW234779   1.166   1.530  16.797 -0.5599 -1.1378  0.4436
 7773SOL     OW34780   2.608   3.277   1.163  0.4263  0.1924 -0.5108
 7773SOL    HW134781   2.589   3.321   1.246  0.0566  1.2653 -1.1664
 7773SOL    HW234782   2.602   3.183   1.181 -1.0995  0.8331  2.3644
 7774SOL     OW34783   3.072   0.879   3.856  0.0206 -0.2588 -0.0291
 7774SOL    HW134784   3.059   0.863   3.950  0.9844 -0.2968  0.0929
 7774SOL    HW234785   3.109   0.794   3.832  0.6949 -0.2108  0.8001
 7775SOL     OW34786   0.149   1.031   6.371 -0.1606  0.3337  0.3213
 7775SOL    HW134787   0.054   1.040   6.373 -0.4000 -1.9450 -0.4469
 7775SOL    HW234788   0.160   0.949   6.322 -0.1712 -0.7608  2.1565
 7776SOL     OW34789   1.596   4.676   9.213 -0.1199  0.6567 -0.2026
 7776SOL    HW134790   1.603   4.583   9.235  0.4301  0.5449 -0.8574
 7776SOL    HW234791   1.505   4.694   9.194 -0.3894  1.0834  1.4766
 7777SOL     OW34792   0.250   0.573  12.543 -0.0575  0.0345  0.5310
 7777SOL    HW134793   0.281   0.660  12.567  0.2115  0.7885 -2.5359
 7777SOL    HW234794   0.203   0.539  12.619  0.7105  1.4469  1.6341
 7778SOL     OW34795   0.947   1.302   4.974 -0.1249  0.0493 -0.2609
 7778SOL    HW134796   0.866   1.348   4.994  0.5082  0.6429  0.9328
 7778SOL    HW234797   0.903   1.247   4.909  0.1053 -0.1593 -0.2401
 7779SOL     OW34798   3.363   4.661   8.938  0.0040 -0.1272 -0.2556
 7779SOL    HW134799   3.374   0.016   8.993 -2.3679  0.7272 -0.9812
 7779SOL    HW234800   3.451   4.624   8.929 -1.0343 -1.8939 -2.9146
 7780SOL     OW34801   4.243   1.530  10.721 -0.1419 -0.3428  0.1077
 7780SOL    HW134802   4.266   1.473  10.794  1.4122 -0.3686 -0.4062
 7780SOL    HW234803   4.149   1.538  10.736  0.0248  0.7804  0.5709
 7781SOL     OW34804   4.119   1.382   8.527  0.0815  0.2696  0.3190
 7781SOL    HW134805   4.158   1.367   8.614  1.7427  2.0491 -0.1044
 7781SOL    HW234806   4.058   1.451   8.551 -1.3599 -0.0955 -2.2969
 7782SOL     OW34807   2.626   4.176  13.069  0.1885  0.1318  0.2261
 7782SOL    HW134808   2.618   4.256  13.120  0.1111 -1.0753  2.1044
 7782SOL    HW234809   2.533   4.162  13.051 -0.0205  0.6959  0.8685
 7783SOL     OW34810   1.758   0.874   2.552 -0.0007 -0.3539 -0.0426
 7783SOL    HW134811   1.817   0.839   2.485 -0.3198 -1.5148  0.2930
 7783SOL    HW234812   1.676   0.890   2.506 -0.7006 -1.8567  0.7085
 7784SOL     OW34813   3.431   0.005   2.443 -0.3764  0.0236 -0.7330
 7784SOL    HW134814   3.363   4.702   2.505  2.2031 -0.6668  1.8296
 7784SOL    HW234815   3.479   0.068   2.497 -2.0949 -0.8314  1.7418
 7785SOL     OW34816   3.872   2.175   5.255 -0.0369 -0.4733  0.4796
 7785SOL    HW134817   3.851   2.212   5.340 -0.0019  0.8920 -0.1063
 7785SOL    HW234818   3.783   2.185   5.219 -0.0286 -0.1471  0.5477
 7786SOL     OW34819   0.304   2.893   0.063  0.0873 -0.3622  0.6093
 7786SOL    HW134820   0.322   2.865   0.152 -0.2102 -1.1387  0.4229
 7786SOL    HW234821   0.279   2.811   0.021 -0.6844  0.0512  0.2413
 7787SOL     OW34822   4.078   3.577   5.050  0.1892 -0.9371  0.0304
 7787SOL    HW134823   4.099   3.661   5.008  0.3278 -1.3658 -0.7679
 7787SOL    HW234824   4.124   3.579   5.134  1.4818  0.3054 -0.6997
 7788SOL     OW34825   2.760   2.532  11.968 -0.1717 -0.4776  0.2213
 7788SOL    HW134826   2.811   2.580  12.033  0.2722 -3.1418  1.8544
 7788SOL    HW234827   2.822   2.536  11.896  0.1382  0.8191  0.5599
 7789SOL     OW34828   0.626   0.577   8.153  0.0215  0.2067  0.1384
 7789SOL    HW134829   0.558   0.555   8.217 -2.3000  3.4598 -1.2025
 7789SOL    HW234830   0.631   0.496   8.101 -1.6745  0.7896 -0.9233
 7790SOL     OW34831   1.915   3.228   4.669  0.4344 -0.1078 -0.8320
 7790SOL    HW134832   1.955   3.176   4.739 -0.2483 -1.2184 -1.2621
 7790SOL    HW234833   1.912   3.169   4.594 -0.6337 -1.3150  0.1569
 7791SOL     OW34834   4.213   2.702   8.032  0.1268 -0.2710 -0.3633
 7791SOL    HW134835   4.306   2.706   8.010  0.5633  3.4996  2.2120
 7791SOL    HW234836   4.226   2.698   8.127 -0.1979 -3.8037 -0.4382
 7792SOL     OW34837   0.520   0.763   7.587  0.1105  0.3591  0.3485
 7792SOL    HW134838   0.539   0.856   7.599 -0.1240  0.3742  0.6048
 7792SOL    HW234839   0.561   0.716   7.659  0.6645 -0.3792 -0.4378
 7793SOL     OW34840   2.445   3.104   2.559  0.2498 -0.7854  0.1567
 7793SOL    HW134841   2.505   3.031   2.572  0.4422 -0.4197  1.3015
 7793SOL    HW234842   2.478   3.167   2.623  2.5796 -1.1814 -0.6513
 7794SOL     OW34843   2.207   1.094   1.836  0.2099 -0.3538 -0.4475
 7794SOL    HW134844   2.236   1.051   1.756  1.6534  0.2054 -0.2207
 7794SOL    HW234845   2.112   1.084   1.824 -0.5583  3.0603  2.9527
 7795SOL     OW34846   4.283   2.090   6.888 -0.3680 -0.2161 -0.0941
 7795SOL    HW134847   4.311   2.003   6.916  0.1770 -0.3700 -1.1060
 7795SOL    HW234848   4.224   2.122   6.956 -0.5786  1.1113 -0.9039
 7796SOL     OW34849   0.445   3.032   7.803  0.0751 -0.6564  0.2071
 7796SOL    HW134850   0.355   3.023   7.833  0.5952 -0.3802  1.8942
 7796SOL    HW234851   0.505   2.983   7.860 -0.3211 -1.2829  0.0918
 7797SOL     OW34852   3.240   4.717  15.488 -0.2926 -0.0275 -0.1125
 7797SOL    HW134853   3.247   4.630  15.448  1.4616  0.3254 -0.5648
 7797SOL    HW234854   3.189   4.694  15.566 -1.9746 -1.6627 -1.7013
 7798SOL     OW34855   2.872   2.003   1.887 -0.9921 -0.4709  0.1180
 7798SOL    HW134856   2.880   2.049   1.803 -0.1554 -0.5514  0.1503
 7798SOL    HW234857   2.965   1.987   1.903 -0.3853  1.2048 -1.6288
 7799SOL     OW34858   0.873   1.858  12.915 -0.0683 -0.0345  0.3292
 7799SOL    HW134859   0.949   1.898  12.957  0.4738 -2.4988  1.6772
 7799SOL    HW234860   0.887   1.892  12.827  0.8685  2.1353  1.3240
 7800SOL     OW34861   1.783   4.091   9.092  0.7575  0.0099 -0.1046
 7800SOL    HW134862   1.792   4.144   9.171  1.3223 -0.1468 -0.0681
 7800SOL    HW234863   1.691   4.112   9.075  0.1691 -2.2364  0.3363
 7801SOL     OW34864   4.685   2.771   2.491 -0.3517 -0.7350  0.4828
 7801SOL    HW134865   0.056   2.762   2.504  0.0697  1.8534 -0.9437
 7801SOL    HW234866   4.661   2.678   2.500  0.2004 -0.6961  2.3663
 7802SOL     OW34867   2.901   1.552   6.783 -0.1694  0.2780  0.0955
 7802SOL    HW134868   2.976   1.500   6.812 -0.0848  1.2785  1.6267
 7802SOL    HW234869   2.865   1.580   6.867  0.8496 -0.9239  0.9278
 7803SOL     OW34870   2.786   3.833  13.582 -0.7336  0.6387 -0.7381
 7803SOL    HW134871   2.842   3.822  13.658 -1.6882  1.6337  0.1054
 7803SOL    HW234872   2.843   3.842  13.505  0.2643 -0.1422 -0.0912
 7804SOL     OW34873   0.221   4.361  14.113  0.4819  0.2854 -0.5140
 7804SOL    HW134874   0.310   4.376  14.145  0.6619  1.4621 -1.5636
 7804SOL    HW234875   0.252   4.328  14.029 -1.3772 -4.6309  0.7347
 7805SOL     OW34876   1.944   2.295  11.548  0.4708  0.3438 -0.4546
 7805SOL    HW134877   2.001   2.351  11.602  1.1912 -1.2835  0.4805
 7805SOL    HW234878   1.941   2.341  11.464 -2.0382  1.3067  0.1439
 7806SOL     OW34879   2.115   4.672   5.371 -0.1026 -0.5021  0.7650
 7806SOL    HW134880   2.146   4.650   5.459  0.1015 -0.6493  0.6569
 7806SOL    HW234881   2.131   0.044   5.375  1.6923 -0.7780  0.1666
 7807SOL     OW34882   0.534   4.069   8.211 -0.6440 -0.1802 -0.4743
 7807SOL    HW134883   0.599   4.038   8.275 -0.2745  0.8764 -0.3390
 7807SOL    HW234884   0.551   4.009   8.138 -0.4839  0.0535 -0.6286
 7808SOL     OW34885   3.569   3.575   6.595 -0.1163  0.1141  0.3636
 7808SOL    HW134886   3.631   3.549   6.526  0.6924 -0.0109  1.1407
 7808SOL    HW234887   3.491   3.594   6.543 -0.2673 -2.3837 -0.3329
 7809SOL     OW34888   3.063   0.879   9.025 -0.1960  0.2762  0.0017
 7809SOL    HW134889   2.972   0.851   9.035  0.0824 -0.1242  1.3357
 7809SOL    HW234890   3.095   0.825   8.952 -2.2489  0.0324 -0.7127
 7810SOL     OW34891   3.551   1.604   3.339  0.5011  0.1142 -0.0330
 7810SOL    HW134892   3.476   1.547   3.353  0.1249  0.1770 -1.8399
 7810SOL    HW234893   3.566   1.589   3.246  0.2461  0.3090 -0.1050
 7811SOL     OW34894   2.487   0.623   0.968 -0.0902 -0.3108  0.1972
 7811SOL    HW134895   2.449   0.629   1.056 -0.1268  1.2078  0.0761
 7811SOL    HW234896   2.413   0.644   0.911 -1.1357  1.3940  2.1735
 7812SOL     OW34897   3.073   0.541  14.055 -0.5760 -0.0425 -0.0632
 7812SOL    HW134898   3.000   0.601  14.048  0.9519  1.7600 -0.4859
 7812SOL    HW234899   3.143   0.606  14.067 -0.9677  0.1155  1.3689
 7813SOL     OW34900   3.920   2.077  10.121  0.0168 -0.3745 -0.5324
 7813SOL    HW134901   3.855   2.008  10.132 -2.9602  2.4712 -0.1721
 7813SOL    HW234902   3.996   2.018  10.117  0.5377  0.0930  2.8801
 7814SOL     OW34903   3.464   1.227  14.406  0.0254  0.0579  0.0198
 7814SOL    HW134904   3.475   1.308  14.457 -0.2261  1.1517 -1.6435
 7814SOL    HW234905   3.484   1.158  14.469 -1.4523 -1.2452 -0.9453
 7815SOL     OW34906   3.559   4.008   6.550 -0.5307 -0.1225 -0.5405
 7815SOL    HW134907   3.623   3.953   6.505 -1.8479 -2.1215  0.0321
 7815SOL    HW234908   3.485   3.948   6.553 -1.0300  0.5015 -0.4439
 7816SOL     OW34909   3.117   1.687   7.987  0.4494 -0.2870  0.0866
 7816SOL    HW134910   3.075   1.614   7.940 -0.0117  0.9017 -1.3634
 7816SOL    HW234911   3.068   1.679   8.068 -0.8604  0.6600 -0.6128
 7817SOL     OW34912   3.781   1.071   9.026 -0.3774  0.2758  0.0243
 7817SOL    HW134913   3.872   1.096   9.040 -0.0953 -0.8843  0.2927
 7817SOL    HW234914   3.756   1.151   8.981 -0.7452  0.4679  0.5765
 7818SOL     OW34915   1.424   1.234   8.160  0.5693  0.5393  0.2407
 7818SOL    HW134916   1.334   1.263   8.178  0.4979  2.5006 -3.4708
 7818SOL    HW234917   1.418   1.145   8.195 -1.5994 -0.6218 -3.1157
 7819SOL     OW34918   4.379   1.925  15.180  0.4775 -0.2242 -1.0161
 7819SOL    HW134919   4.389   1.985  15.106 -1.1675  2.3919  0.8892
 7819SOL    HW234920   4.287   1.935  15.203  1.5932  0.9263  3.0709
 7820SOL     OW34921   4.686   4.182   5.528  0.1528 -0.1649  0.2336
 7820SOL    HW134922   0.004   4.154   5.610 -0.4862  0.9800  0.9466
 7820SOL    HW234923   0.039   4.219   5.482  0.0880 -0.1634  0.1280
 7821SOL     OW34924   1.979   2.120   2.176  0.2042 -0.2955  0.8250
 7821SOL    HW134925   2.060   2.124   2.226  0.5615  2.0733  0.0261
 7821SOL    HW234926   2.008   2.075   2.097  0.6093  0.7195  0.3935
 7822SOL     OW34927   4.577   3.180   4.765  0.2237  0.7243 -0.3203
 7822SOL    HW134928   4.629   3.100   4.763 -0.5260  0.2267  0.3395
 7822SOL    HW234929   4.493   3.139   4.785 -0.4863  1.4959 -1.7438
 7823SOL     OW34930   3.689   4.207  13.134 -0.2187  0.2508 -0.2384
 7823SOL    HW134931   3.738   4.288  13.142 -1.1623  0.7689  0.3545
 7823SOL    HW234932   3.711   4.174  13.047 -0.6355 -1.9061  0.4584
 7824SOL     OW34933   2.010   3.548   3.284  0.4424  0.1197  0.5089
 7824SOL    HW134934   2.049   3.631   3.312 -0.0994 -0.5329  3.1806
 7824SOL    HW234935   2.079   3.515   3.227 -0.3026  1.7076 -1.3393
 7825SOL     OW34936   3.799   0.953   8.214 -0.6768  0.5633 -0.6854
 7825SOL    HW134937   3.889   0.986   8.222  0.8051 -3.2593 -1.7858
 7825SOL    HW234938   3.812   0.859   8.220 -0.6121  0.6558  0.6277
 7826SOL     OW34939   1.248   3.005  10.964 -1.0819  0.0366  0.4145
 7826SOL    HW134940   1.175   3.021  11.023 -0.7676  1.6375  0.3918
 7826SOL    HW234941   1.207   3.025  10.879  0.2200 -0.0913 -0.2512
 7827SOL     OW34942   4.192   4.454   8.416 -0.2124 -0.2422 -0.6735
 7827SOL    HW134943   4.114   4.497   8.450  0.9760  0.6950  0.8785
 7827SOL    HW234944   4.266   4.499   8.457 -0.2314 -0.7096 -0.1262
 7828SOL     OW34945   1.874   4.486   2.417  0.0540  0.1864  0.5477
 7828SOL    HW134946   1.869   4.391   2.428  0.5077 -0.0622 -1.5010
 7828SOL    HW234947   1.801   4.526   2.466  0.2789  1.3453 -0.0456
 7829SOL     OW34948   0.672   4.392   5.309 -0.2096 -0.5770  0.2753
 7829SOL    HW134949   0.711   4.383   5.222 -0.6909  1.5494 -0.1589
 7829SOL    HW234950   0.678   4.303   5.345 -1.4194 -0.9157 -0.3666
 7830SOL     OW34951   4.087   0.780  13.521  0.2269 -0.3412 -0.0545
 7830SOL    HW134952   4.113   0.732  13.599  0.4562 -1.2289 -0.6825
 7830SOL    HW234953   4.175   0.798  13.487  0.0817  0.2742 -0.1010
 7831SOL     OW34954   0.101   3.058   1.380  0.2919  0.6082  0.0607
 7831SOL    HW134955   0.110   2.984   1.320  0.3409  1.0094 -0.4276
 7831SOL    HW234956   0.026   3.106   1.345  1.5541  1.6341 -1.2467
 7832SOL     OW34957   4.179   2.773   8.839 -0.0564  0.2580  0.3104
 7832SOL    HW134958   4.109   2.794   8.901 -0.4557  1.6192 -0.5957
 7832SOL    HW234959   4.248   2.758   8.904  0.6517  0.3283 -0.4286
 7833SOL     OW34960   1.442   4.191   2.657  0.3032 -0.1925 -0.1749
 7833SOL    HW134961   1.385   4.127   2.617 -2.6041  2.5839 -0.4820
 7833SOL    HW234962   1.448   4.245   2.578 -2.9016  0.7758  0.2700
 7834SOL     OW34963   3.163   3.373   6.279 -0.0193  0.8112 -0.4328
 7834SOL    HW134964   3.096   3.344   6.218 -0.1553  0.9471 -0.3494
 7834SOL    HW234965   3.196   3.456   6.245  0.3966 -0.6035 -3.4155
 7835SOL     OW34966   1.766   4.456   7.943  0.0460  0.2287  0.0466
 7835SOL    HW134967   1.856   4.425   7.955 -0.6933 -2.2599 -0.8082
 7835SOL    HW234968   1.754   4.500   8.027 -0.4897 -2.2349  1.2433
 7836SOL     OW34969   3.786   3.293  11.737  0.0624  0.0440  0.3099
 7836SOL    HW134970   3.738   3.373  11.716  1.9843  0.8853 -0.9255
 7836SOL    HW234971   3.713   3.231  11.735  0.0360  0.0627  0.6789
 7837SOL     OW34972   2.104   4.483   4.223  0.2692  0.3568 -0.1967
 7837SOL    HW134973   2.091   4.406   4.167 -0.4472 -0.2765  0.8462
 7837SOL    HW234974   2.166   4.437   4.279  1.2182  0.5487 -1.0942
 7838SOL     OW34975   0.803   2.006  11.157 -0.0980  0.0559 -0.3268
 7838SOL    HW134976   0.898   1.996  11.150 -0.0805 -1.1440  1.5218
 7838SOL    HW234977   0.784   2.100  11.151 -1.6657 -0.3616 -1.9435
 7839SOL     OW34978   3.721   0.286  11.097  0.2089  0.3109  0.0222
 7839SOL    HW134979   3.645   0.248  11.052 -1.1515  0.3245  2.2771
 7839SOL    HW234980   3.782   0.308  11.027  1.7914  0.5838  1.4810
 7840SOL     OW34981   1.774   2.846   7.217  0.6374  0.1738 -0.1936
 7840SOL    HW134982   1.718   2.889   7.152 -0.1694  1.1433  1.1604
 7840SOL    HW234983   1.836   2.914   7.241  0.1954  0.9161 -1.1494
 7841SOL     OW34984   4.653   2.411   0.110  0.5702 -0.6322 -0.1724
 7841SOL    HW134985   4.623   2.354   0.181 -0.2672  0.5861  0.4378
 7841SOL    HW234986   0.010   2.447   0.149 -0.2871  0.5433  0.5122
 7842SOL     OW34987   0.440   4.219  10.966  0.0429  0.3007  0.2386
 7842SOL    HW134988   0.507   4.152  10.954 -0.7886 -0.4407 -0.2549
 7842SOL    HW234989   0.436   4.209  11.062  2.1995  1.6332  0.4428
 7843SOL     OW34990   0.816   3.713  11.760  0.2455 -0.1838  0.1422
 7843SOL    HW134991   0.829   3.625  11.726  0.6264  0.8920 -2.4867
 7843SOL    HW234992   0.898   3.721  11.810 -0.2579  0.1302  0.9208
 7844SOL     OW34993   2.160   0.328   0.394  0.2371 -0.1827 -0.4369
 7844SOL    HW134994   2.170   0.233   0.388  0.1538 -0.1456 -1.0910
 7844SOL    HW234995   2.080   0.335   0.447 -0.5099 -0.3023 -1.5617
 7845SOL     OW34996   3.202   2.749   5.948  0.0126 -0.0671 -0.5709
 7845SOL    HW134997   3.167   2.798   5.874  0.7185  2.6288  0.9115
 7845SOL    HW234998   3.190   2.806   6.023  0.8601 -0.3847 -0.1999
 7846SOL     OW34999   3.860   1.640  11.744 -0.2765  0.3919 -0.3739
 7846SOL    HW135000   3.789   1.580  11.768 -1.0016  0.3112 -2.7955
 7846SOL    HW235001   3.887   1.666  11.832 -0.3831 -0.5561 -0.0604
 7847SOL     OW35002   4.437   0.922   7.085  0.5031 -0.5280 -0.2256
 7847SOL    HW135003   4.490   0.842   7.079  0.6382 -0.3818 -0.9938
 7847SOL    HW235004   4.382   0.889   7.014 -1.0109 -2.0404  1.6382
 7848SOL     OW35005   2.011   3.359   6.406  0.2078 -0.3423 -0.0358
 7848SOL    HW135006   2.001   3.358   6.501 -0.8588  2.5050 -0.1026
 7848SOL    HW235007   2.067   3.283   6.392  1.1538  0.1213  1.1872
 7849SOL     OW35008   3.589   1.181  10.543 -0.6253  0.0014  0.0591
 7849SOL    HW135009   3.506   1.134  10.537  0.3192 -1.4965 -1.5106
 7849SOL    HW235010   3.630   1.157  10.459 -0.8076 -0.1089  0.0012
 7850SOL     OW35011   0.779   1.243  15.307  0.1681  0.5644  0.7137
 7850SOL    HW135012   0.687   1.220  15.295  0.0632  1.2523  0.1498
 7850SOL    HW235013   0.827   1.161  15.304  0.1867  0.5848  0.4330
 7851SOL     OW35014   3.877   1.870   5.016 -0.2210 -0.1478  0.8850
 7851SOL    HW135015   3.912   1.877   5.105 -0.0804  0.2173  0.8019
 7851SOL    HW235016   3.948   1.837   4.960 -1.1637  1.1986 -1.1126
 7852SOL     OW35017   2.747   0.771   3.401  0.1784  0.0380 -0.2032
 7852SOL    HW135018   2.719   0.819   3.479 -0.1923  0.0551 -0.3457
 7852SOL    HW235019   2.828   0.819   3.383  0.5445 -0.7680 -0.7107
 7853SOL     OW35020   1.491   0.346   4.107  0.5485  0.0651 -0.1488
 7853SOL    HW135021   1.528   0.381   4.188  0.1262  2.6903 -1.0784
 7853SOL    HW235022   1.551   0.378   4.039  0.3292 -0.0020 -0.3776
 7854SOL     OW35023   4.410   4.196  17.631 -0.7947  0.2058 -0.0248
 7854SOL    HW135024   4.341   4.262  17.625  0.2398  1.2667 -0.2152
 7854SOL    HW235025   4.360   4.115  17.618 -1.8307  1.0172 -1.1805
 7855SOL     OW35026   3.530   4.363   8.739  0.2722  0.3417 -0.4447
 7855SOL    HW135027   3.576   4.410   8.808 -2.1265  1.2580  0.5185
 7855SOL    HW235028   3.461   4.324   8.792  1.4305  1.1730  1.6667
 7856SOL     OW35029   4.018   1.736   7.234 -0.5818 -0.1020  0.3469
 7856SOL    HW135030   3.965   1.743   7.313 -3.1785 -2.8475 -1.1399
 7856SOL    HW235031   3.976   1.804   7.181 -0.7118 -0.2763  0.2282
 7857SOL     OW35032   1.017   3.528   7.693  0.1204  0.4061  0.2526
 7857SOL    HW135033   0.957   3.596   7.663  1.2547  1.6427  0.7619
 7857SOL    HW235034   0.955   3.455   7.691 -0.3787  0.8631 -0.5873
 7858SOL     OW35035   2.410   2.226  14.786 -0.7846  0.4344 -0.2296
 7858SOL    HW135036   2.415   2.135  14.815  1.8486  0.1346 -1.6827
 7858SOL    HW235037   2.437   2.271  14.866 -0.2846  0.0057 -0.1607
 7859SOL     OW35038   1.586   3.019  15.787 -0.2885  0.1414  0.7629
 7859SOL    HW135039   1.542   2.934  15.781 -0.0297 -0.0311  1.2016
 7859SOL    HW235040   1.672   3.003  15.748 -0.2814 -0.5540  1.0562
 7860SOL     OW35041   4.191   3.558   1.797 -0.2797  0.1270  0.2004
 7860SOL    HW135042   4.152   3.643   1.776 -0.3846  0.1758  0.5862
 7860SOL    HW235043   4.168   3.512   1.717  0.6279  2.9781 -1.6920
 7861SOL     OW35044   0.828   3.220   4.069 -0.7635  0.2740 -0.0271
 7861SOL    HW135045   0.841   3.309   4.101 -0.9304  0.2232  0.1825
 7861SOL    HW235046   0.741   3.231   4.029 -1.2934  2.1230  1.6194
 7862SOL     OW35047   2.020   0.907   8.870 -0.4171  0.1930  0.6745
 7862SOL    HW135048   2.115   0.896   8.875 -0.2013  2.6110  2.1466
 7862SOL    HW235049   2.010   0.941   8.782 -0.7801 -2.0766 -0.1596
 7863SOL     OW35050   0.827   4.039   8.569 -0.0286 -0.4862 -0.3792
 7863SOL    HW135051   0.762   3.992   8.517  0.1250 -0.8885 -0.2054
 7863SOL    HW235052   0.796   4.010   8.655 -1.2828  1.2916 -0.2400
 7864SOL     OW35053   0.506   0.605   4.356 -0.0543 -0.3793 -0.0085
 7864SOL    HW135054   0.520   0.699   4.341  0.9360 -0.3032  1.4191
 7864SOL    HW235055   0.564   0.558   4.295 -0.1115 -0.3056 -0.1208
 7865SOL     OW35056   2.450   0.126   1.798 -0.2898 -0.0953 -0.6966
 7865SOL    HW135057   2.422   0.196   1.857  3.1503 -1.9490  3.1348
 7865SOL    HW235058   2.544   0.135   1.816 -0.1695  1.3252 -2.0056
 7866SOL     OW35059   3.061   1.598   3.346  0.3852  0.9659 -0.2975
 7866SOL    HW135060   3.124   1.528   3.366  0.0392  1.0426  1.0445
 7866SOL    HW235061   2.979   1.550   3.339  0.3610  0.7529  1.3806
 7867SOL     OW35062   3.599   1.922   4.476  0.0625  0.3222  0.7462
 7867SOL    HW135063   3.657   1.997   4.483  0.8817 -0.1221 -1.6760
 7867SOL    HW235064   3.511   1.957   4.461 -1.0937 -2.4756  0.8744
 7868SOL     OW35065   1.171   2.029   7.817 -0.0304  0.2211 -0.1229
 7868SOL    HW135066   1.100   1.984   7.772 -0.5913 -1.2660  2.2853
 7868SOL    HW235067   1.244   1.983   7.774 -0.7804 -0.6201 -0.4876
 7869SOL     OW35068   0.277   2.211  14.234 -0.7090 -0.1277  0.0211
 7869SOL    HW135069   0.342   2.146  14.207 -0.7956 -0.0144 -0.4489
 7869SOL    HW235070   0.323   2.294  14.244  0.9389 -0.6454 -3.4608
 7870SOL     OW35071   2.428   0.846   5.407 -0.3257 -0.3137 -0.3534
 7870SOL    HW135072   2.469   0.851   5.493  0.9643  2.4257 -1.1344
 7870SOL    HW235073   2.356   0.796   5.447  0.4399 -2.0473 -1.1493
 7871SOL     OW35074   1.535   4.511  14.547 -0.3003 -0.0362 -0.2303
 7871SOL    HW135075   1.539   4.458  14.467 -0.1615  0.0761 -0.2986
 7871SOL    HW235076   1.562   4.443  14.608 -1.3756  0.7838  1.1571
 7872SOL     OW35077   1.911   4.374   8.530 -0.1711 -0.5906 -0.1109
 7872SOL    HW135078   1.817   4.387   8.542 -0.1834  0.4049 -1.3300
 7872SOL    HW235079   1.955   4.450   8.493  0.1781 -0.2487  1.0277
 7873SOL     OW35080   4.164   4.521   6.717 -0.0116 -0.0102 -0.1446
 7873SOL    HW135081   4.115   4.596   6.751 -0.4722 -0.0163 -0.7918
 7873SOL    HW235082   4.127   4.445   6.762  0.2681 -1.0660 -1.6897
 7874SOL     OW35083   4.203   4.434   0.941  0.0363 -0.6203 -0.1564
 7874SOL    HW135084   4.271   4.379   0.979 -1.8379 -0.1610  3.8257
 7874SOL    HW235085   4.161   4.374   0.879  2.9962 -1.1042 -1.6968
 7875SOL     OW35086   0.181   2.639   4.433  0.4981  0.2991 -0.2552
 7875SOL    HW135087   0.226   2.555   4.425  0.1434 -0.2930  3.9614
 7875SOL    HW235088   0.248   2.688   4.482 -0.8175  0.8022  1.0232
 7876SOL     OW35089   2.104   0.713   8.520  0.1432 -0.2852  0.2815
 7876SOL    HW135090   2.117   0.807   8.528 -2.7521  0.3112 -2.0208
 7876SOL    HW235091   2.141   0.676   8.600  1.0257  0.7344  0.3479
 7877SOL     OW35092   2.696   0.792   4.509  0.0612  0.7068  0.6824
 7877SOL    HW135093   2.768   0.760   4.562  0.0517  2.8897  2.0354
 7877SOL    HW235094   2.635   0.818   4.578  1.0041  0.8255  1.4664
 7878SOL     OW35095   3.791   1.904   7.384  0.3209 -0.5337 -0.0152
 7878SOL    HW135096   3.864   1.962   7.360 -0.8939 -0.0882 -2.6639
 7878SOL    HW235097   3.838   1.861   7.455  1.9708 -2.1072 -2.0414
 7879SOL     OW35098   0.057   4.457  17.567 -0.3053  0.3947 -0.0486
 7879SOL    HW135099   0.013   4.385  17.611  1.9058 -1.0852 -0.2462
 7879SOL    HW235100   0.009   4.528  17.610  0.6562 -0.4699  2.4342
 7880SOL     OW35101   0.818   4.347   3.427 -0.4604  0.3759 -0.3580
 7880SOL    HW135102   0.750   4.322   3.364  0.7017  0.3967 -1.6462
 7880SOL    HW235103   0.901   4.317   3.388  1.2661 -0.2645  3.8698
 7881SOL     OW35104   2.864   1.505   2.740  0.0595 -0.1684  0.2491
 7881SOL    HW135105   2.860   1.545   2.827  2.1677  0.0213  0.2636
 7881SOL    HW235106   2.854   1.588   2.695  1.3953  0.6187  1.4046
 7882SOL     OW35107   3.815   3.984  15.778 -0.2526  0.3253 -0.1800
 7882SOL    HW135108   3.801   4.077  15.763  0.0604  0.8660  2.9805
 7882SOL    HW235109   3.792   3.966  15.869  1.4222 -1.2155 -0.0600
 7883SOL     OW35110   0.127   2.925   2.837 -0.7036  0.3050 -0.0421
 7883SOL    HW135111   0.177   2.960   2.762 -0.9682 -0.5893 -0.6346
 7883SOL    HW235112   0.161   2.983   2.905 -0.5884  2.2493 -1.7388
 7884SOL     OW35113   3.928   2.662  13.356 -0.6503 -0.2047 -0.0121
 7884SOL    HW135114   4.008   2.713  13.344 -1.2075  0.5828 -0.3997
 7884SOL    HW235115   3.971   2.577  13.353 -0.1786  0.0136  0.6011
 7885SOL     OW35116   2.222   1.876   9.418 -0.1790  0.7329  0.1331
 7885SOL    HW135117   2.142   1.824   9.417  0.4018 -0.1567  0.8664
 7885SOL    HW235118   2.288   1.811   9.395 -0.9671 -0.7804  2.1465
 7886SOL     OW35119   4.597   2.025   3.781  0.3089  0.7051 -0.0849
 7886SOL    HW135120   4.586   2.019   3.686  1.4758  0.2657 -0.1931
 7886SOL    HW235121   4.512   2.062   3.805  0.1231  0.3322 -0.1623
 7887SOL     OW35122   2.308   4.389  10.150  0.0289 -0.3783  0.5299
 7887SOL    HW135123   2.327   4.331  10.076 -0.2108 -0.1853  0.3188
 7887SOL    HW235124   2.240   4.331  10.183 -1.1131  1.2818  1.0687
 7888SOL     OW35125   1.893   4.246  14.722  0.1111  0.0717 -0.5329
 7888SOL    HW135126   1.958   4.241  14.652  2.0824  1.4025  1.1893
 7888SOL    HW235127   1.942   4.280  14.797 -0.2987  1.1053 -0.7310
 7889SOL     OW35128   4.577   4.034   5.050  0.6467  0.3139 -0.7455
 7889SOL    HW135129   4.577   3.951   5.098 -1.8375  0.5596 -0.3259
 7889SOL    HW235130   4.632   4.007   4.977  1.4631 -0.9331  0.3294
 7890SOL     OW35131   2.627   0.483  10.676  0.4376  0.1197 -0.0622
 7890SOL    HW135132   2.609   0.492  10.583  0.6078 -1.5894 -0.2677
 7890SOL    HW235133   2.700   0.421  10.667 -0.7006 -1.4806  1.4885
 7891SOL     OW35134   4.340   0.388   4.614  0.2636 -0.7171 -0.0242
 7891SOL    HW135135   4.247   0.369   4.623  0.1815 -0.9681 -1.3280
 7891SOL    HW235136   4.378   0.318   4.667  1.8225  0.5838  0.6128
 7892SOL     OW35137   1.303   0.075   5.724 -0.3692  0.7996 -0.7130
 7892SOL    HW135138   1.280   4.705   5.722  3.0748 -0.0363 -1.3595
 7892SOL    HW235139   1.212   0.100   5.707 -1.3676 -1.8690  0.5486
 7893SOL     OW35140   4.213   2.490  11.526  0.7182 -0.3521  0.2796
 7893SOL    HW135141   4.135   2.446  11.494 -1.3930  1.3366  3.1299
 7893SOL    HW235142   4.237   2.426  11.593 -0.7399  0.4625  1.5719
 7894SOL     OW35143   4.187   3.308   1.081 -0.4659 -0.4710 -0.2125
 7894SOL    HW135144   4.094   3.329   1.076 -0.8007 -2.0130 -0.3618
 7894SOL    HW235145   4.180   3.212   1.078 -2.5143 -0.3610  0.9636
 7895SOL     OW35146   2.299   1.455   4.730 -0.6032 -0.0577  0.1358
 7895SOL    HW135147   2.332   1.442   4.819 -0.0420  2.0928  0.2317
 7895SOL    HW235148   2.355   1.397   4.679  0.3081  0.4954  0.5141
 7896SOL     OW35149   1.811   2.648   4.074 -0.6593 -0.1650 -0.3174
 7896SOL    HW135150   1.882   2.713   4.073  1.6847 -2.7268 -1.4486
 7896SOL    HW235151   1.763   2.674   3.996  1.5678 -1.4395 -2.1017
 7897SOL     OW35152   1.860   1.345   5.228  0.1175  0.1811  0.8363
 7897SOL    HW135153   1.809   1.279   5.182  1.6219 -0.5893  0.2819
 7897SOL    HW235154   1.877   1.413   5.163  0.8539 -1.9014 -1.1525
 7898SOL     OW35155   3.676   0.558   6.349  0.4740  1.2530 -0.3806
 7898SOL    HW135156   3.644   0.487   6.405  1.6293  0.7017 -0.4080
 7898SOL    HW235157   3.695   0.623   6.416 -1.5622  0.7803  0.6425
 7899SOL     OW35158   1.820   1.562   4.660  0.4662 -0.1071 -0.3541
 7899SOL    HW135159   1.908   1.592   4.636 -0.0215  2.1737  0.6171
 7899SOL    HW235160   1.835   1.536   4.751  1.4635 -3.5745 -1.5180
 7900SOL     OW35161   3.748   3.043   2.568 -0.0192  0.1524 -0.2895
 7900SOL    HW135162   3.728   2.991   2.645  1.6407  0.2821  0.2388
 7900SOL    HW235163   3.835   3.078   2.587  0.0837 -0.4361  0.3110
 7901SOL     OW35164   1.020   0.532   6.923 -0.0584 -0.1357 -0.7001
 7901SOL    HW135165   0.958   0.508   6.991  0.1650  2.5968  0.4859
 7901SOL    HW235166   0.961   0.545   6.848 -0.3491 -0.2165 -0.4879
 7902SOL     OW35167   0.169   2.994   3.900 -0.4409  0.6256  0.6154
 7902SOL    HW135168   0.219   2.943   3.835 -0.4973 -3.0051  3.4218
 7902SOL    HW235169   0.237   3.019   3.963  0.0647 -1.9444  1.1081
 7903SOL     OW35170   0.052   4.650   8.253 -0.1067 -0.4005  0.3694
 7903SOL    HW135171   0.148   4.642   8.251 -0.2548 -1.7828 -1.2651
 7903SOL    HW235172   0.040   4.567   8.299 -0.2395 -0.2196  0.6622
 7904SOL     OW35173   4.257   2.235  17.056 -0.1782  0.1401  0.1177
 7904SOL    HW135174   4.337   2.267  17.013  0.3657 -2.4730 -0.8626
 7904SOL    HW235175   4.288   2.174  17.123 -0.3144 -0.3132 -0.2277
 7905SOL     OW35176   1.951   0.730  15.605  0.1529 -0.0904 -0.1881
 7905SOL    HW135177   1.954   0.807  15.548 -1.4966 -1.3685 -2.0011
 7905SOL    HW235178   1.859   0.707  15.597 -0.9884  2.7189  4.9124
 7906SOL     OW35179   0.027   1.203  11.907 -0.7538  0.3305 -0.3760
 7906SOL    HW135180   4.682   1.190  11.972 -1.3608  2.4159 -0.6041
 7906SOL    HW235181   0.113   1.183  11.944 -0.8198  0.3691 -0.2042
 7907SOL     OW35182   3.521   0.746   5.586  0.0303  0.4984  0.3477
 7907SOL    HW135183   3.513   0.697   5.668 -1.8395  1.4650  0.7556
 7907SOL    HW235184   3.449   0.708   5.535  0.5964  1.7195 -1.3634
 7908SOL     OW35185   4.066   3.328   0.582  1.0858 -0.5181  0.1939
 7908SOL    HW135186   4.033   3.306   0.495 -0.0550  0.3526  0.4076
 7908SOL    HW235187   4.104   3.243   0.604  0.3752 -0.5097  1.4268
 7909SOL     OW35188   3.171   4.073   0.399 -0.2659 -0.1484  0.0106
 7909SOL    HW135189   3.122   4.107   0.474 -1.0520  0.2281 -0.6617
 7909SOL    HW235190   3.169   3.979   0.421  2.2156 -0.0105  0.7320
 7910SOL     OW35191   2.144   0.968   8.553  0.0706  0.3377  0.2408
 7910SOL    HW135192   2.175   1.039   8.610  1.7094  0.5911 -0.9689
 7910SOL    HW235193   2.051   0.988   8.556  0.2807  1.2112  1.2218
 7911SOL     OW35194   1.897   4.273   4.879  0.2885  0.4306  0.2635
 7911SOL    HW135195   1.864   4.253   4.791  0.1969  0.6610  0.2465
 7911SOL    HW235196   1.944   4.189   4.883 -1.1205 -0.2478  2.4414
 7912SOL     OW35197   0.809   4.687   8.142 -0.3231  0.1062 -0.2547
 7912SOL    HW135198   0.795   0.046   8.094 -0.9389  0.2033  0.0931
 7912SOL    HW235199   0.899   4.669   8.114 -0.3253 -2.4526  1.3872
 7913SOL     OW35200   1.384   1.155   6.223 -0.1146 -0.1422 -0.0764
 7913SOL    HW135201   1.463   1.124   6.178  0.1534 -1.0048  0.9763
 7913SOL    HW235202   1.323   1.115   6.161 -0.5832 -0.3292  0.5048
 7914SOL     OW35203   2.103   4.267  10.898  0.0522  0.1555 -0.8150
 7914SOL    HW135204   2.082   4.295  10.809 -0.1219 -0.1411 -0.8666
 7914SOL    HW235205   2.022   4.275  10.949 -0.0948  0.5972 -1.1241
 7915SOL     OW35206   1.155   0.060   3.308  0.2193  0.2235 -0.2282
 7915SOL    HW135207   1.170   0.099   3.222  1.6244 -3.2350 -1.5592
 7915SOL    HW235208   1.084   0.116   3.339 -0.4841 -0.8135  0.0446
 7916SOL     OW35209   2.575   3.061   6.507 -0.2649 -0.3659 -0.7711
 7916SOL    HW135210   2.548   3.138   6.557 -0.6389  0.6655 -2.5581
 7916SOL    HW235211   2.529   3.068   6.423 -2.6533 -0.4453  0.5183
 7917SOL     OW35212   4.202   2.992   8.687  0.3492 -0.1115  0.5490
 7917SOL    HW135213   4.126   3.039   8.721  0.8983  2.0116 -1.1156
 7917SOL    HW235214   4.206   2.920   8.750 -0.4581 -0.0015  0.7252
 7918SOL     OW35215   2.769   2.432   2.472  0.3214 -0.5854  0.2871
 7918SOL    HW135216   2.837   2.376   2.510  0.4418 -1.7963 -1.7094
 7918SOL    HW235217   2.819   2.509   2.446 -0.9085  1.2472  3.4146
 7919SOL     OW35218   0.626   4.366   4.140 -0.6296 -0.1589 -0.1962
 7919SOL    HW135219   0.608   4.459   4.126  0.2804 -0.2935 -2.2274
 7919SOL    HW235220   0.548   4.343   4.190  1.3598  0.3637  3.1597
 7920SOL     OW35221   0.934   1.577  14.248 -0.7340  0.1922 -0.0050
 7920SOL    HW135222   0.943   1.670  14.225 -1.6434  0.2211 -0.2307
 7920SOL    HW235223   0.928   1.540  14.161  1.5467 -0.2760  0.0238
 7921SOL     OW35224   4.352   3.447  15.182 -0.1234 -0.2624  0.6073
 7921SOL    HW135225   4.402   3.430  15.102 -2.4640 -0.7140 -0.7589
 7921SOL    HW235226   4.379   3.368  15.230 -0.2335 -0.6027  0.1110
 7922SOL     OW35227   3.592   1.240   6.668  0.3260 -0.0750 -0.3389
 7922SOL    HW135228   3.632   1.285   6.743 -2.4437  0.0335  1.0622
 7922SOL    HW235229   3.590   1.302   6.595 -0.4270  1.1294  0.6880
 7923SOL     OW35230   2.767   0.652   3.790 -0.1182 -0.0522 -0.0361
 7923SOL    HW135231   2.802   0.605   3.714 -1.7296 -1.4168  0.0803
 7923SOL    HW235232   2.833   0.718   3.812 -0.0172 -0.7009  1.6595
 7924SOL     OW35233   4.441   3.155   8.708 -0.2591  0.1090  0.0000
 7924SOL    HW135234   4.368   3.120   8.657  1.0261  1.2573 -2.5780
 7924SOL    HW235235   4.404   3.138   8.795  0.1438 -1.4906 -0.1441
 7925SOL     OW35236   0.361   2.140   3.916  0.2351 -0.3796 -0.0092
 7925SOL    HW135237   0.393   2.150   3.826 -0.1984  0.9070 -0.0319
 7925SOL    HW235238   0.269   2.163   3.898  0.5591 -0.3750 -1.6454
 7926SOL     OW35239   3.395   2.729   0.823  0.4604 -0.2498 -0.1721
 7926SOL    HW135240   3.351   2.673   0.758 -1.1104  1.7529 -0.8517
 7926SOL    HW235241   3.446   2.791   0.770  0.3421 -0.6069 -0.7024
 7927SOL     OW35242   2.768   3.603  12.753  0.6617 -0.7611  0.1455
 7927SOL    HW135243   2.779   3.566  12.665  2.5480 -1.1451  0.5396
 7927SOL    HW235244   2.820   3.545  12.809  1.5578 -0.6236 -0.5336
 7928SOL     OW35245   1.270   3.826   1.529 -0.2289  0.6546 -0.2230
 7928SOL    HW135246   1.180   3.798   1.513 -0.1421  0.7729 -0.9388
 7928SOL    HW235247   1.285   3.788   1.615  1.4677  1.1713 -0.2931
 7929SOL     OW35248   3.461   0.653  10.384 -0.0745  0.4944 -1.0708
 7929SOL    HW135249   3.379   0.608  10.406  1.3535 -1.7672 -0.4645
 7929SOL    HW235250   3.472   0.637  10.290  0.8831 -0.7819 -0.7305
 7930SOL     OW35251   0.564   2.215   4.072  0.2394 -0.5099  0.0306
 7930SOL    HW135252   0.490   2.201   4.012 -0.9935  0.3491  1.3489
 7930SOL    HW235253   0.613   2.281   4.023 -0.8694  1.6130  1.7519
 7931SOL     OW35254   3.374   2.857  17.663 -0.6945 -0.1656 -0.5924
 7931SOL    HW135255   3.284   2.826  17.654 -0.8237  0.2277 -0.6116
 7931SOL    HW235256   3.387   2.887  17.573 -0.5056 -0.3345 -0.6237
 7932SOL     OW35257   0.638   4.130   9.144  0.1836  0.3701  0.0345
 7932SOL    HW135258   0.574   4.075   9.188  2.3267 -1.1716  1.2114
 7932SOL    HW235259   0.712   4.069   9.139 -0.1028  0.0347 -0.0657
 7933SOL     OW35260   0.426   2.659  14.985 -0.5359  0.4984  0.3940
 7933SOL    HW135261   0.473   2.742  14.996 -1.6384  1.1835 -0.0471
 7933SOL    HW235262   0.340   2.699  15.002  0.3291  2.5691 -0.0602
 7934SOL     OW35263   1.948   0.534   6.572 -0.3432 -0.0175  0.2109
 7934SOL    HW135264   1.864   0.502   6.538  0.6551 -0.5631 -1.7279
 7934SOL    HW235265   2.004   0.463   6.540 -1.7612 -0.4723 -1.2723
 7935SOL     OW35266   3.064   3.058   4.640 -0.3046 -0.1468  0.5786
 7935SOL    HW135267   3.029   3.008   4.566 -1.7894  0.3593  0.9461
 7935SOL    HW235268   3.138   3.103   4.601 -0.0065 -1.9398 -0.9438
 7936SOL     OW35269   2.469   3.422   6.233 -0.9179  0.4540 -0.1015
 7936SOL    HW135270   2.453   3.413   6.327 -0.3422  1.7612  0.1194
 7936SOL    HW235271   2.544   3.481   6.226  1.2886 -2.2659  0.7942
 7937SOL     OW35272   3.033   0.775   9.576  0.3199  0.0496 -0.6767
 7937SOL    HW135273   3.026   0.773   9.480  2.0053 -0.5124 -0.7916
 7937SOL    HW235274   2.943   0.805   9.594  0.3209 -0.9117  0.8964
 7938SOL     OW35275   3.357   1.642   6.432  0.5484 -0.1149  0.1853
 7938SOL    HW135276   3.270   1.627   6.394  0.2726  0.6332  0.5064
 7938SOL    HW235277   3.396   1.706   6.372 -1.7854  2.2593  1.1593
 7939SOL     OW35278   4.521   2.911   8.434  0.2532  0.4050 -0.3152
 7939SOL    HW135279   4.476   2.886   8.515 -0.2535  0.7333 -0.4987
 7939SOL    HW235280   4.477   2.990   8.404 -0.2014  0.1428 -0.3466
 7940SOL     OW35281   3.305   1.479   7.857 -0.2354  0.1773 -0.1981
 7940SOL    HW135282   3.318   1.397   7.809 -0.7111  0.3091 -0.5611
 7940SOL    HW235283   3.314   1.444   7.945  1.3060  0.7276 -0.1303
 7941SOL     OW35284   2.930   3.566   3.499  0.4832  0.4441  0.3949
 7941SOL    HW135285   2.853   3.515   3.473  0.4694  0.8989 -0.4355
 7941SOL    HW235286   2.945   3.531   3.587  1.3175 -0.8138 -0.2434
 7942SOL     OW35287   2.445   4.391   8.810  0.7658  0.2649 -0.1651
 7942SOL    HW135288   2.508   4.462   8.796  1.3152  0.2410  2.2863
 7942SOL    HW235289   2.374   4.427   8.756  1.0485 -1.4083 -1.6509
 7943SOL     OW35290   3.842   3.826   0.693 -0.1106 -0.2266  0.2164
 7943SOL    HW135291   3.826   3.802   0.784  0.9086  0.9856  0.7163
 7943SOL    HW235292   3.849   3.921   0.702  1.9949 -0.1946 -1.5465
 7944SOL     OW35293   1.920   2.542   6.639 -0.7529 -0.1122  0.6247
 7944SOL    HW135294   1.906   2.556   6.546 -1.2551 -0.3156  0.6690
 7944SOL    HW235295   1.947   2.451   6.632 -1.0754 -0.2423  1.0977
 7945SOL     OW35296   0.770   3.016  14.120  0.2369  0.0795 -0.3469
 7945SOL    HW135297   0.742   3.107  14.108  0.7303 -0.0349 -2.3491
 7945SOL    HW235298   0.693   2.965  14.097  0.6141 -0.7318  0.1570
 7946SOL     OW35299   0.494   1.023   3.557  0.0739  0.6746  0.3701
 7946SOL    HW135300   0.469   1.044   3.467 -0.3385  0.2318  0.3866
 7946SOL    HW235301   0.409   1.027   3.601  0.5041  1.7490  1.1157
 7947SOL     OW35302   0.145   3.632   1.249 -0.4932 -0.2034 -0.5911
 7947SOL    HW135303   0.092   3.585   1.184 -0.3479 -1.0936 -0.0702
 7947SOL    HW235304   0.164   3.706   1.192 -0.6143  0.5442  0.3466
 7948SOL     OW35305   2.978   4.642   2.419 -0.2217  0.6715  0.1930
 7948SOL    HW135306   3.049   4.586   2.388  0.2794  1.4545 -0.0467
 7948SOL    HW235307   2.943   4.586   2.489  1.6405  0.1762  0.7305
 7949SOL     OW35308   4.304   1.959   9.395  0.8009  0.0873  0.4541
 7949SOL    HW135309   4.218   1.995   9.378  0.2361 -2.1003 -1.2690
 7949SOL    HW235310   4.282   1.896   9.465 -0.1552 -0.2341 -0.1409
 7950SOL     OW35311   3.664   0.589   7.881  0.3598 -0.4046  0.1088
 7950SOL    HW135312   3.650   0.533   7.958  1.3943  1.8993  2.0005
 7950SOL    HW235313   3.631   0.530   7.813 -2.3661 -0.8890  1.8578
 7951SOL     OW35314   3.104   0.717  16.006 -0.1231 -0.6362 -0.7181
 7951SOL    HW135315   3.034   0.710  16.071 -0.9848 -0.2644 -1.5931
 7951SOL    HW235316   3.050   0.689  15.931 -0.3901  4.2153 -2.3468
 7952SOL     OW35317   4.642   0.284  16.769 -0.7144 -0.6343 -0.3435
 7952SOL    HW135318   4.612   0.369  16.737  0.6714  0.0263  0.1173
 7952SOL    HW235319   4.641   0.313  16.860 -0.1368 -1.0080 -0.2183
 7953SOL     OW35320   2.106   1.515   2.647 -0.2456  0.4481  0.8527
 7953SOL    HW135321   2.135   1.491   2.735  1.9888 -1.6555 -0.4692
 7953SOL    HW235322   2.028   1.558   2.682  0.3657  1.7158  0.6704
 7954SOL     OW35323   2.190   0.217   5.866 -0.0008 -0.6790 -0.8760
 7954SOL    HW135324   2.238   0.257   5.793 -0.0705 -0.1167 -0.6161
 7954SOL    HW235325   2.115   0.276   5.857 -3.3921 -4.6904  0.9772
 7955SOL     OW35326   1.300   0.043   6.174 -0.0872  0.0138  0.0319
 7955SOL    HW135327   1.289   0.129   6.214  0.8899 -0.1211  0.6156
 7955SOL    HW235328   1.375   0.012   6.226 -1.8285 -0.4420  2.2779
 7956SOL     OW35329   3.130   3.669   4.046 -0.1481  0.3237  1.1214
 7956SOL    HW135330   3.091   3.696   4.129  0.7601  0.7828  1.3984
 7956SOL    HW235331   3.079   3.698   3.970 -0.1457 -0.6037  0.7629
 7957SOL     OW35332   0.012   1.737   2.302  0.2441  0.1656  0.2746
 7957SOL    HW135333   4.664   1.676   2.284  0.7978 -0.0266 -1.2752
 7957SOL    HW235334   0.079   1.694   2.356 -0.3678 -0.0179  0.8804
 7958SOL     OW35335   0.747   0.773   6.071 -0.2840 -0.4527 -0.3245
 7958SOL    HW135336   0.791   0.855   6.049  0.4577 -0.8047 -0.1426
 7958SOL    HW235337   0.732   0.725   5.990 -0.4967 -2.8889  1.1632
 7959SOL     OW35338   0.386   2.244   2.080  0.6086 -0.5963  0.1677
 7959SOL    HW135339   0.313   2.267   2.022 -0.9855 -0.8857  2.0685
 7959SOL    HW235340   0.375   2.154   2.110 -0.1643 -0.2962  0.7777
 7960SOL     OW35341   1.766   3.280   3.803  0.3595  0.3146  0.0538
 7960SOL    HW135342   1.797   3.282   3.712  2.0048 -2.3858  0.5363
 7960SOL    HW235343   1.702   3.209   3.807  0.7807 -0.1377 -1.1174
 7961SOL     OW35344   1.242   4.077   2.269  0.3803  0.2704 -0.3334
 7961SOL    HW135345   1.254   4.130   2.348 -0.6748 -0.8134  0.5392
 7961SOL    HW235346   1.207   3.995   2.302 -1.9139  0.8527 -1.2883
 7962SOL     OW35347   4.467   3.523   5.119 -0.1508  0.2158 -0.1045
 7962SOL    HW135348   4.488   3.485   5.204  1.6417 -0.5294 -0.8847
 7962SOL    HW235349   4.413   3.449   5.092  0.7981 -0.7288  0.5539
 7963SOL     OW35350   2.422   4.679   7.381  0.1632 -0.6350  0.1417
 7963SOL    HW135351   2.509   4.709   7.405 -0.2037  1.2696 -0.8995
 7963SOL    HW235352   2.384   0.034   7.340 -0.3453 -0.2845  1.2817
 7964SOL     OW35353   3.219   4.338   1.872 -0.0422 -0.0844  0.4247
 7964SOL    HW135354   3.282   4.407   1.894 -0.4025  0.0607  1.0060
 7964SOL    HW235355   3.206   4.290   1.953  0.2950 -2.1675 -0.7637
 7965SOL     OW35356   1.180   0.626   8.486 -0.0412 -0.1400  0.9724
 7965SOL    HW135357   1.150   0.580   8.407  0.8926  1.8013 -0.5119
 7965SOL    HW235358   1.157   0.554   8.544 -3.3800  0.7141  0.7175
 7966SOL     OW35359   4.603   0.287  12.115  0.0215 -0.8144 -0.0561
 7966SOL    HW135360   4.547   0.311  12.189  0.4615 -2.9080  0.9639
 7966SOL    HW235361   4.556   0.209  12.086 -0.3052  0.1055 -2.0087
 7967SOL     OW35362   0.749   3.187   7.010  0.8357  0.4706 -0.3983
 7967SOL    HW135363   0.654   3.176   7.012  0.6996  1.6114 -0.8367
 7967SOL    HW235364   0.763   3.277   7.037 -0.1699  0.5338 -0.0820
 7968SOL     OW35365   1.487   4.122   9.072  0.1431  0.7526  0.1273
 7968SOL    HW135366   1.439   4.080   9.000 -0.6954  0.0617  1.0892
 7968SOL    HW235367   1.476   4.213   9.046 -0.1929 -0.1640 -2.9039
 7969SOL     OW35368   2.580   3.670   3.231 -0.2180  0.1432 -0.3004
 7969SOL    HW135369   2.509   3.673   3.167  0.8899  1.1173 -1.4711
 7969SOL    HW235370   2.606   3.762   3.239 -0.8257  0.2713  0.3031
 7970SOL     OW35371   1.736   2.945   3.908  0.3473 -0.7987  0.2294
 7970SOL    HW135372   1.724   2.870   3.850 -2.2174  0.0294 -0.3317
 7970SOL    HW235373   1.668   3.007   3.881  0.1341 -2.8799 -3.9906
 7971SOL     OW35374   3.439   0.670   1.877  0.5512  0.2562 -0.0020
 7971SOL    HW135375   3.350   0.661   1.912  0.3950 -1.2763 -0.7849
 7971SOL    HW235376   3.485   0.735   1.930  0.3326  0.8241 -0.5030
 7972SOL     OW35377   3.099   4.548   6.723 -0.4673  0.1473  0.2583
 7972SOL    HW135378   3.166   4.483   6.742 -0.6215 -0.4645 -1.2494
 7972SOL    HW235379   3.152   4.622   6.749 -0.9428  1.0813 -1.4331
 7973SOL     OW35380   2.573   0.367   5.020 -0.7761  0.4356 -0.1408
 7973SOL    HW135381   2.571   0.271   5.024 -1.1268  0.5138  1.3929
 7973SOL    HW235382   2.663   0.393   4.999 -0.7606  0.1412 -0.4434
 7974SOL     OW35383   4.120   2.902   0.575  0.9292  0.3904 -0.1288
 7974SOL    HW135384   4.153   2.990   0.561 -0.0651  0.4945 -1.9133
 7974SOL    HW235385   4.026   2.914   0.557  1.4311  2.4023 -1.3773
 7975SOL     OW35386   1.471   1.899   1.609 -0.5469  0.0927 -0.1853
 7975SOL    HW135387   1.479   1.830   1.676  2.3275  0.2652 -0.3437
 7975SOL    HW235388   1.449   1.846   1.533 -1.4049  0.2824 -0.0600
 7976SOL     OW35389   4.461   4.287   3.976 -0.0747 -0.0223 -0.4384
 7976SOL    HW135390   4.449   4.381   3.991  0.7396  0.1473 -0.8000
 7976SOL    HW235391   4.381   4.253   4.013 -1.0332  1.0401 -1.5228
 7977SOL     OW35392   4.571   3.829   4.797 -0.3737 -0.5599 -0.7165
 7977SOL    HW135393   4.584   3.809   4.890 -1.8655 -0.5615 -0.5082
 7977SOL    HW235394   4.521   3.756   4.761 -0.6407  0.4989 -2.5018
 7978SOL     OW35395   0.432   0.695   5.663  0.4527  0.7127 -0.3634
 7978SOL    HW135396   0.380   0.774   5.651 -1.8396 -0.6963  0.3110
 7978SOL    HW235397   0.391   0.658   5.741 -1.0658  0.7784 -1.1187
 7979SOL     OW35398   3.303   4.460   5.287  0.3728  0.5970  0.4019
 7979SOL    HW135399   3.323   4.505   5.204 -1.0849 -0.3135 -0.4495
 7979SOL    HW235400   3.377   4.494   5.337  0.1302  0.5152  0.8155
 7980SOL     OW35401   4.642   1.197   2.532  0.5922  0.5172  0.0032
 7980SOL    HW135402   4.614   1.167   2.618  0.9615 -0.0561 -0.0742
 7980SOL    HW235403   4.678   1.281   2.559 -1.0311  0.5197  2.0916
 7981SOL     OW35404   1.327   4.449   3.579  0.2693 -0.0685  0.4635
 7981SOL    HW135405   1.294   4.479   3.494  1.1188 -0.2585  0.0668
 7981SOL    HW235406   1.298   4.522   3.634  1.8985  0.2645  0.8797
 7982SOL     OW35407   0.032   0.077   6.993 -0.0892 -0.4046  0.0096
 7982SOL    HW135408   0.085   0.025   6.932 -1.1992 -0.5727 -0.8221
 7982SOL    HW235409   4.711   0.001   7.032  2.1298 -0.9168  1.4759
 7983SOL     OW35410   1.391   1.655  12.923 -0.1138  0.2834 -0.4917
 7983SOL    HW135411   1.344   1.631  12.843 -1.0055 -2.0578  0.7492
 7983SOL    HW235412   1.433   1.733  12.884  0.1438  1.4341  2.1057
 7984SOL     OW35413   1.075   3.634   4.910  0.0346  0.3603  0.0164
 7984SOL    HW135414   1.010   3.703   4.920  0.0061  0.2016  0.9202
 7984SOL    HW235415   1.077   3.621   4.815  1.1083  0.3780  0.0385
 7985SOL     OW35416   4.406   2.233   5.870 -0.7616  0.1392  0.2937
 7985SOL    HW135417   4.466   2.306   5.857  0.9567 -1.4362 -0.6046
 7985SOL    HW235418   4.462   2.159   5.893 -0.8214 -0.2565 -0.8142
 7986SOL     OW35419   3.363   3.150   0.119  0.1404 -0.0191  0.3553
 7986SOL    HW135420   3.376   3.098   0.040  1.4969  1.6254 -0.5014
 7986SOL    HW235421   3.451   3.137   0.156  0.8078  1.1572 -0.8164
 7987SOL     OW35422   4.709   0.609   6.762 -0.2568  0.6260  0.1605
 7987SOL    HW135423   4.675   0.533   6.810 -0.6498 -0.3762 -1.7392
 7987SOL    HW235424   4.649   0.671   6.804  1.7738  2.8711 -0.2566
 7988SOL     OW35425   0.705   3.044   6.758  0.2319  0.2367  0.4979
 7988SOL    HW135426   0.718   2.954   6.730 -1.0987  0.2654 -0.2154
 7988SOL    HW235427   0.710   3.030   6.852 -0.7002  0.2994  0.5550
 7989SOL     OW35428   3.105   4.045  12.068 -0.2205 -0.1235  0.3590
 7989SOL    HW135429   3.190   4.076  12.035 -0.8279 -1.8071 -2.8548
 7989SOL    HW235430   3.126   3.973  12.128  2.5711 -1.1066 -1.7700
 7990SOL     OW35431   0.767   0.593   0.379  0.4414  0.2493  0.5966
 7990SOL    HW135432   0.759   0.627   0.468  4.4728  0.7901  0.7505
 7990SOL    HW235433   0.853   0.551   0.384  0.4667  0.3841  1.2827
 7991SOL     OW35434   0.115   1.867   7.174  0.0146  0.3106 -0.1256
 7991SOL    HW135435   0.134   1.960   7.182  1.2590  0.0325  0.1071
 7991SOL    HW235436   0.044   1.859   7.237 -1.7701  1.7067 -1.9709
 7992SOL     OW35437   3.635   0.987   5.703 -0.5442  0.0216  0.8100
 7992SOL    HW135438   3.625   1.053   5.634 -0.8977  0.0807  0.9218
 7992SOL    HW235439   3.564   0.934   5.669  0.5431 -0.5597 -0.5696
 7993SOL     OW35440   4.171   1.922   2.214  0.5679  0.2008 -0.3210
 7993SOL    HW135441   4.263   1.899   2.207  0.0177 -2.2706  0.7158
 7993SOL    HW235442   4.134   1.837   2.235  1.8536  0.1399  1.6263
 7994SOL     OW35443   2.072   1.178   5.439 -0.0469  0.5896  0.3031
 7994SOL    HW135444   2.086   1.254   5.383  0.4160 -1.8650 -2.8800
 7994SOL    HW235445   2.153   1.130   5.426  0.2305  1.4305 -1.0630
 7995SOL     OW35446   4.055   2.249   9.498 -0.0900 -0.0079  0.7531
 7995SOL    HW135447   4.065   2.308   9.574  0.8850  2.0562 -0.9920
 7995SOL    HW235448   4.004   2.305   9.441  1.0875  0.4641  0.1598
 7996SOL     OW35449   3.161   1.417   7.379  0.1347  0.1161  0.3836
 7996SOL    HW135450   3.236   1.364   7.404  0.2983 -0.5073 -1.4099
 7996SOL    HW235451   3.210   1.498   7.371  1.1598 -0.8390 -3.0177
 7997SOL     OW35452   4.629   0.622   5.551  0.3305  0.0514  0.4397
 7997SOL    HW135453   4.630   0.579   5.465  1.2486  0.6525  0.1487
 7997SOL    HW235454   4.549   0.675   5.553  0.6358  0.5227  0.3232
 7998SOL     OW35455   1.429   3.440   5.849  0.1693 -0.1015 -0.6043
 7998SOL    HW135456   1.387   3.437   5.935  0.4008  1.8463 -0.4170
 7998SOL    HW235457   1.380   3.509   5.803  2.7640  1.7900 -0.5065
 7999SOL     OW35458   3.671   2.448   7.870 -0.3343 -0.1984  0.0685
 7999SOL    HW135459   3.614   2.378   7.840  0.0158 -0.6503  0.4438
 7999SOL    HW235460   3.758   2.416   7.845  0.4480  1.3577  0.8332
 8000SOL     OW35461   2.822   1.497  12.751 -0.1051  0.4732 -0.6084
 8000SOL    HW135462   2.819   1.411  12.792 -1.8434  0.4712 -0.7682
 8000SOL    HW235463   2.916   1.516  12.752  0.0596 -0.4532  1.3125
 8001SOL     OW35464   1.055   0.129  13.580  0.3245  0.0515 -0.4059
 8001SOL    HW135465   0.964   0.101  13.567 -0.2042  1.5882 -0.0764
 8001SOL    HW235466   1.078   0.143  13.489 -0.1699 -1.4331 -0.7641
 8002SOL     OW35467   2.404   2.953   8.599 -0.2908 -0.4643  0.0226
 8002SOL    HW135468   2.333   2.931   8.659  1.2066  0.6900  2.2188
 8002SOL    HW235469   2.421   3.041   8.632 -3.3281  0.4360 -0.8889
 8003SOL     OW35470   0.351   2.473   3.388 -0.0085  0.2182 -0.0502
 8003SOL    HW135471   0.418   2.407   3.369 -1.4045 -1.1917 -0.1144
 8003SOL    HW235472   0.282   2.414   3.420 -0.0792  0.0060 -0.5910
 8004SOL     OW35473   1.899   4.716   4.601  0.5847  0.4152 -0.4453
 8004SOL    HW135474   1.926   4.630   4.570 -1.1025 -0.0382 -0.6165
 8004SOL    HW235475   1.984   0.007   4.644  0.3592 -0.8921  0.4228
 8005SOL     OW35476   1.901   0.449   7.475 -0.1774 -0.5168 -0.4972
 8005SOL    HW135477   1.957   0.516   7.435 -0.8053  1.2910  1.6188
 8005SOL    HW235478   1.849   0.505   7.534  1.1484 -0.3824  0.5535
 8006SOL     OW35479   2.883   3.240   8.836 -0.2334  0.5280 -0.4359
 8006SOL    HW135480   2.857   3.163   8.786 -0.0712  0.6989 -0.7831
 8006SOL    HW235481   2.806   3.291   8.808 -2.2497 -2.0179  0.4284
 8007SOL     OW35482   3.634   4.079   2.373  0.2169  0.0257 -0.3064
 8007SOL    HW135483   3.574   4.017   2.414  1.2266 -1.2622 -0.8032
 8007SOL    HW235484   3.675   4.129   2.444 -0.2863 -0.2112  0.1485
 8008SOL     OW35485   2.332   3.357   0.203  0.4383 -0.3944  0.5405
 8008SOL    HW135486   2.264   3.334   0.140  1.6770  0.8024 -1.2660
 8008SOL    HW235487   2.275   3.411   0.258 -0.9538 -0.1446 -1.1498
 8009SOL     OW35488   2.396   2.360   1.260  0.2518 -0.4553  0.0770
 8009SOL    HW135489   2.458   2.415   1.212  0.1467  0.5052  1.0372
 8009SOL    HW235490   2.433   2.374   1.348 -1.8886 -0.8929  1.0535
 8010SOL     OW35491   1.785   0.083  11.574  0.0939  0.1289  0.1766
 8010SOL    HW135492   1.812   4.716  11.556  1.1461  0.9458 -2.3980
 8010SOL    HW235493   1.716   0.057  11.635  0.3313 -0.1660  0.3148
 8011SOL     OW35494   2.777   2.954   7.644  0.0705  0.6203 -0.0720
 8011SOL    HW135495   2.782   3.050   7.638 -1.7925  0.8430  2.3896
 8011SOL    HW235496   2.713   2.932   7.711  2.2531 -0.7107  1.5833
 8012SOL     OW35497   4.619   2.235  17.132 -0.3099  0.5760 -0.6408
 8012SOL    HW135498   4.579   2.243  17.045  1.5337 -1.9123 -1.7161
 8012SOL    HW235499   4.614   2.329  17.151 -1.4586  0.3139  0.3931
 8013SOL     OW35500   0.804   0.461  15.019 -0.0215 -0.0392  0.2245
 8013SOL    HW135501   0.893   0.436  14.994  0.1866 -0.8484  1.7971
 8013SOL    HW235502   0.749   0.385  15.000 -0.8795  0.5606  0.3092
 8014SOL     OW35503   1.916   0.288   9.169  0.9103  0.1889 -0.5934
 8014SOL    HW135504   1.978   0.353   9.136  1.4637  0.2503  0.5761
 8014SOL    HW235505   1.970   0.229   9.222 -1.6263 -1.0710  0.6015
 8015SOL     OW35506   3.103   3.576   5.045  0.9899 -0.0057 -0.7648
 8015SOL    HW135507   3.118   3.591   5.138  1.9934 -1.7587 -0.6366
 8015SOL    HW235508   3.040   3.504   5.045  3.6697 -2.3319 -0.1415
 8016SOL     OW35509   3.841   1.607  13.512 -0.0623  0.6301 -0.4203
 8016SOL    HW135510   3.894   1.530  13.533 -1.6306  0.1608  1.7520
 8016SOL    HW235511   3.848   1.620  13.417  1.7944 -1.1890 -0.5309
 8017SOL     OW35512   3.646   3.363   1.497  0.0913  0.7049 -0.1980
 8017SOL    HW135513   3.685   3.448   1.519 -0.0133  0.2538  1.7494
 8017SOL    HW235514   3.650   3.325   1.585 -0.5043  0.4206 -0.2943
 8018SOL     OW35515   2.326   2.927   7.403  0.0468  0.1601 -0.4696
 8018SOL    HW135516   2.371   2.880   7.334  0.8601  0.7933 -0.3807
 8018SOL    HW235517   2.298   3.000   7.347  1.7679  2.1695  1.2462
 8019SOL     OW35518   3.247   3.055  10.652  0.2356  0.4877 -0.2804
 8019SOL    HW135519   3.226   3.124  10.715  4.0400  0.7590  0.7025
 8019SOL    HW235520   3.273   2.995  10.721 -3.2763  0.7473  1.2646
 8020SOL     OW35521   0.829   2.174   5.840 -0.1400  0.1588  0.4308
 8020SOL    HW135522   0.921   2.155   5.823 -0.3357  0.8080 -1.4108
 8020SOL    HW235523   0.798   2.155   5.751 -1.4208 -0.0984  0.9330
 8021SOL     OW35524   0.282   4.498   3.761  0.1156  0.0168 -0.0397
 8021SOL    HW135525   0.348   4.432   3.741  0.0732  0.3771 -1.3645
 8021SOL    HW235526   0.307   4.579   3.718  1.1946 -1.3372 -1.9623
 8022SOL     OW35527   1.176   2.961   8.313 -0.2149  0.0593  0.1788
 8022SOL    HW135528   1.216   2.986   8.397  1.5423 -1.9045 -0.0668
 8022SOL    HW235529   1.087   2.994   8.327 -0.0768 -0.1155  1.4225
 8023SOL     OW35530   0.870   1.439   6.793 -0.7130 -0.9838  0.3312
 8023SOL    HW135531   0.786   1.484   6.809 -0.2001 -0.8275  2.5605
 8023SOL    HW235532   0.866   1.430   6.698  0.7734 -0.1698  0.1974
 8024SOL     OW35533   4.643   3.875  14.862 -0.1387 -0.0755  0.1883
 8024SOL    HW135534   4.614   3.791  14.827 -0.8161  0.1751  0.1431
 8024SOL    HW235535   4.715   3.897  14.802 -1.0814  0.6890 -0.6552
 8025SOL     OW35536   1.134   3.745   6.368 -0.0291  0.5421 -0.6434
 8025SOL    HW135537   1.208   3.692   6.399  0.7213  1.2191 -1.2781
 8025SOL    HW235538   1.140   3.817   6.431  1.1503 -0.5608  0.5259
 8026SOL     OW35539   4.001   2.703  10.541 -0.3955 -0.5236 -0.0111
 8026SOL    HW135540   4.057   2.771  10.579  0.9331 -1.6758  0.0820
 8026SOL    HW235541   3.969   2.664  10.622 -0.1111 -0.7105  0.0096
 8027SOL     OW35542   4.107   0.928   0.107  0.1588 -0.1234 -0.1231
 8027SOL    HW135543   4.147   0.850   0.146 -1.8054 -1.3157 -0.5024
 8027SOL    HW235544   4.037   0.889   0.055 -0.6447  0.1022  0.7893
 8028SOL     OW35545   1.583   1.405   8.307 -0.3873  0.2244  0.1573
 8028SOL    HW135546   1.549   1.367   8.226  1.6748 -0.3724 -0.4468
 8028SOL    HW235547   1.499   1.414   8.351 -0.5039  0.0249 -0.0216
 8029SOL     OW35548   4.349   0.867   7.574  0.1862  0.1131 -0.2861
 8029SOL    HW135549   4.416   0.907   7.517 -0.2033 -0.0881 -0.8867
 8029SOL    HW235550   4.289   0.941   7.569 -0.7640 -0.3986  3.5386
 8030SOL     OW35551   3.673   2.946   8.129  0.0148  0.3166  0.3129
 8030SOL    HW135552   3.624   2.885   8.183 -2.5682 -1.0479 -3.5336
 8030SOL    HW235553   3.599   3.005   8.115  0.3295 -0.2775 -3.7891
 8031SOL     OW35554   2.175   2.663   5.283 -0.5245  0.0440  0.3997
 8031SOL    HW135555   2.242   2.722   5.249 -0.0945 -0.6914 -0.0235
 8031SOL    HW235556   2.162   2.614   5.202 -0.3011 -0.7025  0.8178
 8032SOL     OW35557   3.969   0.810   5.119  0.2341 -0.0853  0.0342
 8032SOL    HW135558   3.954   0.748   5.190  1.7155  1.1170  1.3799
 8032SOL    HW235559   3.933   0.891   5.155  1.3740  0.0075  0.9596
 8033SOL     OW35560   3.555   1.561   6.997 -0.1970 -0.2609 -0.0066
 8033SOL    HW135561   3.604   1.480   6.985  1.8016  0.7404  1.4921
 8033SOL    HW235562   3.571   1.581   7.089 -0.7711 -0.6110  0.1755
 8034SOL     OW35563   3.953   3.723  11.642  0.0094 -0.1143 -0.2513
 8034SOL    HW135564   3.917   3.812  11.644 -1.3288 -0.6239 -1.3855
 8034SOL    HW235565   3.951   3.715  11.547  0.2907  1.8260 -0.4206
 8035SOL     OW35566   4.599   4.376   5.949  0.2668  0.1957  0.7459
 8035SOL    HW135567   4.600   4.451   6.008 -0.5317 -0.3551  1.4657
 8035SOL    HW235568   4.518   4.331   5.975  0.4201 -0.6633 -0.2607
 8036SOL     OW35569   2.734   3.513  15.366  0.0709  0.2825 -0.0693
 8036SOL    HW135570   2.828   3.492  15.363 -0.3580 -1.4008 -1.5008
 8036SOL    HW235571   2.750   3.607  15.358 -0.7470  0.3478 -0.8813
 8037SOL     OW35572   3.355   2.403   0.772  0.6217 -0.3499  0.0556
 8037SOL    HW135573   3.311   2.477   0.730 -1.3801 -1.9460 -0.6585
 8037SOL    HW235574   3.288   2.336   0.782 -0.0066  0.3284  0.4537
 8038SOL     OW35575   0.758   1.276   1.513 -0.1303  0.6122  0.1548
 8038SOL    HW135576   0.730   1.268   1.605 -3.9348 -0.1773 -1.0676
 8038SOL    HW235577   0.734   1.192   1.475  2.1535 -0.4061  0.9987
 8039SOL     OW35578   3.869   1.179   3.762 -0.0369  0.3012  0.4415
 8039SOL    HW135579   3.917   1.098   3.777 -0.3830 -0.1911 -1.1567
 8039SOL    HW235580   3.852   1.157   3.671  1.7850  1.3335 -0.1498
 8040SOL     OW35581   0.425   3.641  17.331 -0.3102  0.9638 -0.4277
 8040SOL    HW135582   0.373   3.563  17.309 -0.6192  0.8655  0.6587
 8040SOL    HW235583   0.380   3.709  17.281 -1.3832  0.9220  0.4808
 8041SOL     OW35584   2.484   4.102   0.507  0.2295 -0.2869 -0.2527
 8041SOL    HW135585   2.411   4.065   0.556  0.2820  2.0146  1.5904
 8041SOL    HW235586   2.435   4.153   0.442 -0.3262  1.5222  1.5730
 8042SOL     OW35587   2.857   1.643   2.991 -0.1086 -0.4381  0.4774
 8042SOL    HW135588   2.818   1.728   3.012 -1.4682 -0.5066 -1.8468
 8042SOL    HW235589   2.934   1.639   3.048  1.8169 -0.9273 -2.1738
 8043SOL     OW35590   1.561   3.366   4.402 -0.2871 -0.0987 -0.4685
 8043SOL    HW135591   1.538   3.295   4.341  0.9723 -0.8455 -0.0673
 8043SOL    HW235592   1.548   3.323   4.486 -1.2963  2.0021  0.4614
 8044SOL     OW35593   1.011   1.933   7.288  0.4894 -0.1400  0.1194
 8044SOL    HW135594   1.075   1.982   7.340  0.3072  0.7207 -0.4503
 8044SOL    HW235595   1.060   1.931   7.206  1.7705  2.4696  0.7962
 8045SOL     OW35596   0.632   3.119   4.805  0.2883  0.1968 -0.0460
 8045SOL    HW135597   0.594   3.202   4.830 -0.4947 -0.0939 -0.2697
 8045SOL    HW235598   0.625   3.078   4.891 -2.2210  0.2371 -0.2208
 8046SOL     OW35599   1.151   3.851   3.681  0.2473 -0.1025  0.1161
 8046SOL    HW135600   1.213   3.860   3.608  1.4147 -0.0504  1.1064
 8046SOL    HW235601   1.209   3.867   3.756  0.0783 -1.1521  0.4649
 8047SOL     OW35602   1.515   0.397  11.288  0.0417  0.1645 -0.0590
 8047SOL    HW135603   1.514   0.492  11.295  0.8595  0.0706  1.3237
 8047SOL    HW235604   1.423   0.369  11.294  0.4003 -0.8148  0.8093
 8048SOL     OW35605   1.233   2.486   4.642  0.1781 -0.2450 -0.3451
 8048SOL    HW135606   1.240   2.577   4.672 -0.9736 -0.4665  0.6047
 8048SOL    HW235607   1.285   2.483   4.562  0.6958  1.5520 -0.0904
 8049SOL     OW35608   3.230   3.456   7.996  0.2242  0.3506  0.0300
 8049SOL    HW135609   3.231   3.413   8.082 -0.9268  0.5145  0.1208
 8049SOL    HW235610   3.322   3.481   7.992  0.2391  0.3005  0.0496
 8050SOL     OW35611   4.688   1.482   1.879 -0.1715 -0.1983  0.2087
 8050SOL    HW135612   0.000   1.405   1.834  0.5582  0.1239  0.2196
 8050SOL    HW235613   4.600   1.449   1.897 -0.7599  1.2039 -0.1745
 8051SOL     OW35614   2.963   2.168   5.491  0.4480  0.1337  0.3438
 8051SOL    HW135615   3.016   2.207   5.560  1.8170 -1.6527  0.2843
 8051SOL    HW235616   2.892   2.231   5.508  1.4770  1.6440 -0.9789
 8052SOL     OW35617   2.353   2.047   7.712  0.2414  0.2738 -0.8698
 8052SOL    HW135618   2.312   2.061   7.798 -1.5145 -0.2329 -1.6327
 8052SOL    HW235619   2.441   2.081   7.728  0.3300 -0.0980 -0.5698
 8053SOL     OW35620   0.878   0.176  12.984  0.0359  0.3337 -0.9670
 8053SOL    HW135621   0.825   0.110  13.029  1.4323 -0.6344 -0.7432
 8053SOL    HW235622   0.874   0.241  13.054 -0.2123 -1.2319  0.5052
 8054SOL     OW35623   1.228   3.946   4.613  0.0298  0.2292 -0.1112
 8054SOL    HW135624   1.230   3.897   4.530  0.3305  3.5902 -2.1154
 8054SOL    HW235625   1.285   3.894   4.670 -0.2469  3.2889  2.9141
 8055SOL     OW35626   4.261   3.054   5.701  0.3292 -0.3639  0.8171
 8055SOL    HW135627   4.264   2.985   5.634  1.4998 -0.2351  0.7383
 8055SOL    HW235628   4.170   3.053   5.729 -0.4260  0.1476 -1.6035
 8056SOL     OW35629   3.036   3.945   7.812 -0.4738  0.0814  0.3021
 8056SOL    HW135630   2.982   3.937   7.733  0.0549 -0.1705 -0.0282
 8056SOL    HW235631   3.120   3.907   7.789 -1.1088  0.7939 -3.2570
 8057SOL     OW35632   1.100   4.267   8.788  0.6459 -0.7465 -0.5798
 8057SOL    HW135633   1.108   4.192   8.729 -2.6720 -0.7347 -1.0675
 8057SOL    HW235634   1.127   4.224   8.869  0.5883  1.4568  0.6144
 8058SOL     OW35635   2.492   3.297   7.222 -0.1940 -0.2450 -0.2325
 8058SOL    HW135636   2.460   3.350   7.295  3.0927  1.2027  0.1862
 8058SOL    HW235637   2.560   3.249   7.271 -0.7565 -0.3702  0.4244
 8059SOL     OW35638   1.329   4.631  15.179 -0.9913 -0.3393 -0.3781
 8059SOL    HW135639   1.392   4.603  15.245 -2.5582 -1.3079  0.7228
 8059SOL    HW235640   1.268   4.557  15.185 -2.4930  0.9614  0.3006
 8060SOL     OW35641   0.069   3.108   5.275 -0.4968 -0.0701 -0.3668
 8060SOL    HW135642   4.718   3.113   5.336  1.0739 -0.8807  1.5815
 8060SOL    HW235643   0.086   3.195   5.240  0.2369 -0.2098 -0.3410
 8061SOL     OW35644   2.758   4.448  10.294  0.1945 -0.4107 -0.1486
 8061SOL    HW135645   2.832   4.469  10.236  0.4371 -1.6151 -0.2859
 8061SOL    HW235646   2.784   4.359  10.316  1.6044 -0.4125 -1.7640
 8062SOL     OW35647   1.154   0.380   7.653 -0.1394  0.9108  0.4440
 8062SOL    HW135648   1.115   0.406   7.570  1.6396  0.9734 -0.3709
 8062SOL    HW235649   1.242   0.356   7.623 -1.4142 -0.6568 -2.0717
 8063SOL     OW35650   4.158   0.024   4.120  0.2513 -0.3090 -0.1070
 8063SOL    HW135651   4.233   0.043   4.176  1.1681 -2.2082 -0.7158
 8063SOL    HW235652   4.160   0.070   4.036 -2.6675  0.0117 -0.0018
 8064SOL     OW35653   3.364   1.470   3.138  0.0521  0.0077  0.6585
 8064SOL    HW135654   3.395   1.415   3.066 -0.8351 -2.1293  1.8814
 8064SOL    HW235655   3.342   1.550   3.091 -0.5583 -1.0893 -0.9137
 8065SOL     OW35656   2.852   4.446   7.961  0.6474  0.0294 -0.3588
 8065SOL    HW135657   2.769   4.451   8.010  2.0361 -0.0357  1.9944
 8065SOL    HW235658   2.845   4.361   7.917  1.2943 -0.2962  0.1822
 8066SOL     OW35659   0.753   2.007   7.193  0.3022  0.4662 -0.7097
 8066SOL    HW135660   0.828   1.979   7.246 -1.4490 -0.5951  1.2147
 8066SOL    HW235661   0.722   2.086   7.238  0.0087 -1.2741  2.1476
 8067SOL     OW35662   2.531   1.666   0.087 -0.2802  0.3329 -1.1569
 8067SOL    HW135663   2.528   1.582   0.041 -1.0043  0.8430 -2.0341
 8067SOL    HW235664   2.614   1.694   0.049  0.5447  2.9071  2.5375
 8068SOL     OW35665   0.826   0.490   0.775 -0.3355  0.0573  0.0754
 8068SOL    HW135666   0.788   0.419   0.724 -0.9424 -1.0647  2.1215
 8068SOL    HW235667   0.760   0.493   0.844  0.8882  1.1629  1.2144
 8069SOL     OW35668   4.611   2.347   0.616  0.3783 -0.2961  0.2918
 8069SOL    HW135669   4.647   2.366   0.702  0.0579 -0.3499  0.4355
 8069SOL    HW235670   4.592   2.438   0.593 -0.9010 -0.3043  1.3407
 8070SOL     OW35671   4.075   2.391   4.940  0.1204  0.6413 -0.5983
 8070SOL    HW135672   3.984   2.397   4.909 -0.3852  2.2891  1.2565
 8070SOL    HW235673   4.123   2.459   4.894  1.4088 -0.1068 -0.3522
 8071SOL     OW35674   1.392   2.690   8.923  0.0054 -0.4858  0.3940
 8071SOL    HW135675   1.458   2.689   8.854 -0.2790 -2.1010  0.1456
 8071SOL    HW235676   1.322   2.744   8.888  1.7697  0.5240 -1.5863
 8072SOL     OW35677   4.662   3.372   4.977 -0.1463 -1.3684 -0.2078
 8072SOL    HW135678   4.585   3.428   4.985  0.6105 -0.0668 -1.8888
 8072SOL    HW235679   4.637   3.313   4.906  0.4650 -0.3427 -1.2734
 8073SOL     OW35680   2.491   3.376   5.882 -0.6639  0.4017 -0.1830
 8073SOL    HW135681   2.448   3.301   5.841  0.9790 -1.2121  1.0645
 8073SOL    HW235682   2.441   3.453   5.853 -2.3062 -0.4289  0.4220
 8074SOL     OW35683   0.452   1.197   5.489  0.1226 -0.2893 -0.4735
 8074SOL    HW135684   0.530   1.252   5.493  0.1769 -0.3596 -0.5624
 8074SOL    HW235685   0.462   1.165   5.399 -0.0294  0.6490 -0.8268
 8075SOL     OW35686   3.750   2.147   9.398  0.7148  0.0507  0.2520
 8075SOL    HW135687   3.795   2.132   9.315 -0.0155  0.0507 -0.1395
 8075SOL    HW235688   3.709   2.230   9.378  0.0571 -0.5589 -0.9131
 8076SOL     OW35689   3.441   4.121  15.928 -0.0070  0.1950  0.2319
 8076SOL    HW135690   3.432   4.093  15.837  3.3860 -1.4169  0.3954
 8076SOL    HW235691   3.390   4.059  15.979 -0.1958 -0.5502 -0.8687
 8077SOL     OW35692   1.280   0.234  10.600  0.0329  0.7987  0.3743
 8077SOL    HW135693   1.208   0.265  10.545  0.9387  2.6506  0.2198
 8077SOL    HW235694   1.240   0.154  10.634  1.1737  0.6239  1.3214
 8078SOL     OW35695   2.327   0.165   2.503 -0.1988  0.2045 -0.3513
 8078SOL    HW135696   2.402   0.111   2.525 -1.2056 -0.9646  0.2028
 8078SOL    HW235697   2.261   0.098   2.523 -1.1253  0.6623 -1.8812
 8079SOL     OW35698   1.046   1.474   9.939 -0.4257 -0.0901  0.6530
 8079SOL    HW135699   1.128   1.425   9.928 -0.7831 -1.1490  2.6366
 8079SOL    HW235700   1.071   1.566   9.950 -1.3061  0.3237 -0.8313
 8080SOL     OW35701   3.948   4.613   9.322 -0.4495  0.2540 -0.0503
 8080SOL    HW135702   3.980   4.577   9.240  0.7207 -0.8839  0.9067
 8080SOL    HW235703   3.885   4.678   9.288 -0.4667 -0.9670 -2.3466
 8081SOL     OW35704   1.788   2.601   2.304  0.7453  0.4807 -0.3120
 8081SOL    HW135705   1.879   2.585   2.278  0.5890 -1.6334  0.4458
 8081SOL    HW235706   1.762   2.668   2.241 -0.3281  0.2542 -0.1088
 8082SOL     OW35707   1.290   1.172  14.989  0.5328  0.5988 -0.3978
 8082SOL    HW135708   1.341   1.096  15.017 -0.4839  0.2793  0.5832
 8082SOL    HW235709   1.237   1.196  15.065 -1.7351 -2.2695 -1.0744
 8083SOL     OW35710   2.938   2.592  13.782 -0.2755  0.0826  0.0390
 8083SOL    HW135711   2.963   2.549  13.700 -2.0220 -0.6818 -0.1013
 8083SOL    HW235712   3.021   2.616  13.823  0.6600 -1.4280 -0.9365
 8084SOL     OW35713   4.630   2.987   2.052 -0.3512 -0.3785 -0.9486
 8084SOL    HW135714   4.603   2.995   2.144  0.4371 -5.3156 -0.2586
 8084SOL    HW235715   4.667   2.899   2.060  0.2149  0.0606  1.3122
 8085SOL     OW35716   1.829   2.146   5.673  0.1954 -0.6253  0.3243
 8085SOL    HW135717   1.754   2.097   5.640  1.2647 -1.5239 -0.7375
 8085SOL    HW235718   1.860   2.102   5.751  1.0002 -1.0222 -0.2241
 8086SOL     OW35719   4.295   0.655   3.527  0.5531  0.4450 -0.0273
 8086SOL    HW135720   4.342   0.641   3.609 -0.0855 -0.6294  0.1539
 8086SOL    HW235721   4.331   0.740   3.499 -1.1494  1.7754  1.8631
 8087SOL     OW35722   0.795   2.230  11.374  0.3252  0.0260 -0.3922
 8087SOL    HW135723   0.710   2.189  11.358 -0.1540  1.3400 -1.2453
 8087SOL    HW235724   0.791   2.303  11.311  0.8595  0.4514  0.0760
 8088SOL     OW35725   3.706   1.133   2.748 -0.1574 -0.1468 -0.5717
 8088SOL    HW135726   3.611   1.142   2.752 -0.2749 -1.8179  0.0455
 8088SOL    HW235727   3.732   1.062   2.807 -1.2259 -0.6680 -0.7344
 8089SOL     OW35728   1.507   0.034  11.384  0.0641  0.6608  0.4313
 8089SOL    HW135729   1.493   0.006  11.475 -4.5427  0.1567 -0.4305
 8089SOL    HW235730   1.602   0.031  11.381  0.0761  1.0708  0.4699
 8090SOL     OW35731   1.944   1.173  11.065  0.3934  0.1738  0.0376
 8090SOL    HW135732   2.040   1.176  11.063  0.3480  1.9935  0.1732
 8090SOL    HW235733   1.919   1.092  11.022 -0.2668 -0.1394  1.0233
 8091SOL     OW35734   1.771   1.876   1.497  0.4506 -0.0724  0.3509
 8091SOL    HW135735   1.832   1.947   1.477  0.4445 -0.7495 -2.0883
 8091SOL    HW235736   1.687   1.919   1.478 -0.2055 -1.8349 -0.8355
 8092SOL     OW35737   0.450   3.800   8.782  0.6505 -0.2488 -0.2181
 8092SOL    HW135738   0.435   3.796   8.877 -0.5494  0.3727 -0.3882
 8092SOL    HW235739   0.444   3.893   8.762  0.4095  0.5903  3.7850
 8093SOL     OW35740   4.245   4.674  16.863  0.5355  0.2151 -0.1178
 8093SOL    HW135741   4.252   0.044  16.842  0.8101  0.1023 -0.5232
 8093SOL    HW235742   4.216   4.632  16.782 -2.2043 -0.6587  1.3164
 8094SOL     OW35743   3.914   1.702   2.400 -0.1354 -1.0546  0.2214
 8094SOL    HW135744   3.922   1.672   2.309 -0.7550  3.1427 -1.2374
 8094SOL    HW235745   3.822   1.689   2.424 -0.5809  0.7531 -0.5140
 8095SOL     OW35746   0.201   4.057  11.593 -0.1418 -0.0175 -0.0037
 8095SOL    HW135747   0.132   4.026  11.534  0.4268 -1.9489  0.3191
 8095SOL    HW235748   0.270   4.025  11.535 -0.4862 -2.6908  1.0237
 8096SOL     OW35749   1.596   2.060   3.713  0.0805 -0.2636  0.0272
 8096SOL    HW135750   1.652   2.083   3.787 -1.4734 -1.0089  1.4562
 8096SOL    HW235751   1.615   2.142   3.669 -2.4337 -1.1416 -2.7255
 8097SOL     OW35752   4.065   0.190   2.926  0.5329 -0.4772  0.5962
 8097SOL    HW135753   3.976   0.197   2.893  1.0204  0.3227 -0.5325
 8097SOL    HW235754   4.128   0.207   2.856  0.7020 -0.0940  0.8445
 8098SOL     OW35755   4.324   3.034   2.718 -0.1643  0.1109 -0.1465
 8098SOL    HW135756   4.409   3.017   2.678  0.7491 -0.5843  2.0861
 8098SOL    HW235757   4.314   2.952   2.766  0.8330  1.6101  2.6443
 8099SOL     OW35758   4.326   2.257   4.309 -0.1386  0.2740  0.0034
 8099SOL    HW135759   4.413   2.263   4.269  0.6100 -1.5053  1.3668
 8099SOL    HW235760   4.338   2.166   4.334  0.6181 -0.2486 -2.2070
 8100SOL     OW35761   4.138   0.770  16.551 -1.0755  0.6956  0.0614
 8100SOL    HW135762   4.159   0.776  16.645 -4.2263 -0.3849  0.8265
 8100SOL    HW235763   4.214   0.723  16.517 -1.2362  0.4303  0.0692
 8101SOL     OW35764   0.056   0.348   6.945  0.0223 -0.2780 -0.2076
 8101SOL    HW135765   0.061   0.347   6.849 -0.7319 -2.7216 -0.2047
 8101SOL    HW235766   0.084   0.258   6.957  1.1013  0.0757 -0.0263
 8102SOL     OW35767   1.716   1.911   5.941 -0.3190  0.6414  0.1712
 8102SOL    HW135768   1.735   1.859   6.019 -0.4299  1.1590  0.5422
 8102SOL    HW235769   1.710   1.839   5.878  1.9299 -0.2998  1.0318
 8103SOL     OW35770   1.158   0.158   0.830 -0.0963 -0.1605 -0.3940
 8103SOL    HW135771   1.232   0.144   0.771  0.5331  0.1179  0.3291
 8103SOL    HW235772   1.091   0.109   0.782  0.4980 -0.1440 -1.2417
 8104SOL     OW35773   2.421   1.418  13.404  0.2035  0.1870  0.4299
 8104SOL    HW135774   2.408   1.513  13.397  1.2703  0.2645 -0.6271
 8104SOL    HW235775   2.360   1.388  13.337  0.3171 -0.4503  0.6154
 8105SOL     OW35776   3.100   3.101   7.042 -0.1136 -0.0731 -0.2813
 8105SOL    HW135777   3.163   3.107   7.114 -0.8853 -0.7381  0.4370
 8105SOL    HW235778   3.085   3.006   7.044  2.0962 -0.4348 -0.5890
 8106SOL     OW35779   1.871   4.692   3.846 -0.0328  0.0113 -0.4402
 8106SOL    HW135780   1.921   0.012   3.915 -2.3600 -0.8407  1.7835
 8106SOL    HW235781   1.930   4.669   3.775 -0.2542 -0.4306 -0.4850
 8107SOL     OW35782   1.306   3.561   3.464 -0.3115 -0.2652 -0.0182
 8107SOL    HW135783   1.368   3.604   3.404  1.4731  1.1543  2.8551
 8107SOL    HW235784   1.357   3.490   3.504  0.7828  0.9943  0.8056
 8108SOL     OW35785   2.951   0.826  11.428  0.2663 -0.0849 -0.3037
 8108SOL    HW135786   2.970   0.919  11.420 -0.8982  0.2886  1.2180
 8108SOL    HW235787   3.012   0.792  11.363  1.2485 -0.9499  1.0559
 8109SOL     OW35788   3.888   3.648   6.412 -0.4165 -0.5616 -0.1670
 8109SOL    HW135789   3.857   3.568   6.455 -1.1594 -0.2266 -0.0707
 8109SOL    HW235790   3.981   3.644   6.433 -0.2094  0.8991 -0.7621
 8110SOL     OW35791   1.220   1.976  15.811 -0.3799 -0.0230  0.2465
 8110SOL    HW135792   1.178   2.000  15.728 -0.3388  0.6240  0.4150
 8110SOL    HW235793   1.303   2.023  15.810 -1.0243  1.1104 -1.0585
 8111SOL     OW35794   4.360   3.108   6.001 -0.6244 -0.0571  0.4961
 8111SOL    HW135795   4.453   3.096   5.979 -0.0128  3.2470  1.3161
 8111SOL    HW235796   4.323   3.074   5.920 -0.3133  0.9355 -0.0577
 8112SOL     OW35797   4.214   3.520  13.128 -0.2844  0.1779 -0.6486
 8112SOL    HW135798   4.220   3.471  13.046 -4.1329  0.0327 -0.8418
 8112SOL    HW235799   4.131   3.567  13.119  0.8859  2.0557 -1.6331
 8113SOL     OW35800   0.012   4.476  13.040 -0.1513 -0.4066  0.4721
 8113SOL    HW135801   0.045   4.530  13.112  3.7475 -0.2173 -1.4887
 8113SOL    HW235802   4.721   4.391  13.083 -2.4280  0.0237  0.5626
 8114SOL     OW35803   3.599   0.412  17.127 -0.2470  0.1233  0.3524
 8114SOL    HW135804   3.689   0.423  17.099 -0.0039 -0.8913  0.7269
 8114SOL    HW235805   3.595   0.319  17.101 -0.9634  0.0785  0.6080
 8115SOL     OW35806   4.181   1.146   5.916  0.0287 -0.7200 -0.0699
 8115SOL    HW135807   4.248   1.090   5.955 -0.0598 -0.6235  0.2200
 8115SOL    HW235808   4.108   1.084   5.913 -1.5075  1.0150  0.9908
 8116SOL     OW35809   3.713   0.801   0.246  0.6060  0.3174 -0.4345
 8116SOL    HW135810   3.729   0.891   0.274  3.0649 -0.0105 -0.8522
 8116SOL    HW235811   3.801   0.765   0.238 -0.1564 -1.5252 -0.7849
 8117SOL     OW35812   3.401   1.794   3.663 -0.0614  0.1944 -0.2723
 8117SOL    HW135813   3.346   1.818   3.589  0.2625 -0.3590 -0.6874
 8117SOL    HW235814   3.342   1.743   3.719 -1.1520 -0.7042 -2.2308
 8118SOL     OW35815   3.295   0.215   3.267  0.1863  0.1734  0.0404
 8118SOL    HW135816   3.312   0.272   3.341 -0.0498  1.5784 -0.9953
 8118SOL    HW235817   3.322   0.132   3.306 -2.0529 -0.9387 -0.7284
 8119SOL     OW35818   3.993   4.237   8.184 -0.7289  0.2232 -0.3476
 8119SOL    HW135819   4.084   4.268   8.181 -0.5023 -0.4820 -0.6622
 8119SOL    HW235820   3.976   4.238   8.278  1.5360 -0.0871  0.0715
 8120SOL     OW35821   2.065   3.636   1.231  0.3972 -0.3539 -0.1363
 8120SOL    HW135822   2.029   3.549   1.248 -0.9961  0.3813  0.7130
 8120SOL    HW235823   2.029   3.680   1.308 -1.9641 -1.0566 -0.8412
 8121SOL     OW35824   1.044   2.718  14.368  0.2318 -0.0209 -0.2357
 8121SOL    HW135825   0.997   2.654  14.421  0.7338 -1.1700 -1.1717
 8121SOL    HW235826   1.029   2.786  14.434  1.3617 -0.4114  0.4131
 8122SOL     OW35827   0.404   2.408  15.487 -0.3758  0.2114 -0.9476
 8122SOL    HW135828   0.322   2.434  15.444 -1.9440 -1.6212  0.9599
 8122SOL    HW235829   0.391   2.415  15.581  0.0426  0.9102 -0.9431
 8123SOL     OW35830   4.528   1.312  15.355 -0.0442  0.5072  0.1373
 8123SOL    HW135831   4.586   1.337  15.283 -0.8059  0.6885 -0.4148
 8123SOL    HW235832   4.441   1.331  15.320 -0.7215  0.5568  1.8347
 8124SOL     OW35833   3.474   2.456   8.067 -0.0781 -0.4718  0.1193
 8124SOL    HW135834   3.508   2.424   8.151  2.4264 -1.8100 -1.3948
 8124SOL    HW235835   3.553   2.467   8.014 -1.5409  0.0974 -1.9345
 8125SOL     OW35836   2.936   0.144   3.400 -0.1740  0.3187  0.4955
 8125SOL    HW135837   2.910   0.222   3.350  0.0484  0.3505  0.4307
 8125SOL    HW235838   2.962   0.077   3.337  1.7583 -0.1748  1.8205
 8126SOL     OW35839   3.132   2.280   6.946 -0.0022 -0.3502 -0.1570
 8126SOL    HW135840   3.148   2.368   6.982 -1.6806  0.5708 -1.6389
 8126SOL    HW235841   3.048   2.305   6.907  0.2286  0.3198 -0.2339
 8127SOL     OW35842   1.969   4.433  13.868  0.4990 -0.5999  0.2638
 8127SOL    HW135843   2.028   4.508  13.862  0.0394 -0.2848 -0.2934
 8127SOL    HW235844   1.890   4.463  13.823  2.2055  2.3537 -0.7385
 8128SOL     OW35845   4.553   3.864   1.243  0.2211 -0.1802 -0.4127
 8128SOL    HW135846   4.461   3.855   1.218  0.1521  4.2129 -1.6659
 8128SOL    HW235847   4.574   3.957   1.252 -0.0018 -0.3447  1.6566
 8129SOL     OW35848   4.396   1.808   2.262 -0.3392  0.9836  0.2771
 8129SOL    HW135849   4.375   1.718   2.285  0.8771  0.5626 -0.2284
 8129SOL    HW235850   4.460   1.791   2.193  0.2929  2.1577  0.5652
 8130SOL     OW35851   3.100   1.745   2.772 -0.2770 -0.0638  0.3769
 8130SOL    HW135852   3.110   1.789   2.856  0.7270  1.1062 -0.3517
 8130SOL    HW235853   3.075   1.817   2.714  1.9431 -0.9791 -1.7144
 8131SOL     OW35854   2.211   0.040   0.438  0.3695  0.4274  0.8595
 8131SOL    HW135855   2.132   4.718   0.468  0.3246 -1.2859 -1.8402
 8131SOL    HW235856   2.274   4.705   0.479  0.6841 -0.7283 -1.2329
 8132SOL     OW35857   3.028   3.792  11.091 -0.4729  0.2070 -0.3964
 8132SOL    HW135858   2.949   3.813  11.140 -1.1891 -1.0909 -0.9876
 8132SOL    HW235859   2.980   3.755  11.016  0.7072 -0.3700 -0.8789
 8133SOL     OW35860   2.736   0.945   7.778 -0.3335 -0.3272  0.5811
 8133SOL    HW135861   2.772   0.940   7.867  3.5787 -0.7149 -1.0236
 8133SOL    HW235862   2.769   1.029   7.746  2.4764 -1.5529  0.2112
 8134SOL     OW35863   0.135   4.026  12.300  0.0531 -0.5038  0.2183
 8134SOL    HW135864   0.065   4.055  12.360 -1.5922  0.6629 -2.2758
 8134SOL    HW235865   0.089   3.972  12.236  0.5927  0.9450 -1.3823
 8135SOL     OW35866   3.751   3.379   4.317 -0.2296  0.1016  0.2341
 8135SOL    HW135867   3.765   3.350   4.407  1.0357  0.0045  0.0084
 8135SOL    HW235868   3.802   3.306   4.282 -0.3654 -1.3774  3.0992
 8136SOL     OW35869   2.662   1.498  14.651 -0.0219  0.2286  0.2194
 8136SOL    HW135870   2.584   1.449  14.678  0.3856  0.3770  1.6919
 8136SOL    HW235871   2.616   1.541  14.580  2.5178  1.3635 -0.7321
 8137SOL     OW35872   1.442   1.679  10.392 -0.4555 -0.2786  0.7577
 8137SOL    HW135873   1.408   1.653  10.307 -1.5114  1.3853  0.6624
 8137SOL    HW235874   1.532   1.709  10.376 -0.5788 -0.8616 -1.0225
 8138SOL     OW35875   4.194   1.101   0.295 -0.3316 -0.1043 -0.2671
 8138SOL    HW135876   4.141   1.051   0.233 -2.0685  0.5109  0.7218
 8138SOL    HW235877   4.149   1.092   0.379 -0.5310 -0.9320 -0.4633
 8139SOL     OW35878   3.489   1.906   8.965 -0.5653 -0.7710 -0.4989
 8139SOL    HW135879   3.578   1.874   8.949  0.8703  2.0866  1.8081
 8139SOL    HW235880   3.499   1.956   9.046  0.9461 -0.2339 -1.0003
 8140SOL     OW35881   4.698   3.646   2.088  0.3200 -0.4935  0.4935
 8140SOL    HW135882   4.666   3.565   2.129 -1.8506 -0.7560 -1.6968
 8140SOL    HW235883   4.699   3.702   2.166  0.9933 -1.0025  0.8556
 8141SOL     OW35884   0.457   4.473   7.778 -0.4034  0.7917  0.0055
 8141SOL    HW135885   0.451   4.449   7.870 -3.4744  0.5048 -0.2685
 8141SOL    HW235886   0.549   4.501   7.768 -0.0902  0.3768  1.7104
 8142SOL     OW35887   2.793   1.202   9.846  0.2446  0.1719 -0.0184
 8142SOL    HW135888   2.786   1.132   9.911 -1.5763  1.9876  1.7550
 8142SOL    HW235889   2.709   1.214   9.803  1.2117  1.2278 -1.5925
 8143SOL     OW35890   1.330   0.299  10.946 -0.1214  0.1341  0.0287
 8143SOL    HW135891   1.383   0.231  10.988  0.6330  1.8068  1.7645
 8143SOL    HW235892   1.249   0.304  10.997 -1.0933  2.2559 -1.7315
 8144SOL     OW35893   0.152   0.793   9.958 -0.1982  0.2499  0.0695
 8144SOL    HW135894   0.180   0.769  10.046  1.6183 -3.7314 -1.5768
 8144SOL    HW235895   0.099   0.717   9.934  2.8480 -2.0533  0.6408
 8145SOL     OW35896   1.744   3.986  14.840  0.1567 -0.3338 -0.6831
 8145SOL    HW135897   1.773   3.991  14.749 -0.8766 -1.6899 -1.0825
 8145SOL    HW235898   1.728   4.079  14.857  1.6471 -0.0636 -0.7698
 8146SOL     OW35899   1.711   3.811   4.858 -0.0645  0.1417 -0.0509
 8146SOL    HW135900   1.659   3.879   4.816  1.8614  0.7486 -1.4511
 8146SOL    HW235901   1.695   3.825   4.952  1.7195 -0.3050  0.3228
 8147SOL     OW35902   4.531   3.424   8.685 -0.2255  0.0703  0.3992
 8147SOL    HW135903   4.540   3.431   8.780  1.8159 -3.0129  0.4201
 8147SOL    HW235904   4.497   3.335   8.672 -0.4798  0.0937  0.9335
 8148SOL     OW35905   1.274   3.274   8.820 -0.4801  0.2007 -0.0433
 8148SOL    HW135906   1.356   3.300   8.778  0.3981 -2.0528  0.2288
 8148SOL    HW235907   1.290   3.184   8.850  0.4989  0.8313  1.3093
 8149SOL     OW35908   2.304   2.693   2.698  0.6481  0.3560  0.1936
 8149SOL    HW135909   2.291   2.613   2.750  0.2734  0.5470  0.3947
 8149SOL    HW235910   2.272   2.662   2.614  1.9939  0.3514 -0.3079
 8150SOL     OW35911   1.729   2.071   3.953 -0.0800  0.0689 -0.3160
 8150SOL    HW135912   1.656   2.091   4.011 -0.4708  1.6496 -1.3561
 8150SOL    HW235913   1.760   1.986   3.985 -0.5458  0.0526  0.0917
 8151SOL     OW35914   1.446   0.827   7.965  0.0370  0.0737 -0.1159
 8151SOL    HW135915   1.526   0.868   7.934  1.4569 -2.4299  0.2365
 8151SOL    HW235916   1.449   0.841   8.060  0.6009  0.5668 -0.2055
 8152SOL     OW35917   4.438   2.172   7.509  0.1685  0.6360  0.3174
 8152SOL    HW135918   4.417   2.219   7.590  0.8003 -0.8340  1.3195
 8152SOL    HW235919   4.522   2.137   7.538 -0.7020 -1.5835  0.0868
 8153SOL     OW35920   4.265   2.251   3.127  0.4225  0.2700 -0.3698
 8153SOL    HW135921   4.282   2.205   3.209 -0.0856 -0.5977 -0.7579
 8153SOL    HW235922   4.352   2.285   3.109  0.6055 -0.3046 -0.5734
 8154SOL     OW35923   1.564   1.663   1.152 -0.5519  0.1385 -0.7213
 8154SOL    HW135924   1.494   1.656   1.218 -0.2574  0.7378 -0.3401
 8154SOL    HW235925   1.527   1.743   1.113  2.9365  1.6761 -0.8865
 8155SOL     OW35926   3.361   4.389   3.661 -0.1194 -0.5257  0.1711
 8155SOL    HW135927   3.284   4.381   3.605  1.5861 -0.6157 -2.1634
 8155SOL    HW235928   3.341   4.327   3.731 -3.2046  0.9162  0.5510
 8156SOL     OW35929   3.292   2.037  11.167  0.1583 -0.1746 -0.1516
 8156SOL    HW135930   3.366   2.003  11.117 -0.1426  0.9582 -1.3762
 8156SOL    HW235931   3.227   2.064  11.101  0.0636 -1.2324 -0.4962
 8157SOL     OW35932   2.908   1.686   1.500  0.0514  0.3147 -0.3203
 8157SOL    HW135933   2.961   1.607   1.504  0.0918  0.4348  1.1937
 8157SOL    HW235934   2.821   1.664   1.535  1.1170 -1.3529  1.2721
 8158SOL     OW35935   2.265   1.379   6.910 -0.4437  0.1452  0.3700
 8158SOL    HW135936   2.356   1.363   6.887  0.0253  0.7327  1.8272
 8158SOL    HW235937   2.251   1.464   6.867  0.3289  0.1844  0.2055
 8159SOL     OW35938   3.184   4.242  10.309  0.3325  0.3774 -0.1354
 8159SOL    HW135939   3.205   4.183  10.237 -0.5243  1.3469 -1.1763
 8159SOL    HW235940   3.247   4.209  10.374  0.6051 -0.1217 -0.6480
 8160SOL     OW35941   2.364   3.337   8.269 -0.2554 -0.0791  0.2026
 8160SOL    HW135942   2.338   3.314   8.180  0.1194 -1.9419  0.5822
 8160SOL    HW235943   2.456   3.308   8.269  0.4577  2.1456  1.7177
 8161SOL     OW35944   0.976   3.565  15.865 -0.5356  0.1140  0.2302
 8161SOL    HW135945   0.907   3.564  15.799  1.6197  1.1374 -2.0310
 8161SOL    HW235946   1.055   3.596  15.822 -0.6248 -0.3234 -0.2492
 8162SOL     OW35947   0.691   3.175   8.539 -0.4869  0.0472 -0.4005
 8162SOL    HW135948   0.689   3.263   8.500  1.0920  0.8874  1.4520
 8162SOL    HW235949   0.603   3.139   8.532  0.2085 -1.8387  0.7026
 8163SOL     OW35950   0.189   4.032   8.670  0.3231  0.2227  0.0739
 8163SOL    HW135951   0.149   3.997   8.750  1.2429 -0.2679  0.3150
 8163SOL    HW235952   0.274   4.068   8.693  0.9956 -1.0322 -0.4483
 8164SOL     OW35953   1.342   0.851   7.054 -0.1723 -0.2275 -0.0529
 8164SOL    HW135954   1.358   0.912   7.127 -0.5653 -1.2596  0.9084
 8164SOL    HW235955   1.325   0.912   6.983 -2.0234  0.5520  1.0408
 8165SOL     OW35956   0.748   0.981   5.688  0.2171 -0.2139  0.7022
 8165SOL    HW135957   0.804   1.059   5.685  0.6458 -0.5423  0.0404
 8165SOL    HW235958   0.666   1.008   5.728 -0.1844 -0.2579 -0.0958
 8166SOL     OW35959   3.012   3.784  13.762 -0.1665  0.7176 -1.1135
 8166SOL    HW135960   3.013   3.864  13.815 -0.3237 -1.1824  1.7714
 8166SOL    HW235961   3.059   3.735  13.829 -2.0138  0.3409 -0.0922
 8167SOL     OW35962   3.292   3.578   6.135 -0.1247 -0.1307  0.3626
 8167SOL    HW135963   3.301   3.628   6.053 -3.0914  0.4166  0.3482
 8167SOL    HW235964   3.358   3.510   6.124  0.4092  0.7451 -1.8670
 8168SOL     OW35965   3.477   4.385   3.007 -0.1447 -0.1884 -0.6260
 8168SOL    HW135966   3.444   4.442   3.076 -1.4745 -1.1814 -0.4537
 8168SOL    HW235967   3.476   4.439   2.928 -0.2847 -0.7702 -1.0248
 8169SOL     OW35968   0.857   0.454   0.083  0.7892 -0.2296 -0.6010
 8169SOL    HW135969   0.885   0.369   0.048  0.7584 -0.2889 -0.4812
 8169SOL    HW235970   0.860   0.433   0.177  0.1688 -2.2132 -1.0219
 8170SOL     OW35971   1.890   2.249  16.004 -0.1302 -0.2197 -0.2975
 8170SOL    HW135972   1.830   2.225  16.075  0.5663  0.8946  0.6577
 8170SOL    HW235973   1.971   2.200  16.017 -0.6231 -1.5382 -2.2216
 8171SOL     OW35974   4.437   3.952  14.647  0.0878 -0.4953 -0.1787
 8171SOL    HW135975   4.461   3.861  14.631  1.3555 -0.1169 -0.3723
 8171SOL    HW235976   4.524   3.991  14.652  1.3563 -3.4210  0.3314
 8172SOL     OW35977   4.460   1.191   8.394  0.5685 -0.1404  0.3383
 8172SOL    HW135978   4.427   1.107   8.362  0.3456  0.5457 -1.2038
 8172SOL    HW235979   4.459   1.181   8.489  1.2929  0.2839  0.3845
 8173SOL     OW35980   2.763   2.773   6.984  0.2199  0.1242  0.1611
 8173SOL    HW135981   2.758   2.688   6.940 -0.3823  0.1226  0.2358
 8173SOL    HW235982   2.842   2.752   7.035  0.5479  1.2367  0.1283
 8174SOL     OW35983   2.684   1.089   4.493  0.3896  0.7901  0.3326
 8174SOL    HW135984   2.649   1.082   4.582  0.8217 -0.9735  0.3683
 8174SOL    HW235985   2.676   0.999   4.459 -0.7978  0.7391  0.7668
 8175SOL     OW35986   4.695   1.928  17.419 -0.1734 -0.4140 -0.2398
 8175SOL    HW135987   0.030   1.855  17.398 -0.0244 -0.3444 -0.0711
 8175SOL    HW235988   4.631   1.894  17.481  1.1005 -0.2760  1.1718
 8176SOL     OW35989   4.272   2.131   2.086 -0.4915 -0.1600  0.1517
 8176SOL    HW135990   4.252   2.221   2.114 -0.6844  0.0120 -0.5279
 8176SOL    HW235991   4.259   2.076   2.163 -1.7721  2.0430  1.5246
 8177SOL     OW35992   4.035   3.969  16.965 -0.3327 -0.1268 -0.5883
 8177SOL    HW135993   3.996   3.983  16.878  0.4295  1.5488 -0.6627
 8177SOL    HW235994   4.047   4.059  16.997 -0.7041  0.0514 -0.9394
 8178SOL     OW35995   0.921   4.610   5.871 -0.1938 -0.3094 -0.0118
 8178SOL    HW135996   0.829   4.624   5.894 -0.4309 -0.8339 -0.6428
 8178SOL    HW235997   0.961   4.625   5.956  0.8261 -1.2682 -0.3199
 8179SOL     OW35998   3.238   2.612   0.600  0.0951  0.2409 -0.1482
 8179SOL    HW135999   3.228   2.679   0.532  0.6540  0.0862 -0.3870
 8179SOL    HW236000   3.147   2.584   0.595  0.2876 -0.4437  0.2534
 8180SOL     OW36001   2.474   4.148   8.968  0.1074 -0.4841 -0.5068
 8180SOL    HW136002   2.466   4.230   8.919  2.1444 -0.0840 -0.1338
 8180SOL    HW236003   2.486   4.091   8.892  0.1069  2.5495 -2.7769
 8181SOL     OW36004   0.256   3.614   3.437  0.4207 -0.5881 -0.0941
 8181SOL    HW136005   0.324   3.548   3.449  0.2279 -0.7555  0.0901
 8181SOL    HW236006   0.298   3.678   3.381 -2.1864  1.3536  0.1429
 8182SOL     OW36007   0.487   2.165   6.487  0.1980  0.8469  0.0930
 8182SOL    HW136008   0.516   2.084   6.446  0.7635  0.9965  0.1998
 8182SOL    HW236009   0.543   2.219   6.432 -1.7589  0.1763 -2.5744
 8183SOL     OW36010   4.709   0.228   2.865  0.3765 -0.0984  0.3474
 8183SOL    HW136011   0.045   0.152   2.864 -1.1165 -1.2398 -1.8316
 8183SOL    HW236012   4.676   0.230   2.955  0.9436  2.0417  0.5103
 8184SOL     OW36013   2.832   4.040   6.602 -0.2825 -0.4354 -0.2700
 8184SOL    HW136014   2.788   4.038   6.686 -2.7834  1.1153 -1.5449
 8184SOL    HW236015   2.850   3.946   6.601 -0.6523 -0.5065 -0.0132
 8185SOL     OW36016   2.488   1.201   8.874  0.4147  0.3307 -0.1983
 8185SOL    HW136017   2.515   1.292   8.865 -0.2392  0.4316 -1.1916
 8185SOL    HW236018   2.431   1.207   8.951  2.0401  0.7154  0.9591
 8186SOL     OW36019   4.282   1.442   2.663  0.4457  0.3872  0.0655
 8186SOL    HW136020   4.188   1.427   2.677  0.8206 -2.6827 -0.9162
 8186SOL    HW236021   4.310   1.381   2.596 -2.6542  1.3660 -2.1121
 8187SOL     OW36022   4.001   3.070   7.482 -0.8255  0.2693 -0.5067
 8187SOL    HW136023   3.977   3.099   7.570  0.9343  1.0318 -0.2685
 8187SOL    HW236024   3.951   2.989   7.468 -0.4955  0.1886 -1.1983
 8188SOL     OW36025   2.907   0.766   7.984 -0.0429 -0.3488 -0.1188
 8188SOL    HW136026   2.821   0.729   7.965 -0.2568  0.8825 -1.5370
 8188SOL    HW236027   2.947   0.698   8.039  1.1047  1.2796  1.0517
 8189SOL     OW36028   1.979   0.262   6.851  0.4056 -0.1970 -0.0806
 8189SOL    HW136029   1.937   0.323   6.912  0.5114 -1.6166  1.4185
 8189SOL    HW236030   1.903   0.249   6.794 -1.1877  0.7221  1.8264
 8190SOL     OW36031   1.783   1.962   3.499 -0.3738  0.2262  0.0567
 8190SOL    HW136032   1.742   2.045   3.527 -2.7908 -1.1897  0.7054
 8190SOL    HW236033   1.722   1.942   3.428  0.7114 -1.9950 -0.2156
 8191SOL     OW36034   4.539   4.532   3.340 -0.4060 -0.2147  0.3249
 8191SOL    HW136035   4.475   4.481   3.391 -1.2331  1.8061  1.2826
 8191SOL    HW236036   4.507   4.511   3.252  0.8558 -0.1617 -0.1508
 8192SOL     OW36037   4.366   2.241  13.274 -0.0229  0.2078 -0.1567
 8192SOL    HW136038   4.429   2.250  13.203  1.3547  5.4337  1.7608
 8192SOL    HW236039   4.353   2.148  13.295  0.0243  0.0974 -0.6148
 8193SOL     OW36040   3.951   4.046   4.739  0.0806  0.2819 -0.4449
 8193SOL    HW136041   3.995   4.055   4.655  1.0771  1.3634  0.1937
 8193SOL    HW236042   3.941   4.138   4.762  0.6522  0.9110 -2.7286
 8194SOL     OW36043   0.454   2.022   2.621 -0.2026  0.7229  0.6054
 8194SOL    HW136044   0.376   1.971   2.643  0.8554 -1.2189 -0.1881
 8194SOL    HW236045   0.516   1.984   2.683 -0.9590  1.3930  1.7766
 8195SOL     OW36046   1.242   2.803   6.074  0.1390  0.0620  0.1042
 8195SOL    HW136047   1.314   2.865   6.078 -1.4603  2.0946 -2.9394
 8195SOL    HW236048   1.168   2.863   6.084  1.2188  1.2659  0.9116
 8196SOL     OW36049   0.696   3.697   3.890  0.8250  0.0113  0.1617
 8196SOL    HW136050   0.690   3.751   3.811 -1.4536  0.5577  0.7114
 8196SOL    HW236051   0.632   3.630   3.868  0.7560  0.3485 -0.6815
 8197SOL     OW36052   2.224   4.049   8.062 -0.2036 -0.2656  0.1962
 8197SOL    HW136053   2.255   4.122   8.007  0.6099 -0.5583  0.2613
 8197SOL    HW236054   2.299   3.997   8.091 -0.3677 -1.2654 -1.2184
 8198SOL     OW36055   0.024   3.319   8.010 -0.2965  0.1258  0.3422
 8198SOL    HW136056   4.700   3.242   8.041  4.7797 -1.6667  3.4985
 8198SOL    HW236057   4.681   3.382   8.041 -1.3073 -0.0980 -1.3759
 8199SOL     OW36058   0.985   4.652   0.704  0.0581  0.1858 -0.5408
 8199SOL    HW136059   1.078   4.638   0.720 -0.4525 -1.7862  0.6687
 8199SOL    HW236060   0.975   4.571   0.654 -0.0133  0.8493 -1.6037
 8200SOL     OW36061   0.151   0.453   3.296 -0.7341  0.3806 -0.7926
 8200SOL    HW136062   0.179   0.404   3.218  1.4357 -0.1049  0.2985
 8200SOL    HW236063   0.236   0.466   3.336 -1.2647  2.4171 -0.3530
 8201SOL     OW36064   4.524   1.936   8.419  0.5866 -0.0277 -0.4453
 8201SOL    HW136065   4.446   1.950   8.474  0.2574 -0.9429 -0.6693
 8201SOL    HW236066   4.502   1.844   8.404  0.8061  0.4361 -3.5252
 8202SOL     OW36067   3.513   1.194   8.654 -0.2560  0.4438 -0.3922
 8202SOL    HW136068   3.606   1.171   8.664 -0.4584  0.0384  0.5214
 8202SOL    HW236069   3.470   1.167   8.735  0.6329 -0.1154 -0.1096
 8203SOL     OW36070   1.799   3.478   1.575  0.0905 -0.1802 -0.5085
 8203SOL    HW136071   1.848   3.416   1.522  0.2245 -2.2647  2.0436
 8203SOL    HW236072   1.763   3.437   1.653 -3.6725  1.1203 -1.5749
 8204SOL     OW36073   1.842   2.969  11.469  0.0302 -0.1431 -0.0991
 8204SOL    HW136074   1.826   2.979  11.563  1.1402 -2.3817  0.3150
 8204SOL    HW236075   1.769   3.024  11.441  0.2303 -1.7139 -3.7258
 8205SOL     OW36076   3.776   1.490  12.021  0.6032 -0.2669  0.8548
 8205SOL    HW136077   3.749   1.512  12.110 -2.3156  1.5735 -0.4588
 8205SOL    HW236078   3.818   1.572  11.994 -0.9573 -0.2457 -1.5543
 8206SOL     OW36079   4.382   0.684   3.080  0.0587 -0.2562  0.7427
 8206SOL    HW136080   4.366   0.661   2.989  0.5910  1.7116  0.1486
 8206SOL    HW236081   4.442   0.617   3.111  1.2663 -0.5947 -2.4388
 8207SOL     OW36082   2.900   3.277   7.027  0.2456  0.5090  0.2041
 8207SOL    HW136083   2.810   3.246   7.033  0.1864  0.6422  0.0044
 8207SOL    HW236084   2.956   3.199   7.021 -3.1652 -1.6330 -3.0800
 8208SOL     OW36085   1.630   3.781   8.466  0.0758  0.1465 -0.0243
 8208SOL    HW136086   1.713   3.817   8.437 -0.6998  1.6125 -0.4146
 8208SOL    HW236087   1.585   3.857   8.503  0.2844  1.1083 -1.7546
 8209SOL     OW36088   2.164   0.459   7.736  0.1588  0.4324  0.2803
 8209SOL    HW136089   2.213   0.440   7.816 -0.4562 -2.7611 -0.0985
 8209SOL    HW236090   2.187   0.550   7.716  2.7605 -0.7848 -2.3185
 8210SOL     OW36091   3.020   0.477   6.619 -0.1145  0.8604 -0.1900
 8210SOL    HW136092   3.076   0.553   6.631  0.9997 -0.0512  0.3240
 8210SOL    HW236093   2.986   0.488   6.530  0.3201 -0.7509 -0.5507
 8211SOL     OW36094   2.465   0.394   1.218  0.1273  0.2504 -0.3907
 8211SOL    HW136095   2.527   0.359   1.282  0.8366  0.2449 -1.0807
 8211SOL    HW236096   2.454   0.481   1.258  3.4952  0.1874  0.7285
 8212SOL     OW36097   3.339   2.537   1.061 -0.6685 -0.1885 -0.2443
 8212SOL    HW136098   3.345   2.585   0.978 -2.8230  0.3044 -0.1250
 8212SOL    HW236099   3.331   2.610   1.123 -3.5802  0.4765 -1.3924
 8213SOL     OW36100   4.273   0.780   6.934  0.1972 -0.3799  0.3107
 8213SOL    HW136101   4.181   0.805   6.944  1.0214  1.4625  3.0831
 8213SOL    HW236102   4.270   0.684   6.939 -1.1305 -0.3549 -0.0497
 8214SOL     OW36103   3.292   4.231   4.263  0.0215 -0.3912 -0.3915
 8214SOL    HW136104   3.345   4.210   4.340 -0.4393  0.8150  0.2503
 8214SOL    HW236105   3.349   4.189   4.198  1.5030 -0.0962  0.7029
 8215SOL     OW36106   4.414   1.995  12.917 -1.2477 -0.5018 -0.5351
 8215SOL    HW136107   4.411   1.931  12.988  0.5287 -1.8566 -1.6855
 8215SOL    HW236108   4.441   1.944  12.841 -0.6613  0.3654 -0.9116
 8216SOL     OW36109   2.285   3.330  10.419 -0.6657  0.6249 -0.0650
 8216SOL    HW136110   2.377   3.323  10.445 -1.2031 -0.9634  1.4163
 8216SOL    HW236111   2.276   3.237  10.398 -1.5529  0.9527 -1.1628
 8217SOL     OW36112   3.251   2.151   2.866 -0.5261  0.2623 -0.6264
 8217SOL    HW136113   3.295   2.236   2.866  0.6996 -0.3760 -0.9749
 8217SOL    HW236114   3.170   2.168   2.915  1.3734  0.4078  2.5193
 8218SOL     OW36115   1.525   1.673   1.738  0.0731 -0.4874  0.3287
 8218SOL    HW136116   1.576   1.612   1.685 -0.3781 -0.0379 -0.6238
 8218SOL    HW236117   1.499   1.618   1.812  0.8829  0.3655  1.2393
 8219SOL     OW36118   2.378   3.067  11.663  0.0460 -0.3523  0.2506
 8219SOL    HW136119   2.457   3.034  11.705 -1.5634 -1.1322  2.6848
 8219SOL    HW236120   2.333   2.992  11.623  0.0589 -0.5623  0.6341
 8220SOL     OW36121   4.145   0.484  16.691  0.0724 -0.3539 -0.0464
 8220SOL    HW136122   4.174   0.441  16.610  3.3247  3.3434 -0.8837
 8220SOL    HW236123   4.231   0.496  16.732 -0.2625  0.7763  0.3208
 8221SOL     OW36124   2.741   3.584   2.030 -0.5979  0.0718  0.6570
 8221SOL    HW136125   2.808   3.569   1.963 -0.9323  1.1240  0.0918
 8221SOL    HW236126   2.797   3.585   2.108  0.4904  2.3850 -0.1500
 8222SOL     OW36127   3.907   0.600   5.311  0.0701 -0.2621 -0.1939
 8222SOL    HW136128   3.857   0.520   5.303 -1.1108  0.2060  2.5988
 8222SOL    HW236129   3.856   0.643   5.379 -0.4504 -2.0221  0.5155
 8223SOL     OW36130   2.461   4.278   5.560 -0.1897 -0.3615 -0.1087
 8223SOL    HW136131   2.390   4.309   5.504 -0.7307  0.2388  0.9092
 8223SOL    HW236132   2.413   4.205   5.599 -1.3577  0.3259 -0.2644
 8224SOL     OW36133   0.788   0.363   8.366 -0.0817 -0.1404  0.2806
 8224SOL    HW136134   0.842   0.441   8.378 -0.1547 -0.0544  0.0517
 8224SOL    HW236135   0.831   0.348   8.282  1.9486 -0.9796  1.4771
 8225SOL     OW36136   2.573   2.160   8.854  0.7903  0.0973  0.5042
 8225SOL    HW136137   2.600   2.227   8.792  0.4416  1.4358  1.7918
 8225SOL    HW236138   2.544   2.211   8.930  0.5281  0.5266  0.1117
 8226SOL     OW36139   0.946   0.148  11.776 -0.3676  0.4296 -0.6338
 8226SOL    HW136140   0.886   0.193  11.835  0.6033 -0.1871  0.8196
 8226SOL    HW236141   0.893   0.142  11.696 -2.0952  0.8862  0.4697
 8227SOL     OW36142   0.880   1.115   9.152  0.8916  0.4723 -0.3973
 8227SOL    HW136143   0.938   1.191   9.154  0.7842  0.5222  0.9067
 8227SOL    HW236144   0.839   1.123   9.239 -0.4644  0.9372 -1.0788
 8228SOL     OW36145   1.962   0.372  12.661 -0.0672 -0.5528  0.1473
 8228SOL    HW136146   2.026   0.420  12.609 -0.7908  1.3661  1.0102
 8228SOL    HW236147   2.017   0.313  12.713  1.5938  1.0293  0.1935
 8229SOL     OW36148   0.464   2.079  11.724  0.4182  0.2586  0.6564
 8229SOL    HW136149   0.434   2.017  11.657 -1.9143  0.7451  1.2644
 8229SOL    HW236150   0.555   2.051  11.734  0.6930  1.3913  1.3463
 8230SOL     OW36151   3.552   2.325  17.644  0.0200  0.1400  0.0028
 8230SOL    HW136152   3.467   2.301  17.607  0.5016 -2.6256  0.7352
 8230SOL    HW236153   3.613   2.330  17.569  1.4294 -0.6594  1.1059
 8231SOL     OW36154   2.798   3.675  10.911 -0.0872  0.0865 -0.0102
 8231SOL    HW136155   2.794   3.593  10.960 -1.5803  1.1293  1.6141
 8231SOL    HW236156   2.710   3.708  10.927 -0.3735 -0.5301 -0.3016
 8232SOL     OW36157   4.626   2.375   7.902  0.1697 -0.6939 -0.3888
 8232SOL    HW136158   4.702   2.414   7.858  0.5043 -0.8844  0.0295
 8232SOL    HW236159   4.629   2.440   7.972  2.8030  0.9652 -2.0451
 8233SOL     OW36160   4.184   1.590   6.458 -0.2475 -0.6131 -0.1669
 8233SOL    HW136161   4.101   1.545   6.476 -0.8801  0.5857 -0.1257
 8233SOL    HW236162   4.245   1.528   6.416  1.0997  0.6071  0.0011
 8234SOL     OW36163   0.840   0.679  17.299 -0.2796  0.4514 -0.3803
 8234SOL    HW136164   0.895   0.670  17.377  1.9653  1.4643 -1.8505
 8234SOL    HW236165   0.762   0.630  17.326 -0.1920  0.2484 -0.4941
 8235SOL     OW36166   3.369   2.202   7.745 -0.5621 -0.5393  0.3108
 8235SOL    HW136167   3.293   2.259   7.737  0.2786  0.8609  2.3720
 8235SOL    HW236168   3.337   2.150   7.820  1.2624 -1.5757  0.3702
 8236SOL     OW36169   4.055   0.018   6.848  0.2725  0.6919  0.6409
 8236SOL    HW136170   3.988   4.693   6.897  0.9742 -1.2191 -0.2374
 8236SOL    HW236171   4.020   0.105   6.829  0.9386  0.6131 -1.0001
 8237SOL     OW36172   1.873   1.902  15.794  0.3529 -0.2655  0.4669
 8237SOL    HW136173   1.934   1.857  15.737  2.0242  2.3791  0.1900
 8237SOL    HW236174   1.921   1.887  15.875  1.1952 -2.1541 -0.3850
 8238SOL     OW36175   3.174   0.013   4.388 -0.2447 -0.2278  0.2830
 8238SOL    HW136176   3.133   0.005   4.475  0.5191  0.1595  0.6772
 8238SOL    HW236177   3.219   4.652   4.385 -0.1113 -0.2270  2.2566
 8239SOL     OW36178   3.643   2.798   4.660  0.0164  0.0608 -0.2830
 8239SOL    HW136179   3.681   2.845   4.585  1.1686  0.1638  0.3571
 8239SOL    HW236180   3.643   2.867   4.726  0.6041 -0.0198 -0.1927
 8240SOL     OW36181   3.321   4.492  11.705  0.0897 -0.0427 -0.0723
 8240SOL    HW136182   3.352   4.482  11.795 -0.8158 -1.6756  0.0639
 8240SOL    HW236183   3.242   4.544  11.719  0.1135  0.2320 -0.9552
 8241SOL     OW36184   0.256   1.554   8.389  0.3434  0.2207 -0.2665
 8241SOL    HW136185   0.275   1.542   8.482 -0.6533  0.9324  0.0240
 8241SOL    HW236186   0.164   1.530   8.391  0.4240 -0.2345 -1.6775
 8242SOL     OW36187   2.367   0.285   4.288  0.0448  0.5780 -0.0103
 8242SOL    HW136188   2.308   0.350   4.326  0.0315  0.3685  0.3236
 8242SOL    HW236189   2.453   0.329   4.293  1.0313 -1.3284 -0.2047
 8243SOL     OW36190   3.327   0.396   8.033 -0.3798 -0.1287  0.0341
 8243SOL    HW136191   3.240   0.429   8.011 -0.2219 -0.6961 -1.3910
 8243SOL    HW236192   3.321   0.315   7.983 -2.1243 -0.1349  0.2504
 8244SOL     OW36193   4.101   3.228  17.667 -0.0403 -0.0667 -0.4937
 8244SOL    HW136194   4.161   3.182   0.032 -0.7502  1.3250  1.3247
 8244SOL    HW236195   4.158   3.292  17.625  0.9918 -1.8252 -1.7406
 8245SOL     OW36196   1.339   2.112   7.064 -0.0214  0.2717 -0.0246
 8245SOL    HW136197   1.262   2.145   7.018  0.1845 -2.1950 -2.1229
 8245SOL    HW236198   1.339   2.178   7.133 -3.1124  0.1805  0.0429
 8246SOL     OW36199   2.420   0.917   8.390  0.4600 -0.3687 -0.1281
 8246SOL    HW136200   2.339   0.918   8.442 -0.4129 -1.3673 -1.4483
 8246SOL    HW236201   2.475   0.961   8.454 -0.6236  2.0688 -0.8808
 8247SOL     OW36202   2.097   3.618   7.332  0.4443 -0.0548  0.2941
 8247SOL    HW136203   2.159   3.624   7.259 -2.4695  0.0729 -2.1556
 8247SOL    HW236204   2.133   3.543   7.380  0.9006 -0.8613 -1.2937
 8248SOL     OW36205   3.680   3.566  17.520  0.1498  0.2724  0.0944
 8248SOL    HW136206   3.751   3.591  17.461  1.3576 -1.9919  0.6100
 8248SOL    HW236207   3.609   3.558  17.456  0.3791  0.2409 -0.1603
 8249SOL     OW36208   0.853   0.743  15.824  0.9371 -0.4494 -0.5826
 8249SOL    HW136209   0.907   0.820  15.807  2.5559 -1.0788  1.7371
 8249SOL    HW236210   0.861   0.723  15.918  0.1802  2.3409  0.0807
 8250SOL     OW36211   3.838   1.367   7.653 -0.1908 -0.1537  0.0918
 8250SOL    HW136212   3.835   1.441   7.592  0.1665 -0.0971  0.1441
 8250SOL    HW236213   3.932   1.372   7.672 -0.0105  1.9226 -1.3080
 8251SOL     OW36214   3.673   3.650   7.099  0.4619 -0.3238  0.1261
 8251SOL    HW136215   3.621   3.655   7.019  0.6509 -1.8103 -0.0889
 8251SOL    HW236216   3.749   3.609   7.058  0.1751 -0.4732 -0.2506
 8252SOL     OW36217   3.241   1.248   2.259  0.1811 -0.1862  0.3109
 8252SOL    HW136218   3.234   1.341   2.280 -1.6660 -0.3991  0.6449
 8252SOL    HW236219   3.335   1.245   2.246  0.1647  0.8193 -0.0362
 8253SOL     OW36220   0.118   4.134   2.892  0.0670 -0.5008 -0.1411
 8253SOL    HW136221   0.208   4.134   2.861 -0.1112 -0.4433 -0.6478
 8253SOL    HW236222   0.115   4.197   2.965 -0.4643  0.0655 -0.6512
 8254SOL     OW36223   1.369   2.291   3.563  0.2329  0.1165 -0.2327
 8254SOL    HW136224   1.433   2.335   3.507 -0.3805  0.2272 -0.8504
 8254SOL    HW236225   1.388   2.340   3.643  2.5847 -0.8258 -0.2251
 8255SOL     OW36226   0.922   0.355   3.781 -0.3421  0.3102  0.1180
 8255SOL    HW136227   0.869   0.365   3.702  0.2287  0.1354 -0.2834
 8255SOL    HW236228   0.933   0.441   3.822  4.0600 -1.6211  3.0720
 8256SOL     OW36229   0.400   2.172   0.965 -0.1703 -0.2810  0.3082
 8256SOL    HW136230   0.488   2.149   0.934  0.3620  2.1138  0.0619
 8256SOL    HW236231   0.371   2.233   0.897 -0.3290 -0.2918  0.3670
 8257SOL     OW36232   1.802   3.745  16.357 -0.5799  0.5453 -0.2098
 8257SOL    HW136233   1.711   3.775  16.365 -1.9194 -3.8489  0.7220
 8257SOL    HW236234   1.824   3.731  16.449  2.1313  0.6320 -0.8535
 8258SOL     OW36235   2.427   2.962  15.941 -0.1423  0.4615 -0.1178
 8258SOL    HW136236   2.411   2.869  15.932 -1.5319  0.7510 -0.5017
 8258SOL    HW236237   2.458   2.991  15.855  2.1076 -1.2633  0.0870
 8259SOL     OW36238   4.591   0.692   7.055  0.2037  0.3666 -0.1782
 8259SOL    HW136239   4.568   0.609   7.014 -2.2954  0.8710  0.1641
 8259SOL    HW236240   4.644   0.668   7.131  1.3153  1.9752 -0.4431
 8260SOL     OW36241   0.828   2.855   5.539  0.4559  0.6091 -0.6214
 8260SOL    HW136242   0.800   2.940   5.572  0.1176 -0.6934  2.4694
 8260SOL    HW236243   0.802   2.800   5.613 -0.6625  0.2450 -1.2826
 8261SOL     OW36244   2.265   4.706   7.937 -0.3559 -0.8252  0.2515
 8261SOL    HW136245   2.253   4.633   7.999 -1.5237 -0.2817  0.6667
 8261SOL    HW236246   2.250   4.659   7.855 -0.9339 -0.2812  0.0537
 8262SOL     OW36247   4.630   3.278   0.306 -0.2652  0.2351  0.8074
 8262SOL    HW136248   4.553   3.279   0.249  0.8612  0.0934 -0.7428
 8262SOL    HW236249   4.640   3.373   0.320  0.7255  0.5668 -2.0882
 8263SOL     OW36250   1.190   3.367   4.636 -0.1212 -0.3971 -0.2515
 8263SOL    HW136251   1.209   3.308   4.709 -0.2765 -1.5196 -1.1192
 8263SOL    HW236252   1.260   3.432   4.641 -0.9600  0.5153 -0.4655
 8264SOL     OW36253   4.530   2.152   3.085  0.2841 -0.0596 -0.0701
 8264SOL    HW136254   4.461   2.148   3.019  0.3898 -2.2225 -0.0496
 8264SOL    HW236255   4.505   2.074   3.134 -0.2412 -0.0527 -0.3255
 8265SOL     OW36256   0.801   1.611   2.248  0.1477 -0.3451 -0.2533
 8265SOL    HW136257   0.877   1.620   2.304  0.2844 -2.1590 -0.1419
 8265SOL    HW236258   0.784   1.517   2.254  2.1809 -0.6214  1.0225
 8266SOL     OW36259   0.662   0.657  15.455 -0.5078  0.1877 -0.8037
 8266SOL    HW136260   0.646   0.640  15.363  2.4742  0.4401 -1.3789
 8266SOL    HW236261   0.758   0.655  15.454 -0.4866 -0.5454  1.3250
 8267SOL     OW36262   3.267   4.335   2.546 -0.1470 -0.4953  0.2104
 8267SOL    HW136263   3.229   4.384   2.619 -0.3366 -1.1451  0.5514
 8267SOL    HW236264   3.362   4.329   2.553 -0.2720 -1.3991  1.2356
 8268SOL     OW36265   2.301   2.511  11.515 -0.3950 -0.1666 -0.5341
 8268SOL    HW136266   2.356   2.580  11.553 -0.8438 -0.7352  1.1262
 8268SOL    HW236267   2.243   2.564  11.460 -1.0115  0.1079  0.3936
 8269SOL     OW36268   2.126   2.759  10.644 -0.3029 -0.4135 -0.4396
 8269SOL    HW136269   2.103   2.845  10.681 -0.2325 -1.0851  1.1713
 8269SOL    HW236270   2.215   2.753  10.680 -0.6766 -1.7530  0.2554
 8270SOL     OW36271   3.361   1.328   8.093  1.0300  0.2409  0.8451
 8270SOL    HW136272   3.361   1.364   8.182 -1.3779 -0.1277  0.9988
 8270SOL    HW236273   3.348   1.235   8.108 -2.0580  0.6096  0.4747
 8271SOL     OW36274   3.831   2.187   2.857  0.3340  0.0053 -0.4633
 8271SOL    HW136275   3.923   2.194   2.882  0.2800 -1.4602  0.1563
 8271SOL    HW236276   3.795   2.138   2.931 -2.5729 -1.2231 -2.7098
 8272SOL     OW36277   4.102   3.363   6.599  0.2253 -0.1047  0.0021
 8272SOL    HW136278   4.073   3.292   6.541  0.4617 -0.6644  0.5724
 8272SOL    HW236279   4.027   3.395   6.649  0.4301  0.6239 -0.1574
 8273SOL     OW36280   3.771   4.265  15.845 -0.2280  0.4745  0.4119
 8273SOL    HW136281   3.800   4.299  15.930 -0.8457  0.2296  0.7230
 8273SOL    HW236282   3.776   4.346  15.795 -0.3984  1.0989  1.4024
 8274SOL     OW36283   1.893   1.457   5.894 -0.9135  0.1200 -0.3611
 8274SOL    HW136284   1.922   1.398   5.824 -0.7195 -0.0714 -0.1176
 8274SOL    HW236285   1.973   1.475   5.942 -2.0258  1.1537  1.0930
 8275SOL     OW36286   2.998   4.103   0.949 -0.0126  0.2214  0.0978
 8275SOL    HW136287   2.981   4.019   0.905  1.0328  0.1722 -0.2181
 8275SOL    HW236288   2.916   4.114   0.996 -0.8206 -0.0081 -1.2656
 8276SOL     OW36289   0.970   0.319   8.163  0.1264 -0.4364 -0.1883
 8276SOL    HW136290   0.970   0.224   8.157 -3.1997 -0.4422  0.0639
 8276SOL    HW236291   0.920   0.341   8.085 -0.4358  0.2773  0.3748
 8277SOL     OW36292   0.052   1.465   4.232  0.0504 -0.1202  0.1770
 8277SOL    HW136293   4.694   1.422   4.204  0.2097  1.9427 -3.4807
 8277SOL    HW236294   0.099   1.389   4.266  0.6410 -0.4002 -1.2432
 8278SOL     OW36295   2.882   0.543   0.533  0.2541 -0.3805 -0.1065
 8278SOL    HW136296   2.920   0.479   0.473  1.8770 -0.3715  0.9108
 8278SOL    HW236297   2.955   0.601   0.555 -2.3803  2.7225  0.3560
 8279SOL     OW36298   1.407   2.550  16.242 -0.2334 -0.3192  0.0334
 8279SOL    HW136299   1.489   2.511  16.209 -0.0046  2.8456 -3.1763
 8279SOL    HW236300   1.379   2.574  16.153 -1.4748  2.2777  1.1589
 8280SOL     OW36301   0.520   4.490   8.225  0.0379 -0.4501  0.0670
 8280SOL    HW136302   0.592   4.480   8.288 -1.5322 -0.5734  1.8182
 8280SOL    HW236303   0.558   4.485   8.137 -0.7620 -2.2303 -0.1656
 8281SOL     OW36304   0.104   1.024   5.424 -0.2421  0.2381  0.4021
 8281SOL    HW136305   0.033   1.000   5.364  0.7700 -0.3760 -0.5463
 8281SOL    HW236306   0.060   1.096   5.469  2.6686  2.2843 -0.0912
 8282SOL     OW36307   1.238   1.556   3.710  0.0116 -0.7524  0.0229
 8282SOL    HW136308   1.248   1.651   3.716  0.9449 -0.8946  0.6438
 8282SOL    HW236309   1.327   1.523   3.699 -0.4638 -2.7964  2.1278
 8283SOL     OW36310   3.868   3.828  14.023 -0.0025  0.1753 -0.4052
 8283SOL    HW136311   3.903   3.819  14.112 -0.3932 -1.1650 -0.3899
 8283SOL    HW236312   3.950   3.833  13.973 -1.2895 -0.8857 -2.6002
 8284SOL     OW36313   3.650   2.909  14.091  0.5063  0.1310 -0.0584
 8284SOL    HW136314   3.627   2.915  13.998 -2.9393 -0.5482  0.7543
 8284SOL    HW236315   3.732   2.958  14.081 -0.6668  2.4491  1.9951
 8285SOL     OW36316   1.296   0.490   6.753 -0.0302 -0.0089  0.2149
 8285SOL    HW136317   1.230   0.506   6.820 -0.7844  2.4996 -1.1225
 8285SOL    HW236318   1.285   0.562   6.691  1.1564 -0.6643 -0.7631
 8286SOL     OW36319   2.430   2.196   6.731 -0.0317  0.7317  0.6489
 8286SOL    HW136320   2.431   2.136   6.657  2.2774  0.3543  0.9959
 8286SOL    HW236321   2.454   2.276   6.686 -1.1040  2.0035  2.3103
 8287SOL     OW36322   3.400   1.738   5.265 -0.5589  0.3506  0.1272
 8287SOL    HW136323   3.475   1.731   5.205  1.0613  3.0879  1.8420
 8287SOL    HW236324   3.445   1.716   5.346  0.3817  1.2976 -0.1384
 8288SOL     OW36325   2.330   3.113   6.966 -0.5614 -0.2318 -0.2022
 8288SOL    HW136326   2.302   3.168   6.893 -0.4547 -0.3902 -0.3658
 8288SOL    HW236327   2.406   3.059   6.941  0.9972  1.6674  0.3850
 8289SOL     OW36328   0.627   3.178  14.337  0.2128 -0.1487 -0.0989
 8289SOL    HW136329   0.558   3.123  14.299 -0.7528 -0.2764  1.8406
 8289SOL    HW236330   0.647   3.221  14.254  0.8937  1.4792  0.9084
 8290SOL     OW36331   4.310   1.053  14.837 -0.0188  0.5852 -0.1352
 8290SOL    HW136332   4.299   1.127  14.898 -1.4841  2.1707 -2.3257
 8290SOL    HW236333   4.336   1.100  14.758 -0.8297  2.1730  0.5320
 8291SOL     OW36334   2.430   0.452   6.355 -0.1708  0.2726  0.0418
 8291SOL    HW136335   2.472   0.431   6.271  1.2089  0.6874  0.6366
 8291SOL    HW236336   2.403   0.541   6.335  2.1783  0.6795 -1.2912
 8292SOL     OW36337   2.329   0.240   2.898 -0.2781 -0.0472  0.5259
 8292SOL    HW136338   2.242   0.228   2.861  0.1239 -0.6130 -0.2393
 8292SOL    HW236339   2.294   0.286   2.974  0.3133 -0.9989  1.3793
 8293SOL     OW36340   0.210   2.417   6.899  0.1459  0.8680 -0.4964
 8293SOL    HW136341   0.261   2.394   6.822  0.4402  0.9306 -0.3209
 8293SOL    HW236342   0.121   2.402   6.867  0.1442  0.1832 -0.1733
 8294SOL     OW36343   0.899   4.049  16.859  0.7628  0.0750 -0.2540
 8294SOL    HW136344   0.825   3.991  16.841  1.2690 -0.3869 -0.8709
 8294SOL    HW236345   0.955   3.999  16.918  1.0345  0.8408  0.1352
 8295SOL     OW36346   1.856   1.447   6.517 -0.3160 -0.1723  0.6845
 8295SOL    HW136347   1.891   1.520   6.567  0.4713 -1.3139  1.8187
 8295SOL    HW236348   1.892   1.459   6.429  0.9981  2.0010  1.5043
 8296SOL     OW36349   3.227   0.438  15.258 -0.1332 -0.0814  0.2953
 8296SOL    HW136350   3.221   0.523  15.302 -2.7202  0.6186 -1.4179
 8296SOL    HW236351   3.170   0.381  15.311  2.2819 -1.0538  1.8162
 8297SOL     OW36352   2.159   0.312  11.557 -0.4587  0.0620 -0.3488
 8297SOL    HW136353   2.075   0.318  11.512  0.2437  2.7752 -1.2767
 8297SOL    HW236354   2.135   0.351  11.641  0.4307 -0.1281 -0.0011
 8298SOL     OW36355   0.360   0.028   3.724  0.3858  0.2149 -0.1454
 8298SOL    HW136356   0.339   0.065   3.638 -2.0022 -2.1171 -0.5784
 8298SOL    HW236357   0.455   0.027   3.719  0.4327  1.3069  0.5753
 8299SOL     OW36358   2.847   0.268  15.294  0.2678  0.0187  0.4299
 8299SOL    HW136359   2.933   0.239  15.262  0.7311  1.3100  0.5102
 8299SOL    HW236360   2.864   0.293  15.385 -0.2373 -0.1956  0.5806
 8300SOL     OW36361   3.195   2.224   4.800  0.0883 -0.2949 -0.8611
 8300SOL    HW136362   3.286   2.218   4.827  0.2641 -0.1486 -1.4354
 8300SOL    HW236363   3.198   2.228   4.704  1.0774  0.7996 -0.7708
 8301SOL     OW36364   2.673   0.666  15.113 -0.0780  0.0304 -0.1079
 8301SOL    HW136365   2.746   0.634  15.060  0.5120 -0.7826  1.1899
 8301SOL    HW236366   2.628   0.582  15.126  0.8207 -0.2843  0.9557
 8302SOL     OW36367   1.035   4.569   4.407  0.4095  0.5540 -0.2381
 8302SOL    HW136368   1.067   4.656   4.430 -1.0953  1.1506 -0.4189
 8302SOL    HW236369   0.952   4.593   4.365  0.8233  0.3747 -1.1388
 8303SOL     OW36370   1.915   1.841   0.891  0.2090 -0.1976 -0.7121
 8303SOL    HW136371   1.902   1.760   0.842 -1.7166  0.2396 -0.9241
 8303SOL    HW236372   1.864   1.900   0.836  0.6632  1.6520  0.8645
 8304SOL     OW36373   1.153   0.724  12.910  0.0047 -0.7986 -0.1107
 8304SOL    HW136374   1.213   0.709  12.837  0.9452  1.5724  0.1635
 8304SOL    HW236375   1.130   0.817  12.908 -0.5338 -0.9144  0.6024
 8305SOL     OW36376   2.127   1.850   2.062  0.1589 -0.3656 -0.4930
 8305SOL    HW136377   2.057   1.785   2.047 -1.1554  0.6761  1.1369
 8305SOL    HW236378   2.147   1.831   2.154 -1.0488 -1.6392 -0.4774
 8306SOL     OW36379   0.444   2.184   9.008  0.1181  0.0787 -0.6012
 8306SOL    HW136380   0.384   2.147   9.072 -0.2665 -0.1277 -1.0767
 8306SOL    HW236381   0.394   2.227   8.938 -0.5920 -0.7498 -0.6148
 8307SOL     OW36382   0.915   2.605   2.390  0.1683  0.1924 -0.0428
 8307SOL    HW136383   0.983   2.540   2.408 -0.0203  0.0429  0.1334
 8307SOL    HW236384   0.884   2.575   2.304  1.6195 -1.7702  0.0930
 8308SOL     OW36385   3.621   3.394  13.617  0.1641  0.4756 -0.3934
 8308SOL    HW136386   3.688   3.417  13.553  0.9516  2.0374  0.9728
 8308SOL    HW236387   3.579   3.477  13.638 -0.5029 -0.1363  0.7001
 8309SOL     OW36388   1.677   0.353   0.738  0.3074 -0.5058 -0.1046
 8309SOL    HW136389   1.698   0.268   0.777  2.0607  0.7266  1.6244
 8309SOL    HW236390   1.653   0.327   0.649  3.4806  0.7313 -1.3025
 8310SOL     OW36391   4.175   1.523   1.522  0.0806  0.4249 -0.5088
 8310SOL    HW136392   4.200   1.437   1.557 -1.5673 -0.0207 -0.4301
 8310SOL    HW236393   4.250   1.578   1.545  0.1314 -0.0057  0.3817
 8311SOL     OW36394   1.628   4.536   3.395  0.1943 -0.0692 -0.0534
 8311SOL    HW136395   1.581   4.455   3.374  1.4059 -0.1143 -2.5144
 8311SOL    HW236396   1.549   4.587   3.417 -0.4967 -0.9989 -0.3969
 8312SOL     OW36397   0.530   1.466   9.345 -0.4460 -0.1664 -0.2088
 8312SOL    HW136398   0.585   1.451   9.423  0.0770 -0.6272 -0.6595
 8312SOL    HW236399   0.446   1.425   9.366  0.0748 -1.6898 -1.0803
 8313SOL     OW36400   0.378   2.097   7.895 -0.2297  0.3880 -0.0573
 8313SOL    HW136401   0.441   2.169   7.890  0.7130 -0.4312 -0.1618
 8313SOL    HW236402   0.304   2.139   7.852 -0.5694  0.5105  0.6452
 8314SOL     OW36403   0.082   2.006   6.794  0.3546  0.1493  0.1616
 8314SOL    HW136404   0.085   1.921   6.750 -4.1742 -0.0623  0.2617
 8314SOL    HW236405   0.175   2.020   6.810 -0.0664  0.8071  1.9523
 8315SOL     OW36406   0.959   0.021   7.382 -0.2456 -0.5737 -0.2172
 8315SOL    HW136407   1.043   0.025   7.336 -1.7394  2.1781 -2.7074
 8315SOL    HW236408   0.979   0.012   7.475  0.2171  1.7084 -0.1060
 8316SOL     OW36409   0.952   1.454   3.094  0.2446 -0.1670  0.0522
 8316SOL    HW136410   1.002   1.465   3.013  0.7393  2.1284  0.6506
 8316SOL    HW236411   0.958   1.541   3.135  0.3442 -0.3959  0.5266
 8317SOL     OW36412   1.859   2.513  15.907 -0.2540 -0.1399  0.5633
 8317SOL    HW136413   1.946   2.510  15.868 -0.7506  2.5869 -0.7583
 8317SOL    HW236414   1.863   2.425  15.946  0.8647 -0.6372 -0.6646
 8318SOL     OW36415   1.725   1.413   8.758 -0.3315 -0.3904  0.6496
 8318SOL    HW136416   1.691   1.502   8.762  0.1296 -0.2201  0.8145
 8318SOL    HW236417   1.656   1.372   8.706 -1.3493  1.0227  0.9148
 8319SOL     OW36418   2.624   3.346   9.761  0.2314 -0.1451 -0.1623
 8319SOL    HW136419   2.551   3.399   9.795  2.5713  3.0500 -0.1642
 8319SOL    HW236420   2.599   3.345   9.669 -1.0203  0.9281  0.1537
 8320SOL     OW36421   1.331   3.434  14.178 -0.2816 -0.1243  0.2170
 8320SOL    HW136422   1.316   3.358  14.234  1.7574 -0.9278 -0.3517
 8320SOL    HW236423   1.365   3.497  14.242 -0.0507 -0.8958  0.8527
 8321SOL     OW36424   1.442   1.764  13.433 -0.0770 -0.2279 -0.0908
 8321SOL    HW136425   1.395   1.726  13.358  2.4814  1.2891 -2.4674
 8321SOL    HW236426   1.387   1.837  13.460 -1.0536 -0.6390 -0.9790
 8322SOL     OW36427   2.905   3.487   7.333  0.1099  0.7416  0.3286
 8322SOL    HW136428   2.951   3.403   7.338 -1.5811 -0.1721  0.1305
 8322SOL    HW236429   2.957   3.535   7.398 -1.4589  1.1369  1.2863
 8323SOL     OW36430   1.539   2.724  12.689  0.2111  0.8881  0.2919
 8323SOL    HW136431   1.499   2.686  12.768 -0.3114  0.3034 -0.2506
 8323SOL    HW236432   1.631   2.697  12.691  0.7103  2.5664 -0.7608
 8324SOL     OW36433   2.360   2.430   3.098  0.3669 -0.0329  0.3824
 8324SOL    HW136434   2.322   2.431   3.010  0.3151 -2.7732  0.3895
 8324SOL    HW236435   2.452   2.414   3.079  0.1799  1.8298 -2.1156
 8325SOL     OW36436   3.011   2.546  11.865  0.0447  0.0583 -0.6577
 8325SOL    HW136437   3.090   2.587  11.900 -0.9755  1.6309 -0.2150
 8325SOL    HW236438   3.039   2.455  11.872 -0.9166 -0.0874  1.3649
 8326SOL     OW36439   4.709   0.274  11.183 -0.7994  0.1713  0.9828
 8326SOL    HW136440   4.682   0.187  11.212 -1.4930 -0.0477 -0.3196
 8326SOL    HW236441   0.027   0.310  11.262  0.1787  1.0866  0.0549
 8327SOL     OW36442   0.167   2.271   1.885 -0.2053 -0.5030  0.0167
 8327SOL    HW136443   0.205   2.359   1.891 -1.3530 -0.0782  1.1339
 8327SOL    HW236444   0.093   2.293   1.829  0.4059  0.6074 -0.3445
 8328SOL     OW36445   2.459   0.185  15.911  0.3954  0.0940  0.5004
 8328SOL    HW136446   2.510   0.250  15.959 -0.1050  0.3344  0.7104
 8328SOL    HW236447   2.535   0.128  15.919 -0.9909 -2.0566 -1.4355
 8329SOL     OW36448   3.973   3.107  16.826  0.5488 -0.0001  0.0844
 8329SOL    HW136449   4.051   3.144  16.786  0.8368  0.4091  1.0112
 8329SOL    HW236450   3.933   3.060  16.753 -0.4309 -1.3892  1.5206
 8330SOL     OW36451   0.221   1.494   2.779 -0.2707 -0.2174  0.3924
 8330SOL    HW136452   0.234   1.511   2.872 -1.7236  1.6111  0.2453
 8330SOL    HW236453   0.293   1.538   2.733 -0.4459  0.8357  1.1302
 8331SOL     OW36454   1.759   3.785   2.311 -0.1297  0.3398  0.6535
 8331SOL    HW136455   1.817   3.712   2.335 -0.2563  0.5487  1.5667
 8331SOL    HW236456   1.742   3.772   2.218 -0.8416  0.6517  0.7470
 8332SOL     OW36457   4.156   0.134   9.025 -0.3320 -0.0838 -0.2024
 8332SOL    HW136458   4.073   0.157   9.065  0.6719  1.1994  1.1405
 8332SOL    HW236459   4.217   0.153   9.096 -0.2186  2.2995 -0.9317
 8333SOL     OW36460   1.862   3.634  15.985  0.3587  0.2176 -0.5772
 8333SOL    HW136461   1.817   3.673  15.910  1.2109 -1.3157 -1.8754
 8333SOL    HW236462   1.945   3.683  15.988  0.5279 -0.1147  0.2651
 8334SOL     OW36463   1.811   0.219   4.473 -0.0744  0.0914  0.6647
 8334SOL    HW136464   1.896   0.261   4.470 -0.1777  0.4698  2.7812
 8334SOL    HW236465   1.827   0.153   4.542  0.6438  0.6590  1.0403
 8335SOL     OW36466   4.587   1.693  10.278  0.4469  0.1491 -0.4491
 8335SOL    HW136467   4.647   1.696  10.353 -0.7474  0.6699  0.4880
 8335SOL    HW236468   4.606   1.606  10.243  1.1423 -0.1047  0.5431
 8336SOL     OW36469   1.840   4.683   9.796  0.2820 -0.1266  0.1109
 8336SOL    HW136470   1.917   4.718   9.839  0.8066 -1.7475  0.5088
 8336SOL    HW236471   1.865   4.591   9.789 -0.1385 -0.2315 -0.0147
 8337SOL     OW36472   0.071   1.044   5.028 -0.7897 -0.5060  0.1052
 8337SOL    HW136473   0.044   0.961   4.988 -1.0221  0.2078 -1.2224
 8337SOL    HW236474   0.065   1.103   4.953  1.4755 -2.2341 -1.4389
 8338SOL     OW36475   1.320   0.900  15.128 -0.3294 -0.2861 -0.4506
 8338SOL    HW136476   1.395   0.922  15.184 -0.8866 -0.6959  0.4487
 8338SOL    HW236477   1.321   0.805  15.137 -1.9493 -0.2448  0.2471
 8339SOL     OW36478   1.029   0.824   4.198  0.4130 -0.5186 -0.2825
 8339SOL    HW136479   1.079   0.743   4.199 -0.6364 -1.1511  0.8141
 8339SOL    HW236480   0.942   0.808   4.160  0.6695 -1.0743 -0.6194
 8340SOL     OW36481   3.437   3.245   9.054 -0.1707  0.2678  0.5792
 8340SOL    HW136482   3.499   3.291   8.997 -1.2674  1.7551  0.5635
 8340SOL    HW236483   3.493   3.197   9.115  1.2663 -0.4821 -1.3274
 8341SOL     OW36484   2.543   3.194   3.472  0.5894 -0.4689  0.2177
 8341SOL    HW136485   2.481   3.123   3.458 -3.2638  2.6057  1.7379
 8341SOL    HW236486   2.607   3.135   3.510  1.7936  1.4594  1.1669
 8342SOL     OW36487   2.568   1.550   4.086 -0.1269  0.5438  0.3718
 8342SOL    HW136488   2.486   1.574   4.128 -1.1731 -1.6114 -0.4025
 8342SOL    HW236489   2.611   1.513   4.163  2.6692  2.0190 -0.5140
 8343SOL     OW36490   1.023   2.970  14.140 -0.2512  0.7307 -0.0501
 8343SOL    HW136491   1.031   2.931  14.228  0.1096 -2.9624 -1.6993
 8343SOL    HW236492   0.927   2.974  14.134 -0.3855 -0.8337  0.9126
 8344SOL     OW36493   3.301   1.817   9.973  0.4062 -0.2305  0.3122
 8344SOL    HW136494   3.233   1.847  10.032 -1.3419 -1.5454 -1.0398
 8344SOL    HW236495   3.349   1.759  10.032 -0.2668  0.7880  1.8305
 8345SOL     OW36496   2.901   3.521   0.605  0.4758  0.0328  0.1431
 8345SOL    HW136497   2.961   3.464   0.557 -0.4644 -0.8404  0.0191
 8345SOL    HW236498   2.917   3.598   0.551  1.8023 -0.2454  0.1313
 8346SOL     OW36499   0.757   2.423  11.616  0.3982 -0.3502 -0.1179
 8346SOL    HW136500   0.735   2.339  11.657  1.4697 -0.1530  0.8820
 8346SOL    HW236501   0.709   2.407  11.535  0.0566  1.8986 -0.3648
 8347SOL     OW36502   3.261   1.825   1.051  0.1624 -0.6098  0.4957
 8347SOL    HW136503   3.319   1.750   1.061 -0.2342 -0.9082  0.5748
 8347SOL    HW236504   3.322   1.881   1.004 -2.9725  3.0274  0.7891
 8348SOL     OW36505   1.378   4.024   2.042 -0.3449  0.2654  0.3068
 8348SOL    HW136506   1.318   4.049   2.112 -2.2187  0.7589 -1.4526
 8348SOL    HW236507   1.320   3.989   1.974 -2.0374  2.3442  0.6592
 8349SOL     OW36508   2.641   2.144   8.027  0.3701 -0.0709 -0.3467
 8349SOL    HW136509   2.596   2.116   8.107 -2.4043 -1.0085 -2.2001
 8349SOL    HW236510   2.729   2.139   8.063  0.2631  2.5919  0.2289
 8350SOL     OW36511   3.393   0.946   2.332 -0.5366  0.1627 -0.5514
 8350SOL    HW136512   3.475   0.948   2.382 -1.4028  3.0270  0.7155
 8350SOL    HW236513   3.400   0.863   2.283 -0.0155  0.2706 -0.6602
 8351SOL     OW36514   1.269   4.023   2.548 -0.4863  0.2259  0.2388
 8351SOL    HW136515   1.174   4.013   2.548 -0.6966  2.1992 -0.2407
 8351SOL    HW236516   1.286   3.946   2.493 -0.0127  0.3307  0.2363
 8352SOL     OW36517   0.022   3.692   1.002 -0.1543  0.1319 -0.6869
 8352SOL    HW136518   0.035   3.787   0.998 -0.9152  0.3490  2.0810
 8352SOL    HW236519   4.656   3.687   1.037 -0.5803  2.8291 -1.3155
 8353SOL     OW36520   3.733   3.762   2.412  0.0880  0.5170 -0.1204
 8353SOL    HW136521   3.765   3.829   2.472  1.2319  1.2315 -1.5244
 8353SOL    HW236522   3.654   3.732   2.458  0.8724  0.3146  1.1011
 8354SOL     OW36523   1.521   3.185  14.671 -0.4313 -0.1127  0.0218
 8354SOL    HW136524   1.459   3.243  14.715 -0.1735  1.4225 -1.5953
 8354SOL    HW236525   1.481   3.100  14.688  1.0006 -0.9902 -0.9844
 8355SOL     OW36526   3.682   1.660   5.842 -0.6096  0.0046 -0.0622
 8355SOL    HW136527   3.707   1.749   5.815  1.2821  0.2099  2.3986
 8355SOL    HW236528   3.767   1.616   5.841 -0.5074  0.1572  3.4823
 8356SOL     OW36529   3.808   1.309  13.465  0.5124 -0.1133  0.1257
 8356SOL    HW136530   3.893   1.340  13.496  1.1229  0.2622 -1.9289
 8356SOL    HW236531   3.752   1.346  13.533 -0.2775  0.0917 -0.6451
 8357SOL     OW36532   1.773   0.194   3.073 -0.4549 -0.0553 -0.1557
 8357SOL    HW136533   1.857   0.157   3.103 -0.8917  1.1632  2.5946
 8357SOL    HW236534   1.795   0.207   2.981 -2.2387  2.4227 -0.2139
 8358SOL     OW36535   1.928   3.955  11.086 -0.5375  0.0161  0.5956
 8358SOL    HW136536   1.986   4.017  11.129  0.7472 -1.1494  0.5289
 8358SOL    HW236537   1.870   3.932  11.158  0.1503  0.0661  1.1562
 8359SOL     OW36538   0.221   2.700   7.315 -0.1658 -0.7083 -0.1281
 8359SOL    HW136539   0.138   2.683   7.271  0.5053 -2.1146 -0.8460
 8359SOL    HW236540   0.290   2.721   7.253 -1.0529  1.5103 -0.3628
 8360SOL     OW36541   1.923   2.077   7.054 -0.4724  0.2167 -0.3164
 8360SOL    HW136542   1.881   2.021   6.990  2.0313 -1.5415 -0.4267
 8360SOL    HW236543   1.864   2.061   7.128 -1.3855 -0.7902 -1.2526
 8361SOL     OW36544   0.397   3.353  13.152  0.2227  0.6020 -0.2325
 8361SOL    HW136545   0.371   3.274  13.199  4.1109 -0.4474  0.1416
 8361SOL    HW236546   0.467   3.330  13.091 -0.3140  0.8278 -0.9402
 8362SOL     OW36547   3.237   3.232  10.014 -0.0999 -0.3183  0.3415
 8362SOL    HW136548   3.309   3.252  10.074 -0.6253 -2.6564  1.7474
 8362SOL    HW236549   3.279   3.254   9.930 -3.1237 -1.3383 -1.4349
 8363SOL     OW36550   3.509   1.556   1.209  0.1616  0.1885  0.0320
 8363SOL    HW136551   3.452   1.567   1.133  0.7117  0.1644 -0.3861
 8363SOL    HW236552   3.439   1.545   1.273  0.4986  1.6512  0.6477
 8364SOL     OW36553   2.514   2.265   2.091  0.0551 -0.5363  0.6240
 8364SOL    HW136554   2.572   2.324   2.043 -1.1674  0.7523  0.7411
 8364SOL    HW236555   2.528   2.289   2.183 -1.0809 -1.3534  1.0222
 8365SOL     OW36556   4.228   1.663   2.846 -0.5681  0.1104 -0.1349
 8365SOL    HW136557   4.265   1.650   2.759 -0.9654 -1.3901 -0.0733
 8365SOL    HW236558   4.157   1.726   2.830 -0.6132  0.2299  0.5192
 8366SOL     OW36559   1.065   0.394  15.645  1.0979 -0.6206 -0.9521
 8366SOL    HW136560   0.972   0.415  15.654  1.1497 -0.2190 -1.3306
 8366SOL    HW236561   1.101   0.478  15.617  0.7257  0.1142  0.7662
 8367SOL     OW36562   2.702   4.054   7.747 -0.1268 -0.1088  0.1683
 8367SOL    HW136563   2.658   3.985   7.798  0.0999 -1.0034 -0.8393
 8367SOL    HW236564   2.678   4.023   7.660 -2.1166  0.1388  0.6401
 8368SOL     OW36565   2.274   4.354  15.841  0.2969  0.0746 -0.1120
 8368SOL    HW136566   2.293   4.312  15.757  0.6820 -0.2189  0.1232
 8368SOL    HW236567   2.294   4.447  15.834  1.8675 -0.1973  0.6408
 8369SOL     OW36568   3.741   4.010   1.021 -0.3393 -0.1600 -0.3580
 8369SOL    HW136569   3.786   4.092   1.044  1.5804 -1.3709  0.1594
 8369SOL    HW236570   3.652   4.031   1.048 -0.0023  0.4790  0.2576
 8370SOL     OW36571   4.032   1.913   3.707  0.0101 -0.1759 -0.2048
 8370SOL    HW136572   3.974   1.901   3.782 -2.1215  0.3719 -1.7742
 8370SOL    HW236573   3.999   1.988   3.657 -1.4093 -1.0358 -0.5462
 8371SOL     OW36574   0.008   3.454   3.851 -0.6647  0.4032  0.1402
 8371SOL    HW136575   0.100   3.466   3.872 -1.1504  0.1951  2.3431
 8371SOL    HW236576   4.702   3.402   3.926  1.3369 -0.5812  0.2356
 8372SOL     OW36577   4.030   4.624   2.742 -0.4500 -0.2751  0.1167
 8372SOL    HW136578   4.016   4.593   2.652  0.2497  0.5460 -0.2733
 8372SOL    HW236579   4.090   4.696   2.720 -0.6301 -0.1053  0.1780
 8373SOL     OW36580   0.996   3.958  13.291  0.2424 -0.1930  0.0274
 8373SOL    HW136581   1.020   4.051  13.290 -2.7148  0.5966  1.2867
 8373SOL    HW236582   0.922   3.963  13.351 -1.0370  0.3613 -1.5935
 8374SOL     OW36583   2.678   2.410   3.087  0.2137 -0.1231  0.3324
 8374SOL    HW136584   2.756   2.461   3.112  1.3216 -1.6979  0.0559
 8374SOL    HW236585   2.693   2.344   3.155  2.3209  0.5676  0.5283
 8375SOL     OW36586   4.709   0.874   6.015 -0.2052 -0.5264 -0.2522
 8375SOL    HW136587   4.655   0.944   6.052 -2.8674 -2.0892 -1.2393
 8375SOL    HW236588   4.662   0.864   5.932 -2.9337 -0.9155  1.3383
 8376SOL     OW36589   2.363   3.187   1.527  0.1878  0.5232 -0.3368
 8376SOL    HW136590   2.268   3.173   1.521 -0.1531  3.2977 -1.0572
 8376SOL    HW236591   2.396   3.145   1.447 -0.0911 -2.5909  1.1635
 8377SOL     OW36592   0.509   2.403   4.943 -0.4377  0.3015 -0.7147
 8377SOL    HW136593   0.588   2.358   4.912 -1.6168 -2.4284  0.2386
 8377SOL    HW236594   0.547   2.451   5.016  1.6941 -1.4430 -0.6755
 8378SOL     OW36595   0.697   3.840   9.907  0.0256  0.0364  0.4048
 8378SOL    HW136596   0.660   3.752   9.903 -2.0887  0.9079  0.8018
 8378SOL    HW236597   0.787   3.821   9.881 -0.0625  0.5713 -0.2684
 8379SOL     OW36598   3.286   4.455  15.408  0.3435  0.1269  0.6912
 8379SOL    HW136599   3.296   4.398  15.332  1.8566  2.1769 -0.6495
 8379SOL    HW236600   3.311   4.395  15.478 -0.0911  0.5124  1.1790
 8380SOL     OW36601   4.043   1.683  13.110 -0.8585  0.7553 -0.3111
 8380SOL    HW136602   4.023   1.609  13.168 -0.6953  0.5233 -0.5540
 8380SOL    HW236603   4.112   1.726  13.161 -0.2622 -0.6138  0.0466
 8381SOL     OW36604   0.343   0.136  10.142  0.0158  0.5958 -0.3055
 8381SOL    HW136605   0.424   0.087  10.128 -0.8088 -1.4900  2.1805
 8381SOL    HW236606   0.380   0.225  10.143  1.0413  0.1719  0.4843
 8382SOL     OW36607   3.908   2.051  11.396  0.0058  0.1698 -0.3475
 8382SOL    HW136608   3.850   1.978  11.372  0.1401 -0.8418  2.4598
 8382SOL    HW236609   3.868   2.123  11.346  1.7318  2.3839  1.4608
 8383SOL     OW36610   1.597   0.312   0.475 -0.2937 -0.0303  0.0808
 8383SOL    HW136611   1.653   0.332   0.400 -1.7968 -0.5590 -1.1542
 8383SOL    HW236612   1.524   0.367   0.449 -0.1492  0.1929  0.1453
 8384SOL     OW36613   2.798   4.033   1.418 -0.5458  0.1076  0.2904
 8384SOL    HW136614   2.830   4.050   1.507 -1.4939 -1.3447  0.9215
 8384SOL    HW236615   2.826   3.942   1.417 -3.0035 -0.5856 -4.0538
 8385SOL     OW36616   2.980   2.567   6.653 -0.1162 -0.1829 -0.6731
 8385SOL    HW136617   2.929   2.494   6.686  1.6046 -0.9012  0.4076
 8385SOL    HW236618   3.070   2.540   6.674  0.1483  0.8972 -0.4092
 8386SOL     OW36619   4.488   2.469   3.376  0.1695  0.4201  0.5912
 8386SOL    HW136620   4.521   2.544   3.426  1.2523 -0.6335  1.4542
 8386SOL    HW236621   4.423   2.451   3.443 -0.2288  0.2629  0.1590
 8387SOL     OW36622   2.445   3.579   1.755  0.2696 -0.1391  0.0684
 8387SOL    HW136623   2.372   3.637   1.734 -0.2867 -0.8335  0.0719
 8387SOL    HW236624   2.485   3.631   1.823 -0.1730  0.4153 -0.0998
 8388SOL     OW36625   3.934   2.053   1.649 -0.4359  0.4384 -0.5689
 8388SOL    HW136626   3.911   1.961   1.654  0.0600  0.2953 -0.8285
 8388SOL    HW236627   3.936   2.056   1.744  1.2132 -1.2630 -0.5336
 8389SOL     OW36628   3.512   3.146   4.697 -0.2234  0.1205  0.5814
 8389SOL    HW136629   3.549   3.112   4.779  0.0819 -0.2031  0.3134
 8389SOL    HW236630   3.583   3.207   4.677  0.0380 -0.7708 -1.2082
 8390SOL     OW36631   4.119   3.028  10.053 -0.7376  0.7311 -0.1194
 8390SOL    HW136632   4.091   2.974   9.979 -2.6746  2.1703 -0.4382
 8390SOL    HW236633   4.051   3.012  10.119 -2.2501  1.3560 -1.5035
 8391SOL     OW36634   2.423   2.697  14.155  0.8016  0.4190  0.6806
 8391SOL    HW136635   2.495   2.675  14.097  0.8593  0.1129  0.8686
 8391SOL    HW236636   2.437   2.627  14.219 -1.0986 -0.9387 -0.3783
 8392SOL     OW36637   0.934   1.888   3.608  0.5019  0.3833 -0.3769
 8392SOL    HW136638   0.862   1.879   3.545  0.3012 -2.3823  0.2467
 8392SOL    HW236639   0.921   1.815   3.668  0.3428  2.2980  1.8828
 8393SOL     OW36640   0.970   0.618   6.225 -0.0368  0.4089  0.2073
 8393SOL    HW136641   1.007   0.698   6.261  0.1897  0.1712  0.5084
 8393SOL    HW236642   0.966   0.626   6.130 -1.2708  1.6714  0.3639
 8394SOL     OW36643   0.422   1.451   0.677  0.1485  0.1183 -0.9835
 8394SOL    HW136644   0.344   1.439   0.622  0.3482  1.0404 -1.4616
 8394SOL    HW236645   0.495   1.419   0.623  0.5163 -0.1834 -0.2994
 8395SOL     OW36646   2.675   3.584   5.094 -0.7282  0.2712  0.1880
 8395SOL    HW136647   2.674   3.518   5.025 -2.5599  1.1742 -0.6605
 8395SOL    HW236648   2.585   3.582   5.128 -0.6434 -0.5507  0.3571
 8396SOL     OW36649   0.065   2.522   5.637 -0.1145  0.0501 -0.2299
 8396SOL    HW136650   0.031   2.509   5.549  3.9098 -0.6444 -1.6727
 8396SOL    HW236651   0.155   2.551   5.622 -0.3979  1.5035  0.8087
 8397SOL     OW36652   3.791   2.968   7.875  0.1457 -0.8846  0.0301
 8397SOL    HW136653   3.758   2.878   7.873  0.8199 -1.1175 -0.5947
 8397SOL    HW236654   3.773   2.988   7.967  0.8353 -0.3970  0.0579
 8398SOL     OW36655   3.373   2.588   5.251 -0.1715 -0.5293 -0.4172
 8398SOL    HW136656   3.346   2.548   5.334  0.1174 -0.2460 -0.1863
 8398SOL    HW236657   3.290   2.581   5.203  0.1846 -1.3518 -0.9126
 8399SOL     OW36658   0.258   3.420   6.251  0.1953  0.3130  0.2249
 8399SOL    HW136659   0.222   3.465   6.174  2.2027  0.6052 -0.5533
 8399SOL    HW236660   0.284   3.337   6.210 -1.3969  0.2800 -0.7212
 8400SOL     OW36661   1.488   1.913  12.139  0.7563  0.2179 -0.1513
 8400SOL    HW136662   1.480   1.992  12.085  0.5397 -0.4398 -1.0799
 8400SOL    HW236663   1.499   1.849  12.069 -0.9617  0.0472 -0.2754
 8401SOL     OW36664   0.684   0.092   8.913  0.6303  0.0773 -0.0445
 8401SOL    HW136665   0.768   0.111   8.955  1.1459 -0.6422 -0.7533
 8401SOL    HW236666   0.626   0.089   8.988  1.5403  0.3490  0.6754
 8402SOL     OW36667   4.201   1.902  16.941  0.6000 -0.2300  0.0017
 8402SOL    HW136668   4.115   1.940  16.924  0.0802 -0.8852  1.2066
 8402SOL    HW236669   4.252   1.929  16.864  0.2396 -0.7431 -0.4188
 8403SOL     OW36670   3.974   1.718  11.488  0.2183  0.2313  0.2605
 8403SOL    HW136671   3.917   1.722  11.564 -0.4318  0.6772 -0.2500
 8403SOL    HW236672   3.906   1.733  11.423 -0.7406  1.1955  1.4924
 8404SOL     OW36673   2.851   2.121   8.756  0.7116  0.4008  0.0708
 8404SOL    HW136674   2.922   2.056   8.757  0.1971 -0.1719 -0.5795
 8404SOL    HW236675   2.866   2.162   8.840 -1.6197 -1.3410  1.3270
 8405SOL     OW36676   1.852   0.476   8.435 -0.2233  0.6741  0.0649
 8405SOL    HW136677   1.885   0.417   8.503  0.8062 -0.8093 -1.7592
 8405SOL    HW236678   1.905   0.444   8.363  0.3005 -0.4354  0.9350
 8406SOL     OW36679   1.999   2.710  11.050  0.6601  0.2872  0.5576
 8406SOL    HW136680   2.059   2.704  11.124 -0.4500 -1.0895  1.3454
 8406SOL    HW236681   1.992   2.804  11.031 -1.2566  0.2783  1.1497
 8407SOL     OW36682   3.368   3.549   7.552  0.2333  0.0390  0.1254
 8407SOL    HW136683   3.421   3.572   7.476 -1.5359  1.1350 -0.7848
 8407SOL    HW236684   3.439   3.536   7.614  0.4116  1.0841  0.1409
 8408SOL     OW36685   3.761   0.042   5.464  0.0831  0.7452 -0.2404
 8408SOL    HW136686   3.766   4.670   5.467  0.9139  0.7924 -0.1712
 8408SOL    HW236687   3.767   0.071   5.555 -1.2732  0.7848 -0.1544
 8409SOL     OW36688   0.240   0.362  16.538  0.4106  0.7290  0.3658
 8409SOL    HW136689   0.229   0.446  16.492 -0.8110  0.3301 -0.0736
 8409SOL    HW236690   0.334   0.349  16.534  0.4556  1.4993 -0.9137
 8410SOL     OW36691   3.453   2.078   3.536  0.0773  0.2016  0.0937
 8410SOL    HW136692   3.465   2.028   3.617  0.8431  2.6484  1.4868
 8410SOL    HW236693   3.495   2.162   3.553  0.2897  0.8049 -3.3076
 8411SOL     OW36694   4.501   1.290   6.993 -0.2641  0.0728 -0.0064
 8411SOL    HW136695   4.416   1.260   7.025  0.2954  0.4801  1.8921
 8411SOL    HW236696   4.537   1.217   6.943  1.6301  1.4746 -0.6881
 8412SOL     OW36697   2.062   1.072   6.678  0.1089  0.3225 -0.0043
 8412SOL    HW136698   2.035   1.064   6.586  2.4310 -3.2373 -0.3666
 8412SOL    HW236699   2.142   1.123   6.665 -0.3289  1.5290  2.0851
 8413SOL     OW36700   0.685   0.200  14.977  0.4914 -0.1094  0.2772
 8413SOL    HW136701   0.649   0.154  14.901  1.6468 -0.4882 -0.0449
 8413SOL    HW236702   0.773   0.163  14.973  0.3140 -0.6213  1.3316
 8414SOL     OW36703   0.160   4.408   6.175 -0.0664 -0.0669 -1.1407
 8414SOL    HW136704   0.090   4.457   6.219 -0.3241 -3.1718  1.9189
 8414SOL    HW236705   0.206   4.360   6.244 -1.3325 -1.8344 -1.5119
 8415SOL     OW36706   3.193   4.446  12.866 -0.1542  0.1935 -0.2809
 8415SOL    HW136707   3.277   4.474  12.900 -0.9661  2.5583 -0.2027
 8415SOL    HW236708   3.223   4.368  12.819  0.9451  0.2380  0.3607
 8416SOL     OW36709   1.652   0.779   7.290  0.0800 -0.3398 -0.1126
 8416SOL    HW136710   1.717   0.839   7.253 -0.6942 -0.4609 -1.6604
 8416SOL    HW236711   1.649   0.804   7.382 -3.5731  1.3075 -0.6955
 8417SOL     OW36712   1.291   2.714   1.170 -0.1761 -0.2252  0.0627
 8417SOL    HW136713   1.266   2.622   1.166  1.1255 -0.5645 -0.4046
 8417SOL    HW236714   1.218   2.756   1.215  0.1948  2.2399 -1.6495
 8418SOL     OW36715   2.704   3.077   5.860  0.3241 -0.4115 -0.2234
 8418SOL    HW136716   2.700   3.149   5.923 -0.4743 -0.9194  0.3091
 8418SOL    HW236717   2.777   3.097   5.803  0.7961  0.3694  0.6506
 8419SOL     OW36718   3.197   1.687   5.930  0.3626 -0.3638  0.2370
 8419SOL    HW136719   3.152   1.645   5.856  1.5354 -2.2033  0.5552
 8419SOL    HW236720   3.120   1.691   5.987 -0.3943  0.9067 -0.8877
 8420SOL     OW36721   4.371   3.373   6.731 -0.0708  0.2446 -0.2705
 8420SOL    HW136722   4.286   3.351   6.694 -1.4620  2.2066  1.8184
 8420SOL    HW236723   4.425   3.295   6.717 -1.1248 -0.0724 -2.5679
 8421SOL     OW36724   4.436   2.876   8.126 -0.2229  0.3152  0.0971
 8421SOL    HW136725   4.505   2.932   8.161 -0.8078  0.1266  1.5726
 8421SOL    HW236726   4.469   2.857   8.038 -2.1510  1.3994 -0.8596
 8422SOL     OW36727   3.260   1.840   6.884 -0.3897  0.5644  0.3906
 8422SOL    HW136728   3.165   1.847   6.889 -0.3604 -0.3989  2.0886
 8422SOL    HW236729   3.279   1.886   6.965  4.2853  0.1011 -0.4479
 8423SOL     OW36730   1.309   2.865   8.100 -0.4726 -0.0646 -0.1707
 8423SOL    HW136731   1.305   2.922   8.023  2.4972 -1.7174 -1.5471
 8423SOL    HW236732   1.236   2.901   8.150  0.2915  0.7235  0.3775
 8424SOL     OW36733   0.802   4.575  11.237 -0.3062  0.3174 -0.4530
 8424SOL    HW136734   0.784   4.545  11.327 -2.3576  2.7633 -0.0504
 8424SOL    HW236735   0.850   4.657  11.250 -1.1494  0.9591 -1.3780
 8425SOL     OW36736   0.967   2.964  13.137 -0.3236 -0.5782  0.2091
 8425SOL    HW136737   1.042   2.909  13.115 -0.0340 -0.9406  2.1200
 8425SOL    HW236738   0.983   3.040  13.081 -0.6657 -1.6671 -1.3796
 8426SOL     OW36739   1.482   4.548   4.971  0.1248 -0.0283 -0.4745
 8426SOL    HW136740   1.440   4.501   4.899 -1.3147 -0.2301  0.4951
 8426SOL    HW236741   1.449   4.635   4.946 -0.3910  0.1236  0.7487
 8427SOL     OW36742   0.708   1.693   1.522 -0.1830  0.0658 -0.0245
 8427SOL    HW136743   0.622   1.720   1.555  0.9195  3.4333  0.0077
 8427SOL    HW236744   0.706   1.598   1.539 -0.3634 -0.6854 -4.3653
 8428SOL     OW36745   1.960   2.573  11.596  0.4485 -0.2922  0.7283
 8428SOL    HW136746   1.938   2.553  11.505 -0.6529  0.2301  0.8877
 8428SOL    HW236747   1.926   2.660  11.615  0.3555 -0.5274  1.6614
 8429SOL     OW36748   1.058   3.925  15.361 -0.7539  0.4446  0.3768
 8429SOL    HW136749   1.000   3.999  15.380 -0.5753  0.5570  0.4822
 8429SOL    HW236750   1.002   3.851  15.336  1.0060  0.4050 -3.4836
 8430SOL     OW36751   2.717   1.789   4.759  0.1589  0.1980 -0.3090
 8430SOL    HW136752   2.788   1.852   4.770 -0.3439  0.6468  0.3231
 8430SOL    HW236753   2.725   1.747   4.845  0.6141  1.9436  0.5076
 8431SOL     OW36754   0.247   3.825   7.693  0.4182 -0.0121 -0.3568
 8431SOL    HW136755   0.309   3.785   7.753  0.1821  0.5324  0.2483
 8431SOL    HW236756   0.261   3.777   7.611 -1.8115 -0.7588 -0.2924
 8432SOL     OW36757   1.761   3.172   6.650 -0.0143  0.2580  0.3618
 8432SOL    HW136758   1.725   3.191   6.737  1.4417  1.0829  0.7888
 8432SOL    HW236759   1.732   3.247   6.597 -0.5409 -0.3581 -0.2182
 8433SOL     OW36760   4.197   3.823   1.438  0.2611 -0.5884 -0.1298
 8433SOL    HW136761   4.248   3.851   1.362  1.8204 -1.4232  0.6140
 8433SOL    HW236762   4.163   3.907   1.467 -0.9322 -1.1424  0.0787
 8434SOL     OW36763   2.070   0.561  10.711  0.3541 -0.6361  0.2621
 8434SOL    HW136764   2.031   0.627  10.768  1.7241  1.3493 -1.1115
 8434SOL    HW236765   2.045   0.600  10.627 -0.1811 -1.0157  0.2474
 8435SOL     OW36766   0.621   4.209  14.190 -0.0014  0.2092  0.7950
 8435SOL    HW136767   0.676   4.224  14.113 -1.5649 -1.2901 -0.6271
 8435SOL    HW236768   0.699   4.209  14.245 -0.6664 -0.6187  1.7255
 8436SOL     OW36769   1.795   4.209   4.642  0.1760 -0.0267  0.3156
 8436SOL    HW136770   1.848   4.192   4.564 -1.0996  0.9353 -0.7614
 8436SOL    HW236771   1.737   4.280   4.614 -1.6394 -1.0288  1.5140
 8437SOL     OW36772   2.275   3.310   8.955  0.2759 -0.1760 -0.8733
 8437SOL    HW136773   2.212   3.338   8.888  0.3229  2.5254  0.1738
 8437SOL    HW236774   2.266   3.216   8.964  2.3684 -0.4419 -1.6791
 8438SOL     OW36775   1.579   1.267   4.078  0.0939  0.5928  0.6344
 8438SOL    HW136776   1.508   1.203   4.073 -1.0202  1.7923  1.2997
 8438SOL    HW236777   1.633   1.215   4.137  0.6950  1.2406  0.6536
 8439SOL     OW36778   1.670   1.879   0.005  0.3348 -0.6406 -0.7625
 8439SOL    HW136779   1.589   1.892   0.054  0.4956 -0.9218 -0.4184
 8439SOL    HW236780   1.659   1.785  17.684  0.0075 -0.8822  1.0401
 8440SOL     OW36781   2.506   3.981   2.750 -0.4069 -0.2469 -0.7287
 8440SOL    HW136782   2.490   3.965   2.843 -2.6034  1.8756 -0.7671
 8440SOL    HW236783   2.438   3.933   2.703 -1.4580 -0.1611  0.7078
 8441SOL     OW36784   3.006   2.529  15.636 -0.6075 -0.0514 -0.1141
 8441SOL    HW136785   3.004   2.578  15.719 -1.8624  2.6486 -1.7390
 8441SOL    HW236786   2.914   2.507  15.628 -0.7332 -0.1655  1.5718
 8442SOL     OW36787   2.459   0.555  15.346 -0.3685  0.4201 -0.0375
 8442SOL    HW136788   2.379   0.504  15.356 -0.7900  1.1341  0.2833
 8442SOL    HW236789   2.516   0.482  15.323 -1.0065  0.3373 -1.3024
 8443SOL     OW36790   1.407   0.789   4.063 -0.6312  0.0040  0.2279
 8443SOL    HW136791   1.311   0.791   4.067 -0.5733  0.3520  1.5211
 8443SOL    HW236792   1.424   0.743   3.981  0.7842 -0.2318  0.6581
 8444SOL     OW36793   0.957   2.282   5.218 -0.6794 -0.1229  0.7490
 8444SOL    HW136794   0.981   2.198   5.256 -0.6670  0.0969  1.2154
 8444SOL    HW236795   1.035   2.332   5.239  0.6992 -1.2720 -1.5768
 8445SOL     OW36796   4.634   3.760   9.225  0.1222 -0.1766 -0.6666
 8445SOL    HW136797   4.577   3.751   9.301  0.3062  0.4060 -0.4573
 8445SOL    HW236798   4.567   3.783   9.160 -1.1147 -0.5607  0.4618
 8446SOL     OW36799   1.955   0.679   7.206  0.2699  0.4200  0.6136
 8446SOL    HW136800   1.993   0.730   7.277  0.1119  0.1507  0.8899
 8446SOL    HW236801   1.862   0.690   7.228 -0.2794  1.5232 -2.1754
 8447SOL     OW36802   4.047   1.144  13.560 -0.2026 -0.0594  0.3869
 8447SOL    HW136803   4.036   1.239  13.559  1.0350  0.1092  1.8276
 8447SOL    HW236804   3.959   1.117  13.534 -0.4245 -1.1059  2.2343
 8448SOL     OW36805   0.582   2.517   2.309  0.1710 -0.1231  0.4939
 8448SOL    HW136806   0.617   2.575   2.242 -0.7612 -1.0761 -0.8254
 8448SOL    HW236807   0.625   2.432   2.294 -0.5184 -0.5156  0.7341
 8449SOL     OW36808   0.935   2.379   8.605  0.0672  0.3225  0.2250
 8449SOL    HW136809   0.928   2.471   8.580 -1.5025  0.4122  0.9713
 8449SOL    HW236810   0.869   2.378   8.675 -1.0357  2.7307 -0.7900
 8450SOL     OW36811   4.236   0.831   9.179  0.1077  0.2377 -0.6958
 8450SOL    HW136812   4.157   0.853   9.230  1.1932  1.3378  0.4956
 8450SOL    HW236813   4.207   0.746   9.145  0.1257 -0.0074 -0.0904
 8451SOL     OW36814   0.962   4.278  11.887 -0.2707 -0.2959 -0.1856
 8451SOL    HW136815   0.926   4.232  11.962 -0.8953 -1.9905 -1.5254
 8451SOL    HW236816   0.981   4.201  11.833  1.0605 -1.3640  1.8007
 8452SOL     OW36817   0.902   3.229  15.835 -0.2918  0.5972  0.4142
 8452SOL    HW136818   0.874   3.210  15.925  1.3125 -2.8063  0.1991
 8452SOL    HW236819   0.984   3.274  15.854  0.6610 -0.0670 -2.1739
 8453SOL     OW36820   4.315   0.631   9.599 -0.0918 -0.1467 -0.4246
 8453SOL    HW136821   4.228   0.643   9.563 -1.0520 -0.0452  1.9379
 8453SOL    HW236822   4.316   0.679   9.682  0.9289  1.3362 -1.2987
 8454SOL     OW36823   1.736   4.309   2.987  0.0745  0.2675  0.0223
 8454SOL    HW136824   1.799   4.250   3.028  0.1164  1.3269  1.4948
 8454SOL    HW236825   1.779   4.390   3.015  1.2305 -0.0700 -0.8195
 8455SOL     OW36826   0.116   0.369  16.283  0.0575 -0.3200 -0.2863
 8455SOL    HW136827   0.206   0.335  16.286  0.1837  0.1384  1.5165
 8455SOL    HW236828   0.119   0.412  16.198 -0.8556 -0.2538 -0.2780
 8456SOL     OW36829   4.358   2.682   0.634 -0.0765 -0.2337 -0.2123
 8456SOL    HW136830   4.437   2.710   0.587 -0.5957  0.2825 -0.7870
 8456SOL    HW236831   4.383   2.632   0.711 -0.9319 -2.8622 -1.6397
 8457SOL     OW36832   4.630   4.636   1.884 -0.6781 -0.3269 -0.0381
 8457SOL    HW136833   4.711   4.676   1.917 -1.2310 -0.0752  1.0183
 8457SOL    HW236834   4.566   4.694   1.926 -0.6780 -0.3503 -0.0056
 8458SOL     OW36835   4.586   4.496   5.718 -0.4551 -0.1846  0.2332
 8458SOL    HW136836   4.594   4.444   5.798 -2.7817 -0.4428  0.2934
 8458SOL    HW236837   4.667   4.505   5.667  0.3156  0.0161  1.4940
 8459SOL     OW36838   3.163   2.557   6.984 -0.5277 -0.1384 -0.0607
 8459SOL    HW136839   3.244   2.553   7.034 -0.3832  1.8443 -0.1362
 8459SOL    HW236840   3.193   2.598   6.903  0.7399 -0.0315  0.4708
 8460SOL     OW36841   4.011   2.585   8.236 -0.0591 -0.3945  0.1161
 8460SOL    HW136842   4.097   2.624   8.249  0.5106 -1.4480 -0.5224
 8460SOL    HW236843   3.961   2.662   8.208  0.1709 -1.2324 -2.6070
 8461SOL     OW36844   3.890   4.037   6.436 -0.0495 -0.2038 -0.0695
 8461SOL    HW136845   3.897   4.018   6.342 -1.8540 -1.3778  0.0290
 8461SOL    HW236846   3.812   3.984   6.451 -0.8744  0.7255 -1.0498
 8462SOL     OW36847   3.763   4.124   0.318 -0.2524  0.7672 -0.0920
 8462SOL    HW136848   3.721   4.208   0.335 -1.8394  0.0938 -0.7107
 8462SOL    HW236849   3.712   4.065   0.373  0.9888  0.2272  0.4953
 8463SOL     OW36850   1.637   0.519   4.880 -0.0301 -0.2364  0.4523
 8463SOL    HW136851   1.672   0.590   4.826  0.6354 -0.9734 -0.0774
 8463SOL    HW236852   1.709   0.513   4.942  0.6608 -1.8910 -0.5092
 8464SOL     OW36853   2.795   3.505   1.518 -0.1963 -0.0254 -0.0276
 8464SOL    HW136854   2.705   3.472   1.519 -1.1060  2.4381  1.1140
 8464SOL    HW236855   2.839   3.449   1.580 -1.2911 -0.2471  0.5485
 8465SOL     OW36856   3.894   3.362   7.013 -0.0771  0.1850  0.6435
 8465SOL    HW136857   3.806   3.344   6.978  1.2556 -3.2158 -1.0074
 8465SOL    HW236858   3.882   3.322   7.099  0.1898  1.1087  1.1079
 8466SOL     OW36859   1.496   3.052   0.955  0.2483 -0.4772 -0.1408
 8466SOL    HW136860   1.525   3.049   1.046 -0.7409 -1.5850  0.1365
 8466SOL    HW236861   1.434   2.979   0.952  0.8852 -1.0149 -0.3042
 8467SOL     OW36862   0.082   2.304   4.350  0.0353 -0.0503  0.0679
 8467SOL    HW136863   0.001   2.292   4.400  0.2298  2.4409  0.9925
 8467SOL    HW236864   0.140   2.332   4.420 -0.8423  1.2609  0.2825
 8468SOL     OW36865   0.537   4.209   6.534 -0.5604 -0.0730  0.4249
 8468SOL    HW136866   0.458   4.247   6.497 -0.3040 -2.1273 -2.2015
 8468SOL    HW236867   0.552   4.256   6.616 -0.2816 -0.5267  0.6347
 8469SOL     OW36868   1.050   1.919   4.832 -0.2006  0.5380 -0.1226
 8469SOL    HW136869   1.067   1.841   4.885  0.5846  1.7369  1.3830
 8469SOL    HW236870   1.125   1.909   4.774 -1.1361 -1.0571 -1.0724
 8470SOL     OW36871   2.361   3.915   7.206  0.1201  0.2537 -0.2318
 8470SOL    HW136872   2.367   3.981   7.274  1.4197  0.6369 -0.7248
 8470SOL    HW236873   2.444   3.870   7.222 -0.1828 -1.2083 -2.7423
 8471SOL     OW36874   3.636   2.267   2.032  0.2321 -0.3621 -0.0896
 8471SOL    HW136875   3.615   2.181   1.995  0.1125  0.5812 -2.2278
 8471SOL    HW236876   3.725   2.260   2.066  1.2944  1.3880 -2.5021
 8472SOL     OW36877   2.275   1.225   5.208  0.1690 -0.2083 -0.1938
 8472SOL    HW136878   2.206   1.166   5.180  0.1561  0.5590 -1.7909
 8472SOL    HW236879   2.345   1.163   5.227 -0.8149 -1.4742 -0.7442
 8473SOL     OW36880   2.016   1.977   1.804 -0.3075  0.0123  0.0399
 8473SOL    HW136881   1.980   1.889   1.805 -0.7349  0.1676 -1.8053
 8473SOL    HW236882   1.979   2.022   1.729 -0.8494 -0.4171  0.0568
 8474SOL     OW36883   1.351   1.632  14.024 -0.3529 -0.6858 -0.7892
 8474SOL    HW136884   1.413   1.673  14.085 -1.4275  1.0436 -0.8638
 8474SOL    HW236885   1.344   1.543  14.058  0.9901 -0.1850  0.7837
 8475SOL     OW36886   3.698   3.713   4.957  0.0463  0.2667  0.0136
 8475SOL    HW136887   3.715   3.759   4.874  1.5307  0.7086  0.5582
 8475SOL    HW236888   3.716   3.620   4.942  1.3750  0.5482 -0.1875
 8476SOL     OW36889   0.234   1.989   2.210 -0.1742 -0.1710 -0.6594
 8476SOL    HW136890   0.161   1.966   2.266  1.2606 -1.2525  0.7624
 8476SOL    HW236891   0.300   2.021   2.272  3.2280 -1.3306 -3.6593
 8477SOL     OW36892   4.577   3.545  12.157  0.6524  0.1632 -0.1153
 8477SOL    HW136893   4.596   3.591  12.075 -2.1516  0.4692 -0.6053
 8477SOL    HW236894   4.518   3.475  12.129 -1.1514  1.3705  0.6626
 8478SOL     OW36895   2.884   3.730   4.370  0.4103 -0.1293  0.3521
 8478SOL    HW136896   2.893   3.703   4.278 -0.1740 -0.0136  0.2632
 8478SOL    HW236897   2.954   3.691   4.422  0.8845 -1.2180 -1.1214
 8479SOL     OW36898   3.979   2.876   9.891  0.6839 -0.0747  0.0173
 8479SOL    HW136899   4.017   2.790   9.875  2.5609  0.5804  0.9779
 8479SOL    HW236900   3.894   2.849   9.924  0.2301  0.2373 -0.8929
 8480SOL     OW36901   1.892   3.860   1.705 -0.4459  0.7456 -0.0755
 8480SOL    HW136902   1.802   3.894   1.697 -0.1414  1.5827  0.0107
 8480SOL    HW236903   1.944   3.932   1.670 -1.3669  0.8929 -1.1487
 8481SOL     OW36904   4.353   0.288   7.665  0.5743  0.3774 -0.0570
 8481SOL    HW136905   4.359   0.383   7.656  1.0763  0.3613  0.0856
 8481SOL    HW236906   4.298   0.270   7.589  1.1773  1.7049 -0.7926
 8482SOL     OW36907   0.432   4.073   8.779 -0.5375  0.1316 -0.0167
 8482SOL    HW136908   0.525   4.051   8.777 -0.2443  1.2408  1.2978
 8482SOL    HW236909   0.431   4.166   8.802  2.1400  0.5890 -1.7534
 8483SOL     OW36910   1.449   1.723   5.207  0.4646  0.0379  0.1849
 8483SOL    HW136911   1.371   1.767   5.241 -0.0056 -1.4549  0.9849
 8483SOL    HW236912   1.431   1.631   5.224  1.3486 -0.0491  0.6473
 8484SOL     OW36913   1.163   2.369  11.557  0.3088  0.5092  0.2499
 8484SOL    HW136914   1.219   2.379  11.634  1.0845 -2.4485  0.0717
 8484SOL    HW236915   1.223   2.313  11.509  0.0095 -0.4403  0.9827
 8485SOL     OW36916   1.902   0.064   1.152 -0.1584 -1.0811 -0.1509
 8485SOL    HW136917   1.814   0.032   1.136 -1.1705  1.4479  0.4475
 8485SOL    HW236918   1.906   0.090   1.244 -1.2124  1.1494 -0.7344
 8486SOL     OW36919   3.455   2.590  11.620 -0.3463 -0.3623  0.0652
 8486SOL    HW136920   3.423   2.511  11.576  2.1023 -0.1177 -2.1449
 8486SOL    HW236921   3.407   2.580  11.702 -0.4411 -0.2271  0.0269
 8487SOL     OW36922   1.417   2.414   4.049 -0.1420 -0.0554  0.3155
 8487SOL    HW136923   1.349   2.423   4.116 -1.4346 -0.4803 -0.9414
 8487SOL    HW236924   1.460   2.499   4.051 -3.9131  1.8394 -0.0897
 8488SOL     OW36925   2.724   3.430   0.979  0.1538  0.3501 -0.2752
 8488SOL    HW136926   2.682   3.355   1.020  0.8859  0.3708  0.5005
 8488SOL    HW236927   2.657   3.496   0.993 -0.3573 -0.0856 -0.6543
 8489SOL     OW36928   0.150   0.285   5.176 -0.3033 -0.2024  0.1786
 8489SOL    HW136929   0.185   0.305   5.263 -0.5811 -1.6920  0.6262
 8489SOL    HW236930   0.057   0.310   5.177 -0.3166 -0.2510  0.1830
 8490SOL     OW36931   2.704   3.966   6.909  0.2401  0.2550 -0.4474
 8490SOL    HW136932   2.620   3.927   6.886  0.0908  0.8658 -0.9327
 8490SOL    HW236933   2.697   4.060   6.894  0.0917  0.2788 -0.2323
 8491SOL     OW36934   1.363   2.629  12.862  0.2586  0.1798 -0.5692
 8491SOL    HW136935   1.269   2.644  12.847  0.2070  0.5532  0.1150
 8491SOL    HW236936   1.351   2.581  12.945 -0.7731 -0.5186 -1.1143
 8492SOL     OW36937   0.929   0.116  12.714 -0.0820  0.3963 -0.0474
 8492SOL    HW136938   0.990   0.190  12.713  2.8796 -2.1195 -1.6141
 8492SOL    HW236939   0.903   0.117  12.806  4.9569 -0.1150  1.3668
 8493SOL     OW36940   3.186   3.995   9.249  0.2867 -0.3692  0.0118
 8493SOL    HW136941   3.118   3.958   9.304 -0.0142  0.5543  0.2537
 8493SOL    HW236942   3.222   3.909   9.229 -1.9115 -0.8125 -2.0387
 8494SOL     OW36943   0.919   3.363   9.750  0.0387  0.5611  0.0731
 8494SOL    HW136944   0.888   3.320   9.829  0.2531  0.1192 -0.0861
 8494SOL    HW236945   0.904   3.297   9.683  0.6211 -0.6411  1.1150
 8495SOL     OW36946   3.836   0.667   4.908 -0.5247 -0.3004 -0.1064
 8495SOL    HW136947   3.895   0.592   4.913 -0.3160 -0.2468 -1.7715
 8495SOL    HW236948   3.883   0.730   4.963 -1.4494  0.7100 -0.4550
 8496SOL     OW36949   2.396   0.592   2.398  0.2899  0.2526 -0.2781
 8496SOL    HW136950   2.366   0.675   2.362 -0.0761  0.3912  0.3396
 8496SOL    HW236951   2.313   0.550   2.420  0.0129 -0.3366 -2.4381
 8497SOL     OW36952   2.659   4.711  17.583 -0.1682 -0.1686 -0.0568
 8497SOL    HW136953   2.678   0.062  17.525  3.4821 -1.4997 -0.5466
 8497SOL    HW236954   2.738   4.709  17.637 -1.2262 -1.0294  1.4422
 8498SOL     OW36955   2.252   2.379  14.982  0.0225  0.2491  0.9775
 8498SOL    HW136956   2.255   2.475  14.983 -1.1980  0.2857  0.8949
 8498SOL    HW236957   2.343   2.361  15.004  0.3743 -0.9580 -1.4186
 8499SOL     OW36958   0.039   4.511  13.537  0.4792  0.9997  0.3722
 8499SOL    HW136959   0.041   4.487  13.444  1.0554  1.3524  0.2963
 8499SOL    HW236960   0.038   4.606  13.534  2.2256  1.0023 -0.2803
 8500SOL     OW36961   2.333   0.733   6.577 -0.3145  0.6204 -1.0779
 8500SOL    HW136962   2.395   0.743   6.505 -0.2557  1.8031 -0.8485
 8500SOL    HW236963   2.290   0.648   6.561 -2.6454  1.3994  1.0079
 8501SOL     OW36964   0.225   0.748   7.022 -0.1622 -0.2041  0.1281
 8501SOL    HW136965   0.174   0.742   6.941  2.4995  4.0540 -1.8920
 8501SOL    HW236966   0.230   0.655   7.044 -1.3732 -0.6299 -1.3581
 8502SOL     OW36967   3.417   2.985   7.480  0.1607 -0.2899 -0.3255
 8502SOL    HW136968   3.363   2.922   7.528  1.8711 -0.4525  1.3927
 8502SOL    HW236969   3.408   3.054   7.546 -0.8624  0.4759 -1.2516
 8503SOL     OW36970   2.377   2.993   5.157 -0.0856 -0.0914  0.3687
 8503SOL    HW136971   2.412   3.067   5.207 -1.4636  0.8370 -0.0325
 8503SOL    HW236972   2.286   3.003   5.185 -0.3454 -0.3955 -0.3648
 8504SOL     OW36973   0.186   3.006   6.538 -0.0917 -0.2560 -0.5727
 8504SOL    HW136974   0.228   3.092   6.542  0.6827 -0.7713  1.9961
 8504SOL    HW236975   0.107   3.029   6.587 -0.5282 -1.3975 -0.7535
 8505SOL     OW36976   0.050   3.538   7.775 -0.2766 -0.0867 -0.2852
 8505SOL    HW136977   0.034   3.478   7.847  0.1194 -0.9313 -0.8967
 8505SOL    HW236978   0.045   3.617   7.829 -1.8705 -1.0597  0.9679
 8506SOL     OW36979   2.718   2.608  10.865 -0.0969  0.5498 -0.3365
 8506SOL    HW136980   2.630   2.642  10.883 -0.2735 -0.7570  1.2762
 8506SOL    HW236981   2.739   2.556  10.942  0.8355  1.6258  0.1398
 8507SOL     OW36982   1.062   3.375   2.308 -0.3888 -0.1925  0.6685
 8507SOL    HW136983   1.063   3.298   2.366  1.5181 -0.1501  0.7077
 8507SOL    HW236984   1.098   3.340   2.227 -2.4326  4.1204 -2.0513
 8508SOL     OW36985   2.067   4.559  11.075 -0.2232  0.4027 -0.2708
 8508SOL    HW136986   2.021   4.509  11.008 -0.7911  1.8380 -0.9567
 8508SOL    HW236987   2.090   4.493  11.140  2.1508 -0.0063 -1.5004
 8509SOL     OW36988   0.167   2.211   7.777  0.0280  0.1781  0.1045
 8509SOL    HW136989   0.108   2.136   7.782 -0.4625  0.3948 -2.5352
 8509SOL    HW236990   0.104   2.275   7.742  2.1644  1.8014 -0.7477
 8510SOL     OW36991   2.785   2.220   3.251 -0.1741  0.8249 -0.0713
 8510SOL    HW136992   2.750   2.131   3.240 -0.0956  0.6525  1.0967
 8510SOL    HW236993   2.794   2.214   3.346  1.9370 -0.4276 -0.3436
 8511SOL     OW36994   2.743   4.037  15.287  0.6733 -0.0469  0.0977
 8511SOL    HW136995   2.782   3.962  15.332  0.4405 -2.0156 -3.0190
 8511SOL    HW236996   2.741   4.096  15.363  1.8265 -0.8713  0.7638
 8512SOL     OW36997   1.009   3.441   6.840  0.1423  0.2717 -0.8604
 8512SOL    HW136998   1.099   3.454   6.810  0.0564  1.6263 -0.5461
 8512SOL    HW236999   0.992   3.347   6.840 -3.5234  0.9492 -0.9964
 8513SOL     OW37000   1.028   0.369  14.831 -0.4831 -0.0613 -0.5218
 8513SOL    HW137001   1.030   0.465  14.822 -0.1892 -0.0987 -0.8563
 8513SOL    HW237002   0.960   0.359  14.765 -0.4883  1.3722 -0.7316
 8514SOL     OW37003   1.809   3.374  12.361  0.2290 -0.7215  0.1059
 8514SOL    HW137004   1.815   3.283  12.331  1.3498 -0.6812  0.2125
 8514SOL    HW237005   1.874   3.412  12.301  1.3442  0.2175  1.8989
 8515SOL     OW37006   0.319   3.668   4.385  0.4768 -0.4294  0.3724
 8515SOL    HW137007   0.268   3.634   4.459  1.3856 -1.3819  0.5543
 8515SOL    HW237008   0.299   3.761   4.396 -0.0146 -0.7887  2.4613
 8516SOL     OW37009   4.044   1.315   2.403 -0.2659 -0.4233 -0.2481
 8516SOL    HW137010   3.955   1.350   2.409 -1.0170 -2.4252  0.4846
 8516SOL    HW237011   4.031   1.241   2.343 -2.9348 -1.8234  2.0749
 8517SOL     OW37012   0.410   1.801   2.954 -0.3237 -0.0257  0.0683
 8517SOL    HW137013   0.483   1.828   2.899 -0.8498 -0.8593 -1.0465
 8517SOL    HW237014   0.396   1.716   2.913  0.9738 -0.6918  1.0103
 8518SOL     OW37015   0.708   3.632   8.857 -0.2734  0.0780  0.0070
 8518SOL    HW137016   0.643   3.664   8.795  0.0993 -1.9798 -1.4577
 8518SOL    HW237017   0.730   3.714   8.902  0.2074 -0.3504  0.5507
 8519SOL     OW37018   4.543   0.173  13.576 -0.2199  0.1146 -0.1376
 8519SOL    HW137019   4.622   0.128  13.546  1.1444  1.0269  2.0975
 8519SOL    HW237020   4.539   0.243  13.511  1.3068  1.7393  1.5474
 8520SOL     OW37021   2.360   3.737   8.196  0.8109  0.3191  0.1875
 8520SOL    HW137022   2.355   3.703   8.286 -2.7040  0.2179 -0.0785
 8520SOL    HW237023   2.401   3.822   8.217  2.0002 -0.6658  1.8458
 8521SOL     OW37024   0.392   1.425   3.068 -0.0031  0.1232 -0.5804
 8521SOL    HW137025   0.484   1.443   3.054  0.4859  0.2372  2.7044
 8521SOL    HW237026   0.379   1.350   3.011 -0.1469 -0.2707 -0.0329
 8522SOL     OW37027   2.420   1.590   1.045  0.0354 -0.4334  0.5027
 8522SOL    HW137028   2.389   1.679   1.063  3.3144  0.4519  1.7218
 8522SOL    HW237029   2.391   1.577   0.954  0.1939 -0.5961  0.4765
 8523SOL     OW37030   2.310   0.405   5.707 -0.3641 -0.1539  0.1150
 8523SOL    HW137031   2.230   0.455   5.721 -0.1173  0.0855  0.6915
 8523SOL    HW237032   2.326   0.430   5.616 -0.6769 -1.3957 -0.2849
 8524SOL     OW37033   2.084   0.990   3.589 -0.6338 -0.0349  0.0417
 8524SOL    HW137034   2.144   0.916   3.586  0.0813  0.5537 -0.1930
 8524SOL    HW237035   2.023   0.959   3.656  0.9100 -0.9865  1.0003
 8525SOL     OW37036   4.288   4.344   1.314 -0.4390  0.0202  0.1019
 8525SOL    HW137037   4.312   4.376   1.400  3.1720 -2.4937  0.0362
 8525SOL    HW237038   4.356   4.384   1.260 -1.0158 -1.0657 -1.4315
 8526SOL     OW37039   3.659   3.514   5.856 -0.5866 -0.5058 -0.3492
 8526SOL    HW137040   3.626   3.603   5.852  3.2737  0.9002 -0.9642
 8526SOL    HW237041   3.667   3.507   5.761  1.6534 -1.3348 -0.1022
 8527SOL     OW37042   2.867   1.719   1.227  0.5972 -0.3792 -0.3036
 8527SOL    HW137043   2.956   1.688   1.242 -0.0319 -2.2698 -0.4403
 8527SOL    HW237044   2.848   1.745   1.317  0.0611 -2.8301  0.2946
 8528SOL     OW37045   2.123   1.106  14.189 -0.2592  0.0089 -0.3347
 8528SOL    HW137046   2.189   1.038  14.182  1.5326  2.0170 -2.5072
 8528SOL    HW237047   2.156   1.159  14.261  0.0903 -0.2307 -0.3202
 8529SOL     OW37048   0.086   2.330  11.623  0.4188 -0.0720 -0.1228
 8529SOL    HW137049   0.029   2.388  11.674  0.8889  0.3503 -0.0783
 8529SOL    HW237050   0.019   2.280  11.576 -1.5901  1.3682  1.1808
 8530SOL     OW37051   4.632   4.353  17.094 -0.4800 -0.4419  0.1107
 8530SOL    HW137052   4.588   4.432  17.063 -0.6183 -1.2605 -1.7180
 8530SOL    HW237053   4.649   4.310  17.011 -1.6464  0.2590 -0.4930
 8531SOL     OW37054   1.088   2.005   0.296  0.0226  0.2106 -0.0857
 8531SOL    HW137055   1.160   2.048   0.250 -0.9966 -0.7363 -2.6173
 8531SOL    HW237056   1.087   2.056   0.377  0.6055  2.3471 -1.4386
 8532SOL     OW37057   0.413   0.371   7.463  0.1669  0.1305 -0.0424
 8532SOL    HW137058   0.363   0.290   7.465  0.6599 -0.1667  0.5188
 8532SOL    HW237059   0.349   0.429   7.506 -1.0055  0.0042 -1.6483
 8533SOL     OW37060   4.006   0.632   6.843 -0.4381  0.0924 -0.2640
 8533SOL    HW137061   3.975   0.721   6.823 -1.2307 -0.2877 -0.7429
 8533SOL    HW237062   4.082   0.636   6.785  0.7613  0.4058  1.3592
 8534SOL     OW37063   1.527   1.822   3.274 -0.1872  0.4248 -0.1814
 8534SOL    HW137064   1.539   1.738   3.318  0.7508  0.5058 -0.2905
 8534SOL    HW237065   1.511   1.867   3.357  0.9992  0.7234 -0.1166
 8535SOL     OW37066   0.832   2.913   8.182 -0.4200  0.2207  0.0781
 8535SOL    HW137067   0.884   2.833   8.173 -0.3444  0.4491 -1.6935
 8535SOL    HW237068   0.873   2.952   8.259  0.6262 -1.5838  0.4193
 8536SOL     OW37069   0.054   2.796   8.411 -0.0153  0.3266  0.3211
 8536SOL    HW137070   4.685   2.817   8.427 -0.3816 -0.3412 -0.8824
 8536SOL    HW237071   0.042   2.701   8.405  2.5400 -0.0583  1.3505
 8537SOL     OW37072   2.485   3.024   3.872  0.9023 -0.4977  0.3454
 8537SOL    HW137073   2.407   3.025   3.815 -0.7704  4.9961  2.7041
 8537SOL    HW237074   2.517   2.935   3.857  0.0093 -0.8243  0.3637
 8538SOL     OW37075   3.391   1.594   0.952  0.0538 -0.5049  0.6479
 8538SOL    HW137076   3.327   1.640   0.897  0.0866 -0.4317  0.6713
 8538SOL    HW237077   3.455   1.563   0.888 -1.8044 -1.2458 -0.8748
 8539SOL     OW37078   0.787   1.964   8.072 -0.0911 -0.8056  0.6190
 8539SOL    HW137079   0.756   2.055   8.071 -1.0504 -1.1270  1.0763
 8539SOL    HW237080   0.882   1.972   8.064 -0.5525  1.3088 -3.2117
 8540SOL     OW37081   2.088   2.844   4.397  0.4599 -0.4080 -0.0600
 8540SOL    HW137082   2.030   2.915   4.424 -0.5341 -0.8966 -0.8846
 8540SOL    HW237083   2.034   2.794   4.335  1.9152 -0.6916 -1.0955
 8541SOL     OW37084   1.183   2.410   5.328  0.0980  0.1784 -0.4210
 8541SOL    HW137085   1.222   2.465   5.260 -0.5434  0.8816 -0.2153
 8541SOL    HW237086   1.134   2.472   5.382  0.4009  0.6337 -0.6737
 8542SOL     OW37087   4.439   2.314   5.060  0.8016  0.3383  0.4108
 8542SOL    HW137088   4.419   2.342   4.971  0.0485  1.2585  0.8822
 8542SOL    HW237089   4.530   2.288   5.045  0.1545 -2.4677  1.2446
 8543SOL     OW37090   3.725   3.607   2.185  0.4273  0.5456 -0.0528
 8543SOL    HW137091   3.725   3.528   2.238  0.7896 -0.0247 -0.9055
 8543SOL    HW237092   3.709   3.682   2.242 -0.5083 -1.0727  1.8056
 8544SOL     OW37093   3.720   3.782   3.133  0.3720  0.3131  0.1101
 8544SOL    HW137094   3.741   3.867   3.095 -2.7160  1.4800  0.9973
 8544SOL    HW237095   3.795   3.727   3.109 -0.0440 -0.5467  0.7529
 8545SOL     OW37096   3.848   1.783   1.709 -0.4197 -0.0819 -0.2178
 8545SOL    HW137097   3.872   1.714   1.647  0.8864  0.8193 -0.6988
 8545SOL    HW237098   3.757   1.766   1.734 -0.6455  0.1583 -0.8750
 8546SOL     OW37099   0.074   1.153  14.720  0.4565 -0.0038 -0.1166
 8546SOL    HW137100   0.004   1.088  14.716 -0.9833  1.5163  0.1466
 8546SOL    HW237101   0.076   1.170  14.814 -3.0121 -3.6730  0.5966
 8547SOL     OW37102   3.495   0.760   9.175 -0.1392  0.6786 -0.4245
 8547SOL    HW137103   3.481   0.678   9.127  2.1887 -1.3197  2.3036
 8547SOL    HW237104   3.410   0.773   9.215 -0.4894 -0.2621 -0.8617
 8548SOL     OW37105   4.425   4.693  14.384  1.0251 -0.3893 -0.1491
 8548SOL    HW137106   4.445   4.620  14.325  2.4274 -1.2043  1.3462
 8548SOL    HW237107   4.509   4.684  14.429  1.5507  0.3514 -0.9850
 8549SOL     OW37108   1.430   4.111   6.984  0.4769 -0.3081  0.0522
 8549SOL    HW137109   1.498   4.162   7.027 -0.9290 -0.2312  2.1794
 8549SOL    HW237110   1.411   4.156   6.901  2.1174 -0.8325 -0.6090
 8550SOL     OW37111   2.475   2.604   3.370 -0.9237  0.2390  0.1645
 8550SOL    HW137112   2.517   2.557   3.297 -3.1318  1.5739 -1.9541
 8550SOL    HW237113   2.533   2.678   3.390  0.5999 -1.0012  0.2956
 8551SOL     OW37114   4.535   1.505   8.100 -0.0442 -0.2290  0.8151
 8551SOL    HW137115   4.507   1.426   8.147 -2.0233  0.4125  0.7462
 8551SOL    HW237116   4.453   1.547   8.075  2.3420  3.6221 -0.4252
 8552SOL     OW37117   1.277   0.194   7.088  0.6840  0.0021  0.0876
 8552SOL    HW137118   1.317   0.280   7.098 -0.1782  0.2467  1.4623
 8552SOL    HW237119   1.259   0.182   7.181 -0.2044 -0.0961 -0.0906
 8553SOL     OW37120   1.863   4.326  12.711 -0.4281 -0.0382  0.0506
 8553SOL    HW137121   1.865   4.232  12.726 -1.9980 -0.3953 -1.9559
 8553SOL    HW237122   1.859   4.369  12.796 -2.2559 -0.7531  0.3333
 8554SOL     OW37123   0.466   2.176   5.379  0.3956  0.2366 -0.1424
 8554SOL    HW137124   0.420   2.115   5.321  0.7307 -0.4268  0.2860
 8554SOL    HW237125   0.555   2.151   5.352  1.1582  2.1456  0.5902
 8555SOL     OW37126   4.174   2.217  14.379 -0.5913  0.7325 -0.1820
 8555SOL    HW137127   4.252   2.179  14.420 -1.4518 -2.3127 -1.3870
 8555SOL    HW237128   4.195   2.207  14.287 -0.4896  1.0109 -0.1881
 8556SOL     OW37129   0.991   2.679   6.266  0.1166 -0.2312 -0.5575
 8556SOL    HW137130   1.008   2.645   6.178  2.2774  0.1615 -0.2709
 8556SOL    HW237131   1.016   2.600   6.315 -0.2628  1.5134  2.4389
 8557SOL     OW37132   4.001   1.758  13.718 -0.2742 -0.4605  0.0882
 8557SOL    HW137133   4.002   1.689  13.784  1.3065 -1.5815 -1.1186
 8557SOL    HW237134   3.944   1.711  13.657 -0.8495  0.0498  0.2335
 8558SOL     OW37135   4.119   2.898  13.367 -0.1287  0.0157 -0.1429
 8558SOL    HW137136   4.080   2.898  13.455  0.7477 -0.4657  0.2477
 8558SOL    HW237137   4.188   2.964  13.372  0.3471 -0.4179 -1.0724
 8559SOL     OW37138   2.931   3.198   0.073 -0.1681  0.4047 -0.5645
 8559SOL    HW137139   2.952   3.129   0.010  0.5320 -0.3816  0.5394
 8559SOL    HW237140   3.017   3.213   0.112 -0.3513 -0.6533  0.2475
 8560SOL     OW37141   0.873   0.614  13.517  0.0488  0.1948 -0.4094
 8560SOL    HW137142   0.897   0.523  13.499  1.0744  0.4544 -0.3863
 8560SOL    HW237143   0.864   0.612  13.612  1.2088 -1.2851 -0.3344
 8561SOL     OW37144   2.046   2.093   8.704  0.1535  0.8110  0.0846
 8561SOL    HW137145   2.015   2.116   8.616  1.9697  1.3469 -0.4019
 8561SOL    HW237146   2.021   2.001   8.714 -0.8607  1.1051  0.2959
 8562SOL     OW37147   4.192   2.700   4.943 -0.2508 -0.2163  0.1947
 8562SOL    HW137148   4.135   2.768   4.907 -0.6898 -0.2802  0.7756
 8562SOL    HW237149   4.192   2.638   4.870  0.0556 -1.2753  1.0897
 8563SOL     OW37150   2.558   0.547  15.817 -0.2383 -0.5638 -0.3062
 8563SOL    HW137151   2.481   0.523  15.870  0.4735 -2.1996 -0.0059
 8563SOL    HW237152   2.619   0.492  15.867  0.3037 -0.2925 -0.6712
 8564SOL     OW37153   1.718   1.673   7.190  0.4829 -0.4149 -0.1236
 8564SOL    HW137154   1.650   1.642   7.251  0.3891  2.4612  1.2460
 8564SOL    HW237155   1.785   1.691   7.255 -0.0156 -2.6266  0.9912
 8565SOL     OW37156   4.049   3.991  12.476 -0.3908 -0.0907  0.6263
 8565SOL    HW137157   4.039   4.024  12.386 -0.3786 -0.1319  0.6099
 8565SOL    HW237158   4.135   3.949  12.473  0.1212  0.9721  0.1678
 8566SOL     OW37159   4.199   2.390   0.261 -0.0630  0.4143  0.2841
 8566SOL    HW137160   4.213   2.370   0.169 -1.2003 -4.1875  1.0606
 8566SOL    HW237161   4.135   2.324   0.289 -1.2104  1.7925  0.9294
 8567SOL     OW37162   4.494   2.638   7.450 -0.1876 -0.3395  0.1514
 8567SOL    HW137163   4.489   2.724   7.492 -1.3937  0.4075 -1.5124
 8567SOL    HW237164   4.405   2.606   7.463 -0.0591  0.8721  4.0621
 8568SOL     OW37165   0.108   2.150   2.981 -0.2091 -0.5155  0.1633
 8568SOL    HW137166   0.087   2.082   2.918  1.8402 -0.7371 -0.2992
 8568SOL    HW237167   0.033   2.209   2.974 -0.7912 -1.1733  0.8712
 8569SOL     OW37168   2.737   0.656  15.632 -0.4196  0.0034 -0.1048
 8569SOL    HW137169   2.675   0.621  15.696  0.6038 -1.3456  0.1234
 8569SOL    HW237170   2.688   0.672  15.552 -0.0968 -0.1348 -0.3279
 8570SOL     OW37171   1.593   0.237   2.328 -0.2876  0.3870 -0.1912
 8570SOL    HW137172   1.516   0.181   2.323  2.0365 -2.7131 -0.8157
 8570SOL    HW237173   1.645   0.202   2.256  0.8222  0.4323  0.5844
 8571SOL     OW37174   4.480   4.340   8.985  0.0736  0.4615  0.2853
 8571SOL    HW137175   4.485   4.427   9.025  0.6720  0.0973  1.0059
 8571SOL    HW237176   4.524   4.348   8.900 -0.3346  0.3580  0.0640
 8572SOL     OW37177   1.978   4.575   6.767  0.2625 -0.2843  0.4097
 8572SOL    HW137178   1.886   4.603   6.771  0.5478  0.5872  0.7240
 8572SOL    HW237179   2.028   4.641   6.814 -2.6832  2.3404 -0.1527
 8573SOL     OW37180   2.110   1.893  10.904  0.2624 -0.4240  0.5801
 8573SOL    HW137181   2.128   1.805  10.873 -4.9100 -1.3666  0.2391
 8573SOL    HW237182   2.200   1.901  10.934  0.5038 -2.9743  0.4863
 8574SOL     OW37183   1.484   4.308  11.856 -0.2854 -0.2658 -0.0498
 8574SOL    HW137184   1.573   4.288  11.826 -0.4137  0.3137 -0.8105
 8574SOL    HW237185   1.483   4.247  11.930  0.3473 -1.5345 -1.0751
 8575SOL     OW37186   3.688   1.202   9.893  0.4027  0.1847  0.3605
 8575SOL    HW137187   3.702   1.217   9.800  0.5738  0.7747  0.4820
 8575SOL    HW237188   3.610   1.256   9.907  1.9001  2.8538 -1.5667
 8576SOL     OW37189   0.418   0.518   6.137  0.1142  0.0742  0.6022
 8576SOL    HW137190   0.328   0.490   6.153  0.2184 -1.3211 -1.2571
 8576SOL    HW237191   0.450   0.436   6.099  0.6876  0.6823 -0.2324
 8577SOL     OW37192   2.605   1.513   2.992  0.0944  0.0104 -1.0642
 8577SOL    HW137193   2.690   1.558   2.991  1.4849 -2.6315 -2.8917
 8577SOL    HW237194   2.542   1.576   3.026  0.8008  0.2524 -0.1921
 8578SOL     OW37195   0.633   4.381   9.054 -0.1099  0.1146  0.2638
 8578SOL    HW137196   0.634   4.327   9.133  2.5643 -0.9600 -0.5184
 8578SOL    HW237197   0.696   4.333   9.000  1.1971  2.3760 -0.2013
 8579SOL     OW37198   0.693   0.924  14.047  0.1380  0.2490 -0.2757
 8579SOL    HW137199   0.769   0.979  14.028 -1.5647  3.0430  0.9860
 8579SOL    HW237200   0.669   0.943  14.138 -0.3568  0.5762 -0.4780
 8580SOL     OW37201   4.230   2.634  13.198  0.7070 -0.3768 -0.2487
 8580SOL    HW137202   4.262   2.718  13.230 -0.9627  0.0639  0.2110
 8580SOL    HW237203   4.253   2.645  13.106  0.1822 -0.2002 -0.3572
 8581SOL     OW37204   3.711   0.340   8.502  0.0708  0.4887  0.5421
 8581SOL    HW137205   3.792   0.354   8.551  1.2635 -1.1434 -0.9731
 8581SOL    HW237206   3.745   0.346   8.413 -1.2836 -2.4874 -0.1767
 8582SOL     OW37207   0.436   4.208   1.493 -0.0063 -0.1664  0.2814
 8582SOL    HW137208   0.421   4.240   1.582 -1.8992 -1.9059  0.5654
 8582SOL    HW237209   0.531   4.219   1.483 -0.1615 -0.8639 -1.9836
 8583SOL     OW37210   1.489   2.961   2.173  0.1263  0.1979 -0.3607
 8583SOL    HW137211   1.460   3.042   2.130  1.6548  0.0917 -1.5629
 8583SOL    HW237212   1.438   2.969   2.254  2.5404  2.8679  0.8874
 8584SOL     OW37213   0.694   1.085  15.881  0.2490 -0.1221  0.6633
 8584SOL    HW137214   0.633   1.100  15.953 -0.8193  4.3370 -1.1783
 8584SOL    HW237215   0.695   1.174  15.846  0.1039 -0.2358  0.3723
 8585SOL     OW37216   0.074   4.514   5.512  0.3718 -0.0784  0.3684
 8585SOL    HW137217   0.150   4.464   5.543 -0.3747  0.6908  3.4522
 8585SOL    HW237218   0.071   4.497   5.418 -1.6457 -0.4535  0.4963
 8586SOL     OW37219   3.747   3.073   1.123  0.1927  0.0194 -0.0742
 8586SOL    HW137220   3.790   3.065   1.208 -1.7855  0.7093  0.9860
 8586SOL    HW237221   3.665   3.114   1.150 -0.0586 -0.2491 -0.4361
 8587SOL     OW37222   2.827   0.261   6.354  0.4472 -0.6503 -0.3678
 8587SOL    HW137223   2.867   0.348   6.354 -0.1118 -0.3954 -0.6295
 8587SOL    HW237224   2.763   0.280   6.285 -0.7806  0.5445  1.1013
 8588SOL     OW37225   1.863   4.232   3.812  0.9089 -0.3258 -0.0963
 8588SOL    HW137226   1.923   4.230   3.737  1.7255  2.7706  0.4659
 8588SOL    HW237227   1.786   4.280   3.781  0.4561  0.0396  1.6325
 8589SOL     OW37228   2.044   3.319   1.470  0.4219  0.6423  0.3027
 8589SOL    HW137229   2.049   3.229   1.501 -1.4783  0.3727 -0.1528
 8589SOL    HW237230   2.001   3.320   1.384 -0.2239  1.5142  0.6283
 8590SOL     OW37231   1.040   4.414  11.399 -0.5379  0.3428  0.0178
 8590SOL    HW137232   1.104   4.403  11.328 -0.3858  1.3813 -0.0131
 8590SOL    HW237233   0.960   4.367  11.374 -0.1180 -0.1656 -0.3505
 8591SOL     OW37234   3.450   1.945   2.825 -0.1545 -0.0195 -0.1671
 8591SOL    HW137235   3.429   1.910   2.911  2.2730 -2.1668 -0.4319
 8591SOL    HW237236   3.395   2.023   2.816 -3.5482 -2.0640  3.1154
 8592SOL     OW37237   1.224   1.168   5.447  0.3466  0.3189 -0.3630
 8592SOL    HW137238   1.188   1.082   5.427  0.8840  0.4283 -1.7953
 8592SOL    HW237239   1.206   1.211   5.363  0.2541  2.1776  0.6113
 8593SOL     OW37240   3.836   1.528  10.093  0.3574 -0.5622  0.5983
 8593SOL    HW137241   3.875   1.606  10.053 -0.2621 -0.1146  0.8681
 8593SOL    HW237242   3.811   1.555  10.181  0.8093 -0.9946  0.8578
 8594SOL     OW37243   3.525   4.538   1.470  0.5382  0.0675  0.4711
 8594SOL    HW137244   3.467   4.507   1.539 -1.0766 -0.8291 -1.3012
 8594SOL    HW237245   3.529   4.633   1.483 -2.7305  0.0471  1.5439
 8595SOL     OW37246   3.848   1.723   8.108 -0.3829  0.1980  0.0360
 8595SOL    HW137247   3.919   1.673   8.150 -0.9062  1.3021  2.2234
 8595SOL    HW237248   3.883   1.725   8.019 -0.9882 -0.5326 -0.2160
 8596SOL     OW37249   0.210   2.056  14.824  0.2003 -0.2082  0.2795
 8596SOL    HW137250   0.119   2.055  14.794  0.7127  1.7604 -1.3935
 8596SOL    HW237251   0.215   2.144  14.863 -0.7594 -0.2678  0.5297
 8597SOL     OW37252   4.031   3.132   8.830 -0.5538 -0.4597 -0.1529
 8597SOL    HW137253   4.031   3.116   8.924 -1.1599  1.1925  0.1262
 8597SOL    HW237254   3.984   3.215   8.833 -1.1450 -0.8377  0.6840
 8598SOL     OW37255   1.069   3.344   0.635 -0.4094  0.7989 -0.4861
 8598SOL    HW137256   1.055   3.252   0.657  0.9120  0.1220 -2.4794
 8598SOL    HW237257   1.140   3.366   0.695 -1.6731  2.2891  0.4778
 8599SOL     OW37258   2.501   3.428  12.825  0.1041 -0.2216  0.9073
 8599SOL    HW137259   2.553   3.499  12.862  0.6828  0.5722 -1.4071
 8599SOL    HW237260   2.481   3.476  12.744  0.6759 -0.9430  0.3383
 8600SOL     OW37261   0.442   3.702   2.790  0.0080  0.0774 -0.1316
 8600SOL    HW137262   0.506   3.738   2.728  0.8912 -1.3499 -0.0332
 8600SOL    HW237263   0.387   3.666   2.721  0.7957  0.0145 -0.7318
 8601SOL     OW37264   1.392   0.075  15.555  0.1058  0.1140 -0.4116
 8601SOL    HW137265   1.418   0.112  15.640  0.2660 -2.0843  0.5082
 8601SOL    HW237266   1.298   0.070  15.572  0.3610  0.6192  1.1625
 8602SOL     OW37267   0.069   1.794   4.996  0.2019  1.1581 -0.6716
 8602SOL    HW137268   0.126   1.765   5.068  1.9682 -0.8374 -2.8648
 8602SOL    HW237269   0.050   1.716   4.944 -1.4941  1.3021 -0.2381
 8603SOL     OW37270   1.668   1.257   5.712  0.1197 -0.1371  0.1187
 8603SOL    HW137271   1.703   1.332   5.664 -1.2463  1.3154  1.3626
 8603SOL    HW237272   1.755   1.220   5.728  1.4749  3.8807  1.9363
 8604SOL     OW37273   2.462   1.824  17.260  0.1364 -0.0795 -0.1747
 8604SOL    HW137274   2.420   1.744  17.294 -1.8593  0.5909 -1.0441
 8604SOL    HW237275   2.457   1.875  17.341 -1.1780 -0.1216 -0.2238
 8605SOL     OW37276   0.379   0.102   0.532 -0.2099  0.2482 -0.4854
 8605SOL    HW137277   0.295   0.055   0.536  0.9859 -1.8510  0.3004
 8605SOL    HW237278   0.435   0.024   0.534  0.1162  0.5194  1.2107
 8606SOL     OW37279   0.558   0.725   8.574  0.0349 -0.1324 -0.3619
 8606SOL    HW137280   0.567   0.751   8.666 -2.1107 -0.0944 -0.1644
 8606SOL    HW237281   0.533   0.634   8.590  2.7550 -1.0652 -1.4684
 8607SOL     OW37282   1.900   3.117   5.755  0.1402 -0.0218  0.4091
 8607SOL    HW137283   1.912   3.037   5.806 -0.2263 -2.2798 -2.9674
 8607SOL    HW237284   1.805   3.114   5.746  0.0405 -0.1091  1.6102
 8608SOL     OW37285   1.738   1.837   2.544  0.2238 -0.3259 -0.1370
 8608SOL    HW137286   1.757   1.766   2.483 -2.1857  0.6971 -2.0625
 8608SOL    HW237287   1.751   1.919   2.497 -1.5201 -2.0539 -3.5753
 8609SOL     OW37288   1.656   1.650   6.720 -0.1721 -0.1998 -0.1885
 8609SOL    HW137289   1.642   1.653   6.815 -1.3015 -0.4035 -0.3480
 8609SOL    HW237290   1.681   1.558   6.713 -0.7935 -0.3836  0.0513
 8610SOL     OW37291   1.860   4.416   9.706  0.9072  0.5766 -0.2045
 8610SOL    HW137292   1.850   4.333   9.751  0.9892 -0.1093 -1.4526
 8610SOL    HW237293   1.890   4.379   9.623 -1.9632  1.4285 -1.6029
 8611SOL     OW37294   2.368   1.703   4.194 -0.0438 -0.1182 -0.2415
 8611SOL    HW137295   2.408   1.643   4.256 -0.8176  0.5122  0.8647
 8611SOL    HW237296   2.419   1.782   4.213  1.0277 -0.7039 -0.6630
 8612SOL     OW37297   3.218   3.268   1.637  0.3873  0.2918  0.2356
 8612SOL    HW137298   3.225   3.307   1.550  1.7883 -1.0132 -0.2266
 8612SOL    HW237299   3.272   3.331   1.686 -1.0340  0.8651  1.0737
 8613SOL     OW37300   1.358   4.465   4.542 -0.3407  0.3002  0.3530
 8613SOL    HW137301   1.359   4.369   4.548 -1.9357  0.4468  3.2900
 8613SOL    HW237302   1.286   4.489   4.600  0.7142  1.6530  1.0912
 8614SOL     OW37303   1.883   1.731   2.029 -0.5464  0.2402 -0.5424
 8614SOL    HW137304   1.850   1.645   2.055 -1.5786 -0.0047 -2.6398
 8614SOL    HW237305   1.870   1.725   1.935 -1.4147  2.6141 -0.5781
 8615SOL     OW37306   0.780   0.471  13.233  0.2151  0.5141  0.1746
 8615SOL    HW137307   0.807   0.444  13.321  0.2686 -0.9865 -0.3055
 8615SOL    HW237308   0.841   0.541  13.210 -2.0527  1.7597 -2.0468
 8616SOL     OW37309   2.214   2.664   6.780  0.4405 -0.6398  0.3042
 8616SOL    HW137310   2.241   2.638   6.692 -0.2016 -0.6444  0.1065
 8616SOL    HW237311   2.299   2.664   6.825 -0.3083  0.0271  1.7264
 8617SOL     OW37312   4.432   0.188   5.990 -0.3857  0.3612 -0.0145
 8617SOL    HW137313   4.485   0.158   5.916  2.1171  1.6243  1.2645
 8617SOL    HW237314   4.349   0.145   5.969 -0.2786  0.8554 -1.4186
 8618SOL     OW37315   1.644   2.456  16.142 -0.3857 -0.8100 -0.1437
 8618SOL    HW137316   1.720   2.516  16.142 -0.4307 -0.7496 -1.6869
 8618SOL    HW237317   1.679   2.379  16.185  0.9416  0.1919  0.5867
 8619SOL     OW37318   1.753   2.130  11.989 -0.4529  0.1432 -0.3857
 8619SOL    HW137319   1.773   2.037  11.997 -1.3008  0.0088  0.1550
 8619SOL    HW237320   1.783   2.136  11.898 -0.3853  0.8645 -0.3207
 8620SOL     OW37321   0.343   2.643   6.968  0.8427  0.2231 -0.4682
 8620SOL    HW137322   0.276   2.575   6.960  0.1306  0.8715  0.1565
 8620SOL    HW237323   0.355   2.667   6.876 -0.6459 -1.6992 -1.1792
 8621SOL     OW37324   0.499   0.313   5.537 -0.2805  0.3132 -0.5520
 8621SOL    HW137325   0.523   0.315   5.630 -0.8209 -0.3924 -0.3891
 8621SOL    HW237326   0.584   0.305   5.495 -0.9913  2.0147 -2.2601
 8622SOL     OW37327   4.139   2.240   7.074 -0.0967  0.1481 -0.2878
 8622SOL    HW137328   4.165   2.224   7.164  0.7351  1.9797 -0.2008
 8622SOL    HW237329   4.080   2.315   7.083 -1.5796 -1.3297  2.3144
 8623SOL     OW37330   4.267   0.417   1.947  0.8080  0.3187  0.4291
 8623SOL    HW137331   4.265   0.511   1.959 -1.8360  0.3677 -0.4446
 8623SOL    HW237332   4.258   0.382   2.035 -0.3885 -1.3156 -0.3393
 8624SOL     OW37333   2.973   2.610   6.044  0.6870 -0.1323 -0.0215
 8624SOL    HW137334   2.993   2.647   6.131  0.2832 -0.2936  0.1397
 8624SOL    HW237335   3.048   2.643   5.995  1.2396 -0.0278  0.8884
 8625SOL     OW37336   1.280   0.948   4.455 -0.1379  0.0833  0.2144
 8625SOL    HW137337   1.347   1.016   4.464 -0.2634 -0.1366  2.7419
 8625SOL    HW237338   1.232   0.977   4.377 -0.7723 -0.5642  0.3656
 8626SOL     OW37339   3.191   1.692  10.761 -0.1720 -0.0268  0.2628
 8626SOL    HW137340   3.234   1.712  10.844 -0.6091 -1.7580  0.9189
 8626SOL    HW237341   3.257   1.678  10.693 -1.3464 -1.4061 -0.6024
 8627SOL     OW37342   3.880   4.096   0.740  0.4091  0.1142 -0.7693
 8627SOL    HW137343   3.963   4.143   0.731  0.7970 -0.6169 -0.9930
 8627SOL    HW237344   3.845   4.148   0.813 -1.5392  0.8763 -2.2309
 8628SOL     OW37345   3.960   4.380   6.170  0.7708 -0.0991 -0.2983
 8628SOL    HW137346   3.867   4.391   6.152  1.1986  0.8235 -1.9752
 8628SOL    HW237347   3.986   4.357   6.081  3.0880  0.5373  0.2209
 8629SOL     OW37348   0.504   3.593   3.052 -0.6983  0.1683 -0.4427
 8629SOL    HW137349   0.515   3.666   2.991  2.0338 -0.3314 -0.5799
 8629SOL    HW237350   0.452   3.534   2.999  1.0488 -1.8827  0.1259
 8630SOL     OW37351   1.653   1.331   1.629 -0.3718  0.4243  0.1498
 8630SOL    HW137352   1.640   1.410   1.576  0.2059  1.4818  1.5892
 8630SOL    HW237353   1.656   1.256   1.570 -1.9686  1.3457 -1.1032
 8631SOL     OW37354   2.697   3.614   6.125 -0.1921 -0.1079 -0.5876
 8631SOL    HW137355   2.761   3.587   6.059  0.6206 -2.2497  1.0759
 8631SOL    HW237356   2.651   3.680   6.074 -1.8640  0.3046  1.4459
 8632SOL     OW37357   0.336   4.660   7.600  0.5117  0.4415 -0.4127
 8632SOL    HW137358   0.346   4.610   7.681  2.1635 -0.6165 -1.2739
 8632SOL    HW237359   0.272   0.006   7.621  0.1537  0.0797 -0.3173
 8633SOL     OW37360   3.567   1.291   5.960  0.0024  0.1829  0.1324
 8633SOL    HW137361   3.638   1.251   5.909  0.2167 -2.2752  2.3611
 8633SOL    HW237362   3.535   1.362   5.905 -0.5116 -1.0177 -1.1251
 8634SOL     OW37363   1.433   0.790   8.617  0.6079 -0.0066  0.3943
 8634SOL    HW137364   1.366   0.725   8.639 -0.0611 -0.1075 -1.9643
 8634SOL    HW237365   1.519   0.749   8.633  0.1352 -0.6795  1.1906
 8635SOL     OW37366   0.895   2.610  10.711  0.5187 -0.0040  0.2840
 8635SOL    HW137367   0.863   2.615  10.621 -1.2003  1.4755  0.9777
 8635SOL    HW237368   0.929   2.698  10.726 -1.3073  0.8543 -0.6417
 8636SOL     OW37369   0.144   1.224   6.047  0.7392 -0.3676 -0.1664
 8636SOL    HW137370   0.107   1.179   5.971 -1.9661  0.1002  0.8867
 8636SOL    HW237371   0.220   1.171   6.070  0.1938 -0.7166  0.7981
 8637SOL     OW37372   3.580   4.379   4.735 -0.2055 -0.1119 -0.0103
 8637SOL    HW137373   3.585   4.406   4.643  0.7586 -1.0746 -0.2435
 8637SOL    HW237374   3.592   4.467   4.770 -1.1651 -0.0632  0.1842
 8638SOL     OW37375   2.556   0.168  10.674 -0.1643  0.1751  0.0185
 8638SOL    HW137376   2.530   0.251  10.716  0.5676 -1.1436  3.0421
 8638SOL    HW237377   2.477   0.119  10.697  0.5819 -0.9736  0.1343
 8639SOL     OW37378   0.505   1.948   6.760 -0.1826  0.4807  0.2879
 8639SOL    HW137379   0.540   1.935   6.671  0.9332 -2.2520  1.1094
 8639SOL    HW237380   0.552   2.024   6.794 -0.3018  0.9976 -0.6897
 8640SOL     OW37381   4.354   3.277   5.056  0.6920 -0.2294  0.2429
 8640SOL    HW137382   4.394   3.190   5.064 -0.0697 -0.7935 -2.2163
 8640SOL    HW237383   4.263   3.246   5.052  0.5516  0.1117  0.7022
 8641SOL     OW37384   4.044   2.742   1.736  0.0402  0.2058  0.0228
 8641SOL    HW137385   4.132   2.704   1.734 -0.3142 -0.5978 -0.2994
 8641SOL    HW237386   4.021   2.717   1.826 -1.6966 -1.4812 -0.8786
 8642SOL     OW37387   0.676   1.410   4.996  0.5228 -0.6732  0.9926
 8642SOL    HW137388   0.636   1.372   4.918  0.1277 -0.7368  1.2258
 8642SOL    HW237389   0.619   1.393   5.071 -0.3733  0.8764  0.6728
 8643SOL     OW37390   3.923   1.249   4.099  0.5668 -0.5563  0.1263
 8643SOL    HW137391   3.974   1.239   4.180 -2.1330 -1.2851  1.7428
 8643SOL    HW237392   3.978   1.205   4.034 -0.4995  1.0125 -1.8222
 8644SOL     OW37393   4.309   0.651  15.563 -0.0977 -0.1684 -0.0873
 8644SOL    HW137394   4.372   0.628  15.631 -2.2993 -0.5425  1.8477
 8644SOL    HW237395   4.371   0.674  15.494 -0.2498 -0.5907 -0.3686
 8645SOL     OW37396   0.448   3.485   8.526  0.2134 -0.5107  0.6495
 8645SOL    HW137397   0.412   3.555   8.581 -2.5088  0.9185 -2.9696
 8645SOL    HW237398   0.448   3.411   8.587 -0.5033 -0.6145  0.5216
 8646SOL     OW37399   0.677   1.598   8.281  0.8986 -0.4732  0.3359
 8646SOL    HW137400   0.648   1.509   8.265 -1.1025  0.0340  1.0690
 8646SOL    HW237401   0.740   1.582   8.351 -0.3028  0.4002  1.6306
 8647SOL     OW37402   4.044   1.756   0.692 -0.4785  0.2151 -0.2024
 8647SOL    HW137403   3.971   1.695   0.691  0.5660 -1.0113 -0.9558
 8647SOL    HW237404   4.068   1.744   0.600  0.2683  1.0933 -0.1256
 8648SOL     OW37405   4.402   1.501   1.126 -0.5028 -0.1678 -0.5669
 8648SOL    HW137406   4.370   1.554   1.053  0.3709  2.2578  0.8272
 8648SOL    HW237407   4.320   1.495   1.176  0.4589  1.6275  1.1843
 8649SOL     OW37408   3.254   3.203  15.054  0.2427  0.4086  0.2578
 8649SOL    HW137409   3.159   3.208  15.050  0.1567 -3.3951 -1.8040
 8649SOL    HW237410   3.283   3.147  15.126 -1.3470 -2.3870 -1.2845
 8650SOL     OW37411   3.248   3.557  10.075 -0.4664 -0.2725  1.0050
 8650SOL    HW137412   3.266   3.512   9.993 -0.8948 -1.4481  1.5642
 8650SOL    HW237413   3.303   3.492  10.119 -0.1392 -0.9188 -0.3714
 8651SOL     OW37414   1.827   3.512   6.189  0.4887 -0.2603 -0.1845
 8651SOL    HW137415   1.853   3.454   6.261 -0.6118  0.9486  1.2025
 8651SOL    HW237416   1.746   3.470   6.159  0.3667 -0.6595  0.6906
 8652SOL     OW37417   2.227   4.567   3.973 -0.2186  0.1361  1.0515
 8652SOL    HW137418   2.193   4.561   4.063  0.3179  1.6030  1.3632
 8652SOL    HW237419   2.265   4.655   3.976  1.1914 -0.3995 -0.8477
 8653SOL     OW37420   3.078   0.126  10.219 -0.6003  0.3801  0.2813
 8653SOL    HW137421   3.046   0.118  10.130  2.2557 -0.0511 -0.6988
 8653SOL    HW237422   3.156   0.182  10.211 -0.7365  0.1808 -2.4023
 8654SOL     OW37423   3.615   1.405   5.499  0.1712 -0.3803 -0.1702
 8654SOL    HW137424   3.545   1.350   5.535  0.6706 -1.0362 -0.2080
 8654SOL    HW237425   3.648   1.351   5.427 -1.4942  0.3038 -1.4311
 8655SOL     OW37426   3.886   1.735  16.928  0.1237  0.0209 -0.1428
 8655SOL    HW137427   3.791   1.723  16.929  0.3141 -1.6123 -1.5420
 8655SOL    HW237428   3.903   1.802  16.863 -0.1218  0.1032 -0.1191
 8656SOL     OW37429   0.861   0.450   9.283  0.4961 -0.5153  0.0650
 8656SOL    HW137430   0.783   0.504   9.273 -0.6605 -2.0784  0.6999
 8656SOL    HW237431   0.870   0.456   9.378  1.0735 -0.5618  0.0151
 8657SOL     OW37432   0.230   0.394   7.691 -0.4944 -0.1670 -0.1531
 8657SOL    HW137433   0.160   0.434   7.638 -0.6088 -1.7655 -1.2228
 8657SOL    HW237434   0.198   0.314   7.733 -1.1970  0.5899  0.7513
 8658SOL     OW37435   2.394   3.151  16.121  0.0949  0.3404  0.3936
 8658SOL    HW137436   2.486   3.171  16.140 -0.2491  1.7862  0.5383
 8658SOL    HW237437   2.405   3.083  16.056  1.4335  1.4100 -0.5093
 8659SOL     OW37438   4.641   4.593  17.332 -0.3057 -0.0753 -0.4163
 8659SOL    HW137439   4.648   4.549  17.416 -0.0521 -0.1176 -0.4578
 8659SOL    HW237440   4.551   4.625  17.328  0.2302  1.4154 -0.8153
 8660SOL     OW37441   2.431   1.648   1.530 -0.1528 -0.7308 -0.8615
 8660SOL    HW137442   2.358   1.709   1.526  0.5471 -0.0671 -3.4859
 8660SOL    HW237443   2.481   1.674   1.452 -0.0583  2.2655  0.2360
 8661SOL     OW37444   1.017   2.781   0.584  0.5265 -1.0002 -0.4491
 8661SOL    HW137445   0.929   2.756   0.557  0.6199 -3.3523  1.3111
 8661SOL    HW237446   1.070   2.756   0.509 -0.0703 -0.0440 -1.1794
 8662SOL     OW37447   2.318   1.723   5.017 -0.6620 -0.1589  0.3994
 8662SOL    HW137448   2.370   1.734   5.096 -0.6212  0.8012  0.2423
 8662SOL    HW237449   2.316   1.628   5.003 -1.7895 -0.3237  1.6774
 8663SOL     OW37450   3.903   1.211   9.274 -0.1935 -0.2471 -0.3104
 8663SOL    HW137451   3.983   1.233   9.227  0.5611 -2.1917  0.0597
 8663SOL    HW237452   3.932   1.218   9.365  3.1406  0.7149 -1.4572
 8664SOL     OW37453   1.924   3.900   5.149 -0.1851  0.2060  0.2359
 8664SOL    HW137454   1.953   3.944   5.228 -0.4007 -1.2091  1.0957
 8664SOL    HW237455   1.872   3.973   5.114  0.9911 -0.1792 -2.3596
 8665SOL     OW37456   0.812   1.863  11.400 -0.3960  0.0985 -0.2310
 8665SOL    HW137457   0.805   1.899  11.312 -1.7914 -0.7213 -0.4677
 8665SOL    HW237458   0.904   1.864  11.426  0.2723 -2.3905 -2.5134
 8666SOL     OW37459   4.418   4.699   4.591  0.1153 -0.1184 -0.0562
 8666SOL    HW137460   4.440   4.719   4.500 -0.1921 -1.7947 -0.5063
 8666SOL    HW237461   4.427   4.604   4.590 -0.6043 -0.2000  0.6009
 8667SOL     OW37462   1.426   3.522   5.366  0.6930 -0.2142  0.2133
 8667SOL    HW137463   1.472   3.573   5.299  1.6812  0.7649  1.6459
 8667SOL    HW237464   1.459   3.433   5.352 -0.6471 -0.2774 -2.6207
 8668SOL     OW37465   2.427   3.903   6.608 -0.1793 -0.4425 -0.0203
 8668SOL    HW137466   2.471   3.828   6.568 -1.7103 -1.8770  0.9455
 8668SOL    HW237467   2.413   3.964   6.536 -0.8828 -0.1012  0.4013
 8669SOL     OW37468   0.648   3.059  16.490  0.0604 -0.2201 -0.0753
 8669SOL    HW137469   0.591   3.045  16.414  0.0639  0.5959 -0.2201
 8669SOL    HW237470   0.680   2.969  16.496 -1.9818 -0.9310  0.1572
 8670SOL     OW37471   1.956   3.425   2.098  0.1773 -0.8983 -0.4159
 8670SOL    HW137472   1.916   3.500   2.143 -0.0298  0.1383 -2.3630
 8670SOL    HW237473   1.901   3.425   2.020 -1.3715 -0.3150  0.6771
 8671SOL     OW37474   3.326   0.441   8.333  0.6031  0.7099 -0.1351
 8671SOL    HW137475   3.340   0.380   8.261  0.9685  1.0657 -0.3623
 8671SOL    HW237476   3.248   0.489   8.304  1.1518  0.6153 -1.7785
 8672SOL     OW37477   2.064   4.118   0.228 -0.7448  0.9220  0.0159
 8672SOL    HW137478   2.034   4.136   0.139 -2.2229 -0.2426  0.2665
 8672SOL    HW237479   1.981   4.128   0.274  0.2384  1.6676  1.6272
 8673SOL     OW37480   3.331   4.514   1.665  0.0706 -0.5462 -0.4261
 8673SOL    HW137481   3.339   4.547   1.754  1.4401  0.5024 -0.9325
 8673SOL    HW237482   3.283   4.435   1.687 -2.0543  0.7559 -0.3873
 8674SOL     OW37483   1.917   1.358   1.294  0.6650  0.2920  0.2223
 8674SOL    HW137484   1.874   1.430   1.248  2.5350  0.8512 -0.6216
 8674SOL    HW237485   1.895   1.386   1.382  0.1413  1.6216 -0.3255
 8675SOL     OW37486   2.902   2.830   3.382  0.1578 -0.8665 -0.1325
 8675SOL    HW137487   2.927   2.852   3.292  3.7040 -1.9305  0.6011
 8675SOL    HW237488   2.976   2.867   3.429 -1.5303  0.7703  1.2210
 8676SOL     OW37489   3.624   4.149   9.409  0.3083 -0.0039  0.4742
 8676SOL    HW137490   3.662   4.218   9.355 -0.8438 -0.2073 -0.5873
 8676SOL    HW237491   3.575   4.098   9.345  0.8042 -0.1159  0.1868
 8677SOL     OW37492   3.322   2.627   6.777 -0.2753 -0.0576  0.3798
 8677SOL    HW137493   3.385   2.696   6.794 -1.4163  1.6871 -2.3197
 8677SOL    HW237494   3.373   2.546   6.781 -1.7996 -1.1063 -0.9168
 8678SOL     OW37495   1.639   0.437   7.796 -0.4493 -0.0270  0.1231
 8678SOL    HW137496   1.679   0.499   7.856  3.0507 -0.6636 -1.5181
 8678SOL    HW237497   1.685   0.354   7.807 -2.1713 -1.0263 -0.2656
 8679SOL     OW37498   2.836   2.302  15.836 -0.6038 -0.3491 -0.4825
 8679SOL    HW137499   2.921   2.257  15.843 -0.4423  0.0361  0.0312
 8679SOL    HW237500   2.788   2.243  15.894 -0.9870 -1.1835 -1.6633
 8680SOL     OW37501   2.337   2.567   8.176  0.2483 -0.2677  0.4047
 8680SOL    HW137502   2.430   2.548   8.169 -0.2068 -1.2794 -2.6329
 8680SOL    HW237503   2.356   2.649   8.222  1.7721  0.6517 -1.8564
 8681SOL     OW37504   0.526   2.370  11.471  0.1080  0.0044  0.1259
 8681SOL    HW137505   0.500   2.300  11.411  2.1966  0.0912 -0.8840
 8681SOL    HW237506   0.551   2.432  11.402 -1.4051 -0.9918 -1.3264
 8682SOL     OW37507   3.603   4.691   0.349  0.0130 -0.3336 -0.2308
 8682SOL    HW137508   3.524   4.642   0.375  1.5524 -2.2342  0.8643
 8682SOL    HW237509   3.669   4.635   0.390 -0.1712 -0.3107  0.0993
 8683SOL     OW37510   1.807   3.097   8.453 -0.2735 -0.0086 -0.1355
 8683SOL    HW137511   1.832   3.170   8.396 -1.2098  0.2243 -0.2433
 8683SOL    HW237512   1.809   3.023   8.393 -3.5777 -1.2171  1.2423
 8684SOL     OW37513   0.802   2.958   7.854 -0.1123 -0.2350  0.0341
 8684SOL    HW137514   0.818   3.039   7.902  0.7453  0.1916 -0.9762
 8684SOL    HW237515   0.890   2.943   7.820 -0.0968  0.0884 -0.0688
 8685SOL     OW37516   0.360   0.025   7.020  0.2937  0.7733 -0.4431
 8685SOL    HW137517   0.450   0.040   7.050  0.5129  0.4235 -0.9321
 8685SOL    HW237518   0.368   0.031   6.925  1.2707  0.4753 -0.3835
 8686SOL     OW37519   0.814   4.636   5.545 -0.6228  0.5576 -0.2158
 8686SOL    HW137520   0.780   4.713   5.591  2.1580  0.9004  1.2701
 8686SOL    HW237521   0.883   4.670   5.488 -0.8599  1.9720  0.3363
 8687SOL     OW37522   2.221   1.755   1.195  0.0201 -0.7982  0.5869
 8687SOL    HW137523   2.173   1.673   1.192 -0.5146 -0.5006  0.9769
 8687SOL    HW237524   2.170   1.805   1.260 -0.1592 -1.0073  0.6070
 8688SOL     OW37525   0.912   3.554   6.384 -0.8064  0.1936 -0.2023
 8688SOL    HW137526   0.945   3.623   6.328 -1.2213 -0.2133 -0.9465
 8688SOL    HW237527   0.950   3.593   6.463 -0.7578 -2.7304  1.2318
 8689SOL     OW37528   3.514   0.018  14.626  0.4144 -0.6225 -0.5550
 8689SOL    HW137529   3.499   0.010  14.720 -0.0500 -0.3648 -0.6034
 8689SOL    HW237530   3.595   0.067  14.612 -0.5972  0.9094 -1.0874
 8690SOL     OW37531   4.228   3.008  11.768 -0.1646 -0.8624  0.2738
 8690SOL    HW137532   4.262   2.958  11.693 -0.2071  1.0808 -1.0523
 8690SOL    HW237533   4.138   2.975  11.771 -0.1430 -0.8986  0.5311
 8691SOL     OW37534   2.851   3.773   4.875  0.3643 -0.5745  0.5431
 8691SOL    HW137535   2.810   3.722   4.946 -3.1544 -0.9087 -1.7083
 8691SOL    HW237536   2.835   3.703   4.812 -1.4145 -0.1530  0.5296
 8692SOL     OW37537   4.170   3.387   8.193  0.1752  0.6306 -0.0587
 8692SOL    HW137538   4.241   3.344   8.147 -0.2973  2.0394 -2.0969
 8692SOL    HW237539   4.163   3.328   8.268  1.5825  0.1276 -0.3422
 8693SOL     OW37540   1.970   1.934  12.771 -0.2216  0.4320  0.4700
 8693SOL    HW137541   1.929   1.996  12.710 -1.6318 -0.9875 -0.0265
 8693SOL    HW237542   1.899   1.921  12.834 -1.1469  4.4527  0.2257
 8694SOL     OW37543   1.723   3.481   8.373  0.1996 -0.1016 -0.2549
 8694SOL    HW137544   1.675   3.425   8.312 -1.4127  2.2254 -1.1657
 8694SOL    HW237545   1.651   3.543   8.390  1.3229  1.2974 -0.5668
 8695SOL     OW37546   3.164   1.275   3.873  0.0194  0.7627  0.3736
 8695SOL    HW137547   3.221   1.352   3.878 -1.8087  2.1539 -0.0101
 8695SOL    HW237548   3.230   1.206   3.874 -1.2115 -0.4148  0.2610
 8696SOL     OW37549   3.534   1.224   3.045 -0.1148 -0.0625 -0.1415
 8696SOL    HW137550   3.605   1.162   3.062 -1.2685 -1.0974  0.8971
 8696SOL    HW237551   3.473   1.197   3.114  0.5543  0.0584  0.4978
 8697SOL     OW37552   1.106   4.232   3.685  0.0979 -0.7571  0.6625
 8697SOL    HW137553   1.172   4.298   3.663 -0.3714 -0.3303  0.5391
 8697SOL    HW237554   1.171   4.165   3.706 -0.9558 -1.6827  0.9452
 8698SOL     OW37555   1.155   3.419   7.314 -0.4021 -0.1911  0.5429
 8698SOL    HW137556   1.172   3.368   7.394  0.1818  0.4117  0.8019
 8698SOL    HW237557   1.067   3.386   7.297 -1.5000  2.7699  0.4564
 8699SOL     OW37558   3.579   4.128   1.972  0.5364  0.3310 -0.5173
 8699SOL    HW137559   3.667   4.108   2.005  0.8089  1.2847 -0.6410
 8699SOL    HW237560   3.609   4.192   1.906 -0.5932 -1.1770 -2.4926
 8700SOL     OW37561   2.288   1.407   4.022  0.5585  0.3100  0.2492
 8700SOL    HW137562   2.293   1.433   3.930  2.0202 -0.2368  0.1823
 8700SOL    HW237563   2.201   1.368   4.030  2.0160 -2.6409  1.7751
 8701SOL     OW37564   2.303   3.474   9.422  0.1200 -0.3762  0.4333
 8701SOL    HW137565   2.251   3.537   9.473 -0.0595  1.4186 -1.9824
 8701SOL    HW237566   2.309   3.527   9.343 -1.9401  0.0486  0.5641
 8702SOL     OW37567   4.364   3.551   3.545 -0.6032  0.0062  0.3163
 8702SOL    HW137568   4.321   3.627   3.506  0.5506  0.2282 -0.5324
 8702SOL    HW237569   4.443   3.579   3.592 -0.2543 -0.2100 -0.1443
 8703SOL     OW37570   0.004   4.611   3.572 -0.1615  0.2600 -0.4662
 8703SOL    HW137571   0.013   4.692   3.521  2.6082 -1.1515 -2.1961
 8703SOL    HW237572   4.631   4.605   3.576  0.0113 -1.2779  0.9982
 8704SOL     OW37573   3.313   1.640  11.267  0.6435  0.9479 -0.4453
 8704SOL    HW137574   3.267   1.627  11.349 -1.2898  0.9944 -1.5383
 8704SOL    HW237575   3.405   1.616  11.284  0.0710 -0.9043  0.0332
 8705SOL     OW37576   0.057   3.798   5.319 -0.5038  0.7171 -0.3520
 8705SOL    HW137577   0.080   3.720   5.370 -1.2277  1.9911  1.9143
 8705SOL    HW237578   0.078   3.878   5.367  1.8283  0.8030 -1.5284
 8706SOL     OW37579   2.600   4.408  12.710 -0.4910  0.3549  0.0929
 8706SOL    HW137580   2.539   4.477  12.684 -1.5289 -0.6348 -0.0602
 8706SOL    HW237581   2.582   4.347  12.639  0.5312 -1.6234  1.5209
 8707SOL     OW37582   2.952   3.542   8.255 -0.2644 -0.1192 -0.4768
 8707SOL    HW137583   3.018   3.514   8.191 -2.6296  1.5465 -3.6414
 8707SOL    HW237584   2.874   3.510   8.211 -0.4256  1.4169 -1.3097
 8708SOL     OW37585   0.018   0.022   7.389  0.3039 -0.0413  0.0759
 8708SOL    HW137586   4.688   4.684   7.337 -3.5835  0.5341  3.3300
 8708SOL    HW237587   0.014   4.703   7.475 -0.9436 -1.0709 -0.4786
 8709SOL     OW37588   2.520   4.524   5.679  0.0995 -0.0388 -0.4094
 8709SOL    HW137589   2.549   4.443   5.636  0.8396 -0.2860  0.5790
 8709SOL    HW237590   2.551   4.506   5.767 -0.1268  2.1877  0.1096
 8710SOL     OW37591   3.290   0.996   4.760  0.1654  0.4187 -0.3532
 8710SOL    HW137592   3.274   1.085   4.790 -0.7161  0.1946 -0.1667
 8710SOL    HW237593   3.385   0.993   4.747 -0.0669 -0.2101 -1.8966
 8711SOL     OW37594   4.462   1.000  13.299 -0.7876 -0.2997 -0.1098
 8711SOL    HW137595   4.380   1.009  13.348 -1.0189 -0.3927 -0.4760
 8711SOL    HW237596   4.434   0.985  13.208 -1.2197  2.6536 -0.4820
 8712SOL     OW37597   2.024   2.117   4.120  0.4445 -0.6844 -0.4468
 8712SOL    HW137598   1.929   2.128   4.129  0.4324 -1.5962  0.5688
 8712SOL    HW237599   2.047   2.033   4.161  2.9648  1.7051  3.0149
 8713SOL     OW37600   1.230   2.119   4.243 -0.4963  0.0522  0.4566
 8713SOL    HW137601   1.148   2.123   4.293 -0.3921 -1.4418  0.7707
 8713SOL    HW237602   1.253   2.027   4.256  2.1206  0.5839 -0.4665
 8714SOL     OW37603   3.013   0.706   2.169  0.4799  0.2054  0.0035
 8714SOL    HW137604   2.983   0.789   2.203  0.4188 -0.0041  0.4597
 8714SOL    HW237605   3.083   0.696   2.234  2.3642 -2.4489 -2.4316
 8715SOL     OW37606   0.232   0.770   7.320 -0.0942  0.1962 -0.0181
 8715SOL    HW137607   0.190   0.805   7.242 -0.0874 -1.9849 -0.9765
 8715SOL    HW237608   0.320   0.746   7.290 -0.3223 -0.2340 -0.3361
 8716SOL     OW37609   2.736   0.639  10.901  0.2512  0.0851 -0.4273
 8716SOL    HW137610   2.717   0.586  10.824 -2.3901  2.1928 -1.1908
 8716SOL    HW237611   2.732   0.725  10.860  2.0531 -0.5735 -2.0034
 8717SOL     OW37612   2.501   4.534   8.316  0.1137 -0.2371 -0.8865
 8717SOL    HW137613   2.575   4.540   8.376 -0.1734 -0.4382 -0.5159
 8717SOL    HW237614   2.444   4.477   8.367 -0.0685  0.1203 -0.6884
 8718SOL     OW37615   2.632   4.432   4.091 -0.4062  0.2674 -0.6440
 8718SOL    HW137616   2.606   4.510   4.139  0.0059  2.3773 -3.7900
 8718SOL    HW237617   2.715   4.457   4.052 -0.9082  2.4925 -0.3199
 8719SOL     OW37618   0.944   1.145   2.333 -0.3882  0.0760 -0.4144
 8719SOL    HW137619   0.973   1.054   2.320 -1.8155 -0.4525  0.0178
 8719SOL    HW237620   0.987   1.167   2.415  1.0045 -0.9062 -0.8701
 8720SOL     OW37621   3.499   2.587   8.733  0.2774  0.4309  0.2913
 8720SOL    HW137622   3.427   2.529   8.710 -0.8086  1.0975  1.9972
 8720SOL    HW237623   3.489   2.653   8.664  2.3853  1.0922  0.6133
 8721SOL     OW37624   0.687   1.095   4.463 -0.2434 -0.1012  0.5102
 8721SOL    HW137625   0.716   1.145   4.386  0.1141  1.5556  1.7187
 8721SOL    HW237626   0.663   1.164   4.524 -1.5702 -0.9011  0.8926
 8722SOL     OW37627   3.466   3.829   6.945  0.0208  0.3038 -0.5134
 8722SOL    HW137628   3.421   3.885   7.008 -0.9238  0.4461 -1.3061
 8722SOL    HW237629   3.392   3.770   6.928  0.2475 -0.1558  0.1083
 8723SOL     OW37630   1.384   2.224   5.374 -0.0161  0.7343 -0.3747
 8723SOL    HW137631   1.422   2.240   5.460 -1.6620  2.9678 -0.0735
 8723SOL    HW237632   1.310   2.285   5.378 -1.3997 -0.8977 -1.0636
 8724SOL     OW37633   1.483   1.943   7.501 -0.2673  0.4257 -0.2632
 8724SOL    HW137634   1.440   1.923   7.585 -1.4166  2.7594 -0.2896
 8724SOL    HW237635   1.534   2.019   7.529  3.3634 -1.4891 -1.7056
 8725SOL     OW37636   0.355   0.507  14.392 -0.1752 -0.6007  0.2969
 8725SOL    HW137637   0.437   0.552  14.412  1.1828 -1.8061 -2.4071
 8725SOL    HW237638   0.295   0.553  14.450 -1.4799  1.6321 -2.8113
 8726SOL     OW37639   0.510   1.509   8.569  0.0715 -0.4304 -0.1075
 8726SOL    HW137640   0.459   1.462   8.636  1.3147  0.4750  1.4558
 8726SOL    HW237641   0.520   1.592   8.615 -1.7735 -0.6098  0.6485
 8727SOL     OW37642   3.042   1.697   2.195 -0.0964  0.5049  0.2848
 8727SOL    HW137643   3.001   1.784   2.191  1.1667  1.1075  0.4730
 8727SOL    HW237644   2.985   1.644   2.251  0.3944 -0.0658  0.2420
 8728SOL     OW37645   2.887   1.436  15.678  0.3375  0.5368  0.1553
 8728SOL    HW137646   2.858   1.516  15.634  1.9420  0.2634 -1.4226
 8728SOL    HW237647   2.959   1.466  15.733  0.9007  0.0367 -0.3055
 8729SOL     OW37648   3.938   1.617   1.449 -0.2313 -0.2780  0.1487
 8729SOL    HW137649   3.985   1.542   1.486 -0.6918  0.2412  1.7854
 8729SOL    HW237650   4.008   1.680   1.467 -0.9205  0.9415 -1.4270
 8730SOL     OW37651   3.715   1.251   5.280 -0.2077  0.3412 -0.0271
 8730SOL    HW137652   3.736   1.165   5.316 -1.7350  0.2392  0.6146
 8730SOL    HW237653   3.656   1.219   5.212 -0.1212  0.9477 -0.3868
 8731SOL     OW37654   2.603   0.088   5.366 -0.6345  0.3468 -0.3178
 8731SOL    HW137655   2.555   0.037   5.300 -1.6800 -0.0329  0.7286
 8731SOL    HW237656   2.663   0.022   5.401  1.7467  2.1389 -1.1005
 8732SOL     OW37657   3.637   4.330   9.622 -0.4594  0.4003 -0.2067
 8732SOL    HW137658   3.558   4.309   9.672  1.2354  0.3133  2.4440
 8732SOL    HW237659   3.621   4.267   9.551 -1.0204 -0.5557  0.7639
 8733SOL     OW37660   0.709   0.269   6.576  0.4642  0.6347  0.0813
 8733SOL    HW137661   0.736   0.315   6.496  1.5585  0.1930  0.2023
 8733SOL    HW237662   0.710   0.341   6.640  1.4175 -0.7143  1.5939
 8734SOL     OW37663   4.207   2.351  13.912  0.2122 -0.4959 -0.6596
 8734SOL    HW137664   4.161   2.379  13.833 -1.0603 -1.5231 -0.2661
 8734SOL    HW237665   4.291   2.394  13.892 -0.5212  0.8298 -0.8750
 8735SOL     OW37666   1.811   3.967   5.881  0.6988  0.3038 -0.0042
 8735SOL    HW137667   1.828   3.926   5.966  0.3745  0.4466  0.1269
 8735SOL    HW237668   1.852   4.052   5.893  0.0280  0.7953 -1.2154
 8736SOL     OW37669   0.085   4.185  14.440  0.6618 -0.9000 -0.0985
 8736SOL    HW137670   0.110   4.207  14.530  1.6774  1.7335 -0.9989
 8736SOL    HW237671   0.165   4.144  14.408 -0.0218 -1.7972 -0.6326
 8737SOL     OW37672   0.608   2.221   0.394  0.1038  0.1256  0.3512
 8737SOL    HW137673   0.672   2.183   0.334 -0.9169 -1.8286  0.5111
 8737SOL    HW237674   0.666   2.285   0.436  0.0502  0.2237  0.2745
 8738SOL     OW37675   1.724   2.453  15.689  0.5524  0.2790 -0.1555
 8738SOL    HW137676   1.778   2.486  15.760  0.9230 -1.8856  0.5667
 8738SOL    HW237677   1.649   2.409  15.729 -0.8130  2.7503  0.0081
 8739SOL     OW37678   1.621   1.053   8.659 -0.2157  0.2331 -0.3893
 8739SOL    HW137679   1.565   1.113   8.709  0.8982 -0.1902  1.3347
 8739SOL    HW237680   1.562   0.982   8.633  0.7666 -0.4550 -0.7589
 8740SOL     OW37681   3.219   4.257   2.131  0.0748  0.3853  0.2870
 8740SOL    HW137682   3.151   4.263   2.199 -0.9013  1.0004 -0.7486
 8740SOL    HW237683   3.299   4.248   2.184 -0.4390 -1.7852  0.6857
 8741SOL     OW37684   2.459   1.897   6.285  0.7708 -0.0648 -0.6344
 8741SOL    HW137685   2.414   1.950   6.219  2.2819  0.8388 -0.9424
 8741SOL    HW237686   2.548   1.887   6.252  0.4055 -2.5486 -0.8765
 8742SOL     OW37687   3.522   0.639  10.128  0.0033 -0.2358 -0.7044
 8742SOL    HW137688   3.601   0.655  10.077 -0.6854 -0.5645 -1.8959
 8742SOL    HW237689   3.455   0.614  10.064 -1.0336  3.4100 -1.0770
 8743SOL     OW37690   0.150   4.566  10.555 -0.3588  0.2931 -0.0170
 8743SOL    HW137691   0.198   4.619  10.491  1.8915 -3.0748 -1.1216
 8743SOL    HW237692   0.085   4.626  10.592  0.7466  1.3296  0.2599
 8744SOL     OW37693   2.527   2.798   4.264 -0.4946  0.1067  0.0884
 8744SOL    HW137694   2.478   2.879   4.251  1.4230  0.9934 -1.7011
 8744SOL    HW237695   2.449   2.749   4.289 -0.6767 -0.2383 -1.2025
 8745SOL     OW37696   2.772   2.939   0.116  0.3441 -0.1399  0.1278
 8745SOL    HW137697   2.693   2.901   0.155  0.4320 -0.5617 -0.1014
 8745SOL    HW237698   2.775   3.017   0.172  2.7044  0.3591 -0.7066
 8746SOL     OW37699   0.236   1.354  11.004  0.3158 -0.5977 -0.0509
 8746SOL    HW137700   0.243   1.449  11.002  0.6572 -0.6168  0.3833
 8746SOL    HW237701   0.250   1.343  11.098  0.4951 -1.8100 -0.2247
 8747SOL     OW37702   0.493   0.349  12.122 -0.1845  0.4455 -0.4843
 8747SOL    HW137703   0.447   0.374  12.041 -0.8522  1.6688  0.2785
 8747SOL    HW237704   0.446   0.398  12.190  0.2476  1.8679 -1.2177
 8748SOL     OW37705   2.414   2.401   5.435  0.2091 -0.3765  0.1423
 8748SOL    HW137706   2.321   2.392   5.412  0.4751  0.1436 -1.1615
 8748SOL    HW237707   2.458   2.352   5.365 -1.3345 -0.9198 -0.4622
 8749SOL     OW37708   3.617   1.674   1.677  0.1716  0.5047 -0.2286
 8749SOL    HW137709   3.627   1.594   1.728  0.0418  0.3210 -0.4923
 8749SOL    HW237710   3.561   1.641   1.607  0.8443 -0.4599 -0.3188
 8750SOL     OW37711   4.535   4.058   6.461  0.2731  0.5790  0.5998
 8750SOL    HW137712   4.486   4.065   6.543 -0.1680  0.1016  0.3762
 8750SOL    HW237713   4.612   4.011   6.494 -2.7914 -1.6572  4.5209
 8751SOL     OW37714   1.434   1.182   3.393  0.0152 -0.2709  0.1957
 8751SOL    HW137715   1.516   1.205   3.437  1.3618 -1.2125 -1.8579
 8751SOL    HW237716   1.404   1.270   3.368  1.0243  0.2369  0.7614
 8752SOL     OW37717   4.350   0.272   2.457  0.5232 -0.1540 -0.3711
 8752SOL    HW137718   4.410   0.335   2.416 -0.9249  0.5944 -1.3741
 8752SOL    HW237719   4.359   0.295   2.549  0.8363 -1.5071 -0.0627
 8753SOL     OW37720   0.484   2.070   4.980  0.4030  0.2615 -0.3109
 8753SOL    HW137721   0.580   2.076   4.988  0.2715 -0.9952  2.0594
 8753SOL    HW237722   0.463   2.059   5.072  1.3377 -0.7265 -0.2183
 8754SOL     OW37723   2.755   4.140  12.198 -0.1013  0.3033 -0.4156
 8754SOL    HW137724   2.698   4.076  12.155 -2.0467  3.0818 -2.0085
 8754SOL    HW237725   2.785   4.092  12.275 -1.8271 -0.0320  0.0450
 8755SOL     OW37726   4.013   0.924   7.823 -0.5337 -0.4133 -0.0704
 8755SOL    HW137727   3.935   0.961   7.781 -1.3622 -0.0144  1.8546
 8755SOL    HW237728   3.995   0.832   7.843  1.7061 -0.6481  0.9202
 8756SOL     OW37729   1.046   3.131   2.809  0.6720 -0.3478 -0.0371
 8756SOL    HW137730   0.954   3.121   2.786  1.0727 -1.3837 -1.1376
 8756SOL    HW237731   1.066   3.051   2.857  2.5041 -0.0569 -0.2997
 8757SOL     OW37732   0.545   4.622   3.394 -0.0868 -0.0555 -0.4496
 8757SOL    HW137733   0.630   4.611   3.352 -0.2432  0.0099 -0.7849
 8757SOL    HW237734   0.566   4.629   3.487  1.1361 -1.5516 -0.6180
 8758SOL     OW37735   0.083   0.566   3.734 -0.1459  0.5783  0.6155
 8758SOL    HW137736   0.143   0.512   3.785 -0.4305  1.3441  1.7762
 8758SOL    HW237737   0.142   0.634   3.703 -0.9863  0.5613 -1.0301
 8759SOL     OW37738   0.631   3.532  14.996  0.3845  0.4804  0.2734
 8759SOL    HW137739   0.654   3.507  14.906 -0.1824 -1.9790  0.8178
 8759SOL    HW237740   0.574   3.606  14.975 -0.3644 -0.2060 -0.1285
 8760SOL     OW37741   0.072   0.753   5.249 -0.2163 -0.8030  0.3278
 8760SOL    HW137742   0.158   0.744   5.208  0.0365  2.1646  0.1904
 8760SOL    HW237743   0.114   0.766   5.335  2.5485  3.8444 -1.7073
 8761SOL     OW37744   1.365   1.049   7.253  0.3496  0.1794 -0.0644
 8761SOL    HW137745   1.365   1.008   7.339  0.7179 -3.5369 -1.8449
 8761SOL    HW237746   1.401   1.135   7.275  0.4489  0.5234 -1.5621
 8762SOL     OW37747   0.994   0.026  12.049 -0.6888  0.0092  0.1118
 8762SOL    HW137748   1.078   0.068  12.027 -0.0618 -0.6145  1.3819
 8762SOL    HW237749   0.934   0.051  11.978  0.0691  2.7193  0.4077
 8763SOL     OW37750   1.003   3.941   2.582 -0.1686  0.1670  0.3348
 8763SOL    HW137751   0.950   3.933   2.502  0.1217  1.2954  0.0352
 8763SOL    HW237752   1.041   3.854   2.570  3.2131  1.5813  0.9374
 8764SOL     OW37753   3.441   1.050   9.622 -0.4325 -0.5457  0.7157
 8764SOL    HW137754   3.369   0.989   9.638 -0.2376 -1.4552 -1.9363
 8764SOL    HW237755   3.440   1.100   9.704  0.0039  1.2498 -0.3728
 8765SOL     OW37756   1.121   3.531   8.948  0.4793  0.1057 -0.2268
 8765SOL    HW137757   1.157   3.442   8.943 -1.0328 -0.6001  1.1713
 8765SOL    HW237758   1.027   3.519   8.960  0.5731 -1.6671 -1.2405
 8766SOL     OW37759   3.169   3.182  12.629 -0.1436  0.2749  0.1807
 8766SOL    HW137760   3.081   3.186  12.666 -1.1199 -1.3601 -1.9164
 8766SOL    HW237761   3.196   3.274  12.630 -0.3855  0.3224  1.6821
 8767SOL     OW37762   1.913   0.346  10.759  0.7066  0.1061 -0.1567
 8767SOL    HW137763   1.976   0.415  10.740  1.1619  0.2209  1.7679
 8767SOL    HW237764   1.915   0.289  10.681  0.5255 -2.1854  1.5129
 8768SOL     OW37765   1.816   2.038  14.933 -0.2994  0.2137  0.4234
 8768SOL    HW137766   1.833   2.128  14.904  0.9431 -0.1565 -0.0392
 8768SOL    HW237767   1.905   2.005  14.916  0.1601  1.1322  1.0314
 8769SOL     OW37768   2.900   1.702   0.348 -0.7834  0.1415  0.1781
 8769SOL    HW137769   2.814   1.661   0.355 -0.6012 -0.4009 -0.7221
 8769SOL    HW237770   2.875   1.781   0.396  0.9951 -0.6852  2.4381
 8770SOL     OW37771   4.637   2.356   5.796 -0.6281  0.1550  0.5079
 8770SOL    HW137772   4.682   2.317   5.721 -0.0744  1.5413  0.1358
 8770SOL    HW237773   4.701   2.424   5.813 -0.6955  0.1489  0.7930
 8771SOL     OW37774   3.692   4.497   3.176 -0.1982  0.2269 -0.0684
 8771SOL    HW137775   3.748   4.461   3.107 -0.9338 -0.8039 -0.1327
 8771SOL    HW237776   3.667   4.416   3.220  0.5533 -0.6679 -1.2793
 8772SOL     OW37777   3.939   1.808   5.786 -0.0997 -0.2582 -0.2098
 8772SOL    HW137778   3.992   1.883   5.811 -1.0286  0.2181  0.3540
 8772SOL    HW237779   3.998   1.740   5.818 -1.0769 -1.6953 -1.4384
 8773SOL     OW37780   0.495   2.125   8.169 -0.7592  0.3962  0.2580
 8773SOL    HW137781   0.569   2.146   8.112 -0.0461 -2.8328 -0.0146
 8773SOL    HW237782   0.545   2.081   8.238  0.0314 -0.7353 -1.0395
 8774SOL     OW37783   0.959   3.948   4.482 -0.5168 -0.4891  0.6938
 8774SOL    HW137784   0.995   3.939   4.570  2.7210 -1.6584 -0.7396
 8774SOL    HW237785   0.887   3.886   4.470 -0.6117 -0.0939 -0.8234
 8775SOL     OW37786   1.266   1.328  10.052 -0.3592  0.1761  0.4483
 8775SOL    HW137787   1.282   1.234  10.057  0.3121  0.2527 -0.2832
 8775SOL    HW237788   1.341   1.363  10.004  0.5296 -1.9738  0.2778
 8776SOL     OW37789   4.501   0.683   4.064 -0.0740  0.5497  0.0103
 8776SOL    HW137790   4.489   0.595   4.099  0.8138  1.1561  1.8645
 8776SOL    HW237791   4.422   0.729   4.091  1.1083  2.1623  0.7642
 8777SOL     OW37792   3.715   1.877  15.989  0.2472  0.3271  0.0363
 8777SOL    HW137793   3.643   1.839  16.039 -0.4428  1.9254  0.2802
 8777SOL    HW237794   3.763   1.801  15.957  0.6696  0.4923  0.2735
 8778SOL     OW37795   1.007   0.837   0.392 -0.2226  0.7215 -0.0184
 8778SOL    HW137796   0.981   0.754   0.353  2.6537  1.0374 -2.6140
 8778SOL    HW237797   0.953   0.848   0.470 -3.5969  2.4821 -2.5869
 8779SOL     OW37798   2.819   2.588   3.338  0.3056 -0.5363  0.3666
 8779SOL    HW137799   2.809   2.540   3.420 -1.5506  0.6680  0.8206
 8779SOL    HW237800   2.848   2.677   3.358  0.7436 -0.8211  1.0102
 8780SOL     OW37801   4.492   1.392   2.056  0.2083 -0.0213  0.8111
 8780SOL    HW137802   4.548   1.315   2.043 -0.0177 -0.2099  0.9460
 8780SOL    HW237803   4.457   1.369   2.142  0.3474 -1.9960  0.3414
 8781SOL     OW37804   3.396   2.530   7.129 -0.4350 -0.0436  0.0404
 8781SOL    HW137805   3.391   2.441   7.162 -1.0777  0.1552  0.4921
 8781SOL    HW237806   3.489   2.549   7.142  0.0736 -1.7626 -1.1739
 8782SOL     OW37807   1.411   3.121  15.956 -0.4615  0.0298  0.1064
 8782SOL    HW137808   1.370   3.195  15.911  2.6766 -0.0924 -2.9007
 8782SOL    HW237809   1.486   3.100  15.900  0.0687 -0.1740  0.8862
 8783SOL     OW37810   2.860   0.111  13.680 -0.4484  0.0099  0.1338
 8783SOL    HW137811   2.950   0.137  13.659 -0.8773  0.2606 -1.3656
 8783SOL    HW237812   2.844   0.033  13.627  0.9189  0.8016 -1.4642
 8784SOL     OW37813   0.301   0.547   4.516  0.5116 -0.3158 -0.0484
 8784SOL    HW137814   0.220   0.587   4.484  0.6015 -2.1259 -2.4920
 8784SOL    HW237815   0.367   0.583   4.458  1.1565 -1.3245  0.0630
 8785SOL     OW37816   1.988   3.180   2.968 -0.1987  0.0500  0.0931
 8785SOL    HW137817   2.047   3.215   2.902 -0.5310 -0.4583 -0.4814
 8785SOL    HW237818   1.978   3.093   2.928 -2.4691  0.2041  0.3122
 8786SOL     OW37819   3.464   1.407   9.253 -0.2423 -0.0017  0.7116
 8786SOL    HW137820   3.541   1.455   9.222 -0.6409 -0.0189 -0.3186
 8786SOL    HW237821   3.499   1.346   9.317 -5.2084 -1.2896  2.2166
 8787SOL     OW37822   0.735   3.736   5.812  0.5345  0.3634 -0.5722
 8787SOL    HW137823   0.799   3.677   5.853  0.2502  0.9577  0.7177
 8787SOL    HW237824   0.672   3.728   5.884  3.2801 -1.0806  1.7002
 8788SOL     OW37825   2.829   4.174   4.593  0.2109 -0.2056  0.4521
 8788SOL    HW137826   2.829   4.122   4.512  0.3997  2.0437 -1.0063
 8788SOL    HW237827   2.786   4.109   4.648  0.6387 -1.3042 -0.5043
 8789SOL     OW37828   3.416   3.161  17.529  0.2300  0.9128 -0.1102
 8789SOL    HW137829   3.377   3.243  17.497 -1.2743 -0.0308 -0.6873
 8789SOL    HW237830   3.391   3.099  17.460 -0.3659  0.1045  0.8461
 8790SOL     OW37831   0.058   3.781   7.308 -0.0866 -0.1903 -0.3272
 8790SOL    HW137832   0.054   3.701   7.255 -0.2200  0.9481 -2.0516
 8790SOL    HW237833   0.055   3.843   7.235  1.2785  0.0228 -0.2084
 8791SOL     OW37834   2.260   1.144  12.082  0.0895 -0.1491  0.5106
 8791SOL    HW137835   2.293   1.189  12.005  1.7565  1.1269  1.9816
 8791SOL    HW237836   2.170   1.173  12.067 -0.0083  0.0428  1.4724
 8792SOL     OW37837   3.885   0.989   6.432  0.0088  0.3016  0.2826
 8792SOL    HW137838   3.828   1.039   6.373 -0.2104 -2.5300 -1.9301
 8792SOL    HW237839   3.824   0.975   6.505  0.1107 -1.5357  0.0202
 8793SOL     OW37840   2.230   2.754   7.871 -0.1284 -0.1723 -0.1636
 8793SOL    HW137841   2.210   2.662   7.886 -2.0655  0.6404  2.3473
 8793SOL    HW237842   2.260   2.762   7.780  0.8184 -1.6223  0.0285
 8794SOL     OW37843   3.536   2.766   4.290 -0.1736 -0.0302  0.1447
 8794SOL    HW137844   3.554   2.782   4.197 -0.5304  0.2364  0.1233
 8794SOL    HW237845   3.506   2.851   4.323 -0.4420  0.4292 -1.2809
 8795SOL     OW37846   1.727   2.374   3.845  0.5074 -0.8389  0.0652
 8795SOL    HW137847   1.802   2.326   3.809  0.0513 -1.3070 -0.2550
 8795SOL    HW237848   1.744   2.380   3.939 -0.6897  0.9923  0.1520
 8796SOL     OW37849   2.309   3.470  13.977 -0.0949  0.1112  0.2862
 8796SOL    HW137850   2.325   3.423  13.895 -1.2580 -1.3077  0.8650
 8796SOL    HW237851   2.299   3.560  13.947 -1.3618 -0.2586 -0.3796
 8797SOL     OW37852   3.750   3.267   5.892  0.9169  0.4741 -0.3931
 8797SOL    HW137853   3.828   3.277   5.947  1.0556 -1.3505 -0.2644
 8797SOL    HW237854   3.726   3.360   5.892 -1.2958 -0.1009  1.5520
 8798SOL     OW37855   2.271   2.956   4.912 -0.3788  0.0296 -0.0217
 8798SOL    HW137856   2.304   2.993   4.994  0.5249  1.7200 -1.1417
 8798SOL    HW237857   2.289   2.863   4.922 -2.8022 -0.6899 -2.2551
 8799SOL     OW37858   0.993   0.276   7.870 -0.2744 -0.9512  0.2605
 8799SOL    HW137859   1.018   0.183   7.871  0.4539 -0.7806 -1.4183
 8799SOL    HW237860   1.057   0.314   7.811  0.6229 -1.6931  0.7609
 8800SOL     OW37861   1.479   1.721   0.807 -0.2743  0.5804 -0.0467
 8800SOL    HW137862   1.412   1.747   0.744 -0.7341  1.5364  0.8448
 8800SOL    HW237863   1.466   1.783   0.879  1.0210  0.5453  0.2206
 8801SOL     OW37864   4.360   3.311   2.710 -0.3076 -0.5310 -0.2709
 8801SOL    HW137865   4.342   3.219   2.729  4.0701 -1.3977 -0.2743
 8801SOL    HW237866   4.390   3.334   2.798 -1.6351 -0.8007  0.2582
 8802SOL     OW37867   4.676   3.977   8.886  0.3796  0.1432  0.4557
 8802SOL    HW137868   4.602   3.922   8.911 -0.3359  1.1314  0.5062
 8802SOL    HW237869   4.663   4.038   8.959 -0.6258  0.8151 -0.2824
 8803SOL     OW37870   1.323   3.435  16.898  0.4812 -0.2473 -0.7484
 8803SOL    HW137871   1.403   3.462  16.852 -0.1590  1.2019 -1.0207
 8803SOL    HW237872   1.271   3.425  16.818 -0.9642  0.0761  0.1595
 8804SOL     OW37873   1.740   2.764   6.831  0.3056  0.2702 -0.4231
 8804SOL    HW137874   1.649   2.733   6.830 -0.0077  1.2131 -2.1997
 8804SOL    HW237875   1.725   2.825   6.903 -1.8989 -0.4322 -0.2784
 8805SOL     OW37876   0.984   2.313   7.829 -0.1787  0.6508 -0.2556
 8805SOL    HW137877   1.002   2.234   7.880 -1.7647 -0.5604 -1.6031
 8805SOL    HW237878   0.993   2.379   7.898 -1.5392  0.8767 -0.2972
 8806SOL     OW37879   3.936   4.244   2.833  0.6613  0.1056  0.3767
 8806SOL    HW137880   4.031   4.245   2.825  0.6777  0.6334  0.6566
 8806SOL    HW237881   3.929   4.318   2.892  2.1256 -0.6131  1.4372
 8807SOL     OW37882   4.198   3.422  13.389  0.0007  0.1466 -0.3777
 8807SOL    HW137883   4.283   3.425  13.434 -0.3034  0.5423  0.1669
 8807SOL    HW237884   4.225   3.443  13.299  0.2735  1.2146 -0.0450
 8808SOL     OW37885   3.046   2.611  17.288 -0.0116 -0.3230 -0.1662
 8808SOL    HW137886   3.034   2.531  17.236  0.3171 -0.4817 -0.0002
 8808SOL    HW237887   3.064   2.580  17.377  0.2179 -0.4649 -0.2603
 8809SOL     OW37888   2.262   2.363   9.905  0.0890  0.1437  0.1840
 8809SOL    HW137889   2.208   2.442   9.898 -1.7548 -1.0348  1.2435
 8809SOL    HW237890   2.191   2.306   9.933  1.7307 -2.8634 -1.7922
 8810SOL     OW37891   2.480   0.705  10.084  0.5271  0.3781 -0.2844
 8810SOL    HW137892   2.442   0.767  10.146 -2.8118  0.2146 -2.1475
 8810SOL    HW237893   2.561   0.677  10.128 -0.0285 -0.9219 -0.0908
 8811SOL     OW37894   0.281   2.597   1.161  0.2046 -0.5807  0.2815
 8811SOL    HW137895   0.202   2.648   1.178  0.8422  0.6245 -0.3748
 8811SOL    HW237896   0.260   2.515   1.207  0.7858  0.0783  1.7246
 8812SOL     OW37897   2.585   2.244   4.931  0.2639  0.2061  0.0983
 8812SOL    HW137898   2.519   2.246   4.863  0.4709  0.3048 -0.0986
 8812SOL    HW237899   2.600   2.150   4.927  2.2410  0.5662 -1.0725
 8813SOL     OW37900   0.108   0.490   2.843  0.0037  0.3689  0.9405
 8813SOL    HW137901   0.076   0.407   2.878  1.3182 -0.3461  0.4575
 8813SOL    HW237902   0.026   0.538   2.845  2.1149  4.0111 -1.7207
 8814SOL     OW37903   3.943   1.453   5.577  0.2699  0.1219  0.2351
 8814SOL    HW137904   3.889   1.517   5.531  0.9973 -0.1114 -0.9289
 8814SOL    HW237905   3.937   1.476   5.670 -2.1030 -0.4466  0.2101
 8815SOL     OW37906   1.944   1.264   8.793 -0.2453 -0.3267 -0.4676
 8815SOL    HW137907   1.862   1.314   8.789 -1.1680 -1.7339  0.6172
 8815SOL    HW237908   1.952   1.253   8.888  0.8948  2.6545 -0.2002
 8816SOL     OW37909   0.132   2.183  10.398  0.6823 -0.0391 -0.5035
 8816SOL    HW137910   0.041   2.205  10.378  0.4514  0.0100  0.5873
 8816SOL    HW237911   0.157   2.157  10.309  4.7617  1.4831  0.1991
 8817SOL     OW37912   4.113   4.178   7.385  0.3162  0.1747  0.0932
 8817SOL    HW137913   4.102   4.091   7.422 -0.1286 -0.8330 -2.3914
 8817SOL    HW237914   4.089   4.153   7.296  0.4525  2.1676 -0.5113
 8818SOL     OW37915   2.832   0.487   9.035  0.4642 -0.1359  0.6209
 8818SOL    HW137916   2.836   0.474   8.940  1.2658 -1.0429  0.7814
 8818SOL    HW237917   2.747   0.454   9.063  0.6494  0.2701  1.6636
 8819SOL     OW37918   4.633   2.947   3.870  0.5542  0.3108 -0.1377
 8819SOL    HW137919   4.713   2.989   3.901  0.8373 -0.2149 -0.1457
 8819SOL    HW237920   4.686   2.917   3.796 -1.0291  0.1104 -1.1976
 8820SOL     OW37921   3.750   2.954   6.610 -0.2053  0.4724 -0.0380
 8820SOL    HW137922   3.681   2.974   6.673 -2.6026 -1.4227 -2.0702
 8820SOL    HW237923   3.704   2.969   6.528 -1.9386 -2.7902  0.3464
 8821SOL     OW37924   1.283   2.901  17.634 -0.3819 -0.7211  0.6747
 8821SOL    HW137925   1.240   2.844   0.003 -1.4193 -1.1722 -0.4567
 8821SOL    HW237926   1.213   2.967  17.635  0.1718 -0.0967 -0.9273
 8822SOL     OW37927   3.744   0.399   0.531  0.2014  0.4264  0.0522
 8822SOL    HW137928   3.825   0.443   0.506  0.8556  0.0065  1.4324
 8822SOL    HW237929   3.688   0.435   0.462 -0.1215 -1.2305 -0.5421
 8823SOL     OW37930   4.037   2.169   0.338  0.1670 -0.4427  0.5524
 8823SOL    HW137931   3.991   2.116   0.403 -2.0060 -0.1366 -0.7435
 8823SOL    HW237932   4.096   2.100   0.308  0.4995  0.7927 -1.5928
 8824SOL     OW37933   0.073   2.218  16.824  0.0018 -0.1549  0.5047
 8824SOL    HW137934   0.163   2.186  16.821 -0.1519 -0.7057  1.5382
 8824SOL    HW237935   0.074   2.246  16.916 -0.6501 -0.0759  0.4876
 8825SOL     OW37936   4.437   0.622  13.515 -0.0797 -0.0949 -0.2665
 8825SOL    HW137937   4.382   0.659  13.447 -1.7311 -0.4058  0.9095
 8825SOL    HW237938   4.374   0.560  13.551  1.3956 -1.3017  0.2474
 8826SOL     OW37939   0.949   2.802   5.319  0.0180 -0.0515 -0.0071
 8826SOL    HW137940   0.891   2.830   5.389 -3.3622  0.3506 -2.9575
 8826SOL    HW237941   0.904   2.741   5.261 -1.2689 -1.1292  2.1244
 8827SOL     OW37942   0.809   2.052   6.718 -0.5344  0.0015  0.8653
 8827SOL    HW137943   0.830   1.960   6.705 -0.0786  0.2580 -0.2228
 8827SOL    HW237944   0.847   2.061   6.806 -1.3482 -3.2633  1.5543
 8828SOL     OW37945   4.713   0.948  17.463  0.1454 -0.2295  0.1225
 8828SOL    HW137946   0.053   0.927  17.395  2.9107  0.9834  2.3251
 8828SOL    HW237947   4.719   0.868  17.514  1.8414  1.0189  1.8717
 8829SOL     OW37948   4.036   1.182  15.037 -0.8809 -0.4436  0.5795
 8829SOL    HW137949   4.130   1.195  15.045 -0.7879 -1.0565  0.4646
 8829SOL    HW237950   4.027   1.173  14.943 -0.6876  0.7890  0.4511
 8830SOL     OW37951   0.469   4.124   6.173 -0.0022 -0.7440 -0.2605
 8830SOL    HW137952   0.431   4.180   6.241  0.9931  0.1809 -0.4702
 8830SOL    HW237953   0.392   4.077   6.141 -0.9658  1.1586 -0.7509
 8831SOL     OW37954   0.588   0.594   5.473 -0.3285 -0.1686 -0.3289
 8831SOL    HW137955   0.566   0.503   5.449  1.8955 -1.1391  1.2735
 8831SOL    HW237956   0.514   0.617   5.528 -1.7776  0.2240 -2.4444
 8832SOL     OW37957   2.745   2.546   0.857 -0.1417 -0.8233 -0.0227
 8832SOL    HW137958   2.665   2.522   0.904 -2.0786  0.6969 -2.5226
 8832SOL    HW237959   2.716   2.614   0.796  1.0063  0.8197  1.2965
 8833SOL     OW37960   4.421   2.502  13.781 -0.1109 -0.1739 -0.3913
 8833SOL    HW137961   4.427   2.597  13.791 -1.2257 -0.0319 -1.0582
 8833SOL    HW237962   4.508   2.464  13.794 -0.3655  0.0442  1.8312
 8834SOL     OW37963   2.362   2.016   8.447  0.4246  0.3264  0.2283
 8834SOL    HW137964   2.360   1.951   8.517  0.2237  0.2093  0.1145
 8834SOL    HW237965   2.357   2.098   8.495  3.8388  0.0817  0.9897
 8835SOL     OW37966   2.893   1.264  13.613 -0.0633  0.0048 -0.5158
 8835SOL    HW137967   2.907   1.202  13.541  1.4915 -1.4874  1.0693
 8835SOL    HW237968   2.889   1.344  13.561 -0.5416  0.4929  0.2850
 8836SOL     OW37969   3.781   0.172  10.690 -0.3337 -0.4426 -0.2628
 8836SOL    HW137970   3.707   0.148  10.746  0.7912  0.5400  1.6584
 8836SOL    HW237971   3.817   0.239  10.748  1.4660 -0.1476 -1.7256
 8837SOL     OW37972   0.246   0.727   6.538  0.1412 -0.5015 -0.4512
 8837SOL    HW137973   0.315   0.747   6.475  0.4063 -2.0678 -0.6462
 8837SOL    HW237974   0.272   0.638   6.562 -1.2570 -0.4949  1.1228
 8838SOL     OW37975   0.583   3.397   4.834  0.1726 -0.1632 -0.6456
 8838SOL    HW137976   0.538   3.401   4.919  0.9614 -0.1502 -0.2310
 8838SOL    HW237977   0.625   3.482   4.826  1.6823 -0.8052  0.5530
 8839SOL     OW37978   2.516   2.255   6.407 -0.1641  0.4485 -0.5246
 8839SOL    HW137979   2.473   2.327   6.360  0.5266  1.9644  1.1620
 8839SOL    HW237980   2.600   2.251   6.361  0.9075 -2.1121  1.7073
 8840SOL     OW37981   3.130   3.599  12.319 -0.0633  0.4858  0.2758
 8840SOL    HW137982   3.053   3.624  12.269  1.6744  2.0606 -1.5984
 8840SOL    HW237983   3.121   3.503  12.317  1.2321  0.4251 -1.9990
 8841SOL     OW37984   1.602   0.662   6.220 -0.3103 -0.2941  0.2754
 8841SOL    HW137985   1.643   0.581   6.191 -1.4458 -0.7268 -0.1097
 8841SOL    HW237986   1.646   0.724   6.162  1.5090 -3.2380 -1.4850
 8842SOL     OW37987   0.767   4.150   2.890 -0.6561 -0.7704  0.4620
 8842SOL    HW137988   0.676   4.126   2.907 -0.6286 -0.1576  1.4949
 8842SOL    HW237989   0.783   4.081   2.826 -0.6602  0.5912 -1.0069
 8843SOL     OW37990   3.131   1.972   5.660 -0.1257  0.4541 -0.1620
 8843SOL    HW137991   3.136   1.876   5.662 -0.8732  0.4575  1.4925
 8843SOL    HW237992   3.153   2.008   5.574  1.2364 -0.5503 -0.2277
 8844SOL     OW37993   3.047   1.151  13.418 -0.1613  0.5463 -1.2091
 8844SOL    HW137994   2.979   1.089  13.390  0.1585  0.0183 -0.8265
 8844SOL    HW237995   3.119   1.124  13.361  1.8223  0.8954  1.0934
 8845SOL     OW37996   3.526   4.321   0.278 -0.5889 -0.0264  0.4680
 8845SOL    HW137997   3.464   4.276   0.335  0.5589  0.6700  2.2681
 8845SOL    HW237998   3.501   4.408   0.307  1.2629  0.3937  0.7913
 8846SOL     OW37999   3.190   0.312  11.951 -0.5086  0.0320 -0.3848
 8846SOL    HW138000   3.109   0.361  11.941  0.4805  1.6438 -0.4038
 8846SOL    HW238001   3.255   0.378  11.930  0.2405 -0.5954 -0.0608
 8847SOL     OW38002   2.963   3.065   4.041  0.3966  0.3201  0.3791
 8847SOL    HW138003   3.013   2.983   4.044  0.0969  0.1312  0.2142
 8847SOL    HW238004   3.031   3.131   4.051  1.0167 -0.0577 -1.3685
 8848SOL     OW38005   1.768   4.469  12.246  0.1492 -0.0781 -0.4142
 8848SOL    HW138006   1.680   4.461  12.209  0.5076 -2.4789 -0.7771
 8848SOL    HW238007   1.790   4.561  12.232 -1.0764  0.3452  0.4485
 8849SOL     OW38008   3.982   2.033  12.792  0.6530 -0.3159  0.1439
 8849SOL    HW138009   3.938   2.117  12.775  3.0417  1.2546  1.8111
 8849SOL    HW238010   3.983   1.992  12.705  0.0632  0.5021 -0.2490
 8850SOL     OW38011   0.541   3.576   6.166 -0.6638  0.3891  0.1223
 8850SOL    HW138012   0.576   3.664   6.180  0.2993 -0.0055  0.2611
 8850SOL    HW238013   0.463   3.576   6.221  0.0605  0.7985  1.1548
 8851SOL     OW38014   1.919   0.369   4.008  0.2948 -0.0635  0.2994
 8851SOL    HW138015   1.865   0.349   4.085  0.0317  0.7522  0.3201
 8851SOL    HW238016   1.965   0.284   4.004 -1.0069 -0.7475  0.0034
 8852SOL     OW38017   2.724   2.664  14.287  0.1311 -0.1796 -0.2423
 8852SOL    HW138018   2.798   2.711  14.249  0.6005 -0.3362  0.4816
 8852SOL    HW238019   2.715   2.578  14.245  0.5604 -0.3202 -0.0423
 8853SOL     OW38020   3.761   4.361   6.876 -0.5164  0.1691  0.1375
 8853SOL    HW138021   3.750   4.301   6.802  0.7285 -0.3733  0.3948
 8853SOL    HW238022   3.730   4.303   6.945  1.4345 -0.2315  0.6473
 8854SOL     OW38023   2.110   1.504   1.699  0.2881 -0.0228 -0.0024
 8854SOL    HW138024   2.056   1.433   1.734  1.6812  0.3497  2.9013
 8854SOL    HW238025   2.068   1.526   1.616 -0.9002 -0.8194  0.3852
 8855SOL     OW38026   0.366   0.222  13.270 -0.2024  0.3173 -0.4387
 8855SOL    HW138027   0.360   0.133  13.304 -0.9787  1.9425  3.6147
 8855SOL    HW238028   0.334   0.219  13.180 -1.4904 -1.6788  0.0847
 8856SOL     OW38029   2.473   4.570  16.066  0.3312 -0.2636  0.0994
 8856SOL    HW138030   2.435   4.484  16.083  1.6571  0.0264  4.5310
 8856SOL    HW238031   2.413   4.607  16.001  0.2337 -1.8921 -0.7400
 8857SOL     OW38032   0.523   0.581   2.449 -0.1708  0.2429  0.2611
 8857SOL    HW138033   0.527   0.496   2.493  0.6509 -0.0810 -0.4417
 8857SOL    HW238034   0.442   0.581   2.399  0.4274  0.0238 -0.7019
 8858SOL     OW38035   4.472   0.732   4.850 -0.0184 -0.2800  0.0549
 8858SOL    HW138036   4.548   0.724   4.908 -2.1576 -0.0128  2.9083
 8858SOL    HW238037   4.460   0.826   4.849  1.1382 -0.0819  2.9188
 8859SOL     OW38038   3.015   2.860  10.202  0.0407  0.4464  0.1241
 8859SOL    HW138039   3.066   2.847  10.282 -0.5745 -0.7501  0.3093
 8859SOL    HW238040   2.941   2.800  10.211  0.6682 -0.3504 -0.0172
 8860SOL     OW38041   1.445   3.443   2.291  0.7051 -0.6543  0.1519
 8860SOL    HW138042   1.372   3.499   2.318  2.3183  1.2576  0.5285
 8860SOL    HW238043   1.467   3.397   2.372  0.3578  1.0801  1.2307
 8861SOL     OW38044   1.138   1.543   2.620 -0.0689 -0.3808 -0.3194
 8861SOL    HW138045   1.128   1.456   2.582 -0.6456 -0.6645  0.4896
 8861SOL    HW238046   1.232   1.548   2.634  0.3117 -0.3404 -2.8956
 8862SOL     OW38047   2.736   1.648   8.052  0.0532 -0.1049 -0.1353
 8862SOL    HW138048   2.672   1.688   8.110  0.4835  1.0142 -0.4405
 8862SOL    HW238049   2.806   1.639   8.116  4.3009 -0.2949 -4.8273
 8863SOL     OW38050   0.853   0.710   3.656  0.7918 -0.1706  0.1769
 8863SOL    HW138051   0.776   0.696   3.601  0.2691  0.6012  0.7261
 8863SOL    HW238052   0.913   0.753   3.595  0.8081  0.1993  0.4565
 8864SOL     OW38053   2.092   3.133   1.864 -0.2250  0.2568 -0.1115
 8864SOL    HW138054   2.076   3.170   1.777 -0.5252 -0.6253 -0.4328
 8864SOL    HW238055   2.119   3.203   1.923 -0.8591  0.1871  0.2639
 8865SOL     OW38056   1.175   2.796   3.996  0.0586 -0.3372  0.2354
 8865SOL    HW138057   1.098   2.851   3.984  0.7586  0.2871 -1.3805
 8865SOL    HW238058   1.168   2.735   3.923 -0.8907 -0.6375  0.5727
 8866SOL     OW38059   2.836   2.033  15.634 -0.0192 -0.3686  0.2348
 8866SOL    HW138060   2.889   2.112  15.650  1.1922 -0.9727 -0.8205
 8866SOL    HW238061   2.904   1.983  15.589 -0.1992 -0.3289 -0.0840
 8867SOL     OW38062   0.918   2.198   2.438  0.4828 -0.2684  0.0750
 8867SOL    HW138063   0.898   2.105   2.428  0.6306 -0.2002 -0.9022
 8867SOL    HW238064   0.997   2.212   2.385 -1.8751  2.8319 -2.6209
 8868SOL     OW38065   4.713   0.479   4.774 -0.5121 -0.3588 -0.0363
 8868SOL    HW138066   0.064   0.537   4.756 -0.0155 -1.0716 -0.2850
 8868SOL    HW238067   0.033   0.396   4.755  1.3860  0.4797  0.6054
 8869SOL     OW38068   1.929   2.650   3.239  0.2896 -0.0076 -0.8746
 8869SOL    HW138069   1.983   2.612   3.170 -1.6448  0.8882 -2.8736
 8869SOL    HW238070   2.005   2.657   3.297  0.3547 -0.7359 -0.8743
 8870SOL     OW38071   1.823   3.865  17.322 -0.0325  0.4556  0.3105
 8870SOL    HW138072   1.755   3.907  17.269 -1.4711  0.7811  2.3900
 8870SOL    HW238073   1.897   3.912  17.283  0.4259 -1.8399 -1.5655
 8871SOL     OW38074   2.552   0.723   7.798  0.1191  0.5472 -0.3899
 8871SOL    HW138075   2.606   0.800   7.814  1.4889 -0.7008  1.0641
 8871SOL    HW238076   2.585   0.665   7.867 -1.1114  2.3229  1.6914
 8872SOL     OW38077   3.972   3.673  16.665 -0.3662  0.4674  0.4445
 8872SOL    HW138078   3.890   3.664  16.714  0.5800 -0.5135  1.8467
 8872SOL    HW238079   4.033   3.711  16.729  1.4464  1.1758 -1.6974
 8873SOL     OW38080   3.387   2.441   4.828 -0.3950  0.3578  0.2422
 8873SOL    HW138081   3.435   2.363   4.857 -0.0373  0.4319 -0.1385
 8873SOL    HW238082   3.310   2.424   4.881 -0.9826  3.3109  0.3180
 8874SOL     OW38083   0.371   2.342   6.684 -0.0010  0.2298 -0.3490
 8874SOL    HW138084   0.449   2.335   6.739 -0.7473  0.1657  0.7010
 8874SOL    HW238085   0.386   2.275   6.618 -1.8758  0.0374 -0.5793
 8875SOL     OW38086   3.923   2.544   8.821  0.5544  0.2098  0.7729
 8875SOL    HW138087   3.929   2.638   8.840 -0.7376  0.2515  0.9681
 8875SOL    HW238088   3.958   2.532   8.733  2.8442  0.0510  1.7139
 8876SOL     OW38089   1.047   3.931   7.986 -0.6520  0.2027  0.2425
 8876SOL    HW138090   0.977   3.907   7.925 -1.0731 -0.2127  0.8937
 8876SOL    HW238091   1.115   3.920   7.919 -0.3463 -2.3808  0.9818
 8877SOL     OW38092   2.878   2.624  12.209  0.0629 -0.7080  0.2881
 8877SOL    HW138093   2.794   2.619  12.255  0.3541 -1.5778  0.7137
 8877SOL    HW238094   2.899   2.712  12.239  0.2840 -0.2345 -1.2579
 8878SOL     OW38095   4.218   1.802   6.280  0.2662  0.6015  0.4014
 8878SOL    HW138096   4.154   1.759   6.223  1.4851 -0.7630  0.0486
 8878SOL    HW238097   4.204   1.757   6.363 -0.4429 -0.5952 -0.3636
 8879SOL     OW38098   3.922   3.314   1.080  0.2371  0.5711  0.2601
 8879SOL    HW138099   3.867   3.365   1.139  0.4952  0.6649  0.4238
 8879SOL    HW238100   3.883   3.227   1.090  0.8462  0.6343  3.4341
 8880SOL     OW38101   3.083   4.137   5.976 -0.2673  0.5862 -0.7784
 8880SOL    HW138102   3.095   4.229   5.999  1.8647  0.2785 -0.6329
 8880SOL    HW238103   3.038   4.100   6.052 -0.5789  0.8258 -0.8478
 8881SOL     OW38104   3.276   3.895  12.223  0.4980 -0.5242  0.0419
 8881SOL    HW138105   3.344   3.956  12.251  0.6373 -0.9670  0.6649
 8881SOL    HW238106   3.279   3.831  12.294 -3.0961 -0.4543  0.2300
 8882SOL     OW38107   0.559   4.625   4.104 -0.2762  0.6103 -0.3304
 8882SOL    HW138108   0.470   4.632   4.138  0.1365  0.9153  0.6849
 8882SOL    HW238109   0.569   4.711   4.063  2.0999 -0.2007 -1.4831
 8883SOL     OW38110   3.219   4.461   9.078  0.0282 -0.3654 -0.7469
 8883SOL    HW138111   3.280   4.404   9.124  1.0283  0.2590 -1.3143
 8883SOL    HW238112   3.261   4.546   9.064  1.9054 -1.0711  0.6904
 8884SOL     OW38113   2.757   1.753   2.608 -0.5493  0.2004  0.0602
 8884SOL    HW138114   2.703   1.783   2.682 -0.9529  1.0816 -0.5920
 8884SOL    HW238115   2.721   1.811   2.541  0.8327 -1.2887 -1.9193
 8885SOL     OW38116   4.702   4.709   1.641 -0.5358  0.1554 -0.2866
 8885SOL    HW138117   4.675   4.692   1.731  1.4136  0.5246  0.3728
 8885SOL    HW238118   0.065   4.668   1.649 -0.9270 -0.6633 -0.2830
 8886SOL     OW38119   3.162   0.071  15.904 -0.6815  0.4190 -0.3788
 8886SOL    HW138120   3.213   0.009  15.853 -0.5153 -0.2109  0.5415
 8886SOL    HW238121   3.144   0.021  15.984  0.3165  2.7815  1.3554
 8887SOL     OW38122   1.196   0.724  13.692 -0.3007 -0.3460 -0.1340
 8887SOL    HW138123   1.139   0.792  13.729  1.2053  0.9778 -0.2596
 8887SOL    HW238124   1.278   0.735  13.740 -0.1935  1.9906 -0.8586
 8888SOL     OW38125   4.592   3.643   3.709 -0.2791  0.2062 -0.0476
 8888SOL    HW138126   4.634   3.558   3.724  0.1528  0.5707  0.7961
 8888SOL    HW238127   4.630   3.675   3.627 -0.7572  0.8738 -0.0029
 8889SOL     OW38128   1.400   2.592  16.505 -0.2410  0.0222 -0.1108
 8889SOL    HW138129   1.405   2.561  16.414  1.4061  0.4270 -0.1644
 8889SOL    HW238130   1.479   2.646  16.510  0.5892 -1.0621 -1.3252
 8890SOL     OW38131   4.494   1.558  10.927  0.0346  0.1870  0.4889
 8890SOL    HW138132   4.538   1.513  10.855  1.8751  2.4865  0.1964
 8890SOL    HW238133   4.571   1.590  10.973  1.0122 -0.6432 -0.5552
 8891SOL     OW38134   3.116   2.472  17.566  0.5521 -0.0284  0.5617
 8891SOL    HW138135   3.087   2.445  17.653 -0.4443 -1.1451 -0.1205
 8891SOL    HW238136   3.164   2.395  17.535  0.3714  0.6588 -1.4298
 8892SOL     OW38137   1.769   0.021   0.327 -0.3486  0.4388  0.1806
 8892SOL    HW138138   1.800   0.048   0.413  4.8587 -0.5122 -1.4444
 8892SOL    HW238139   1.848   0.029   0.274 -0.7922  1.1414 -0.3793
 8893SOL     OW38140   2.295   2.136   7.979  0.4233  0.1914  0.7581
 8893SOL    HW138141   2.219   2.082   8.002  0.5022 -0.2817 -0.0924
 8893SOL    HW238142   2.362   2.133   8.047  0.0373 -1.3906  1.0781
 8894SOL     OW38143   1.674   1.564  12.652  0.4227  0.2783  0.4840
 8894SOL    HW138144   1.713   1.598  12.732  1.0061 -1.4653  0.9496
 8894SOL    HW238145   1.680   1.472  12.680 -1.0080 -0.9529 -3.1583
 8895SOL     OW38146   4.221   0.869   5.899 -0.2598 -0.2778 -0.3454
 8895SOL    HW138147   4.134   0.841   5.872 -1.1397 -0.4451  2.6432
 8895SOL    HW238148   4.237   0.792   5.953  2.9049  1.8127  1.7467
 8896SOL     OW38149   1.109   1.671   4.262  0.1110  0.2628 -0.5076
 8896SOL    HW138150   1.067   1.591   4.295  0.5141  0.0777 -0.4473
 8896SOL    HW238151   1.042   1.713   4.209 -1.0812 -1.3460 -0.2635
 8897SOL     OW38152   4.516   1.878   6.815  0.2866  0.0787  0.4664
 8897SOL    HW138153   4.461   1.803   6.794 -1.9075  1.8262 -0.0959
 8897SOL    HW238154   4.519   1.914   6.726 -3.0199 -3.4428 -1.0434
 8898SOL     OW38155   3.539   2.329   3.644  0.5112 -0.4224 -0.5960
 8898SOL    HW138156   3.624   2.337   3.689 -0.9974  3.3482  1.5598
 8898SOL    HW238157   3.548   2.395   3.576 -0.1168 -0.1715 -0.4274
 8899SOL     OW38158   4.503   2.518   3.102  0.0701  0.0149  0.2801
 8899SOL    HW138159   4.514   2.482   3.189  1.4949  1.1112  0.5529
 8899SOL    HW238160   4.539   2.606   3.111  0.1608 -0.0106  0.1647
 8900SOL     OW38161   3.314   3.413  14.904  0.1730  0.1934 -0.0431
 8900SOL    HW138162   3.231   3.407  14.857 -0.2763 -0.6105  0.8401
 8900SOL    HW238163   3.302   3.332  14.953 -0.3385 -0.0889 -0.6270
 8901SOL     OW38164   2.088   2.560  14.173 -0.3242 -0.0491 -0.0442
 8901SOL    HW138165   2.160   2.512  14.213  2.0120  2.1772 -1.5874
 8901SOL    HW238166   2.019   2.496  14.153 -1.5668  1.2664  0.0010
 8902SOL     OW38167   2.547   0.875   4.715  0.5771 -0.2547  0.3814
 8902SOL    HW138168   2.457   0.907   4.725  1.4284  2.0564  0.4579
 8902SOL    HW238169   2.571   0.835   4.798  1.5905  0.5877  0.4946
 8903SOL     OW38170   3.055   1.109  14.355 -0.0253  0.1471  0.4116
 8903SOL    HW138171   2.978   1.163  14.334 -0.6591 -0.4994  1.0888
 8903SOL    HW238172   3.122   1.176  14.342 -0.2407  0.5610  1.4809
 8904SOL     OW38173   1.617   1.723   7.687 -0.0561  0.3523  0.3217
 8904SOL    HW138174   1.673   1.787   7.643 -0.3525  1.1497  1.1061
 8904SOL    HW238175   1.685   1.678   7.737  1.1153 -0.0087 -1.5720
 8905SOL     OW38176   2.886   0.876   6.618 -0.5339 -0.2111 -0.1641
 8905SOL    HW138177   2.864   0.969   6.616  0.0323 -0.0398  1.3330
 8905SOL    HW238178   2.875   0.852   6.710  0.2185 -0.0608 -0.0333
 8906SOL     OW38179   2.109   0.724   1.109 -0.1171 -0.2758  0.2817
 8906SOL    HW138180   2.187   0.781   1.114 -0.6568  0.2809  2.1085
 8906SOL    HW238181   2.147   0.641   1.079 -1.0773  0.0340 -1.8029
 8907SOL     OW38182   3.489   4.613  12.217  0.0932 -0.0144 -0.4145
 8907SOL    HW138183   3.433   4.640  12.144 -4.0206  1.6554  3.3949
 8907SOL    HW238184   3.454   4.674  12.281 -0.2415  0.4917 -1.0831
 8908SOL     OW38185   2.088   0.021   0.801 -0.3174 -0.4107  0.2234
 8908SOL    HW138186   2.151   0.084   0.766  1.2432 -0.5525  2.7630
 8908SOL    HW238187   2.142   4.672   0.834 -0.2791  0.1971  1.4930
 8909SOL     OW38188   0.592   1.928   7.533 -0.1522 -0.1699  0.0587
 8909SOL    HW138189   0.541   1.933   7.614  0.5088  1.9170  0.3434
 8909SOL    HW238190   0.637   1.844   7.535  1.4135  0.6419 -0.8865
 8910SOL     OW38191   1.338   2.956   3.594 -0.5510 -0.3939 -0.0596
 8910SOL    HW138192   1.328   2.974   3.688  0.6862  0.1611 -0.0372
 8910SOL    HW238193   1.347   2.861   3.589 -0.3018 -0.5286  2.8282
 8911SOL     OW38194   2.016   2.604   2.125  0.2673 -0.0324  0.2508
 8911SOL    HW138195   2.091   2.657   2.099 -1.4101  1.6137 -1.3414
 8911SOL    HW238196   1.959   2.638   2.055  1.8575  0.6582 -0.7121
 8912SOL     OW38197   4.392   3.628   6.224  0.7767  0.1041  0.0870
 8912SOL    HW138198   4.432   3.549   6.188  0.1882 -0.0964 -0.1307
 8912SOL    HW238199   4.431   3.642   6.310  0.7570  1.3181 -0.0992
 8913SOL     OW38200   3.465   0.730   3.358 -0.0907  0.6636 -0.0634
 8913SOL    HW138201   3.425   0.704   3.275 -2.3443 -0.5988  1.4298
 8913SOL    HW238202   3.411   0.806   3.381  0.9926  1.0274  1.2465
 8914SOL     OW38203   0.071   3.116   2.519 -0.1872  0.6819  0.4488
 8914SOL    HW138204   0.155   3.088   2.556 -0.6626 -0.2025  0.8642
 8914SOL    HW238205   0.089   3.184   2.454  3.2720  1.6981  2.4561
 8915SOL     OW38206   1.893   2.965  17.231 -0.1867 -0.0770  0.5203
 8915SOL    HW138207   1.877   2.885  17.181  1.5474  0.7871 -1.3828
 8915SOL    HW238208   1.906   3.029  17.161 -0.2224  2.8186  3.1748
 8916SOL     OW38209   2.967   2.394   0.477  0.3095  0.1010  0.2149
 8916SOL    HW138210   2.972   2.300   0.463  0.8087  0.0929  0.4560
 8916SOL    HW238211   3.011   2.405   0.562 -0.6135  0.2863  0.6712
 8917SOL     OW38212   1.094   0.676   5.970  0.2115  0.2410 -0.1911
 8917SOL    HW138213   1.041   0.745   5.930 -0.5585 -0.4847 -0.4200
 8917SOL    HW238214   1.085   0.614   5.898 -1.2150 -0.3075  0.4731
 8918SOL     OW38215   3.951   3.220   0.349 -0.4446 -0.7325 -0.2935
 8918SOL    HW138216   3.905   3.302   0.332  2.3670  1.1187  1.0223
 8918SOL    HW238217   3.937   3.169   0.269  1.6020  2.0247 -2.4194
 8919SOL     OW38218   1.806   1.457   2.007  0.4878 -0.4048 -0.1101
 8919SOL    HW138219   1.811   1.412   1.922 -2.5970 -3.7268  1.4645
 8919SOL    HW238220   1.845   1.395   2.069 -1.2986 -2.7054 -1.2747
 8920SOL     OW38221   0.669   1.015  13.795 -0.0617 -0.4633 -0.1830
 8920SOL    HW138222   0.613   1.088  13.825 -1.0343 -1.8158  1.2960
 8920SOL    HW238223   0.693   0.979  13.881  0.9783  0.2077 -0.1876
 8921SOL     OW38224   0.228   2.043  10.931  0.4497 -0.2142 -0.3331
 8921SOL    HW138225   0.146   2.035  10.980  0.9671  0.1823  0.5863
 8921SOL    HW238226   0.193   2.044  10.842 -1.1016  0.9124  0.2932
 8922SOL     OW38227   0.056   1.149   4.766  0.8161  0.5557  0.3200
 8922SOL    HW138228   0.144   1.181   4.743  0.0453  0.1260 -3.2707
 8922SOL    HW238229   0.040   1.093   4.690  1.9210  0.6679  0.0001
 8923SOL     OW38230   3.963   2.473   9.698  0.2068 -0.2446  0.0193
 8923SOL    HW138231   4.015   2.545   9.733  0.3089 -0.8049  1.0140
 8923SOL    HW238232   3.900   2.519   9.643 -1.4989 -2.5753  0.0213
 8924SOL     OW38233   1.785   3.217   4.178  0.0397 -0.0985  0.1857
 8924SOL    HW138234   1.695   3.246   4.161  0.4812  1.6692  0.8500
 8924SOL    HW238235   1.768   3.128   4.209 -1.7373 -0.5908 -2.1689
 8925SOL     OW38236   4.069   0.548  13.260  1.0812 -0.9622 -0.1740
 8925SOL    HW138237   4.074   0.454  13.244 -2.5112 -1.1855  0.1447
 8925SOL    HW238238   3.995   0.548  13.320  1.8167 -0.9640  0.7506
 8926SOL     OW38239   3.828   1.977  10.591 -0.0597  0.6270  0.2151
 8926SOL    HW138240   3.900   1.995  10.531 -1.0783  1.9414 -0.6068
 8926SOL    HW238241   3.868   1.916  10.653  0.4058  1.7223  0.9977
 8927SOL     OW38242   0.283   1.611  17.656  0.4514 -0.5565  0.1256
 8927SOL    HW138243   0.316   1.656  17.579 -1.4865  0.6513 -0.0052
 8927SOL    HW238244   0.269   1.527  17.613  1.5072 -0.3800 -0.5547
 8928SOL     OW38245   2.642   1.710  17.027  0.0441 -0.4621 -0.7137
 8928SOL    HW138246   2.556   1.691  17.063 -0.9121  3.6792 -0.8814
 8928SOL    HW238247   2.621   1.723  16.935 -3.1501 -0.1019  0.0883
 8929SOL     OW38248   3.942   1.395   2.040  0.3202 -0.6077  0.2452
 8929SOL    HW138249   3.966   1.341   1.965 -1.3228  1.0319 -1.4465
 8929SOL    HW238250   4.013   1.457   2.059  1.0001 -0.8236 -1.6321
 8930SOL     OW38251   3.938   0.638  16.797 -0.1005 -0.0166  0.1612
 8930SOL    HW138252   3.995   0.574  16.753 -1.0362 -1.8866  1.6429
 8930SOL    HW238253   3.849   0.606  16.785  0.3711 -1.2877  0.0388
 8931SOL     OW38254   3.294   4.612   2.948 -0.4061  0.1908 -0.0332
 8931SOL    HW138255   3.308   4.594   3.041  2.3451  0.7247 -0.3506
 8931SOL    HW238256   3.303   4.707   2.939 -1.4479  0.4646  1.7334
 8932SOL     OW38257   2.173   1.126  12.345 -0.3374 -0.0375  0.7006
 8932SOL    HW138258   2.245   1.117  12.407 -0.0653 -1.2360  0.2111
 8932SOL    HW238259   2.208   1.096  12.261 -0.7888  0.4393  0.3430
 8933SOL     OW38260   4.123   4.082   6.237 -0.0819 -0.0641 -0.6778
 8933SOL    HW138261   4.081   4.000   6.211 -2.2958  0.4742  1.1952
 8933SOL    HW238262   4.100   4.146   6.170  1.4174 -0.6180 -1.7254
 8934SOL     OW38263   4.713   3.652   3.436  0.4912 -0.5626 -0.4431
 8934SOL    HW138264   4.692   3.745   3.428  1.5305 -0.1286  1.8786
 8934SOL    HW238265   0.085   3.645   3.443  0.6496  3.5785  1.2834
 8935SOL     OW38266   3.355   1.077   8.840  0.5214 -0.2149  0.3494
 8935SOL    HW138267   3.347   1.029   8.923 -0.5417  1.1849  1.0669
 8935SOL    HW238268   3.296   1.150   8.862  1.3153  0.1324  1.3657
 8936SOL     OW38269   4.716   2.409   6.751 -0.6808 -0.1538  0.4751
 8936SOL    HW138270   4.670   2.326   6.733  0.2042 -0.1176 -2.0220
 8936SOL    HW238271   4.718   2.444   6.662  2.0012 -0.6375  0.3465
 8937SOL     OW38272   3.027   2.325   7.303 -0.0544  0.2255  0.2675
 8937SOL    HW138273   3.013   2.252   7.363  2.0654  0.5186  1.1317
 8937SOL    HW238274   3.114   2.355   7.330  0.8784 -0.4434 -1.9416
 8938SOL     OW38275   3.919   2.832   2.201 -0.0314  0.2391  0.8995
 8938SOL    HW138276   3.842   2.876   2.238 -0.4674  1.0428 -0.9565
 8938SOL    HW238277   3.889   2.742   2.191 -1.6167  0.8970 -0.3507
 8939SOL     OW38278   3.810   1.261   3.232 -0.5740 -0.3915 -0.3509
 8939SOL    HW138279   3.810   1.334   3.170  1.8694  0.5456  0.7619
 8939SOL    HW238280   3.881   1.199   3.217  2.0006  2.7059 -1.0401
 8940SOL     OW38281   1.750   0.050  17.498  0.0743 -0.3049 -0.0979
 8940SOL    HW138282   1.838   0.087  17.494  0.6934 -1.8048 -0.2562
 8940SOL    HW238283   1.748   0.015  17.587  0.8777  1.0788  0.4581
 8941SOL     OW38284   0.523   2.442   5.900  0.4749  0.7461 -0.2119
 8941SOL    HW138285   0.481   2.469   5.818 -1.3530 -1.1524  0.1265
 8941SOL    HW238286   0.447   2.457   5.955 -0.2548  0.0047 -1.0241
 8942SOL     OW38287   3.981   1.595   4.650 -0.0072 -0.4581  0.0770
 8942SOL    HW138288   3.988   1.502   4.671  2.0567 -0.3805 -0.2705
 8942SOL    HW238289   3.895   1.600   4.608 -1.1922  0.1692  2.6072
 8943SOL     OW38290   1.847   3.240   5.358  0.1450 -0.7544 -0.7967
 8943SOL    HW138291   1.881   3.168   5.305 -0.3191 -2.5458  1.3144
 8943SOL    HW238292   1.929   3.287   5.368  0.1243 -0.9858  0.5843
 8944SOL     OW38293   1.372   4.394   6.905  0.1459 -0.2122  0.5096
 8944SOL    HW138294   1.465   4.387   6.883 -0.1780 -1.6979 -0.3834
 8944SOL    HW238295   1.364   4.472   6.961 -0.3964 -0.2464  0.4795
 8945SOL     OW38296   3.672   2.169   3.121  0.0629  0.2999  0.0939
 8945SOL    HW138297   3.762   2.159   3.153 -0.2834  0.3659  1.0768
 8945SOL    HW238298   3.633   2.091   3.158  1.0984 -1.5152 -2.6459
 8946SOL     OW38299   0.179   4.645   4.739 -0.2763 -0.1865 -0.0394
 8946SOL    HW138300   0.196   4.550   4.735 -0.4238 -0.2980  1.7424
 8946SOL    HW238301   0.157   4.654   4.832  1.0973 -3.5152  0.6180
 8947SOL     OW38302   0.936   4.720   4.882 -0.7659 -0.2447 -0.5931
 8947SOL    HW138303   0.852   0.043   4.872 -1.1892 -0.9322 -0.2147
 8947SOL    HW238304   0.990   0.063   4.926 -1.2237 -1.1655  1.3443
 8948SOL     OW38305   4.413   3.715   8.772 -1.0000  0.3114  0.8783
 8948SOL    HW138306   4.475   3.644   8.758  0.3898  1.9091 -1.2013
 8948SOL    HW238307   4.433   3.782   8.706  1.7180 -0.4585  0.9482
 8949SOL     OW38308   1.328   1.988   4.605 -0.0819  0.1569 -0.5847
 8949SOL    HW138309   1.250   2.040   4.626  0.2929 -1.2654  4.3745
 8949SOL    HW238310   1.344   1.990   4.511  0.8817  1.5953 -0.3887
 8950SOL     OW38311   0.345   3.730  11.612  0.6091 -0.1610 -0.7447
 8950SOL    HW138312   0.427   3.723  11.661  0.1111  0.5874  0.1776
 8950SOL    HW238313   0.367   3.794  11.544 -1.8259  0.7530 -0.6842
 8951SOL     OW38314   2.138   1.269   4.489 -0.1381  0.1413  0.3746
 8951SOL    HW138315   2.127   1.217   4.409 -0.0496  0.0253  0.4377
 8951SOL    HW238316   2.224   1.305   4.469 -0.1813  1.0036  1.7102
 8952SOL     OW38317   0.878   1.964   8.518  0.4120  0.2203 -0.0247
 8952SOL    HW138318   0.858   1.981   8.610 -0.1529 -0.7731  0.0434
 8952SOL    HW238319   0.916   1.876   8.529 -2.0661 -0.7843  0.6165
 8953SOL     OW38320   4.531   3.643   5.480  0.3625  0.4071  0.4081
 8953SOL    HW138321   4.608   3.607   5.436 -0.4014 -0.3913 -0.2828
 8953SOL    HW238322   4.488   3.559   5.497 -1.2270  0.9258 -1.1096
 8954SOL     OW38323   3.732   2.338   9.683  0.5525  0.2544  0.1090
 8954SOL    HW138324   3.819   2.376   9.694  0.9789 -1.4352  2.5668
 8954SOL    HW238325   3.696   2.416   9.639  2.1953  1.9788  1.8095
 8955SOL     OW38326   4.113   0.188   4.383  0.6190  0.8780 -0.2402
 8955SOL    HW138327   4.162   0.253   4.334 -0.3067  1.5738 -0.2437
 8955SOL    HW238328   4.111   0.227   4.471  0.3976  0.1760  0.0681
 8956SOL     OW38329   1.540   4.540   2.830  0.0563 -0.0536 -0.7257
 8956SOL    HW138330   1.473   4.485   2.871  0.0224  0.2942 -0.3106
 8956SOL    HW238331   1.492   4.622   2.829 -1.8299 -1.1552 -0.2738
 8957SOL     OW38332   0.011   2.310   4.987  0.2130  0.0722 -0.8197
 8957SOL    HW138333   0.078   2.283   4.923  1.3936  1.9846 -0.3789
 8957SOL    HW238334   0.069   2.337   5.057 -0.3087 -1.3708  0.1700
 8958SOL     OW38335   3.896   1.764   7.575  0.7502  0.4937  0.2165
 8958SOL    HW138336   3.925   1.672   7.571 -0.2475  0.1180  1.7925
 8958SOL    HW238337   3.820   1.753   7.632  0.9205 -0.2991  0.3029
 8959SOL     OW38338   0.746   3.303  15.464 -0.2662 -0.5032 -0.2916
 8959SOL    HW138339   0.656   3.289  15.494 -0.9616 -0.7415 -2.4288
 8959SOL    HW238340   0.741   3.342  15.376 -0.0048  1.0110  0.3536
 8960SOL     OW38341   3.281   1.272   1.800 -0.3942 -0.3206  0.4171
 8960SOL    HW138342   3.300   1.258   1.708 -1.5621  0.2587  0.0911
 8960SOL    HW238343   3.211   1.210   1.822 -1.0999 -0.6481 -2.7702
 8961SOL     OW38344   2.194   3.815  14.635  0.1786 -0.5141 -0.0480
 8961SOL    HW138345   2.236   3.885  14.587  1.7051 -0.4724  1.3487
 8961SOL    HW238346   2.165   3.762  14.561 -3.7591  1.3330  0.1887
 8962SOL     OW38347   0.690   0.466  17.364  0.0544 -0.1610 -0.1788
 8962SOL    HW138348   0.664   0.382  17.326  0.3544  0.5146 -1.8933
 8962SOL    HW238349   0.669   0.465  17.457  2.0851 -0.1324  0.2791
 8963SOL     OW38350   4.643   3.750   1.485 -0.4413 -0.4907  0.1269
 8963SOL    HW138351   4.574   3.789   1.431  0.0980 -0.4979 -0.5758
 8963SOL    HW238352   4.703   3.708   1.423  1.1761  1.3627  0.4369
 8964SOL     OW38353   3.289   1.405   7.069 -0.4407  0.3760  0.0993
 8964SOL    HW138354   3.359   1.450   7.022  0.2972 -0.5113  0.3579
 8964SOL    HW238355   3.275   1.464   7.143 -0.2075 -0.1836  0.5840
 8965SOL     OW38356   2.160   0.074  11.016  0.2799  0.4918 -0.1386
 8965SOL    HW138357   2.081   0.085  10.962 -0.7680 -0.0047  1.2838
 8965SOL    HW238358   2.149   4.703  11.032  1.3399  0.4336  0.2244
 8966SOL     OW38359   3.693   0.964   9.569  0.0787  0.1066 -0.6338
 8966SOL    HW138360   3.713   1.035   9.629 -1.8224  0.3109 -0.2378
 8966SOL    HW238361   3.599   0.981   9.558 -0.1346 -0.5099  0.2075
 8967SOL     OW38362   4.486   1.798   5.634  0.0434  0.4593 -0.4658
 8967SOL    HW138363   4.398   1.778   5.600 -0.3271  0.9423  0.1984
 8967SOL    HW238364   4.523   1.710   5.645  0.5752  0.8441  0.8193
 8968SOL     OW38365   3.111   0.175   4.929  0.1222  0.0501 -0.6066
 8968SOL    HW138366   3.071   0.090   4.910 -0.0059  0.0933 -0.5343
 8968SOL    HW238367   3.198   0.156   4.964 -0.5419  3.4263  2.9835
 8969SOL     OW38368   2.542   3.649   2.283  0.0875 -0.3896  0.4344
 8969SOL    HW138369   2.468   3.627   2.227  1.6338  0.3085 -1.8796
 8969SOL    HW238370   2.609   3.667   2.217  0.0479 -0.3912  0.3942
 8970SOL     OW38371   0.472   2.491   8.754  0.6107  0.3651 -0.0859
 8970SOL    HW138372   0.390   2.443   8.769  1.4072 -1.0767 -0.4426
 8970SOL    HW238373   0.527   2.418   8.727 -1.5237 -1.7227  1.1714
 8971SOL     OW38374   3.804   2.450   9.063 -0.1483  0.0185 -0.4360
 8971SOL    HW138375   3.883   2.431   9.011  0.7827 -0.5689  1.1909
 8971SOL    HW238376   3.775   2.531   9.021 -1.2882  0.5739  1.4136
 8972SOL     OW38377   3.836   3.692   9.113  0.1500 -0.3492  0.3140
 8972SOL    HW138378   3.802   3.651   9.192 -0.8993  0.4404  0.2745
 8972SOL    HW238379   3.762   3.744   9.083  0.1499  0.3651  1.5615
 8973SOL     OW38380   2.023   3.182   9.628 -0.6694  0.0355 -0.0594
 8973SOL    HW138381   2.036   3.274   9.651  1.2112 -0.1863 -0.2166
 8973SOL    HW238382   1.994   3.187   9.537 -2.0858  1.2936  0.4637
 8974SOL     OW38383   3.731   1.336   8.938  0.1381  0.5253  0.0858
 8974SOL    HW138384   3.827   1.338   8.942  0.0765 -1.1888  2.8616
 8974SOL    HW238385   3.722   1.336   8.843 -0.2011 -0.6323  0.1143
 8975SOL     OW38386   0.202   4.265   4.166  0.4290  0.2597  0.3907
 8975SOL    HW138387   0.167   4.176   4.161 -0.4995  0.5316  1.8679
 8975SOL    HW238388   0.129   4.322   4.142 -1.2348 -1.4637  1.3409
 8976SOL     OW38389   3.861   1.307  11.827  0.1082 -0.1915  0.3659
 8976SOL    HW138390   3.789   1.247  11.807  0.2916 -0.7354  1.3449
 8976SOL    HW238391   3.817   1.344  11.904 -1.3275  0.6617 -0.8701
 8977SOL     OW38392   2.130   2.724  12.916 -0.1179 -0.9307  0.5511
 8977SOL    HW138393   2.193   2.678  12.972  0.2960 -1.4644 -0.3522
 8977SOL    HW238394   2.154   2.814  12.938  1.9625 -1.2845 -0.2071
 8978SOL     OW38395   3.585   1.184   3.858  0.4659  0.0259  0.1240
 8978SOL    HW138396   3.575   1.188   3.763 -2.5510  0.8590  0.4815
 8978SOL    HW238397   3.678   1.204   3.869  0.4622  0.5957 -0.8861
 8979SOL     OW38398   3.669   3.213   2.259 -0.4969 -0.7514  0.7173
 8979SOL    HW138399   3.722   3.287   2.288 -1.2130 -0.7149  1.9191
 8979SOL    HW238400   3.705   3.193   2.172 -0.6508  3.3095 -0.2906
 8980SOL     OW38401   2.993   1.854   4.218 -0.7318 -0.4291 -0.2437
 8980SOL    HW138402   3.006   1.847   4.312  0.5748  0.1483 -0.3725
 8980SOL    HW238403   3.080   1.890   4.197 -0.9961 -0.5382 -1.5764
 8981SOL     OW38404   2.881   2.189   7.125  0.1920  0.2525  0.3964
 8981SOL    HW138405   2.797   2.221   7.158  0.5572  1.1205  0.4882
 8981SOL    HW238406   2.943   2.246   7.170 -0.0673  0.9774 -0.1773
 8982SOL     OW38407   2.237   1.300  10.832 -0.0874  0.4826  0.2283
 8982SOL    HW138408   2.230   1.320  10.925 -2.3970 -0.5721  0.2988
 8982SOL    HW238409   2.156   1.327  10.790  0.4821  0.1113 -1.1055
 8983SOL     OW38410   1.620   0.387   2.086  0.3398 -0.1192 -0.0924
 8983SOL    HW138411   1.624   0.481   2.099  0.0880 -0.0363 -0.6126
 8983SOL    HW238412   1.528   0.371   2.106 -0.1641  1.1483 -1.3881
 8984SOL     OW38413   1.158   0.361   2.884 -0.3359  0.6342 -0.3085
 8984SOL    HW138414   1.109   0.380   2.804 -0.0128  0.8911 -0.4440
 8984SOL    HW238415   1.229   0.425   2.880  0.0832  0.1950  0.1131
 8985SOL     OW38416   1.726   2.236   3.539  0.5840  0.1547 -0.4889
 8985SOL    HW138417   1.660   2.304   3.526  1.7067  0.9960 -1.7644
 8985SOL    HW238418   1.735   2.210   3.447 -0.0568 -1.8287  0.0020
 8986SOL     OW38419   3.309   2.992  12.483  0.0267 -0.1241 -0.3169
 8986SOL    HW138420   3.243   3.044  12.529  0.5860 -0.4467  0.8684
 8986SOL    HW238421   3.381   3.055  12.480  0.5916 -0.7243  0.5861
 8987SOL     OW38422   2.484   3.944   8.739  0.0611 -0.0014 -0.8544
 8987SOL    HW138423   2.513   3.958   8.649  0.3523  1.0825 -0.5918
 8987SOL    HW238424   2.564   3.914   8.782 -0.4495  1.6650  1.2738
 8988SOL     OW38425   0.320   1.720   5.120 -0.3851  0.3708  0.3511
 8988SOL    HW138426   0.370   1.677   5.050  0.9224  1.0975  0.8523
 8988SOL    HW238427   0.336   1.671   5.200  0.6038 -3.2328 -2.0512
 8989SOL     OW38428   4.121   0.941   6.499  0.1053 -0.3061  0.4937
 8989SOL    HW138429   4.030   0.964   6.480  0.6201  0.2101 -1.3039
 8989SOL    HW238430   4.168   1.018   6.466 -0.4913 -0.0874  0.1384
 8990SOL     OW38431   0.676   0.827  10.192  0.2636 -0.6555  0.1416
 8990SOL    HW138432   0.650   0.898  10.251 -0.8672 -0.8280 -0.1523
 8990SOL    HW238433   0.761   0.867  10.174 -0.6228  0.9489 -0.4787
 8991SOL     OW38434   0.637   3.223   3.794 -0.6139 -0.6309 -0.4291
 8991SOL    HW138435   0.607   3.133   3.791 -1.6954 -0.1799 -3.0419
 8991SOL    HW238436   0.618   3.256   3.882  2.0285 -0.8366  0.2353
 8992SOL     OW38437   0.272   1.952   6.162  0.2117 -0.7747 -0.7528
 8992SOL    HW138438   0.240   2.024   6.108 -1.3043 -0.2844  0.7687
 8992SOL    HW238439   0.277   1.884   6.095 -0.6221  1.0579 -2.6557
 8993SOL     OW38440   4.376   4.350  11.848 -0.1430  0.5993  0.3065
 8993SOL    HW138441   4.369   4.410  11.774 -1.6491  1.7455  1.3975
 8993SOL    HW238442   4.421   4.276  11.806  1.4217 -0.2250  3.3932
 8994SOL     OW38443   1.073   3.533   8.375  0.0709  0.0059  0.2372
 8994SOL    HW138444   1.096   3.480   8.299  1.3389  2.4466 -1.0763
 8994SOL    HW238445   1.083   3.476   8.452  0.8048 -0.3513 -0.1253
 8995SOL     OW38446   1.457   0.293   3.593  0.4236  0.0002  0.1200
 8995SOL    HW138447   1.442   0.265   3.503  2.2313 -1.4429  0.2643
 8995SOL    HW238448   1.495   0.215   3.633  2.2848  1.2268  0.7705
 8996SOL     OW38449   3.048   1.881   4.498  0.2330  0.2610  0.1851
 8996SOL    HW138450   2.994   1.828   4.558  2.4524 -0.8520  1.2110
 8996SOL    HW238451   2.997   1.961   4.511  1.2185  1.0443 -0.7936
 8997SOL     OW38452   1.786   3.906  11.310 -0.0288  0.7471  0.0669
 8997SOL    HW138453   1.740   3.961  11.374 -0.8641 -0.4164  0.4664
 8997SOL    HW238454   1.772   3.817  11.343 -0.1424  0.4141 -0.9071
 8998SOL     OW38455   2.800   2.634   1.679 -0.1836  0.6771  0.6335
 8998SOL    HW138456   2.805   2.664   1.589  0.2783 -3.3250 -0.6774
 8998SOL    HW238457   2.889   2.608   1.700  0.4956  3.1671  0.8073
 8999SOL     OW38458   3.235   1.277   4.842  0.1209 -0.2865 -0.0182
 8999SOL    HW138459   3.248   1.335   4.766 -1.5673  0.7953  0.5011
 8999SOL    HW238460   3.289   1.321   4.908 -1.6269 -0.3967  1.4838
 9000SOL     OW38461   3.552   1.507   0.759  0.5441  0.4141 -0.1809
 9000SOL    HW138462   3.643   1.496   0.731  1.4948  2.5671  2.0602
 9000SOL    HW238463   3.528   1.589   0.718  2.0317  0.6896 -0.5136
 9001SOL     OW38464   1.755   4.413   6.413 -0.3579  0.3666  0.2407
 9001SOL    HW138465   1.687   4.389   6.476  1.0799 -0.4157  1.4916
 9001SOL    HW238466   1.730   4.500   6.382 -0.2043  0.3330  0.0201
 9002SOL     OW38467   0.255   3.940   4.440 -0.2104  0.0063  0.0228
 9002SOL    HW138468   0.298   3.962   4.523 -0.0789 -0.8280  0.1780
 9002SOL    HW238469   0.319   3.983   4.383  1.1430 -0.3065  1.2913
 9003SOL     OW38470   2.115   3.442   0.378  0.0049  0.1387 -0.7136
 9003SOL    HW138471   2.126   3.448   0.473 -3.0327  0.2691 -0.3826
 9003SOL    HW238472   2.065   3.519   0.353  0.1905 -0.0044 -1.5276
 9004SOL     OW38473   3.698   2.332   2.662  0.5089 -0.1823  0.0006
 9004SOL    HW138474   3.778   2.296   2.699  1.7869 -0.0179 -2.6001
 9004SOL    HW238475   3.630   2.284   2.709 -0.6826  0.8567 -0.6636
 9005SOL     OW38476   4.181   4.493   5.797 -0.1851 -1.1088  0.5294
 9005SOL    HW138477   4.270   4.505   5.764 -0.8812  0.5764 -0.7096
 9005SOL    HW238478   4.142   4.577   5.820 -2.4038 -1.4074 -2.1531
 9006SOL     OW38479   2.033   0.964   8.201 -0.1577 -0.0235  0.0190
 9006SOL    HW138480   2.000   1.032   8.260 -0.3644 -0.2338  0.1457
 9006SOL    HW238481   2.126   0.986   8.192 -0.1990 -0.3792 -1.2401
 9007SOL     OW38482   2.229   4.683   3.608  0.0196  0.2510  0.5286
 9007SOL    HW138483   2.324   4.685   3.622  0.1827  0.8871 -0.6531
 9007SOL    HW238484   2.217   4.600   3.561 -0.0157  0.8175 -0.4570
 9008SOL     OW38485   0.368   3.979  14.464 -0.7386  0.2913  0.1560
 9008SOL    HW138486   0.436   3.914  14.447 -1.5221 -0.5469  0.1777
 9008SOL    HW238487   0.366   4.035  14.387  1.8396 -1.1571 -0.9453
 9009SOL     OW38488   3.418   2.221   5.483 -0.2585 -0.6100 -0.2485
 9009SOL    HW138489   3.380   2.307   5.463  2.6555  1.0807  1.4801
 9009SOL    HW238490   3.464   2.239   5.565 -0.2624 -3.0068  0.2603
 9010SOL     OW38491   4.298   0.344  16.968  0.2286 -0.2617 -0.2346
 9010SOL    HW138492   4.204   0.365  16.966  0.0769 -0.8320  0.8135
 9010SOL    HW238493   4.329   0.426  16.930  1.9561 -0.4885  0.7128
 9011SOL     OW38494   2.260   0.206   3.913  0.0445 -0.3671  0.2816
 9011SOL    HW138495   2.270   0.298   3.939 -0.2999  0.0517 -1.1013
 9011SOL    HW238496   2.303   0.177   3.994  0.3470 -2.1657 -0.5331
 9012SOL     OW38497   1.738   2.715  11.447 -0.1295  0.2020 -0.4342
 9012SOL    HW138498   1.772   2.805  11.445  0.4172 -0.0012 -0.2739
 9012SOL    HW238499   1.643   2.719  11.451 -0.0718 -0.7286  1.7844
 9013SOL     OW38500   3.525   3.207   1.146 -0.2487 -0.0322 -0.3281
 9013SOL    HW138501   3.486   3.294   1.159  2.3408  1.1108 -0.1832
 9013SOL    HW238502   3.452   3.161   1.106 -0.1877  0.1764 -0.6882
 9014SOL     OW38503   3.651   4.690   2.945 -0.0309 -0.3023  0.0787
 9014SOL    HW138504   3.633   4.632   2.872  2.6255 -1.6433  0.4863
 9014SOL    HW238505   3.660   4.626   3.016  2.6701 -0.1818 -0.1622
 9015SOL     OW38506   2.978   2.121   0.452  0.1962 -0.2444  0.7519
 9015SOL    HW138507   2.914   2.066   0.497  2.8718 -3.8414  0.1070
 9015SOL    HW238508   3.054   2.068   0.475  1.9729  1.4691 -1.2170
 9016SOL     OW38509   2.043   3.218  14.830  0.5918 -0.2983 -0.2306
 9016SOL    HW138510   2.111   3.285  14.831 -0.7446  1.0396  0.4502
 9016SOL    HW238511   1.971   3.259  14.783 -0.1618  0.1980  1.3250
 9017SOL     OW38512   4.712   0.851   7.660 -0.2187  0.4700 -0.1843
 9017SOL    HW138513   4.665   0.777   7.699  0.7809  0.9322  1.9173
 9017SOL    HW238514   0.077   0.815   7.670  0.3279  2.2204  1.2269
 9018SOL     OW38515   1.171   2.724   5.810 -0.0983 -0.1710  0.3606
 9018SOL    HW138516   1.109   2.665   5.853 -2.2847  1.3637 -0.6821
 9018SOL    HW238517   1.208   2.761   5.890 -0.1001 -1.1993  0.8334
 9019SOL     OW38518   2.930   1.459   7.523 -0.1518  0.0500  0.2713
 9019SOL    HW138519   2.950   1.485   7.613 -1.6946 -0.4320  0.7633
 9019SOL    HW238520   3.016   1.433   7.490 -0.2393  2.6200 -2.0160
 9020SOL     OW38521   2.668   4.100   5.763 -0.3008 -0.4321  0.3943
 9020SOL    HW138522   2.637   4.023   5.812 -0.1830 -1.0125 -0.4450
 9020SOL    HW238523   2.601   4.099   5.695  0.1176 -1.1174 -0.0083
 9021SOL     OW38524   2.770   1.256   1.701 -0.3568 -0.5213 -0.4478
 9021SOL    HW138525   2.763   1.320   1.772 -0.2165 -0.1703 -0.7562
 9021SOL    HW238526   2.838   1.197   1.734 -1.2076 -1.0821  0.3028
 9022SOL     OW38527   0.648   3.889   8.400  0.1611 -0.3860 -0.1038
 9022SOL    HW138528   0.553   3.884   8.397  0.3503 -2.7484 -2.2374
 9022SOL    HW238529   0.681   3.801   8.418 -0.9896 -0.6519  0.6458
 9023SOL     OW38530   3.780   1.955   7.991 -0.0806 -0.0786 -0.1272
 9023SOL    HW138531   3.773   2.032   8.047  0.9671  0.0164 -0.1332
 9023SOL    HW238532   3.760   1.889   8.057 -0.3720  0.7349  0.5918
 9024SOL     OW38533   4.432   2.694   2.039  0.2084  0.6201  0.1876
 9024SOL    HW138534   4.420   2.645   1.957 -3.3891  0.9676  0.4724
 9024SOL    HW238535   4.357   2.754   2.038 -1.7951 -1.8983 -0.1443
 9025SOL     OW38536   2.167   0.541   7.069 -0.4665 -0.4865  0.4872
 9025SOL    HW138537   2.122   0.547   6.985 -0.0023  1.9480  0.4193
 9025SOL    HW238538   2.102   0.594   7.115  1.0415  3.4674 -1.9534
 9026SOL     OW38539   0.806   2.663   4.987 -0.0791  0.3985  0.4272
 9026SOL    HW138540   0.742   2.622   5.046  0.9366  1.6854  2.4465
 9026SOL    HW238541   0.868   2.591   4.973 -0.4256  0.2211 -0.1945
 9027SOL     OW38542   2.253   3.196   4.555  0.2015  0.6276 -0.3029
 9027SOL    HW138543   2.165   3.162   4.539  1.7012 -2.5443 -1.6889
 9027SOL    HW238544   2.272   3.256   4.483  0.0900  0.8466 -0.1511
 9028SOL     OW38545   0.716   1.973  11.760 -0.3084  0.0371  0.0902
 9028SOL    HW138546   0.801   2.006  11.790 -0.1383 -0.2202 -0.1084
 9028SOL    HW238547   0.751   1.908  11.699  0.0820  1.1410 -0.8554
 9029SOL     OW38548   4.563   0.464   3.674 -0.1621  0.5256 -0.2174
 9029SOL    HW138549   4.508   0.540   3.692 -1.1525 -1.0861  3.8133
 9029SOL    HW238550   4.649   0.505   3.678 -1.2815  2.8092  0.1445
 9030SOL     OW38551   3.012   1.499  14.330 -0.1262 -0.1270  0.5355
 9030SOL    HW138552   3.096   1.453  14.325  0.9960  1.9465  0.1980
 9030SOL    HW238553   2.957   1.422  14.316 -1.1641  1.0724 -2.0112
 9031SOL     OW38554   1.717   3.169   2.444  0.2312 -0.1695  0.5343
 9031SOL    HW138555   1.807   3.175   2.413  0.8517 -1.1751  2.2164
 9031SOL    HW238556   1.695   3.082   2.412  0.0281 -0.0900  0.4554
 9032SOL     OW38557   0.492   0.229   5.098 -0.0684 -0.1639  0.7386
 9032SOL    HW138558   0.518   0.302   5.041  2.0708 -1.5141 -0.0242
 9032SOL    HW238559   0.569   0.201   5.147 -0.1243 -0.6942  0.5154
 9033SOL     OW38560   1.716   0.073   5.997 -0.0789  0.4382  0.0804
 9033SOL    HW138561   1.711   4.708   5.958  0.7800  0.3604  0.1516
 9033SOL    HW238562   1.624   0.096   5.984 -0.0295 -0.8043 -2.5309
 9034SOL     OW38563   2.328   4.334   9.723 -0.7272  0.2955  0.3488
 9034SOL    HW138564   2.403   4.358   9.778 -0.3160  1.5384 -0.7609
 9034SOL    HW238565   2.317   4.251   9.771 -0.1829  0.0354  0.0305
 9035SOL     OW38566   3.437   4.709  11.505 -0.3525 -0.5766  0.2858
 9035SOL    HW138567   3.370   4.719  11.573 -0.3731 -0.9380  0.3151
 9035SOL    HW238568   3.507   0.033  11.551 -0.2068  0.9824 -1.5505
 9036SOL     OW38569   1.088   0.110   4.444  0.2263 -0.1795 -0.5267
 9036SOL    HW138570   1.036   0.177   4.489 -1.5855 -0.1979 -2.6012
 9036SOL    HW238571   1.140   0.164   4.385  2.5768 -0.3271  1.4065
 9037SOL     OW38572   4.255   3.600  10.077  0.7854 -0.0239  0.1668
 9037SOL    HW138573   4.246   3.599  10.172  2.3097  2.5952  0.3260
 9037SOL    HW238574   4.296   3.514  10.064 -1.6163 -0.9144 -1.6664
 9038SOL     OW38575   2.202   2.901   1.380  0.5407  0.0374  0.1262
 9038SOL    HW138576   2.121   2.865   1.343  1.0091  0.6968 -1.5385
 9038SOL    HW238577   2.222   2.825   1.435 -1.9924 -0.7336 -0.0209
 9039SOL     OW38578   4.602   1.994   3.495 -0.4812 -0.1205 -0.0260
 9039SOL    HW138579   4.642   2.003   3.409 -2.2030  2.7994 -0.5053
 9039SOL    HW238580   4.509   2.005   3.477 -0.2554 -0.9112 -1.6226
 9040SOL     OW38581   2.031   2.305   6.067 -0.5474 -0.3929 -0.6208
 9040SOL    HW138582   1.990   2.229   6.025  0.9499 -1.6196  0.1725
 9040SOL    HW238583   1.980   2.306   6.148 -0.1693 -2.1639 -0.3625
 9041SOL     OW38584   3.723   3.521  10.076  0.0675  0.0689  0.4211
 9041SOL    HW138585   3.698   3.452  10.137 -2.8822  1.1774  0.4608
 9041SOL    HW238586   3.727   3.595  10.137  0.3504 -0.2862  0.8350
 9042SOL     OW38587   2.905   4.175   8.682  0.7042  0.2661  0.1641
 9042SOL    HW138588   2.970   4.239   8.653  0.9086 -1.1731 -2.5717
 9042SOL    HW238589   2.902   4.201   8.774 -0.1653 -1.8735  0.7539
 9043SOL     OW38590   4.471   3.009  15.182 -0.7526 -0.0541  0.6563
 9043SOL    HW138591   4.493   3.088  15.230  1.1237  1.9171 -3.4662
 9043SOL    HW238592   4.535   2.999  15.112 -1.3918  0.7089 -0.0293
 9044SOL     OW38593   1.640   1.592  11.586  0.7868  0.0563 -0.0067
 9044SOL    HW138594   1.707   1.647  11.627 -1.2730 -0.2514  3.7526
 9044SOL    HW238595   1.589   1.661  11.544 -0.2218  0.1504  1.3832
 9045SOL     OW38596   2.297   3.915  14.037 -0.0498 -0.1622 -0.0665
 9045SOL    HW138597   2.329   3.826  14.021 -1.5477  0.1368 -4.8469
 9045SOL    HW238598   2.268   3.939  13.949  0.4344 -0.2376 -0.2486
 9046SOL     OW38599   2.807   3.759  11.842 -0.5784  0.5627  0.4055
 9046SOL    HW138600   2.833   3.803  11.923 -0.0578 -0.4780  0.8121
 9046SOL    HW238601   2.790   3.830  11.781 -1.5517 -2.3618 -2.7531
 9047SOL     OW38602   4.623   1.049  12.168  0.1086  0.2340  0.0656
 9047SOL    HW138603   4.690   0.981  12.171  0.1317  0.1675 -1.5617
 9047SOL    HW238604   4.590   1.067  12.256  0.2047 -0.3678  0.2235
 9048SOL     OW38605   0.740   4.497   8.407  0.2211 -0.4832 -0.4237
 9048SOL    HW138606   0.759   4.588   8.385  0.2242 -1.0747 -2.8581
 9048SOL    HW238607   0.824   4.465   8.373 -0.2078 -0.5780 -1.3827
 9049SOL     OW38608   3.613   2.073   0.333 -0.0317 -0.6905  0.0047
 9049SOL    HW138609   3.615   2.165   0.308  0.4861 -0.6278  0.2840
 9049SOL    HW238610   3.704   2.047   0.318  0.2412  0.7530 -0.8549
 9050SOL     OW38611   3.393   3.355   0.757 -0.5762  0.2346 -0.0869
 9050SOL    HW138612   3.377   3.336   0.665 -1.3289  1.5976 -0.2357
 9050SOL    HW238613   3.485   3.381   0.762 -0.4255 -0.2939 -0.1450
 9051SOL     OW38614   0.263   4.163   5.704 -0.0417  0.6562 -0.4007
 9051SOL    HW138615   0.243   4.201   5.790 -4.1204 -1.4007 -0.4297
 9051SOL    HW238616   0.285   4.246   5.662  1.0053 -0.3871 -1.9010
 9052SOL     OW38617   1.647   4.476   0.414 -1.0422 -0.3672 -0.0176
 9052SOL    HW138618   1.741   4.458   0.409 -0.9969  0.0215 -0.5453
 9052SOL    HW238619   1.639   4.568   0.392  2.0795 -0.3262 -1.0028
 9053SOL     OW38620   1.157   0.595   7.256 -0.0611  0.2578 -0.2259
 9053SOL    HW138621   1.231   0.639   7.297  0.2094 -0.2884 -0.1279
 9053SOL    HW238622   1.210   0.529   7.210 -0.1235 -0.3150  0.5224
 9054SOL     OW38623   3.875   0.877  10.925  0.3107  0.0569  0.2316
 9054SOL    HW138624   3.934   0.802  10.935  0.2883  0.0756  0.5035
 9054SOL    HW238625   3.829   0.872  10.841  0.1359 -2.0736  0.4485
 9055SOL     OW38626   3.200   4.050   5.582 -0.1279  0.2101 -0.2489
 9055SOL    HW138627   3.190   3.997   5.503 -0.1016 -0.7180  0.3630
 9055SOL    HW238628   3.115   4.094   5.587  0.0193  0.6149 -1.2690
 9056SOL     OW38629   0.503   0.444   6.435 -0.0093 -0.4394  0.5719
 9056SOL    HW138630   0.571   0.442   6.502  1.5785  0.6829 -0.9941
 9056SOL    HW238631   0.486   0.537   6.418  1.2962 -0.8306 -2.8577
 9057SOL     OW38632   1.995   4.454   4.501  0.1424  0.1875 -0.1452
 9057SOL    HW138633   2.083   4.438   4.466  0.6425 -1.7767  1.9754
 9057SOL    HW238634   1.937   4.410   4.439 -0.9164  0.0847  0.9273
 9058SOL     OW38635   2.962   2.394  13.070 -0.2099 -0.1989  0.1286
 9058SOL    HW138636   2.950   2.411  13.163  0.5194  1.0773 -0.0085
 9058SOL    HW238637   3.052   2.424  13.057 -0.2480  0.4883  1.5335
 9059SOL     OW38638   1.942   1.161   5.679 -0.3267  0.6037  0.3223
 9059SOL    HW138639   2.017   1.166   5.739  1.3157  3.7494 -1.9711
 9059SOL    HW238640   1.988   1.188   5.599 -3.2884  0.9182 -1.2586
 9060SOL     OW38641   1.879   4.226   4.357  0.8023 -0.4316  0.2516
 9060SOL    HW138642   1.913   4.140   4.331 -2.2019 -1.2415 -1.0709
 9060SOL    HW238643   1.787   4.211   4.336  0.0314  1.0066  2.7043
 9061SOL     OW38644   3.116   3.912   1.389 -0.0485  0.2191 -0.1442
 9061SOL    HW138645   3.186   3.850   1.408 -0.8179 -1.1062 -1.7057
 9061SOL    HW238646   3.046   3.874   1.443 -0.5255  0.9471 -0.2473
 9062SOL     OW38647   3.874   2.984  16.598  0.3055 -0.2706  0.2609
 9062SOL    HW138648   3.818   2.909  16.621 -0.5571  0.1801 -0.3727
 9062SOL    HW238649   3.837   3.014  16.515  2.4260  2.3011  0.2514
 9063SOL     OW38650   1.492   0.057   0.454 -0.3911 -0.2189 -0.3868
 9063SOL    HW138651   1.493   0.048   0.358 -0.6977  2.9665 -0.6904
 9063SOL    HW238652   1.560   0.123   0.468  0.6821 -1.4847  0.2761
 9064SOL     OW38653   4.048   2.246  16.615  0.9444  0.2775 -0.0197
 9064SOL    HW138654   4.045   2.205  16.702 -0.7872 -0.9924 -0.6817
 9064SOL    HW238655   3.961   2.230  16.580  0.8850 -1.3371  0.8555
 9065SOL     OW38656   3.275   0.669   2.695  0.0660 -0.8667 -0.0287
 9065SOL    HW138657   3.333   0.733   2.735 -0.6630  0.1657 -0.6213
 9065SOL    HW238658   3.194   0.720   2.689 -0.7028 -2.0382  0.3994
 9066SOL     OW38659   3.699   4.246   0.059  0.1389 -0.2418 -0.5493
 9066SOL    HW138660   3.633   4.297   0.104  0.4955 -0.0743 -0.2193
 9066SOL    HW238661   3.740   4.204   0.135 -0.4778 -1.8182 -1.0752
 9067SOL     OW38662   0.257   0.265   4.122 -0.5024  0.8242 -0.3502
 9067SOL    HW138663   0.200   0.342   4.128 -0.2768  0.9317  0.4221
 9067SOL    HW238664   0.227   0.212   4.196  1.3537 -3.7269 -2.8331
 9068SOL     OW38665   3.509   3.652   7.329  0.2953 -0.5823 -0.0315
 9068SOL    HW138666   3.575   3.666   7.262  1.6096  2.0392  1.8132
 9068SOL    HW238667   3.431   3.699   7.300  1.4109  0.9377 -0.5329
 9069SOL     OW38668   3.473   1.745   9.697 -0.2596  0.1797  0.1645
 9069SOL    HW138669   3.498   1.686   9.768 -1.6570 -1.9052 -1.0811
 9069SOL    HW238670   3.499   1.696   9.619 -2.3412  1.2087 -1.2028
 9070SOL     OW38671   1.421   4.019  12.526  0.0045  0.2966 -0.1223
 9070SOL    HW138672   1.434   3.932  12.563  3.5113 -0.5457 -3.3988
 9070SOL    HW238673   1.327   4.035  12.535  0.3310  1.3308  1.6543
 9071SOL     OW38674   1.306   0.843   3.694 -0.3805  0.6605 -0.1693
 9071SOL    HW138675   1.372   0.773   3.691  0.0292  1.0857 -1.0410
 9071SOL    HW238676   1.279   0.843   3.603  0.6314 -1.1214 -0.4764
 9072SOL     OW38677   1.509   4.547   7.281 -0.5021  0.0086 -0.2131
 9072SOL    HW138678   1.475   4.552   7.192  0.8644 -2.2438 -0.8330
 9072SOL    HW238679   1.577   4.481   7.278 -1.9552 -1.4783 -0.2613
 9073SOL     OW38680   2.792   2.480   9.784 -0.0289  0.3034  0.1596
 9073SOL    HW138681   2.812   2.573   9.800  1.2381 -0.4648  3.0773
 9073SOL    HW238682   2.729   2.468   9.855  0.9144  2.6064  1.4248
 9074SOL     OW38683   1.345   0.355   5.901  0.3148  0.4433 -0.7390
 9074SOL    HW138684   1.333   0.262   5.883  2.9399  0.1100 -0.7876
 9074SOL    HW238685   1.382   0.353   5.989 -1.1233 -1.3748 -0.1737
 9075SOL     OW38686   3.337   0.579   5.431 -0.4144 -0.3781  0.2277
 9075SOL    HW138687   3.400   0.574   5.359  0.1817  1.4080  0.6138
 9075SOL    HW238688   3.369   0.510   5.489 -2.2510 -2.6115 -1.4734
 9076SOL     OW38689   1.532   4.018  14.262 -0.2204  0.6683  0.6531
 9076SOL    HW138690   1.576   3.954  14.318 -0.2273  0.7113  0.7077
 9076SOL    HW238691   1.543   4.100  14.310 -1.3628  1.7624 -0.9688
 9077SOL     OW38692   1.055   0.822   7.072 -0.0444  0.2021  0.4695
 9077SOL    HW138693   1.150   0.829   7.078 -0.0497 -0.0033  0.8126
 9077SOL    HW238694   1.047   0.739   7.119 -0.2971 -0.2945 -0.4668
 9078SOL     OW38695   2.213   2.623   0.438 -0.2165  0.3917  0.3770
 9078SOL    HW138696   2.124   2.658   0.443 -1.4994 -2.5785 -1.4898
 9078SOL    HW238697   2.259   2.683   0.496  1.4685 -1.0923  0.5599
 9079SOL     OW38698   2.823   2.198   3.512  0.1679 -0.1413  0.0236
 9079SOL    HW138699   2.788   2.132   3.573 -4.7039  0.2957 -2.3341
 9079SOL    HW238700   2.891   2.237   3.566 -0.9955  0.4606  1.0584
 9080SOL     OW38701   0.171   0.406   6.226 -0.4120  0.2016 -0.0795
 9080SOL    HW138702   0.145   0.361   6.306 -0.2199  1.3532  0.6438
 9080SOL    HW238703   0.175   0.328   6.171  0.2214 -0.2895  0.6601
 9081SOL     OW38704   0.995   1.021  16.074 -0.2479 -0.4992 -0.7074
 9081SOL    HW138705   0.990   1.005  15.979  0.6942  0.2861 -0.8886
 9081SOL    HW238706   1.061   1.090  16.064 -2.4797  2.0495  2.1058
 9082SOL     OW38707   2.871   1.991  17.519  0.1225  0.3820 -0.2158
 9082SOL    HW138708   2.887   1.928  17.448  0.0186 -1.1647  1.1250
 9082SOL    HW238709   2.932   2.061  17.499  0.5382 -0.1097 -0.6692
 9083SOL     OW38710   2.904   3.393  14.498  0.2789  0.5638  0.0874
 9083SOL    HW138711   2.875   3.481  14.523 -0.3100  0.6873 -1.0063
 9083SOL    HW238712   2.831   3.353  14.450  1.0437  0.6264 -1.1186
 9084SOL     OW38713   2.815   0.562   9.341 -0.6137 -0.4848  0.2926
 9084SOL    HW138714   2.730   0.526   9.316 -0.0939 -0.8620 -0.9414
 9084SOL    HW238715   2.832   0.511   9.420 -2.3852 -0.3656  0.7414
 9085SOL     OW38716   4.314   2.998   1.048 -0.0303  0.2818 -0.3984
 9085SOL    HW138717   4.390   3.020   0.993  0.9599  0.2354  0.9436
 9085SOL    HW238718   4.338   2.914   1.087  2.1450  0.4844 -1.2645
 9086SOL     OW38719   4.266   4.302   3.655 -0.0740 -0.2811  0.1884
 9086SOL    HW138720   4.228   4.286   3.741 -1.9722 -1.3129 -0.8329
 9086SOL    HW238721   4.354   4.264   3.659  0.0364  0.0370  0.7153
 9087SOL     OW38722   4.615   0.075   2.497  0.4973  0.4722 -0.5679
 9087SOL    HW138723   4.563   0.055   2.419  0.3347 -0.0278 -0.3269
 9087SOL    HW238724   4.689   0.015   2.492 -0.2901 -0.3418 -2.2950
 9088SOL     OW38725   1.477   2.040   2.556 -0.0140 -0.4932  0.1605
 9088SOL    HW138726   1.388   2.034   2.521  0.1012  1.8828 -0.5692
 9088SOL    HW238727   1.524   1.991   2.488 -0.0502  1.1480 -1.0488
 9089SOL     OW38728   1.531   1.806  11.453 -0.1383  0.2396 -0.6092
 9089SOL    HW138729   1.448   1.810  11.405 -0.6187  0.8166  0.2595
 9089SOL    HW238730   1.571   1.893  11.443  0.1635  0.5981  3.7119
 9090SOL     OW38731   3.175   0.027   8.409  0.8593 -0.1208 -0.2674
 9090SOL    HW138732   3.123   0.008   8.331 -0.5469  2.5855  0.0152
 9090SOL    HW238733   3.254   0.055   8.363  1.2739  4.3011  3.1139
 9091SOL     OW38734   2.843   3.728   1.171  0.0340 -0.3358 -0.0325
 9091SOL    HW138735   2.866   3.820   1.173  1.5975 -0.7026 -1.0625
 9091SOL    HW238736   2.749   3.724   1.188 -0.0817  0.4730 -0.5119
 9092SOL     OW38737   4.692   0.175   6.432  0.0248 -0.5136 -0.1227
 9092SOL    HW138738   4.630   0.112   6.468 -0.8403 -0.9667 -2.4021
 9092SOL    HW238739   4.637   0.238   6.385  0.7564 -0.2712 -0.6539
 9093SOL     OW38740   1.787   3.557   7.792  0.0881 -0.5384 -0.1407
 9093SOL    HW138741   1.757   3.627   7.849  0.0816 -0.0724 -0.7130
 9093SOL    HW238742   1.882   3.567   7.781  0.1062  1.3862  1.9221
 9094SOL     OW38743   1.162   3.498   9.643 -0.4262  0.6488  0.6964
 9094SOL    HW138744   1.212   3.428   9.601 -1.6787 -0.9885  1.9312
 9094SOL    HW238745   1.082   3.447   9.660  0.8142 -1.8272 -0.8678
 9095SOL     OW38746   2.961   1.063   3.003 -0.4167  0.3168  0.8007
 9095SOL    HW138747   2.913   1.133   2.959 -1.2156 -1.0626 -0.5537
 9095SOL    HW238748   3.028   1.036   2.940 -1.5287 -1.6627  0.4597
 9096SOL     OW38749   3.058   2.773   2.641 -0.1699 -0.7106 -0.7909
 9096SOL    HW138750   3.042   2.751   2.732  0.5049  1.8981 -0.0155
 9096SOL    HW238751   3.001   2.849   2.632 -0.0161 -0.8734 -3.0801
 9097SOL     OW38752   0.084   1.938   8.486  0.7748 -0.4669 -0.2685
 9097SOL    HW138753   0.071   1.844   8.503 -0.6014 -0.3635 -0.7593
 9097SOL    HW238754   4.717   1.970   8.481  0.1907 -1.9804  0.3846
 9098SOL     OW38755   3.386   0.340   1.675 -0.0268  0.4306 -0.1266
 9098SOL    HW138756   3.380   0.408   1.607 -3.6453  3.0485  2.8426
 9098SOL    HW238757   3.330   0.268   1.645  0.7603  0.4790 -1.7285
 9099SOL     OW38758   0.284   1.941   8.314 -0.2784 -0.0448  0.1645
 9099SOL    HW138759   0.346   1.880   8.354 -0.2552  0.9597  1.6579
 9099SOL    HW238760   0.213   1.946   8.378  1.2747  2.1843  1.6913
 9100SOL     OW38761   2.478   0.416   5.932 -0.0836  0.2289  0.4730
 9100SOL    HW138762   2.529   0.472   5.874  0.4602  0.0213  0.7526
 9100SOL    HW238763   2.421   0.368   5.872  1.2022  0.5776 -1.0396
 9101SOL     OW38764   1.686   1.402   3.215 -0.1032  0.0536 -0.1612
 9101SOL    HW138765   1.659   1.479   3.166 -1.1656  0.1549  0.5801
 9101SOL    HW238766   1.741   1.432   3.288 -1.0592 -0.7290  0.8838
 9102SOL     OW38767   2.612   0.163  14.873 -0.3349  0.4099 -0.0156
 9102SOL    HW138768   2.631   0.082  14.920  0.9577  0.5982 -0.2255
 9102SOL    HW238769   2.638   0.138  14.784  0.4516 -0.9732  0.6080
 9103SOL     OW38770   3.789   1.600   9.732  0.3383  0.0272 -0.1249
 9103SOL    HW138771   3.723   1.576   9.796 -2.1800  1.5844 -2.1642
 9103SOL    HW238772   3.736   1.640   9.663  0.3818 -0.8326 -0.6603
 9104SOL     OW38773   1.415   3.286  16.561 -0.6154  0.1783  0.1475
 9104SOL    HW138774   1.510   3.279  16.575 -0.5165  3.2112  0.8457
 9104SOL    HW238775   1.424   3.290  16.466  0.9371  1.1802  0.3369
 9105SOL     OW38776   0.158   3.736   5.674  0.5903 -0.3174  0.3980
 9105SOL    HW138777   0.108   3.808   5.712 -0.1200 -0.1586 -0.8495
 9105SOL    HW238778   0.202   3.703   5.753  1.3957 -1.8422 -0.6713
 9106SOL     OW38779   3.041   1.140   4.313 -0.4550 -0.1461 -0.4074
 9106SOL    HW138780   3.098   1.078   4.359 -1.6762 -1.5077 -0.7202
 9106SOL    HW238781   2.954   1.106   4.335  0.9838 -2.2721  2.0431
 9107SOL     OW38782   2.102   4.321   8.769  0.0271  0.3764  0.1900
 9107SOL    HW138783   2.019   4.367   8.759 -0.5409 -0.7055 -0.0769
 9107SOL    HW238784   2.117   4.329   8.863  1.3090 -0.7304  0.0898
 9108SOL     OW38785   3.140   1.708  12.972 -0.6341 -0.0997 -0.4711
 9108SOL    HW138786   3.069   1.723  13.035  0.0540  0.8663  0.0681
 9108SOL    HW238787   3.096   1.721  12.888 -1.0446 -1.7611 -0.5262
 9109SOL     OW38788   4.422   0.707  17.014 -0.0645  0.0521 -0.6647
 9109SOL    HW138789   4.466   0.655  17.081  1.2169  0.3154 -1.3024
 9109SOL    HW238790   4.361   0.761  17.065 -1.3334 -0.2973 -1.8154
 9110SOL     OW38791   1.917   0.626   4.899  0.1177 -0.6420 -0.2065
 9110SOL    HW138792   2.009   0.650   4.883 -0.0828  0.0273 -0.3474
 9110SOL    HW238793   1.878   0.656   4.816 -0.4865 -1.3715 -0.1824
 9111SOL     OW38794   2.806   2.767   3.659  0.1362  0.2298 -0.3296
 9111SOL    HW138795   2.806   2.807   3.572  0.1263  0.6167 -0.1520
 9111SOL    HW238796   2.841   2.842   3.707 -0.3261 -0.8976  1.8055
 9112SOL     OW38797   2.525   1.265  17.045 -0.5503  0.0217 -0.6810
 9112SOL    HW138798   2.567   1.265  16.959 -0.1542  0.9536 -0.4810
 9112SOL    HW238799   2.602   1.253  17.100  0.5419 -0.3946 -2.3036
 9113SOL     OW38800   1.379   1.368  14.094 -0.3604 -0.0442 -0.0320
 9113SOL    HW138801   1.410   1.358  14.004 -1.0345 -0.3996 -0.2209
 9113SOL    HW238802   1.433   1.309  14.147  0.6850 -0.7335 -1.8755
 9114SOL     OW38803   1.871   2.314   7.692  0.3914 -0.1703 -0.3520
 9114SOL    HW138804   1.945   2.374   7.682 -0.1767  0.2452 -2.0749
 9114SOL    HW238805   1.927   2.236   7.690 -0.2059 -0.6084 -0.0887
 9115SOL     OW38806   1.724   2.827   2.125  0.0983  0.5699  0.2331
 9115SOL    HW138807   1.646   2.881   2.138  0.9416  1.8036  0.1423
 9115SOL    HW238808   1.780   2.880   2.069  2.3368 -0.0197  1.9330
 9116SOL     OW38809   3.321   0.933   2.067 -0.2612 -0.1716 -0.0214
 9116SOL    HW138810   3.324   0.950   2.161  0.5545  0.8536 -0.2361
 9116SOL    HW238811   3.413   0.926   2.039 -0.5009 -2.8378 -0.1617
 9117SOL     OW38812   3.075   3.414  14.765  0.0178  0.1593  0.8115
 9117SOL    HW138813   3.024   3.459  14.833  0.8466  3.1703 -0.5887
 9117SOL    HW238814   3.004   3.371  14.717 -0.0255  1.6327 -0.4262
 9118SOL     OW38815   0.287   0.543   2.330 -0.1656  0.6349  0.2170
 9118SOL    HW138816   0.305   0.502   2.245 -1.2494  1.4519 -0.4034
 9118SOL    HW238817   0.209   0.594   2.309 -2.0433 -1.7999  1.3204
 9119SOL     OW38818   0.007   1.465   2.524 -0.0917  0.1147  0.4093
 9119SOL    HW138819   0.037   1.432   2.608  2.1096 -0.0066 -0.4005
 9119SOL    HW238820   0.092   1.494   2.489 -0.8594  0.3037 -1.2865
 9120SOL     OW38821   2.036   4.662   7.111  0.2183 -0.0476  0.3796
 9120SOL    HW138822   2.130   4.659   7.098  0.5037  0.2995  2.3633
 9120SOL    HW238823   2.007   4.595   7.050  0.0131 -0.4290  0.8988
 9121SOL     OW38824   2.352   1.552  14.804  0.5319 -0.0188  0.3357
 9121SOL    HW138825   2.403   1.624  14.840  3.5038 -1.2648 -1.3938
 9121SOL    HW238826   2.363   1.477  14.863 -1.6695 -0.7845 -0.1870
 9122SOL     OW38827   3.329   4.647   3.605  0.3355 -0.5240  0.1548
 9122SOL    HW138828   3.260   4.673   3.666  2.3993 -0.0009  2.2263
 9122SOL    HW238829   3.338   4.555   3.631 -3.0251 -0.4575  1.6249
 9123SOL     OW38830   2.059   4.369   1.452 -0.2246  0.7746  0.8302
 9123SOL    HW138831   2.010   4.287   1.455  0.2826  0.4023 -1.5315
 9123SOL    HW238832   2.141   4.336   1.417 -0.7670  1.6314 -1.2564
 9124SOL     OW38833   2.334   3.944  17.115 -0.6609 -0.0934  0.7377
 9124SOL    HW138834   2.406   4.004  17.132 -0.6212  0.6077 -1.9734
 9124SOL    HW238835   2.381   3.861  17.112 -2.0154 -0.8240 -0.5162
 9125SOL     OW38836   2.243   0.964   7.058 -0.0838 -0.3992 -0.5088
 9125SOL    HW138837   2.267   0.935   6.970 -0.0152  0.6325 -0.8310
 9125SOL    HW238838   2.184   1.035   7.034  0.3289  0.0533 -0.1720
 9126SOL     OW38839   2.331   0.444   5.432 -0.1639  0.0174 -0.0056
 9126SOL    HW138840   2.423   0.418   5.433 -1.3853 -4.1736 -0.0072
 9126SOL    HW238841   2.315   0.461   5.339  0.7052 -1.4356 -0.4082
 9127SOL     OW38842   1.071   2.770  14.918 -0.7528  0.4427 -0.2677
 9127SOL    HW138843   1.049   2.847  14.971  1.4254  0.4903  0.6005
 9127SOL    HW238844   1.003   2.710  14.947 -0.3345  0.3086  0.4361
 9128SOL     OW38845   2.617   2.678   0.661 -0.0433 -0.2117 -0.2653
 9128SOL    HW138846   2.523   2.695   0.667  0.3997  1.8576  0.6663
 9128SOL    HW238847   2.646   2.769   0.653  1.6552 -0.7703 -0.5206
 9129SOL     OW38848   0.906   1.032  13.322  0.2680 -0.4375 -0.3764
 9129SOL    HW138849   0.918   1.084  13.402  0.6900  0.6710 -1.1570
 9129SOL    HW238850   0.984   1.050  13.270 -1.9660  0.7559 -3.3037
 9130SOL     OW38851   0.758   2.782   6.699 -0.5411 -0.1433  0.1292
 9130SOL    HW138852   0.837   2.802   6.649  0.8516 -1.8120  1.6288
 9130SOL    HW238853   0.743   2.691   6.675 -1.2815  0.0186 -0.0264
 9131SOL     OW38854   4.564   0.438   8.239  0.1029  0.2762  0.2671
 9131SOL    HW138855   4.475   0.446   8.205 -0.7000  1.2413  2.5741
 9131SOL    HW238856   4.592   0.347   8.226 -0.5326 -0.0245  0.9539
 9132SOL     OW38857   4.059   2.443   4.208 -0.3544 -0.0874  0.3269
 9132SOL    HW138858   4.132   2.451   4.270 -0.2928  0.1463  0.2241
 9132SOL    HW238859   3.992   2.472   4.270  1.3900  3.8142  0.3973
 9133SOL     OW38860   2.319   2.684   4.415 -0.3791  0.2829  0.1514
 9133SOL    HW138861   2.247   2.743   4.394  0.5948  0.5515 -2.4349
 9133SOL    HW238862   2.309   2.675   4.510  0.0222  1.5102  0.3127
 9134SOL     OW38863   0.526   2.322   7.697  0.2034 -0.0299  0.3416
 9134SOL    HW138864   0.607   2.273   7.703 -0.2843 -0.6296  2.0803
 9134SOL    HW238865   0.539   2.407   7.655 -1.4096 -0.3956 -0.9016
 9135SOL     OW38866   4.490   1.915  17.185  0.3231 -0.0103 -0.4239
 9135SOL    HW138867   4.538   1.856  17.243  0.2965  1.5946  1.2380
 9135SOL    HW238868   4.488   1.872  17.100 -0.4922 -1.1831  0.1839
 9136SOL     OW38869   1.323   1.889  12.365  0.2931 -0.3650  0.4629
 9136SOL    HW138870   1.395   1.904  12.304 -0.3540 -0.6089 -0.3628
 9136SOL    HW238871   1.327   1.797  12.391 -0.0159 -0.3946  0.4145
 9137SOL     OW38872   2.794   3.110  15.627 -0.0109 -0.1133  0.0202
 9137SOL    HW138873   2.872   3.057  15.638  0.1276  0.2156  0.6169
 9137SOL    HW238874   2.843   3.187  15.601  1.6997 -1.1784  0.0966
 9138SOL     OW38875   4.363   2.442  14.664 -0.7330  0.9555  0.2370
 9138SOL    HW138876   4.395   2.465  14.751 -1.9491 -0.5811  1.1056
 9138SOL    HW238877   4.278   2.484  14.652 -1.4872 -0.3059  1.2345
 9139SOL     OW38878   1.117   1.767   8.653  0.3239 -0.1704  0.3009
 9139SOL    HW138879   1.051   1.727   8.709  0.9339  0.7697  1.6870
 9139SOL    HW238880   1.150   1.841   8.705 -0.5980 -0.4997  1.3591
 9140SOL     OW38881   1.380   0.864   3.402  0.2744  0.1647  0.4844
 9140SOL    HW138882   1.438   0.933   3.434  1.1220 -0.7087  0.8552
 9140SOL    HW238883   1.330   0.894   3.326 -2.8077 -1.3144  1.9331
 9141SOL     OW38884   4.010   0.440   4.935  0.2541  0.2162  0.0961
 9141SOL    HW138885   4.103   0.446   4.914  0.3235 -0.7782  0.1089
 9141SOL    HW238886   4.005   0.353   4.975  0.5120  0.6509  1.0467
 9142SOL     OW38887   2.090   1.681  13.386 -0.6348 -0.3586 -1.1379
 9142SOL    HW138888   2.078   1.594  13.347 -0.1911 -0.7378 -0.4169
 9142SOL    HW238889   2.100   1.729  13.304 -0.9087  0.6657 -0.5702
 9143SOL     OW38890   2.389   1.294   7.221 -0.5824  0.1109  0.6060
 9143SOL    HW138891   2.427   1.361   7.276  1.2707  1.3541 -2.2023
 9143SOL    HW238892   2.464   1.268   7.168 -1.3347 -1.4117  0.2608
 9144SOL     OW38893   3.444   1.925   3.112 -0.1623  0.0274 -0.6916
 9144SOL    HW138894   3.382   1.992   3.141 -0.0820 -0.8510  1.4378
 9144SOL    HW238895   3.492   1.912   3.194  0.4409 -1.5753 -1.2974
 9145SOL     OW38896   2.348   1.999   1.440 -0.1637 -0.2496  0.2095
 9145SOL    HW138897   2.361   2.087   1.476  4.2599 -0.8217  0.0441
 9145SOL    HW238898   2.427   1.993   1.386 -0.4328 -0.7023 -0.1300
 9146SOL     OW38899   3.012   1.232   3.227  0.4000 -0.3048 -0.1581
 9146SOL    HW138900   2.947   1.294   3.194 -0.0414  0.4640  2.1549
 9146SOL    HW238901   2.994   1.156   3.172 -2.6850 -1.1383  1.9561
 9147SOL     OW38902   3.313   4.627  13.255  0.4262  0.1398 -0.2711
 9147SOL    HW138903   3.290   4.557  13.317 -0.6905  1.3639  0.7093
 9147SOL    HW238904   3.235   4.630  13.198 -0.2865 -0.5289  0.6690
 9148SOL     OW38905   4.206   3.322  14.731  0.0158  0.1924 -0.2395
 9148SOL    HW138906   4.172   3.247  14.682  1.4501  0.2795 -1.3917
 9148SOL    HW238907   4.208   3.388  14.662 -0.0326  0.4115 -0.0312
 9149SOL     OW38908   0.451   0.890  13.159  0.1038 -0.6795 -0.5674
 9149SOL    HW138909   0.395   0.968  13.153  0.0390 -0.6969 -0.1596
 9149SOL    HW238910   0.424   0.869  13.248 -1.0887 -0.5889 -0.9128
 9150SOL     OW38911   4.704   4.721  16.887 -0.2138  0.4051 -0.0456
 9150SOL    HW138912   4.622   4.719  16.936 -0.0956  0.7789  0.1726
 9150SOL    HW238913   0.014   4.632  16.891 -1.1701  0.0736  0.4586
 9151SOL     OW38914   0.505   2.781   9.205 -0.2736  0.1574 -0.1285
 9151SOL    HW138915   0.447   2.844   9.249 -1.1168 -0.6475 -0.0959
 9151SOL    HW238916   0.587   2.781   9.255 -0.1907 -0.1645 -0.2659
 9152SOL     OW38917   2.409   1.252   3.070  0.3299  0.7009 -0.1291
 9152SOL    HW138918   2.471   1.301   3.016  1.4467  0.5755  1.0253
 9152SOL    HW238919   2.359   1.200   3.007  1.8343  0.2591 -0.9648
 9153SOL     OW38920   4.492   0.511   2.356  0.2270 -0.2206  0.1168
 9153SOL    HW138921   4.497   0.526   2.261  2.0737  1.2084  0.4419
 9153SOL    HW238922   4.403   0.540   2.371 -0.0294 -0.9267 -0.0523
 9154SOL     OW38923   1.147   4.591   5.060 -0.3494  0.1851  0.1452
 9154SOL    HW138924   1.193   4.672   5.037 -0.4332 -0.2313 -1.5062
 9154SOL    HW238925   1.055   4.611   5.040 -0.1792  0.4643 -0.3650
 9155SOL     OW38926   2.971   2.268   2.589 -0.1637 -0.5037 -0.1125
 9155SOL    HW138927   2.972   2.172   2.589  0.9942 -0.4971  0.7185
 9155SOL    HW238928   2.985   2.289   2.682 -2.0417 -0.6304  0.2080
 9156SOL     OW38929   3.574   4.374   5.485  0.5120 -0.2784  0.1045
 9156SOL    HW138930   3.545   4.452   5.438  1.4030  2.7622  4.6453
 9156SOL    HW238931   3.577   4.322   5.404  1.9955  0.4204 -0.2912
 9157SOL     OW38932   3.673   3.877   4.481  0.2714  0.3623 -0.3066
 9157SOL    HW138933   3.671   3.969   4.457  0.3584  1.3183  3.4837
 9157SOL    HW238934   3.712   3.844   4.400  2.7641  2.5756  0.0350
 9158SOL     OW38935   2.588   0.336   2.556 -0.1252  0.1902 -0.1555
 9158SOL    HW138936   2.546   0.364   2.474  0.5291  1.4303 -0.0737
 9158SOL    HW238937   2.574   0.242   2.562  0.7578  0.1197  0.6799
 9159SOL     OW38938   3.626   4.240   9.032  0.0128  0.1629 -0.3538
 9159SOL    HW138939   3.609   4.152   9.001 -0.9492  0.3385 -0.3194
 9159SOL    HW238940   3.722   4.242   9.028  0.0315  0.1485  0.0947
 9160SOL     OW38941   4.696   2.472   2.197 -0.0029  0.0956 -0.4042
 9160SOL    HW138942   0.052   2.426   2.225 -1.1502  0.0628  2.8405
 9160SOL    HW238943   0.003   2.529   2.126 -1.3247 -0.9550 -1.8071
 9161SOL     OW38944   3.150   0.727   6.586  0.4317 -0.2905  0.2682
 9161SOL    HW138945   3.092   0.799   6.610  1.4212  0.2007  1.1823
 9161SOL    HW238946   3.182   0.758   6.501 -1.4028  0.7773 -0.0434
 9162SOL     OW38947   1.271   2.940  13.456 -0.0742 -0.3709  0.6096
 9162SOL    HW138948   1.360   2.964  13.431 -1.2054  1.4176 -1.7748
 9162SOL    HW238949   1.236   3.029  13.464  1.0846  0.3000 -1.5870
 9163SOL     OW38950   3.024   2.553   3.626  0.8609  0.0785 -0.2024
 9163SOL    HW138951   3.109   2.527   3.592  1.6053  0.2019  1.5648
 9163SOL    HW238952   3.044   2.629   3.680  3.0407 -2.0623  2.0370
 9164SOL     OW38953   0.948   2.400   4.982 -0.5902  0.0654  1.0583
 9164SOL    HW138954   0.959   2.391   5.076 -3.9930  2.7810  1.7178
 9164SOL    HW238955   1.008   2.330   4.955 -1.2968 -0.3995  0.6827
 9165SOL     OW38956   0.934   4.236   4.541  0.2213 -0.2433  0.3353
 9165SOL    HW138957   0.911   4.262   4.452  1.2982  0.8517  0.3681
 9165SOL    HW238958   0.928   4.141   4.530  3.1173 -0.2851 -1.0387
 9166SOL     OW38959   0.225   2.978  12.482 -0.1573 -0.2089  0.1022
 9166SOL    HW138960   0.250   3.071  12.486 -0.0198 -0.2063 -0.8074
 9166SOL    HW238961   0.168   2.978  12.559  0.7664 -3.0415  0.7737
 9167SOL     OW38962   0.913   3.543   5.928 -0.2841 -0.4632 -0.1025
 9167SOL    HW138963   0.947   3.623   5.970  0.3918 -0.2763 -0.9990
 9167SOL    HW238964   0.993   3.491   5.934 -2.4687 -3.4517  2.6850
 9168SOL     OW38965   4.589   3.860   1.971 -0.1941  0.2488 -0.4888
 9168SOL    HW138966   4.636   3.778   1.984  2.6774  2.0227  0.3776
 9168SOL    HW238967   4.666   3.906   1.938 -1.4595  1.0670 -2.3125
 9169SOL     OW38968   4.634   0.125   5.766  0.0620 -0.4893  0.2429
 9169SOL    HW138969   4.717   0.086   5.739  0.5807 -0.8812  2.3720
 9169SOL    HW238970   4.618   0.183   5.692  1.4161 -0.5744 -0.1151
 9170SOL     OW38971   0.279   1.828  10.534  0.2878  0.0880 -0.2896
 9170SOL    HW138972   0.309   1.778  10.459 -0.1718  0.4842 -0.7353
 9170SOL    HW238973   0.358   1.862  10.576  1.0257  0.2637 -1.8361
 9171SOL     OW38974   4.271   0.885  16.840 -0.3148  0.1040 -0.0073
 9171SOL    HW138975   4.345   0.825  16.832  0.2899  0.9377 -0.6743
 9171SOL    HW238976   4.254   0.863  16.932  0.4992  0.2294  0.1738
 9172SOL     OW38977   3.260   1.253  13.196 -0.0974  0.1087 -0.6973
 9172SOL    HW138978   3.321   1.181  13.178 -0.0698  0.2854 -1.3295
 9172SOL    HW238979   3.255   1.289  13.107 -3.7652 -1.7075 -1.2151
 9173SOL     OW38980   0.246   2.078  10.151 -0.0596 -0.0704 -0.3303
 9173SOL    HW138981   0.176   2.018  10.125  0.8603 -0.8217 -1.0454
 9173SOL    HW238982   0.273   2.119  10.069  1.3331  0.1227  0.2275
 9174SOL     OW38983   2.405   1.439   7.995  0.2684  0.4427 -0.5327
 9174SOL    HW138984   2.388   1.443   8.089 -3.6514  1.4850 -1.3071
 9174SOL    HW238985   2.324   1.395   7.969  1.3639 -1.4557 -0.7166
 9175SOL     OW38986   3.308   3.878   6.577 -0.1515 -0.0788  0.4902
 9175SOL    HW138987   3.269   3.802   6.535 -0.2710 -0.9211  2.1139
 9175SOL    HW238988   3.284   3.939   6.508  0.1872 -0.1653  0.2905
 9176SOL     OW38989   0.747   1.438   0.704  0.4295 -0.8862 -0.1797
 9176SOL    HW138990   0.822   1.471   0.655  0.5303 -1.8264 -0.6606
 9176SOL    HW238991   0.692   1.406   0.632  0.6562  1.2986 -1.3354
 9177SOL     OW38992   3.269   3.700  14.993 -0.4101  0.2253  0.3289
 9177SOL    HW138993   3.356   3.738  14.978 -0.2002 -0.2044  0.4440
 9177SOL    HW238994   3.264   3.639  14.919 -1.6104  0.2660  0.3898
 9178SOL     OW38995   3.850   3.511  13.496 -0.1473 -0.1234  0.1221
 9178SOL    HW138996   3.821   3.589  13.541 -0.5294 -0.7885  1.0251
 9178SOL    HW238997   3.885   3.545  13.413 -0.6189 -0.7307 -0.3291
 9179SOL     OW38998   4.413   2.875   3.520 -0.3424  0.1301 -0.1732
 9179SOL    HW138999   4.456   2.960   3.522 -1.1581  0.5284  0.3901
 9179SOL    HW239000   4.325   2.908   3.503 -0.4275  0.3771  0.7442
 9180SOL     OW39001   1.465   0.021   4.204 -1.0770  0.0442  0.3381
 9180SOL    HW139002   1.519   0.040   4.128  0.5645  1.8408  1.9538
 9180SOL    HW239003   1.375   0.033   4.174 -0.9712 -1.2647 -0.4943
 9181SOL     OW39004   2.506   4.586   3.613 -0.3781  0.0747  0.3455
 9181SOL    HW139005   2.538   4.549   3.695  1.5785 -2.2898 -1.4813
 9181SOL    HW239006   2.519   4.514   3.551 -0.0494  1.5315 -1.3042
 9182SOL     OW39007   1.344   0.643   7.765 -0.4857  0.1603 -0.9603
 9182SOL    HW139008   1.343   0.713   7.700 -2.6024 -0.5331 -1.6803
 9182SOL    HW239009   1.378   0.693   7.839 -0.3175 -0.0704 -0.8819
 9183SOL     OW39010   2.094   2.112   7.598 -0.0028  0.9838  0.1027
 9183SOL    HW139011   2.189   2.119   7.591  0.1980 -3.1427 -1.2739
 9183SOL    HW239012   2.088   2.017   7.596  1.3236  0.8909  0.8208
 9184SOL     OW39013   3.107   2.159   3.739  0.1097  0.0628  0.3348
 9184SOL    HW139014   3.123   2.099   3.666  3.2448  0.8732  0.3811
 9184SOL    HW239015   3.187   2.208   3.755 -0.0167  0.1790  0.6122
 9185SOL     OW39016   2.771   2.427  17.096  0.5366 -0.0072 -0.5708
 9185SOL    HW139017   2.716   2.424  17.175  2.4874 -2.0242  0.7284
 9185SOL    HW239018   2.847   2.374  17.118  0.7405 -0.0150 -1.3233
 9186SOL     OW39019   4.164   1.763   2.512 -0.0263  0.5252  0.1173
 9186SOL    HW139020   4.079   1.737   2.478  1.7307 -3.6362 -1.1846
 9186SOL    HW239021   4.224   1.743   2.440 -0.6248 -2.0212  0.3212
 9187SOL     OW39022   4.695   2.013   7.461  0.1379 -0.1380  0.1754
 9187SOL    HW139023   4.626   2.013   7.395  0.7562  2.3782 -0.4557
 9187SOL    HW239024   0.042   2.057   7.412 -0.4544  0.0245 -0.5149
 9188SOL     OW39025   4.339   2.472   3.598  0.6074  0.1555 -0.3450
 9188SOL    HW139026   4.257   2.446   3.641  0.8159 -0.0976 -0.1063
 9188SOL    HW239027   4.398   2.472   3.673  2.5303  0.0086 -1.8689
 9189SOL     OW39028   0.898   1.548   7.307  0.1226 -0.4738  0.4301
 9189SOL    HW139029   0.813   1.542   7.263  0.0910 -1.3222  0.6092
 9189SOL    HW239030   0.928   1.459   7.289  1.2736  0.4647 -2.4007
 9190SOL     OW39031   3.734   1.341   8.038 -0.0659  0.0390  0.2293
 9190SOL    HW139032   3.740   1.404   7.966 -0.5403  1.9111  1.8484
 9190SOL    HW239033   3.823   1.306   8.031 -0.3409 -0.9972  1.9354
 9191SOL     OW39034   1.040   4.097  13.608 -0.0616  0.2105  0.2095
 9191SOL    HW139035   0.991   4.178  13.593  1.4775  0.8176 -1.7126
 9191SOL    HW239036   1.008   4.076  13.695 -1.0757  1.2359  0.0762
 9192SOL     OW39037   2.343   2.819   8.284 -0.1759  0.2162  0.5740
 9192SOL    HW139038   2.256   2.852   8.308 -0.7718 -0.8304 -0.1953
 9192SOL    HW239039   2.383   2.809   8.371 -0.2035  0.8606  0.6584
 9193SOL     OW39040   2.541   1.846  15.178  0.6135  0.2027  0.0016
 9193SOL    HW139041   2.504   1.808  15.099 -1.2612  0.0452  0.9497
 9193SOL    HW239042   2.472   1.903  15.214 -1.6761 -0.9335 -2.6384
 9194SOL     OW39043   0.989   3.589  16.136 -0.0391  0.0925  0.2280
 9194SOL    HW139044   0.981   3.574  16.042  0.5495  0.1964  0.1596
 9194SOL    HW239045   1.084   3.604  16.135  0.2317 -1.5729  0.7055
 9195SOL     OW39046   1.417   1.836   7.164  0.4909  0.2567  0.3859
 9195SOL    HW139047   1.347   1.794   7.113  1.6426 -0.9284 -0.2020
 9195SOL    HW239048   1.420   1.923   7.124 -0.6453 -0.6975 -1.8246
 9196SOL     OW39049   2.384   1.871  15.890  0.5655 -0.1303  0.1617
 9196SOL    HW139050   2.458   1.901  15.837 -0.7279  1.8520 -0.5088
 9196SOL    HW239051   2.306   1.914  15.854  0.8225 -1.6611 -2.2637
 9197SOL     OW39052   4.495   1.208   8.116 -0.7366  0.2701 -0.2116
 9197SOL    HW139053   4.508   1.115   8.094 -3.5554  0.0851 -1.1663
 9197SOL    HW239054   4.496   1.212   8.211  0.0046  0.2491 -0.2159
 9198SOL     OW39055   0.606   2.354   3.582 -0.0110 -0.5143 -0.2835
 9198SOL    HW139056   0.651   2.288   3.529  0.1697 -1.2545  0.7860
 9198SOL    HW239057   0.683   2.411   3.592  0.2042 -0.6680 -1.0774
 9199SOL     OW39058   1.916   1.810   1.165 -0.0655 -0.2884  0.2371
 9199SOL    HW139059   1.975   1.796   1.090 -1.3716 -2.9054 -0.2929
 9199SOL    HW239060   1.852   1.863   1.118  0.8414 -0.9152 -1.7119
 9200SOL     OW39061   1.534   4.158   8.079 -0.3753  0.6761 -0.2967
 9200SOL    HW139062   1.492   4.122   8.157 -0.1301  3.2696  1.0271
 9200SOL    HW239063   1.485   4.115   8.009  3.1594 -1.0441 -1.7624
 9201SOL     OW39064   1.828   0.751  10.739  0.0444 -0.4357  0.0087
 9201SOL    HW139065   1.835   0.717  10.650  3.9456  1.0463 -0.2675
 9201SOL    HW239066   1.735   0.737  10.757 -0.1992  0.3851 -0.6079
 9202SOL     OW39067   3.024   4.190   5.259 -0.1149  0.6350 -0.0672
 9202SOL    HW139068   3.100   4.197   5.202 -0.4262 -1.1404 -0.7165
 9202SOL    HW239069   2.968   4.124   5.218 -1.6462  1.0731  1.3134
 9203SOL     OW39070   1.976   4.704  13.080  0.1796  0.5477  0.3973
 9203SOL    HW139071   1.902   4.644  13.078 -0.1836  1.0390 -0.8799
 9203SOL    HW239072   1.984   4.705  13.176 -0.0865  1.1440  0.4127
 9204SOL     OW39073   3.511   2.110   5.244 -0.4000  0.1615  0.4342
 9204SOL    HW139074   3.508   2.130   5.338 -0.8234  0.5332  0.3410
 9204SOL    HW239075   3.535   2.191   5.200 -2.2440 -1.3250 -3.3146
 9205SOL     OW39076   0.351   4.282   8.246  1.1006 -0.0203  0.1793
 9205SOL    HW139077   0.412   4.356   8.244 -0.4194  1.2399  0.9306
 9205SOL    HW239078   0.409   4.213   8.214  1.3980 -0.2984  1.3008
 9206SOL     OW39079   3.296   2.405  12.405 -0.6793 -0.1412 -0.4185
 9206SOL    HW139080   3.344   2.440  12.330  1.4552  0.8277  1.4015
 9206SOL    HW239081   3.278   2.321  12.363  1.3064 -1.3197  1.1382
 9207SOL     OW39082   1.854   2.558   6.380 -0.4795  0.2663 -0.3025
 9207SOL    HW139083   1.778   2.499   6.382 -1.7243  1.8479 -0.6517
 9207SOL    HW239084   1.849   2.599   6.294 -0.6522  3.4114  1.1760
 9208SOL     OW39085   0.904   1.588   3.412  0.1076 -0.4945  0.4468
 9208SOL    HW139086   0.950   1.643   3.349  1.2256 -1.5426  0.3396
 9208SOL    HW239087   0.973   1.540   3.458 -0.0587  0.2975  1.5207
 9209SOL     OW39088   3.601   4.628  11.917  0.0777  0.4328  0.1077
 9209SOL    HW139089   3.627   4.607  11.827 -1.2166  0.1610 -0.1987
 9209SOL    HW239090   3.625   4.546  11.960 -2.1816  0.1425  0.8138
 9210SOL     OW39091   2.667   3.630   5.472  0.2606  0.4884 -0.3348
 9210SOL    HW139092   2.689   3.599   5.560  0.4730  1.1153 -0.1678
 9210SOL    HW239093   2.592   3.571   5.461  1.7410 -1.6127  0.9339
 9211SOL     OW39094   1.416   1.723   1.380 -0.1511  0.1539  0.4629
 9211SOL    HW139095   1.332   1.679   1.388 -1.3895  2.2662 -1.0328
 9211SOL    HW239096   1.388   1.780   1.309  1.4006 -1.0966 -1.1639
 9212SOL     OW39097   0.385   0.079   0.220  0.6238  0.0426 -0.2110
 9212SOL    HW139098   0.371   4.719   0.265 -1.5052  0.1783 -0.6400
 9212SOL    HW239099   0.389   0.131   0.301 -0.8929 -1.2884  0.7190
 9213SOL     OW39100   2.990   1.349   6.274  0.6229  0.4426 -0.3772
 9213SOL    HW139101   2.963   1.413   6.340  1.2240  0.3386 -0.0329
 9213SOL    HW239102   3.066   1.311   6.317  0.4069  1.9444  1.3530
 9214SOL     OW39103   1.256   4.528   5.761 -0.4134  0.0474 -1.0238
 9214SOL    HW139104   1.177   4.476   5.776 -1.0817  1.2056 -0.5329
 9214SOL    HW239105   1.309   4.459   5.802 -0.5059  1.6611  1.8379
 9215SOL     OW39106   4.195   2.419   4.492 -0.3210 -0.4874  0.4663
 9215SOL    HW139107   4.158   2.374   4.568 -2.6826  3.4701  1.6712
 9215SOL    HW239108   4.247   2.348   4.454  0.1222  0.4286 -0.6404
 9216SOL     OW39109   3.425   1.400  16.057  0.1136 -0.0257 -0.1693
 9216SOL    HW139110   3.364   1.439  16.120  0.3078  2.1010 -1.2750
 9216SOL    HW239111   3.430   1.458  15.980  1.6119 -0.0537 -0.0900
 9217SOL     OW39112   0.498   1.643   5.545  0.0683  0.0936 -0.1968
 9217SOL    HW139113   0.526   1.565   5.498  1.7578 -0.1364  1.2059
 9217SOL    HW239114   0.555   1.709   5.505  2.2768 -0.6449  1.7202
 9218SOL     OW39115   0.178   2.277   3.451  0.5747 -0.2038  0.4352
 9218SOL    HW139116   0.173   2.203   3.511 -0.2797 -1.2048 -0.8584
 9218SOL    HW239117   0.108   2.261   3.388  0.4189  1.2515  0.2210
 9219SOL     OW39118   1.868   1.585  10.486  0.2733  0.3785  0.1772
 9219SOL    HW139119   1.799   1.528  10.452  1.8176 -2.8640  2.5305
 9219SOL    HW239120   1.913   1.592  10.402  1.9504 -2.7128  0.8232
 9220SOL     OW39121   2.234   0.119   3.396 -0.1733  0.0873  0.2543
 9220SOL    HW139122   2.212   0.077   3.480  4.1134 -1.1697  0.7200
 9220SOL    HW239123   2.286   0.051   3.354 -1.3840  0.3579 -1.6760
 9221SOL     OW39124   2.166   4.071   9.242  1.0927  0.0771 -1.2659
 9221SOL    HW139125   2.126   4.012   9.178  0.4913  0.7021 -1.4681
 9221SOL    HW239126   2.164   4.155   9.195  1.6168  0.7016 -0.1613
 9222SOL     OW39127   0.963   3.474   2.853 -0.7601 -0.1489 -0.3018
 9222SOL    HW139128   0.921   3.447   2.771  1.0579  1.5513 -1.7841
 9222SOL    HW239129   1.022   3.398   2.858 -1.2732 -0.7065 -2.4995
 9223SOL     OW39130   0.577   0.159   4.408  0.5429 -0.2614  0.0957
 9223SOL    HW139131   0.611   0.163   4.318  2.1143 -1.5399  0.6326
 9223SOL    HW239132   0.641   0.214   4.453 -0.0558  1.0887 -0.6894
 9224SOL     OW39133   2.126   0.641  15.190  0.6352 -0.2573  0.1977
 9224SOL    HW139134   2.164   0.696  15.121 -1.7013  0.7190 -0.3184
 9224SOL    HW239135   2.130   0.699  15.266  2.4253  0.2750 -0.3049
 9225SOL     OW39136   0.329   3.912   6.049 -0.5412  0.2723 -0.8217
 9225SOL    HW139137   0.354   3.857   5.975  1.2385 -2.4732  1.8076
 9225SOL    HW239138   0.234   3.895   6.048 -0.5944  0.5865 -1.0649
 9226SOL     OW39139   1.886   4.511  10.782 -0.0311 -0.2788  0.0299
 9226SOL    HW139140   1.819   4.551  10.726  1.1862 -0.6046 -1.6772
 9226SOL    HW239141   1.865   4.418  10.782  1.7679 -0.6746  1.9331
 9227SOL     OW39142   4.643   2.893   6.597 -1.3859  0.3072 -0.0988
 9227SOL    HW139143   4.678   2.804   6.599 -1.5254  0.2938  1.8028
 9227SOL    HW239144   4.565   2.894   6.651 -1.7112  0.4700 -0.5731
 9228SOL     OW39145   4.450   3.119   3.342 -0.0659 -0.3472  0.1626
 9228SOL    HW139146   4.457   3.176   3.265  3.2526  0.4847  1.0509
 9228SOL    HW239147   4.429   3.178   3.414 -0.8161  0.0655 -0.4019
 9229SOL     OW39148   1.902   2.888   8.021 -0.0378  0.4025 -0.7755
 9229SOL    HW139149   1.989   2.884   7.980  1.3657 -0.9797  2.3985
 9229SOL    HW239150   1.863   2.968   7.985  0.5030  0.9656 -0.0917
 9230SOL     OW39151   2.707   3.505  11.853 -0.3287 -0.7730  0.4311
 9230SOL    HW139152   2.734   3.597  11.845  0.8982 -1.0170  1.6943
 9230SOL    HW239153   2.791   3.459  11.850  0.0350  0.0822 -2.7239
 9231SOL     OW39154   2.063   4.206   6.138  0.1223 -0.0405  0.1551
 9231SOL    HW139155   1.972   4.228   6.159  0.6606 -1.1094  3.6378
 9231SOL    HW239156   2.065   4.139   6.207  0.3410  0.5985  0.7722
 9232SOL     OW39157   1.914   1.320   3.094 -0.4729  0.1296  0.1097
 9232SOL    HW139158   1.831   1.343   3.135 -1.0365  0.0849 -0.9930
 9232SOL    HW239159   1.901   1.228   3.070  0.1979  0.3723 -1.1961
 9233SOL     OW39160   3.224   3.313   9.191 -0.2422  0.5611 -0.8292
 9233SOL    HW139161   3.142   3.329   9.144 -0.3172 -0.1343 -0.9410
 9233SOL    HW239162   3.285   3.305   9.118  0.3274  1.2058 -0.4303
 9234SOL     OW39163   0.175   2.719   6.564  0.2722  0.0744 -0.6055
 9234SOL    HW139164   0.252   2.718   6.620  0.6819 -1.2572 -1.2104
 9234SOL    HW239165   0.175   2.814   6.547  1.5239  0.0177 -0.8928
 9235SOL     OW39166   4.715   0.070  10.574  0.0985 -0.8878 -0.0924
 9235SOL    HW139167   4.705   0.141  10.637 -2.1763 -1.6572  0.4309
 9235SOL    HW239168   0.047   0.110  10.507  1.9368  0.6950  2.3844
 9236SOL     OW39169   3.956   3.290   7.982  0.2546  0.0725  0.5040
 9236SOL    HW139170   3.865   3.267   8.003  0.1997  0.9624  1.2492
 9236SOL    HW239171   3.984   3.335   8.061  3.5504 -1.8392  0.3870
 9237SOL     OW39172   0.612   4.334  13.381 -0.3079 -0.3019 -0.1969
 9237SOL    HW139173   0.607   4.240  13.365 -0.1568 -0.4899  0.8362
 9237SOL    HW239174   0.634   4.346  13.473  0.3357 -1.1162 -0.2467
 9238SOL     OW39175   1.524   0.201   4.474 -0.4651  0.3063 -0.6142
 9238SOL    HW139176   1.619   0.213   4.470 -0.5391  0.6989 -1.2388
 9238SOL    HW239177   1.514   0.106   4.477  1.0752  0.1478 -0.5797
 9239SOL     OW39178   2.132   1.861   8.391  0.0731  0.3112 -0.0646
 9239SOL    HW139179   2.198   1.926   8.413  1.0787 -1.2632  1.5538
 9239SOL    HW239180   2.050   1.894   8.428 -1.5583 -1.8461 -1.7213
 9240SOL     OW39181   3.378   3.740   8.289 -0.1418 -0.1108  0.6816
 9240SOL    HW139182   3.354   3.760   8.198 -0.1482 -2.3828  0.1885
 9240SOL    HW239183   3.293   3.723   8.331 -1.6912 -1.7970 -3.1208
 9241SOL     OW39184   3.004   3.502   8.928 -0.3726 -0.3766  0.0107
 9241SOL    HW139185   2.923   3.518   8.975 -0.7526 -0.1137 -0.7425
 9241SOL    HW239186   3.054   3.582   8.945  0.2189 -1.1196  1.8124
 9242SOL     OW39187   0.802   0.116   3.808  0.5202  0.1207  0.0351
 9242SOL    HW139188   0.839   0.125   3.896 -1.5504 -2.0411  1.1148
 9242SOL    HW239189   0.857   0.182   3.765 -0.1698  1.2080  0.7949
 9243SOL     OW39190   4.187   3.189   4.542 -0.3361 -0.4526  0.0882
 9243SOL    HW139191   4.183   3.109   4.594  0.8057 -0.8642 -0.4425
 9243SOL    HW239192   4.254   3.162   4.479 -0.1192 -0.7559  0.4423
 9244SOL     OW39193   4.375   2.595   0.346  0.0567  0.0720  0.6241
 9244SOL    HW139194   4.309   2.530   0.321 -0.8834 -0.5127  4.6619
 9244SOL    HW239195   4.404   2.628   0.261  0.2855 -0.4864  0.4877
 9245SOL     OW39196   2.931   3.884   9.302 -0.2726 -0.5389 -0.0020
 9245SOL    HW139197   2.876   3.952   9.341 -0.2388  0.6816 -2.1105
 9245SOL    HW239198   2.895   3.810   9.352 -1.5248  0.1307  0.0913
 9246SOL     OW39199   1.669   0.317   8.790  0.2988 -0.1297 -0.5671
 9246SOL    HW139200   1.707   0.254   8.729 -0.2214 -0.3065 -0.7084
 9246SOL    HW239201   1.646   0.254   8.859 -0.0772 -1.9952 -2.4048
 9247SOL     OW39202   0.102   2.589  15.176  0.1108  0.1849  0.6637
 9247SOL    HW139203   0.018   2.568  15.137  1.4204 -2.2924 -0.8249
 9247SOL    HW239204   0.120   2.668  15.126  1.2164 -1.2573 -1.2264
 9248SOL     OW39205   2.764   2.350   0.660  0.2456  0.1387 -0.1183
 9248SOL    HW139206   2.750   2.394   0.744  1.6073  1.9197 -0.8162
 9248SOL    HW239207   2.677   2.356   0.620  0.2200 -0.1779 -0.1112
 9249SOL     OW39208   3.617   4.512   9.165 -0.5891  0.5328  0.3655
 9249SOL    HW139209   3.659   4.426   9.166  1.4841  1.5733  1.9408
 9249SOL    HW239210   3.596   4.524   9.257  0.4513  0.7305  0.5718
 9250SOL     OW39211   0.610   2.993   5.992  0.1679  0.5566  0.2298
 9250SOL    HW139212   0.606   2.898   5.999  2.3914  0.5830  1.9519
 9250SOL    HW239213   0.694   3.009   5.950 -0.1446  0.5195 -0.4019
 9251SOL     OW39214   0.506   2.671   1.037  0.0812 -0.1304  0.1680
 9251SOL    HW139215   0.533   2.730   1.107 -0.7560  2.6331 -1.8412
 9251SOL    HW239216   0.431   2.631   1.081 -0.2296  0.5015  0.2173
 9252SOL     OW39217   4.138   4.584   4.881  0.2577  0.6056 -0.2926
 9252SOL    HW139218   4.142   4.677   4.862 -0.3550  0.7147  0.1137
 9252SOL    HW239219   4.224   4.547   4.861  0.2603  0.4837 -0.0515
 9253SOL     OW39220   4.435   1.713   4.943  0.4674  0.1891 -0.3407
 9253SOL    HW139221   4.455   1.650   5.012 -0.1062  0.4247  0.0368
 9253SOL    HW239222   4.419   1.788   5.000  1.3721  0.0020  0.1499
 9254SOL     OW39223   1.792   0.648   4.667  0.0389  0.2431 -0.1752
 9254SOL    HW139224   1.826   0.598   4.593  1.4308  0.2591  0.4675
 9254SOL    HW239225   1.769   0.723   4.612 -0.7243 -0.3549 -0.6675
 9255SOL     OW39226   3.829   0.725   2.804  0.1041  0.9682 -0.2082
 9255SOL    HW139227   3.895   0.790   2.827  1.1087 -0.2583  0.4283
 9255SOL    HW239228   3.838   0.674   2.885 -1.9782  1.5989  0.4266
 9256SOL     OW39229   3.083   2.979   3.533  0.1572  0.0632 -0.3606
 9256SOL    HW139230   3.107   2.989   3.625  0.4686 -0.0017 -0.4351
 9256SOL    HW239231   3.148   3.024   3.479  2.0883 -0.9043  1.1462
 9257SOL     OW39232   2.019   3.358   3.911  0.8141  0.0232  0.4119
 9257SOL    HW139233   2.002   3.392   3.999 -0.3321  1.7771 -0.5106
 9257SOL    HW239234   1.933   3.325   3.885  1.0161  1.1359 -1.6514
 9258SOL     OW39235   1.115   2.737  13.078  0.2502 -0.0195  0.3030
 9258SOL    HW139236   1.055   2.675  13.118 -0.0557  0.2714  0.3020
 9258SOL    HW239237   1.089   2.735  12.986 -0.6332 -0.0554  0.5501
 9259SOL     OW39238   2.876   0.482   8.760 -0.0598  0.3968  0.4316
 9259SOL    HW139239   2.937   0.550   8.731 -1.1081  0.4987 -1.5354
 9259SOL    HW239240   2.914   0.412   8.708 -1.8211  1.0319 -1.7282
 9260SOL     OW39241   4.003   3.426   5.722 -0.0754  0.0922  0.1861
 9260SOL    HW139242   3.985   3.332   5.719 -0.5442  0.2609 -2.4095
 9260SOL    HW239243   4.008   3.444   5.628  0.2274 -0.1844  0.1531
 9261SOL     OW39244   0.846   3.529   4.609  0.3825 -0.0810 -0.2500
 9261SOL    HW139245   0.831   3.436   4.596 -1.0950  0.1828 -0.3880
 9261SOL    HW239246   0.936   3.537   4.576  0.7154  0.4599  0.7934
 9262SOL     OW39247   3.535   3.753   5.877 -0.3464 -0.5451  0.2773
 9262SOL    HW139248   3.574   3.838   5.857 -0.1476 -0.2615  1.8775
 9262SOL    HW239249   3.451   3.760   5.832  0.0672  0.9803 -0.2445
 9263SOL     OW39250   4.708   3.338   4.103  0.6955  1.0401 -0.6218
 9263SOL    HW139251   4.672   3.252   4.123 -0.5908  2.1344  1.7127
 9263SOL    HW239252   0.073   3.347   4.140  0.2735  0.5979  0.4774
 9264SOL     OW39253   3.617   4.538   2.717  0.1355 -0.0405 -0.8083
 9264SOL    HW139254   3.635   4.596   2.643  2.0137 -0.2922 -0.5634
 9264SOL    HW239255   3.576   4.463   2.675  0.0600 -0.1663 -0.5122
 9265SOL     OW39256   1.985   2.520   5.909  0.5875  0.3111  0.0125
 9265SOL    HW139257   1.943   2.478   5.833  0.0020  0.3548  0.3138
 9265SOL    HW239258   1.997   2.448   5.971  2.1381 -0.2456 -0.9333
 9266SOL     OW39259   1.001   0.045  13.294 -0.1544  0.1966 -0.1621
 9266SOL    HW139260   1.048   0.009  13.218  0.1990 -1.2492  0.7465
 9266SOL    HW239261   0.947   0.112  13.252 -1.2967  0.4794  1.8158
 9267SOL     OW39262   0.123   3.417   9.390 -0.1183  0.1314  0.2474
 9267SOL    HW139263   0.218   3.430   9.389 -0.3139  1.5450  1.1048
 9267SOL    HW239264   0.095   3.483   9.453 -1.6919 -0.4755  0.1660
 9268SOL     OW39265   3.220   1.561   5.195 -0.4516  0.2374  0.1166
 9268SOL    HW139266   3.278   1.624   5.239  0.8598 -0.8270 -0.1020
 9268SOL    HW239267   3.144   1.615   5.175  1.0373  2.1717 -0.4214
 9269SOL     OW39268   1.876   1.634  14.872 -0.6460 -0.3436  0.0655
 9269SOL    HW139269   1.798   1.683  14.847 -0.2879  0.0560 -0.2497
 9269SOL    HW239270   1.862   1.549  14.830 -1.0318 -0.6801  0.8804
 9270SOL     OW39271   4.190   0.103   4.746  0.0508 -0.2387 -0.0692
 9270SOL    HW139272   4.157   0.177   4.696  0.1811  0.0956  0.3463
 9270SOL    HW239273   4.238   0.057   4.677 -0.0259  0.7697 -0.7834
 9271SOL     OW39274   2.492   4.557  14.784 -0.0060 -0.0556  0.3454
 9271SOL    HW139275   2.540   4.503  14.721 -0.6961  0.8986 -0.9960
 9271SOL    HW239276   2.567   4.599  14.826 -1.4290  1.6554  1.1453
 9272SOL     OW39277   1.970   4.493  10.033 -0.6930  0.4969  0.7368
 9272SOL    HW139278   1.959   4.580  10.073 -0.8937  0.1084  1.5279
 9272SOL    HW239279   2.024   4.508   9.956 -0.2267  0.3420  1.0371
 9273SOL     OW39280   4.720   0.210   8.209 -0.9156 -0.6284  0.0318
 9273SOL    HW139281   0.024   0.118   8.218 -0.2342 -0.3237  1.0751
 9273SOL    HW239282   0.081   0.255   8.216 -1.7120  0.8234  0.2735
 9274SOL     OW39283   3.298   0.734   4.163  0.4190 -0.2234 -0.4949
 9274SOL    HW139284   3.320   0.769   4.077 -2.4451  0.1420 -1.0666
 9274SOL    HW239285   3.215   0.776   4.185  0.6530 -0.8380  1.5956
 9275SOL     OW39286   3.530   4.531   6.632  0.4843 -0.4823 -0.0162
 9275SOL    HW139287   3.600   4.498   6.575 -0.8923  2.3777 -3.3691
 9275SOL    HW239288   3.456   4.538   6.572 -0.0175  1.6284  0.8792
 9276SOL     OW39289   2.225   3.175  15.512 -0.5483  0.2472 -0.1939
 9276SOL    HW139290   2.295   3.224  15.555 -1.1455 -1.2341  2.4267
 9276SOL    HW239291   2.149   3.180  15.570 -0.6594 -0.5414 -0.2735
 9277SOL     OW39292   2.530   1.864   9.764  1.0967  0.4986  0.1184
 9277SOL    HW139293   2.622   1.885   9.747  1.3398 -0.5817  0.0405
 9277SOL    HW239294   2.482   1.933   9.719 -0.7220  1.5288  3.6822
 9278SOL     OW39295   2.364   3.609  17.402 -0.0988 -0.5975  0.1250
 9278SOL    HW139296   2.270   3.623  17.407  0.0290  0.3735 -0.2619
 9278SOL    HW239297   2.366   3.530  17.456  2.4298 -0.3613  0.3683
 9279SOL     OW39298   4.328   2.178  14.672 -0.5908 -0.8855  0.3880
 9279SOL    HW139299   4.355   2.270  14.680  1.4198 -1.3960 -0.6357
 9279SOL    HW239300   4.367   2.155  14.588 -5.2943 -0.2241 -1.9815
 9280SOL     OW39301   1.791   3.552  17.135 -0.1588 -0.3779 -0.2513
 9280SOL    HW139302   1.744   3.493  17.076 -0.6934  0.0229 -0.2224
 9280SOL    HW239303   1.787   3.501  17.217 -1.5055  0.7136  0.3588
 9281SOL     OW39304   0.810   2.563   4.201  0.6015 -0.7625 -0.1454
 9281SOL    HW139305   0.811   2.659   4.196  0.6436 -0.7077  0.8461
 9281SOL    HW239306   0.724   2.554   4.242  0.4548  0.6586 -0.1221
 9282SOL     OW39307   3.435   0.499   4.996 -0.2213 -0.1896  0.3659
 9282SOL    HW139308   3.510   0.479   4.940 -0.4606 -2.3566  0.8328
 9282SOL    HW239309   3.399   0.566   4.938  0.9222  1.3288  1.4020
 9283SOL     OW39310   3.059   0.404  13.738  0.4383 -0.0889  0.3786
 9283SOL    HW139311   3.145   0.415  13.780  0.8436 -1.9538  0.0161
 9283SOL    HW239312   3.063   0.324  13.686  1.7856  0.9449 -1.1095
 9284SOL     OW39313   0.691   1.927   9.512 -0.0091  0.5469 -0.3410
 9284SOL    HW139314   0.599   1.925   9.537 -0.1298 -1.3827 -0.9140
 9284SOL    HW239315   0.682   1.895   9.422  2.3259  0.7950 -0.6806
 9285SOL     OW39316   4.310   2.205   1.057  0.0485  0.3733  0.2690
 9285SOL    HW139317   4.379   2.218   1.122 -1.7215 -2.1281  2.6200
 9285SOL    HW239318   4.318   2.113   1.033 -0.1082  0.6747 -0.9261
 9286SOL     OW39319   0.487   4.669  16.388  0.7640  0.0856 -0.0192
 9286SOL    HW139320   0.481   4.660  16.483 -3.3157 -0.9094 -0.3540
 9286SOL    HW239321   0.557   0.011  16.383  1.0558 -0.2884 -0.7573
 9287SOL     OW39322   0.052   3.997  17.549 -0.4841 -0.0649 -0.0804
 9287SOL    HW139323   0.014   4.039  17.471 -0.6527 -0.9243 -0.4576
 9287SOL    HW239324   0.030   4.064  17.613  1.7347  1.7926 -1.2689
 9288SOL     OW39325   2.590   2.255   2.349  0.1384 -0.3377 -0.2275
 9288SOL    HW139326   2.614   2.165   2.370  1.2555 -0.1260 -0.6353
 9288SOL    HW239327   2.668   2.295   2.387 -0.5843 -1.5774  2.5424
 9289SOL     OW39328   3.423   4.553   2.212 -0.0397 -0.1948 -0.1504
 9289SOL    HW139329   3.356   4.520   2.272 -2.9803  0.7735 -2.9412
 9289SOL    HW239330   3.459   4.624   2.265 -1.1349  1.3088 -1.4239
 9290SOL     OW39331   3.452   3.358   6.093 -0.0679  0.4356 -0.0692
 9290SOL    HW139332   3.416   3.269   6.099 -0.0622  0.3267 -1.6411
 9290SOL    HW239333   3.521   3.347   6.028  0.7363  2.2458  0.4871
 9291SOL     OW39334   0.186   3.421   8.331 -0.0096  0.3768 -0.5946
 9291SOL    HW139335   0.256   3.443   8.392 -0.8931  0.5552  0.3535
 9291SOL    HW239336   0.129   3.498   8.339  1.1696  1.3253 -1.2899
 9292SOL     OW39337   3.818   4.600   5.143 -0.0206 -0.5249 -0.5455
 9292SOL    HW139338   3.908   4.568   5.153  0.1879  0.7699  1.6588
 9292SOL    HW239339   3.818   4.692   5.169  1.5012 -0.6905  0.0093
 9293SOL     OW39340   1.228   0.719   0.557 -0.2026 -0.5761 -0.7607
 9293SOL    HW139341   1.212   0.806   0.522  2.5692 -0.5319 -1.9471
 9293SOL    HW239342   1.148   0.705   0.608  0.2118 -0.9318 -0.2049
 9294SOL     OW39343   1.851   4.163   5.172 -0.4179  0.4051  0.7058
 9294SOL    HW139344   1.872   4.160   5.265 -2.6535 -2.4996  1.1088
 9294SOL    HW239345   1.842   4.258   5.164  1.5856  0.6307  1.4288
 9295SOL     OW39346   0.405   4.401  13.236  0.0926  0.4235 -0.2935
 9295SOL    HW139347   0.381   4.313  13.209  3.0402 -0.2517 -0.6636
 9295SOL    HW239348   0.483   4.375  13.284 -1.1142 -1.6596  0.5144
 9296SOL     OW39349   0.843   2.021  16.994  0.3605 -0.0503  0.6817
 9296SOL    HW139350   0.817   2.048  16.905  0.9215 -1.3075  0.1423
 9296SOL    HW239351   0.843   1.926  16.983  0.1223  0.0404 -0.1453
 9297SOL     OW39352   1.778   2.642   8.827 -0.0070  0.4132 -0.1830
 9297SOL    HW139353   1.757   2.674   8.915  2.7078  0.2398  0.5032
 9297SOL    HW239354   1.694   2.652   8.781 -0.1659  0.5320  0.1312
 9298SOL     OW39355   3.361   1.216   7.399  0.1202 -0.2403 -0.2011
 9298SOL    HW139356   3.452   1.226   7.427  0.1389  0.2191 -0.4405
 9298SOL    HW239357   3.374   1.164   7.320 -1.1143  0.0768 -0.6074
 9299SOL     OW39358   2.181   2.896   3.167 -0.2156  0.2734  0.8568
 9299SOL    HW139359   2.221   2.891   3.080 -0.5599  0.7283  0.6715
 9299SOL    HW239360   2.194   2.802   3.181 -4.8594 -0.3107  1.3140
 9300SOL     OW39361   4.688   3.017   0.452  0.7927 -0.5703 -0.5909
 9300SOL    HW139362   4.668   3.110   0.439 -0.1693 -0.6832  0.0640
 9300SOL    HW239363   0.007   3.016   0.538  0.0832  1.3775 -0.2127
 9301SOL     OW39364   1.973   0.970   4.461  0.0661 -0.1392  0.7928
 9301SOL    HW139365   2.044   1.019   4.418 -2.4468  1.9732 -0.9816
 9301SOL    HW239366   2.019   0.959   4.544  0.5433 -1.6245  0.3314
 9302SOL     OW39367   0.005   4.135   6.025  0.1971  0.1194 -0.3741
 9302SOL    HW139368   4.689   4.220   6.007  2.1291  0.7379 -1.7759
 9302SOL    HW239369   0.012   4.144   6.120 -0.5139  1.9510 -0.5083
 9303SOL     OW39370   3.340   4.262   7.646 -0.6356  0.0742 -0.4009
 9303SOL    HW139371   3.421   4.215   7.626 -1.1970 -1.6856  1.4475
 9303SOL    HW239372   3.362   4.295   7.734 -1.3249 -0.1793 -0.1345
 9304SOL     OW39373   4.556   3.453  17.518  0.6696 -0.2364 -0.0137
 9304SOL    HW139374   4.490   3.498  17.571  0.6803 -0.1039 -0.1122
 9304SOL    HW239375   4.499   3.392  17.471 -1.0971  0.1209  1.6714
 9305SOL     OW39376   3.052   0.859   4.121 -0.0171  0.5028  0.0039
 9305SOL    HW139377   2.963   0.828   4.137 -0.1191  0.2506 -1.0729
 9305SOL    HW239378   3.049   0.947   4.159 -1.0342  0.7190 -0.5894
 9306SOL     OW39379   0.062   3.034   0.715  0.1818 -0.3868  0.0839
 9306SOL    HW139380   0.041   3.120   0.679  2.3216 -0.1086 -0.5130
 9306SOL    HW239381   0.118   3.060   0.789 -0.1096 -0.6989  0.4152
 9307SOL     OW39382   1.596   4.411   1.147  0.7030  0.0107 -0.7199
 9307SOL    HW139383   1.637   4.333   1.110 -2.2926 -2.1795  0.5486
 9307SOL    HW239384   1.542   4.368   1.213  1.7232 -1.2772 -0.7220
 9308SOL     OW39385   3.448   4.371   7.910 -0.0449 -0.0399 -0.0962
 9308SOL    HW139386   3.519   4.391   7.971  0.5676 -2.2066 -0.1096
 9308SOL    HW239387   3.393   4.312   7.961  0.0251  0.2648  0.3320
 9309SOL     OW39388   2.880   2.360   1.852  0.0643  0.4525  0.6588
 9309SOL    HW139389   2.926   2.276   1.855 -0.3517  0.2557  1.4609
 9309SOL    HW239390   2.938   2.416   1.800 -0.8025  0.2393 -0.5527
 9310SOL     OW39391   2.307   4.646  13.233 -0.6607  0.5749 -0.4495
 9310SOL    HW139392   2.396   4.662  13.265 -0.2271 -3.5010  0.3929
 9310SOL    HW239393   2.261   4.721  13.271  1.5649  2.7965 -2.1180
 9311SOL     OW39394   3.593   0.162  15.045  0.4597 -0.0869  0.1660
 9311SOL    HW139395   3.535   0.238  15.054 -1.1306 -1.0492 -1.8889
 9311SOL    HW239396   3.661   0.192  14.985 -0.4167  0.9306 -0.3322
 9312SOL     OW39397   2.917   0.383   5.677 -0.4750 -0.2375 -0.5067
 9312SOL    HW139398   2.910   0.305   5.623  0.8733  0.6747 -1.9963
 9312SOL    HW239399   2.899   0.441   5.603 -0.4147  0.0975 -0.2618
 9313SOL     OW39400   1.910   3.437   9.524  0.3128  0.3605  0.0926
 9313SOL    HW139401   1.825   3.396   9.511 -0.0767  0.6201  1.8337
 9313SOL    HW239402   1.905   3.516   9.469  1.7978  1.2495  1.2308
 9314SOL     OW39403   3.269   0.344   0.629  0.0155  0.2467 -0.0343
 9314SOL    HW139404   3.235   0.315   0.545  0.1163  1.2586 -0.4270
 9314SOL    HW239405   3.355   0.303   0.626  0.3377  0.9017  0.2372
 9315SOL     OW39406   1.105   4.075   7.111  0.1188  0.2377  0.5594
 9315SOL    HW139407   1.178   4.038   7.160 -1.3742 -2.5906  0.6013
 9315SOL    HW239408   1.134   4.166   7.101  0.6487 -0.1735 -1.6206
 9316SOL     OW39409   0.884   0.764   7.685  0.3828 -0.2801  0.0239
 9316SOL    HW139410   0.796   0.745   7.718  0.1081  2.3910  0.9193
 9316SOL    HW239411   0.883   0.725   7.598 -2.4555  0.3191 -0.2113
 9317SOL     OW39412   2.850   3.961  11.239  0.0538  0.4274 -0.0157
 9317SOL    HW139413   2.799   4.042  11.236 -2.7422 -1.3176  0.6936
 9317SOL    HW239414   2.855   3.934  11.331  1.1548 -0.2579 -0.2848
 9318SOL     OW39415   3.304   4.198   3.881 -0.5311  0.3314 -0.0703
 9318SOL    HW139416   3.351   4.138   3.938 -0.0415  1.9186  1.1927
 9318SOL    HW239417   3.212   4.175   3.895 -1.3815  2.4548 -2.2619
 9319SOL     OW39418   3.563   0.291   9.974  0.9708 -0.4912  0.5252
 9319SOL    HW139419   3.638   0.287  10.033  1.7019  1.7231 -0.2454
 9319SOL    HW239420   3.541   0.199   9.965  1.2522 -0.7961  3.0844
 9320SOL     OW39421   1.928   2.488   8.624 -0.2133  0.4107 -0.9855
 9320SOL    HW139422   1.906   2.562   8.679  0.0214  1.1118 -1.8374
 9320SOL    HW239423   1.845   2.441   8.629  0.3580 -0.6328 -1.2330
 9321SOL     OW39424   0.006   0.018  14.384  0.0369 -0.6262  0.4615
 9321SOL    HW139425   0.000   4.648  14.360 -3.9074 -0.8125  2.1691
 9321SOL    HW239426   4.703   0.062  14.304  1.2476 -1.0727 -0.1758
 9322SOL     OW39427   2.373   2.035   6.082  0.0826 -0.2281  0.2585
 9322SOL    HW139428   2.361   2.126   6.055  2.2974  0.2545  0.9173
 9322SOL    HW239429   2.423   2.009   6.005  0.7556 -0.5137  0.7950
 9323SOL     OW39430   3.625   1.812   6.568 -0.3391  0.3517  0.2887
 9323SOL    HW139431   3.585   1.803   6.654  0.8356 -1.2269  0.6759
 9323SOL    HW239432   3.612   1.722   6.537 -0.8401  0.3403  0.5384
 9324SOL     OW39433   0.492   2.892  12.589  0.0173 -0.7443 -0.9467
 9324SOL    HW139434   0.513   2.842  12.510 -1.0765 -2.4209 -0.1866
 9324SOL    HW239435   0.405   2.916  12.558  0.1597 -1.0139 -1.5487
 9325SOL     OW39436   0.854   1.763   1.289  0.3001  0.1418  0.5559
 9325SOL    HW139437   0.761   1.762   1.266  0.8316  0.5928 -1.5647
 9325SOL    HW239438   0.840   1.733   1.379 -1.7159  0.5319  0.3835
 9326SOL     OW39439   0.339   0.430   4.795  0.8969 -0.4302  0.4015
 9326SOL    HW139440   0.370   0.475   4.717 -0.0960 -1.4423 -0.5730
 9326SOL    HW239441   0.275   0.369   4.757  2.5845 -2.0536  0.1828
 9327SOL     OW39442   1.151   1.072   8.231 -0.1578 -0.2822 -0.3253
 9327SOL    HW139443   1.124   1.086   8.140  0.4715 -0.6833 -0.5761
 9327SOL    HW239444   1.163   0.977   8.231 -2.5815 -0.5888 -0.8015
 9328SOL     OW39445   1.513   0.492   8.991  0.3061  0.2368  0.8663
 9328SOL    HW139446   1.605   0.512   9.003  0.6533 -0.6396 -0.3562
 9328SOL    HW239447   1.533   0.399   8.993 -1.2990 -0.1350 -0.0266
 9329SOL     OW39448   1.220   4.039   9.199  0.0653  0.0144 -0.4536
 9329SOL    HW139449   1.146   4.079   9.245  0.2653  0.2063 -0.2943
 9329SOL    HW239450   1.261   3.996   9.274  0.1206  0.9079  0.0327
 9330SOL     OW39451   4.662   1.926  13.238 -0.0594  0.0793 -0.0713
 9330SOL    HW139452   4.647   1.930  13.332  1.5750  1.5967  0.1284
 9330SOL    HW239453   4.579   1.884  13.218 -1.0023  2.6377 -1.4619
 9331SOL     OW39454   4.492   3.638   0.729 -0.0827 -0.1407 -0.0732
 9331SOL    HW139455   4.403   3.603   0.723 -0.5458  1.0692 -0.1733
 9331SOL    HW239456   4.534   3.587   0.660  0.7746  0.4897 -0.0176
 9332SOL     OW39457   3.579   1.675   9.134 -0.1972 -0.4076 -0.0279
 9332SOL    HW139458   3.622   1.711   9.056  3.6257 -2.6577  1.0647
 9332SOL    HW239459   3.649   1.636   9.186  1.3823  1.9217 -0.4035
 9333SOL     OW39460   2.306   0.286   1.970 -0.4818  0.1642 -0.8639
 9333SOL    HW139461   2.254   0.251   2.042  1.1525 -0.0038  0.2414
 9333SOL    HW239462   2.319   0.378   1.992  0.0952 -0.1578  0.1662
 9334SOL     OW39463   0.578   4.306  17.166  0.5711 -0.2041  0.8200
 9334SOL    HW139464   0.661   4.347  17.143 -1.0352  2.2882 -0.4795
 9334SOL    HW239465   0.543   4.375  17.222 -0.4496 -1.3020  1.5437
 9335SOL     OW39466   4.183   4.522  16.643 -0.6451  0.8969  0.3475
 9335SOL    HW139467   4.096   4.483  16.653 -1.4577  2.6613  0.2485
 9335SOL    HW239468   4.175   4.546  16.550  0.6044 -1.9903 -0.5099
 9336SOL     OW39469   4.573   0.972   5.292 -0.2283 -0.4562  0.5695
 9336SOL    HW139470   4.633   0.921   5.238 -0.6942  1.0161 -1.3380
 9336SOL    HW239471   4.506   0.904   5.303  0.2140 -0.9002  0.5055
 9337SOL     OW39472   3.380   2.387   2.809  0.4545  0.4302  0.2298
 9337SOL    HW139473   3.346   2.437   2.735 -1.6389  0.0682  0.9630
 9337SOL    HW239474   3.422   2.444   2.873 -0.5572  1.5680 -0.1190
 9338SOL     OW39475   0.787   2.014   1.524 -0.3517 -0.2995 -0.2450
 9338SOL    HW139476   0.796   1.958   1.602 -2.0926 -0.5084 -0.1851
 9338SOL    HW239477   0.715   2.071   1.551  0.1587  0.2092  0.0367
 9339SOL     OW39478   0.632   4.347  11.148  0.4708  0.1257 -0.3637
 9339SOL    HW139479   0.684   4.427  11.156 -1.9670  1.4986  2.0089
 9339SOL    HW239480   0.694   4.293  11.099  0.2470 -0.2720 -0.2109
 9340SOL     OW39481   4.160   1.062   7.550  0.0742  0.1144 -0.2702
 9340SOL    HW139482   4.181   1.121   7.478  1.9162  0.3194  0.4150
 9340SOL    HW239483   4.148   1.122   7.624 -2.3523 -0.0237 -0.5574
 9341SOL     OW39484   2.262   2.273   8.659  0.1084  0.3720  0.3484
 9341SOL    HW139485   2.223   2.266   8.746 -1.1751 -1.0982 -0.3490
 9341SOL    HW239486   2.184   2.294   8.608 -0.5788 -1.4253  0.6614
 9342SOL     OW39487   0.940   0.994   7.422  0.1095  0.2576 -0.1552
 9342SOL    HW139488   0.917   0.901   7.412  0.8339 -0.0486  1.0893
 9342SOL    HW239489   0.961   1.020   7.332  2.6738  0.6928  0.5952
 9343SOL     OW39490   4.377   0.928   8.339 -0.2741 -0.3953 -0.5772
 9343SOL    HW139491   4.402   0.838   8.359 -0.9040 -0.6625 -0.9852
 9343SOL    HW239492   4.282   0.921   8.331 -0.3151 -0.1209 -0.3219
 9344SOL     OW39493   1.291   3.139   8.495  0.0644  0.2361  0.3693
 9344SOL    HW139494   1.360   3.206   8.493  2.7668 -2.6513 -3.0662
 9344SOL    HW239495   1.227   3.174   8.432 -1.2576 -0.3347  1.3932
 9345SOL     OW39496   1.132   2.971   3.081  0.5303  0.1568  0.4239
 9345SOL    HW139497   1.119   2.948   3.173  1.0230  0.1835  0.5010
 9345SOL    HW239498   1.203   3.035   3.080 -1.3221  2.1861 -1.5784
 9346SOL     OW39499   1.289   0.496   3.637 -0.3399  0.2812 -0.0245
 9346SOL    HW139500   1.232   0.498   3.560  0.0089 -2.0102 -0.3527
 9346SOL    HW239501   1.337   0.416   3.616 -1.7618 -0.6293  0.2057
 9347SOL     OW39502   3.690   3.311   8.943 -0.1240 -0.1671 -0.2070
 9347SOL    HW139503   3.763   3.312   9.005 -0.7124 -1.4623  0.4863
 9347SOL    HW239504   3.704   3.397   8.903  0.2258 -0.4923 -0.7960
 9348SOL     OW39505   1.670   3.815  14.371  0.1027  0.1469 -0.0566
 9348SOL    HW139506   1.753   3.787  14.333 -0.1597  1.8908 -1.9036
 9348SOL    HW239507   1.667   3.767  14.454 -0.2244  0.4690  0.1163
 9349SOL     OW39508   2.312   2.468  14.317  0.2222 -0.3097 -0.1266
 9349SOL    HW139509   2.384   2.408  14.297  0.5892 -0.7346  2.4705
 9349SOL    HW239510   2.334   2.479  14.409 -2.6055 -1.3592  0.6637
 9350SOL     OW39511   2.668   0.024  15.794  0.6628 -0.6315 -0.7678
 9350SOL    HW139512   2.751   0.066  15.818  0.7800 -1.2706 -0.0598
 9350SOL    HW239513   2.670   0.054  15.704 -2.8689 -1.1658 -1.0073
 9351SOL     OW39514   4.499   2.005   1.861 -0.1166 -0.2771  0.0207
 9351SOL    HW139515   4.587   2.007   1.899  0.4480 -0.6402 -1.2586
 9351SOL    HW239516   4.484   2.097   1.840 -0.2604 -0.2708  0.1581
 9352SOL     OW39517   3.304   2.821   1.172  0.5690  0.1777  0.2523
 9352SOL    HW139518   3.388   2.841   1.130  1.0156 -0.5742  0.7707
 9352SOL    HW239519   3.328   2.849   1.260 -0.8401  0.0654  0.6749
 9353SOL     OW39520   3.262   4.490   6.146 -0.3644 -0.0163 -0.3040
 9353SOL    HW139521   3.296   4.408   6.109 -2.3751 -0.4031 -1.2899
 9353SOL    HW239522   3.180   4.469   6.191  0.1973 -0.2588  0.6091
 9354SOL     OW39523   1.023   2.762   3.729 -0.1637 -0.4320  0.5159
 9354SOL    HW139524   0.978   2.805   3.657 -2.7662 -2.8623  0.7040
 9354SOL    HW239525   1.111   2.764   3.693 -0.0546 -0.8602  0.7550
 9355SOL     OW39526   2.711   4.159  12.796  0.1166 -0.0016  0.7845
 9355SOL    HW139527   2.671   4.242  12.770  1.7180  0.9359  1.2896
 9355SOL    HW239528   2.686   4.139  12.887  2.6138 -0.5331  1.3362
 9356SOL     OW39529   1.721   0.879   4.520  0.0753 -0.3131 -0.3339
 9356SOL    HW139530   1.798   0.920   4.479  1.6324 -1.0943  1.7602
 9356SOL    HW239531   1.667   0.872   4.442  1.5534  1.4135 -1.5051
 9357SOL     OW39532   4.446   1.802  13.121  0.0517  0.0383  0.6879
 9357SOL    HW139533   4.489   1.755  13.050 -0.7053  0.0699  0.2200
 9357SOL    HW239534   4.408   1.726  13.164 -2.4492  1.8480  1.6682
 9358SOL     OW39535   1.707   2.399   6.925  0.1575  0.5745  0.1223
 9358SOL    HW139536   1.689   2.320   6.874  1.8763 -0.5131  1.2069
 9358SOL    HW239537   1.702   2.371   7.016  3.6182  0.3310  0.2366
 9359SOL     OW39538   2.295   2.706   1.545 -0.1494 -0.1022  0.4738
 9359SOL    HW139539   2.349   2.627   1.539  0.2978  0.4132 -2.4625
 9359SOL    HW239540   2.354   2.773   1.579  0.5695 -1.6685  2.2725
 9360SOL     OW39541   2.891   3.144   8.292 -0.3591 -0.3281  0.2883
 9360SOL    HW139542   2.814   3.117   8.342 -1.0862  2.1223  0.4503
 9360SOL    HW239543   2.864   3.230   8.260 -1.2671 -0.2815  1.1709
 9361SOL     OW39544   3.239   2.440   7.484 -0.3392  0.3429 -0.0362
 9361SOL    HW139545   3.246   2.446   7.579  1.2886  0.3457 -0.1452
 9361SOL    HW239546   3.301   2.369   7.465 -0.0877  0.4663  0.3294
 9362SOL     OW39547   3.537   2.731   2.448  0.4754  0.1146 -0.2152
 9362SOL    HW139548   3.577   2.805   2.403 -1.0687  0.6732 -0.6957
 9362SOL    HW239549   3.620   2.687   2.465  1.0839  0.9463 -0.9973
 9363SOL     OW39550   0.449   1.401   6.794 -0.3408 -0.5056  0.3699
 9363SOL    HW139551   0.372   1.357   6.756  0.6754 -1.6885 -0.3299
 9363SOL    HW239552   0.498   1.324   6.822 -0.3193 -0.5055  0.3322
 9364SOL     OW39553   2.509   0.092   5.040 -0.1312 -0.3945  0.5770
 9364SOL    HW139554   2.433   0.107   4.982  1.9429 -1.7507 -2.5076
 9364SOL    HW239555   2.467   0.032   5.101 -1.8845  2.8218  2.5744
 9365SOL     OW39556   4.115   0.494   3.407  0.2928 -0.1593  0.3559
 9365SOL    HW139557   4.048   0.549   3.365  1.8645 -1.1961 -3.4513
 9365SOL    HW239558   4.171   0.559   3.450 -0.9141  1.2628 -0.2067
 9366SOL     OW39559   3.525   0.009  15.521  0.2163  0.0262  0.9235
 9366SOL    HW139560   3.511   4.719  15.428  2.4943  3.3922  0.1222
 9366SOL    HW239561   3.486   4.653  15.559  0.5351  0.6152  2.4923
 9367SOL     OW39562   1.530   2.220   2.916 -0.2239 -0.3469 -0.1350
 9367SOL    HW139563   1.473   2.145   2.933  0.9033 -1.7152 -2.4101
 9367SOL    HW239564   1.468   2.292   2.901 -1.5454 -1.5224 -0.2750
 9368SOL     OW39565   4.002   3.530  14.245 -0.5746  0.4226  0.1018
 9368SOL    HW139566   3.991   3.625  14.251  0.8495  0.5337  0.7889
 9368SOL    HW239567   3.955   3.502  14.323  2.2318  0.1868  1.6728
 9369SOL     OW39568   1.044   4.342   9.113 -0.6163  0.1214  0.5158
 9369SOL    HW139569   1.027   4.281   9.185 -0.3600 -2.5021 -1.6498
 9369SOL    HW239570   1.127   4.385   9.133  0.8169 -2.8067  0.8886
 9370SOL     OW39571   4.610   0.199   7.613 -0.4376  0.4410  0.2128
 9370SOL    HW139572   4.595   0.105   7.607 -0.2105  0.3209  1.5724
 9370SOL    HW239573   4.525   0.228   7.647 -0.7449  0.9750 -0.9814
 9371SOL     OW39574   4.193   4.715  17.125  0.4046 -0.5409  0.1259
 9371SOL    HW139575   4.215   4.680  17.039 -1.7518 -1.7227  0.0594
 9371SOL    HW239576   4.102   0.019  17.114  0.7089 -0.0755 -1.1551
 9372SOL     OW39577   1.523   0.421   2.738  0.0788 -0.1814 -0.1083
 9372SOL    HW139578   1.483   0.471   2.809  0.6908 -0.8837  0.7310
 9372SOL    HW239579   1.590   0.485   2.715 -0.6181  0.6161  0.0906
 9373SOL     OW39580   4.046   4.262   5.926 -0.1980 -0.5288 -0.4724
 9373SOL    HW139581   4.064   4.183   5.876 -1.1318 -0.3761 -1.0414
 9373SOL    HW239582   4.096   4.327   5.876 -0.7233  1.1951  1.2297
 9374SOL     OW39583   3.975   4.419   7.276  0.2929  0.0498 -0.1372
 9374SOL    HW139584   4.032   4.342   7.279 -1.3209 -1.2090 -1.8490
 9374SOL    HW239585   3.962   4.427   7.370 -3.6379 -0.5581 -0.6462
 9375SOL     OW39586   4.489   2.157   8.248  0.0456 -0.4555 -0.0691
 9375SOL    HW139587   4.507   2.135   8.157 -0.1509 -0.5427 -0.0870
 9375SOL    HW239588   4.498   2.080   8.304 -3.8245 -1.3422 -0.6778
 9376SOL     OW39589   3.660   1.709   7.239  0.0800 -0.4852  0.4573
 9376SOL    HW139590   3.675   1.769   7.312  1.7423 -3.3370  2.4348
 9376SOL    HW239591   3.651   1.774   7.169  1.6213 -0.8362 -0.0687
 9377SOL     OW39592   1.200   4.629   3.711  0.0096 -0.3886  0.3343
 9377SOL    HW139593   1.110   4.627   3.680  0.7977 -0.7939 -1.9295
 9377SOL    HW239594   1.197   0.001   3.725 -3.0071 -0.6430  1.4067
 9378SOL     OW39595   2.945   3.328   5.175  0.4875 -0.2712 -0.5926
 9378SOL    HW139596   3.008   3.350   5.244  2.3943 -0.4338 -2.2761
 9378SOL    HW239597   2.877   3.394   5.189  1.7634  0.8658  0.3081
 9379SOL     OW39598   2.301   4.499   6.870  0.2928  0.3732 -0.7644
 9379SOL    HW139599   2.302   4.557   6.945  0.8172 -0.2886 -0.2600
 9379SOL    HW239600   2.290   4.564   6.800  0.5136  0.3824 -0.7883
 9380SOL     OW39601   2.586   1.964   9.418  0.0818  0.3131 -0.4401
 9380SOL    HW139602   2.666   1.997   9.460 -0.9593  2.1272  0.1309
 9380SOL    HW239603   2.517   1.983   9.481 -1.7416  0.6980 -2.5580
 9381SOL     OW39604   0.240   4.467   3.442  0.0929 -0.7753 -0.1561
 9381SOL    HW139605   0.178   4.520   3.492 -1.5226 -2.6316 -0.2185
 9381SOL    HW239606   0.300   4.425   3.505 -0.0582 -1.3766 -0.4181
 9382SOL     OW39607   4.630   3.690  12.367  0.6555  0.5580  0.7142
 9382SOL    HW139608   4.706   3.717  12.316  0.9837 -1.1537  0.3059
 9382SOL    HW239609   4.581   3.637  12.305  1.0188  0.4156  0.5564
 9383SOL     OW39610   3.911   3.935   2.604 -0.2920 -0.1300  0.0739
 9383SOL    HW139611   3.995   3.952   2.562 -1.5981 -0.3986 -2.6851
 9383SOL    HW239612   3.935   3.896   2.688 -0.6091  1.4647  0.9034
 9384SOL     OW39613   1.652   2.219   7.511 -0.8088  0.7350  0.0022
 9384SOL    HW139614   1.719   2.285   7.529 -0.1808 -0.2770  1.3721
 9384SOL    HW239615   1.569   2.266   7.504 -1.6492 -0.8754 -1.0418
 9385SOL     OW39616   3.005   2.100   9.211 -0.2955 -0.1650 -1.3174
 9385SOL    HW139617   3.039   2.159   9.278 -0.2199  0.7282 -2.1354
 9385SOL    HW239618   2.985   2.163   9.142  1.1153 -0.4969 -2.0431
 9386SOL     OW39619   1.105   2.279   2.211 -0.2068  0.2396  0.7396
 9386SOL    HW139620   1.075   2.332   2.137  0.0628 -1.7515 -0.8027
 9386SOL    HW239621   1.186   2.326   2.229  0.2188  0.2863 -1.2965
 9387SOL     OW39622   1.753   4.186  11.794 -0.3375 -0.5734  0.0166
 9387SOL    HW139623   1.823   4.122  11.800 -1.7921 -2.1756 -0.1154
 9387SOL    HW239624   1.791   4.262  11.839  1.2175 -0.0521 -2.1863
 9388SOL     OW39625   0.277   4.559   8.928  0.5723 -0.1591  0.3892
 9388SOL    HW139626   0.346   4.585   8.989 -0.2719  2.2338  0.3178
 9388SOL    HW239627   0.267   4.465   8.948 -2.5512  0.0154 -0.3382
 9389SOL     OW39628   1.636   0.672   2.680 -0.1712 -0.2932 -0.0743
 9389SOL    HW139629   1.638   0.715   2.766 -0.4328 -1.9406  0.7702
 9389SOL    HW239630   1.681   0.742   2.633  1.0746 -2.3488 -1.9680
 9390SOL     OW39631   2.386   3.193   7.535 -0.3479 -0.5287 -0.2279
 9390SOL    HW139632   2.480   3.180   7.530 -0.4644 -1.3112 -0.4207
 9390SOL    HW239633   2.369   3.099   7.535 -0.0151 -0.5853 -0.0398
 9391SOL     OW39634   1.181   4.504   8.170 -0.2051  0.0743  0.6762
 9391SOL    HW139635   1.163   4.593   8.200 -1.0748 -0.1142  0.7100
 9391SOL    HW239636   1.209   4.529   8.082  0.0479 -1.6775  0.2715
 9392SOL     OW39637   1.709   1.811   9.669 -0.5875 -0.0369  0.5403
 9392SOL    HW139638   1.780   1.875   9.680 -3.3827  3.3239 -1.2161
 9392SOL    HW239639   1.724   1.764   9.588  0.0509  2.0504 -0.5663
 9393SOL     OW39640   3.355   4.504   4.985 -0.1806  0.0819 -0.1802
 9393SOL    HW139641   3.392   4.416   4.998 -0.5329 -0.1669 -0.8517
 9393SOL    HW239642   3.432   4.539   4.940  2.1522 -2.1898  2.0400
 9394SOL     OW39643   0.450   0.805  13.632  0.1932 -0.1078 -0.4591
 9394SOL    HW139644   0.430   0.717  13.599 -0.0418 -0.1661 -0.1637
 9394SOL    HW239645   0.440   0.791  13.726  0.7551 -0.0241 -0.3856
 9395SOL     OW39646   1.810   1.954  16.219 -0.2868  0.1714  0.1672
 9395SOL    HW139647   1.826   1.862  16.196 -0.6956 -0.7310  3.4577
 9395SOL    HW239648   1.902   1.979  16.227 -0.4880  1.3919 -1.3350
 9396SOL     OW39649   1.652   3.698   0.424 -0.0818 -0.9040  0.3151
 9396SOL    HW139650   1.679   3.631   0.487 -0.4508 -0.1403  1.2851
 9396SOL    HW239651   1.584   3.751   0.466 -0.4841 -2.0176  1.0555
 9397SOL     OW39652   3.993   4.049  11.373  0.2662 -0.1456 -0.2860
 9397SOL    HW139653   3.923   4.015  11.430 -0.4381  0.0560 -1.0337
 9397SOL    HW239654   3.987   3.994  11.295  2.3641 -1.4168  0.4521
 9398SOL     OW39655   0.315   0.270   4.508 -0.4274 -0.1913 -0.0818
 9398SOL    HW139656   0.392   0.267   4.453 -1.4160 -1.1136 -1.4183
 9398SOL    HW239657   0.295   0.363   4.506 -3.0964 -0.6210  4.5914
 9399SOL     OW39658   4.456   1.398   5.078 -0.6481  0.2930  0.0849
 9399SOL    HW139659   4.451   1.356   4.993 -2.4856  3.1594 -1.2108
 9399SOL    HW239660   4.365   1.427   5.085  0.0821  2.2038  1.7696
 9400SOL     OW39661   4.577   4.633   5.026  0.0830 -0.1847 -0.1383
 9400SOL    HW139662   4.564   4.635   5.121 -2.5518  1.4249 -0.5448
 9400SOL    HW239663   4.672   4.628   5.014  0.3207  2.3329  0.7135
 9401SOL     OW39664   2.611   1.156   2.283 -0.0113  0.4914 -0.0915
 9401SOL    HW139665   2.626   1.243   2.246 -0.9516 -0.1126 -1.9368
 9401SOL    HW239666   2.697   1.117   2.273 -0.6073 -0.2899 -2.1583
 9402SOL     OW39667   2.877   2.974   2.629 -0.0173  0.1218 -0.0662
 9402SOL    HW139668   2.825   2.994   2.551 -2.0323 -4.0150  0.2376
 9402SOL    HW239669   2.932   3.053   2.633 -1.0114  0.8637 -0.9729
 9403SOL     OW39670   0.683   2.917   4.629 -0.0754  0.3316  0.0703
 9403SOL    HW139671   0.634   2.849   4.677 -3.1493  1.2488 -1.7385
 9403SOL    HW239672   0.652   2.995   4.675  1.9050 -0.5365  2.8937
 9404SOL     OW39673   0.262   0.520   2.630 -0.2427 -0.2853  0.3497
 9404SOL    HW139674   0.255   0.612   2.608  0.9364 -0.3840 -0.4055
 9404SOL    HW239675   0.214   0.508   2.712  0.4702 -0.5105  0.7354
 9405SOL     OW39676   0.199   2.401   1.316  0.0473 -0.3378 -0.1349
 9405SOL    HW139677   0.200   2.409   1.412 -0.5619 -1.8994  0.0058
 9405SOL    HW239678   0.104   2.387   1.310 -0.3916  2.5610 -0.1550
 9406SOL     OW39679   1.004   4.424   6.613 -0.1334 -0.1391  0.3945
 9406SOL    HW139680   0.994   4.462   6.700  0.8278 -0.4875  0.6600
 9406SOL    HW239681   0.939   4.354   6.618  1.2502 -1.2712  3.0568
 9407SOL     OW39682   0.388   3.803   3.251  0.1296 -0.0960  0.4411
 9407SOL    HW139683   0.449   3.737   3.219 -0.4970 -0.9472  0.9927
 9407SOL    HW239684   0.331   3.829   3.179  0.4296 -2.0371 -0.4801
 9408SOL     OW39685   2.326   3.377  17.517  0.7684  0.5993  0.2597
 9408SOL    HW139686   2.293   3.316  17.451  1.2390  1.9921 -1.2506
 9408SOL    HW239687   2.266   3.357  17.589 -0.4465 -1.1198 -1.2472
 9409SOL     OW39688   2.201   0.197   6.331 -0.3619 -0.3634  0.1390
 9409SOL    HW139689   2.220   0.235   6.245  0.6487 -0.2027  0.4275
 9409SOL    HW239690   2.289   0.184   6.368 -1.4914 -1.1093  2.5326
 9410SOL     OW39691   3.361   4.148  12.513 -0.1694  0.2781  0.3958
 9410SOL    HW139692   3.332   4.224  12.464  2.8410  0.1737 -1.5673
 9410SOL    HW239693   3.412   4.109  12.441 -0.1360 -0.4351  0.8010
 9411SOL     OW39694   1.563   3.071   7.397  0.2568  0.4017 -0.2750
 9411SOL    HW139695   1.482   3.071   7.346 -0.3783  0.1831  0.7402
 9411SOL    HW239696   1.590   2.980   7.384  1.4258  0.6357  0.5537
 9412SOL     OW39697   3.049   4.365   6.255  0.2118  0.1500 -0.1624
 9412SOL    HW139698   3.010   4.305   6.318  0.8389  0.9663  1.0016
 9412SOL    HW239699   2.965   4.396   6.220  0.1734 -1.4791 -1.5321
 9413SOL     OW39700   0.472   3.038   8.423 -0.2383  0.4089 -0.2407
 9413SOL    HW139701   0.489   3.093   8.346  1.0211 -0.3775 -0.5297
 9413SOL    HW239702   0.379   3.019   8.414  0.1861 -0.8686 -1.9111
 9414SOL     OW39703   2.274   3.959   9.451  0.4213 -0.0762  0.3404
 9414SOL    HW139704   2.309   4.045   9.474  0.3549  1.0147 -3.5650
 9414SOL    HW239705   2.223   3.984   9.374  1.6857  1.7642  0.1050
 9415SOL     OW39706   2.622   0.222   9.593  0.2641 -0.4427  0.4161
 9415SOL    HW139707   2.566   0.239   9.669  0.0576 -0.0637  0.1748
 9415SOL    HW239708   2.669   0.304   9.584 -0.0471 -0.3936 -0.7662
 9416SOL     OW39709   1.733   3.886   3.399  0.1430  0.4597 -0.0641
 9416SOL    HW139710   1.808   3.858   3.347 -0.8380 -1.8726 -0.2332
 9416SOL    HW239711   1.705   3.802   3.433  0.7046  0.1268 -0.4220
 9417SOL     OW39712   4.030   0.831   6.233 -0.5325 -0.2060 -0.1846
 9417SOL    HW139713   4.072   0.791   6.309 -1.3287 -0.9562 -0.1365
 9417SOL    HW239714   3.940   0.846   6.264 -0.4019  2.1588 -0.9305
 9418SOL     OW39715   2.938   3.189   5.736  0.0714  0.0807  0.3031
 9418SOL    HW139716   2.897   3.245   5.670  0.0983  1.5818  1.5770
 9418SOL    HW239717   3.002   3.252   5.769 -0.9634  0.4132  1.6714
 9419SOL     OW39718   2.647   4.079  13.568 -0.4564 -0.2701 -0.0649
 9419SOL    HW139719   2.675   4.122  13.487  1.0408  0.5465  0.8871
 9419SOL    HW239720   2.702   4.001  13.560 -1.6693 -1.2281  1.0403
 9420SOL     OW39721   0.549   1.731   6.565 -0.5165 -0.8136  0.0996
 9420SOL    HW139722   0.506   1.764   6.486 -1.0446  0.7055  1.0266
 9420SOL    HW239723   0.476   1.713   6.624  0.0994 -0.4241  0.9873
 9421SOL     OW39724   1.818   1.803   6.158  0.2079 -0.1280  0.2239
 9421SOL    HW139725   1.878   1.850   6.215  0.9088 -1.3702  0.5211
 9421SOL    HW239726   1.768   1.765   6.230  1.0348 -1.2648  0.2097
 9422SOL     OW39727   1.104   1.106   7.828  0.2242  0.0062 -0.2652
 9422SOL    HW139728   1.127   1.065   7.745  0.5891 -2.0905  0.8587
 9422SOL    HW239729   1.085   1.027   7.879 -0.9645  0.9575  0.7847
 9423SOL     OW39730   0.933   4.285   6.114 -0.1396 -0.3578 -0.2657
 9423SOL    HW139731   0.948   4.191   6.125  1.2523 -0.1974 -0.6997
 9423SOL    HW239732   0.937   4.315   6.205 -1.5021  0.5971 -0.5316
 9424SOL     OW39733   1.663   4.428   9.990 -0.0556  0.1909 -0.2759
 9424SOL    HW139734   1.755   4.455   9.993  0.1537 -0.5556  0.1902
 9424SOL    HW239735   1.654   4.366   9.918 -1.3314  1.6955 -1.3790
 9425SOL     OW39736   4.438   2.073  15.406 -0.1424  0.5140 -0.5680
 9425SOL    HW139737   4.459   2.001  15.346 -2.9328 -0.7226 -0.0413
 9425SOL    HW239738   4.429   2.029  15.490 -2.5520 -1.2129 -1.7168
 9426SOL     OW39739   1.455   4.282   2.160 -1.0537 -0.2737  0.3091
 9426SOL    HW139740   1.443   4.192   2.128  0.0066 -0.7680  1.2874
 9426SOL    HW239741   1.547   4.294   2.139 -0.8574 -1.2397  0.5938
 9427SOL     OW39742   4.030   3.755   3.511  0.6097 -0.3039  0.2053
 9427SOL    HW139743   4.116   3.732   3.474  1.0524  1.0965  0.3865
 9427SOL    HW239744   4.054   3.772   3.602  0.2879 -2.2843  0.6727
 9428SOL     OW39745   3.462   0.523   9.039  0.6908  0.2504 -0.2748
 9428SOL    HW139746   3.413   0.469   9.101 -1.0219  1.7689 -0.2968
 9428SOL    HW239747   3.395   0.535   8.972  2.9730  2.1198 -2.2047
 9429SOL     OW39748   2.554   1.170   3.750  0.4431  0.5723 -0.1232
 9429SOL    HW139749   2.523   1.260   3.752 -0.8350  0.0643  2.3307
 9429SOL    HW239750   2.647   1.189   3.737  1.0923 -2.9866 -0.5953
 9430SOL     OW39751   0.620   1.980   8.352  0.1264 -0.0482  0.4110
 9430SOL    HW139752   0.568   1.903   8.333  0.1965 -0.0297  0.1320
 9430SOL    HW239753   0.707   1.940   8.359 -1.4399 -2.8979  3.0723
 9431SOL     OW39754   4.557   2.756  15.685 -0.5979 -0.0962 -0.2533
 9431SOL    HW139755   4.611   2.807  15.625  1.1765  0.5771  1.8989
 9431SOL    HW239756   4.580   2.668  15.654 -2.2060  0.2872 -2.5692
 9432SOL     OW39757   3.196   0.126  10.913  0.1048  0.8889 -0.2768
 9432SOL    HW139758   3.145   0.125  10.832  0.7484 -0.0805 -0.6744
 9432SOL    HW239759   3.257   0.052  10.917  0.0084  0.8617  0.6256
 9433SOL     OW39760   2.176   3.014   5.720 -0.6531  0.2932  0.2573
 9433SOL    HW139761   2.165   2.919   5.718  0.5995  0.0837  3.4249
 9433SOL    HW239762   2.087   3.050   5.727 -0.5011  0.8309 -0.6019
 9434SOL     OW39763   0.045   4.355   3.204 -0.1932  0.5113 -0.3050
 9434SOL    HW139764   4.688   4.314   3.237  0.1795  1.5872  1.9132
 9434SOL    HW239765   0.080   4.391   3.286  0.4896 -0.8278  0.0035
 9435SOL     OW39766   3.685   1.818   4.215 -0.2198  0.5133  0.1321
 9435SOL    HW139767   3.682   1.878   4.289 -4.0428 -1.7816  1.8836
 9435SOL    HW239768   3.748   1.756   4.252 -0.3615  1.2645  1.6036
 9436SOL     OW39769   3.845   4.484   7.820  0.7977 -0.4136  0.0641
 9436SOL    HW139770   3.788   4.485   7.896  1.3015 -0.9054  0.4447
 9436SOL    HW239771   3.923   4.443   7.857  0.3822  1.2429  2.7242
 9437SOL     OW39772   1.101   3.660   4.601  0.0612 -0.1398 -0.2537
 9437SOL    HW139773   1.145   3.578   4.580 -1.1068 -0.8387  0.0473
 9437SOL    HW239774   1.108   3.706   4.517 -0.9781  1.2350  0.4175
 9438SOL     OW39775   3.084   3.185   2.398  0.4251 -0.7337 -0.1443
 9438SOL    HW139776   3.026   3.214   2.468  1.3606  0.9906 -0.0822
 9438SOL    HW239777   3.162   3.214   2.445  0.7520 -0.7229 -0.6828
 9439SOL     OW39778   1.315   2.991  16.428  0.2860 -0.1893 -0.1893
 9439SOL    HW139779   1.313   2.905  16.468 -0.7777 -0.1252 -0.1027
 9439SOL    HW239780   1.343   2.973  16.338 -0.9457  0.1228 -0.6398
 9440SOL     OW39781   1.989   3.194  15.668  0.6067 -0.3697  0.3904
 9440SOL    HW139782   1.988   3.270  15.726  1.8322  0.0799 -0.1674
 9440SOL    HW239783   1.905   3.197  15.623  0.9753 -0.9222 -0.3189
 9441SOL     OW39784   1.391   2.567   6.124 -0.3406  0.4649 -0.3914
 9441SOL    HW139785   1.317   2.624   6.103  0.6004  2.3047  1.2121
 9441SOL    HW239786   1.369   2.483   6.084 -0.2807  0.8722 -1.2704
 9442SOL     OW39787   2.583   4.025   9.994  0.0319  0.3467 -0.3875
 9442SOL    HW139788   2.585   4.056  10.085 -1.8404  0.2329 -0.3083
 9442SOL    HW239789   2.635   3.945   9.996 -1.4424 -0.6142 -0.3493
 9443SOL     OW39790   1.989   3.293   7.603 -0.2169  0.2321  0.4450
 9443SOL    HW139791   2.022   3.204   7.587  2.8487  0.8768  3.1524
 9443SOL    HW239792   2.070   3.340   7.625  0.2169 -0.7927  1.0096
 9444SOL     OW39793   1.052   2.123   3.409  0.1445  0.5123  0.3468
 9444SOL    HW139794   0.958   2.135   3.418  0.2323  2.7910 -1.7824
 9444SOL    HW239795   1.075   2.158   3.495 -1.9606  3.3974 -0.2443
 9445SOL     OW39796   0.437   1.383  12.393  0.2080 -0.1058  0.5039
 9445SOL    HW139797   0.419   1.292  12.369 -0.9420  0.4536 -0.7426
 9445SOL    HW239798   0.400   1.379  12.481 -0.2786  1.3920  0.3733
 9446SOL     OW39799   1.672   1.314   2.404  0.2168  0.2298  0.1009
 9446SOL    HW139800   1.583   1.333   2.434  0.3947 -1.4339  1.6765
 9446SOL    HW239801   1.702   1.255   2.473  0.0519  0.6181  0.5056
 9447SOL     OW39802   1.297   0.164   3.982  0.4424  0.0581  0.0508
 9447SOL    HW139803   1.353   0.240   3.995 -0.3986  0.8355 -0.8390
 9447SOL    HW239804   1.297   0.165   3.886  0.3253  1.5778  0.0652
 9448SOL     OW39805   4.410   4.055  10.440 -0.2528 -0.0279 -0.6780
 9448SOL    HW139806   4.446   4.008  10.515 -0.5019  0.4791 -0.2369
 9448SOL    HW239807   4.489   4.106  10.421  0.5128 -0.0494  2.4074
 9449SOL     OW39808   1.895   2.382  14.149 -0.5951 -0.0467  0.3122
 9449SOL    HW139809   1.857   2.344  14.228 -0.4115 -0.5451  0.1602
 9449SOL    HW239810   1.823   2.372  14.087 -1.3844 -1.6174  1.4667
 9450SOL     OW39811   0.632   0.925   7.206 -0.0297  0.0252 -0.1922
 9450SOL    HW139812   0.586   0.846   7.237  2.4151 -0.7316  1.5687
 9450SOL    HW239813   0.682   0.891   7.132 -1.1061  0.2421 -1.0235
 9451SOL     OW39814   2.741   3.546   2.715  0.6365  0.0375  0.2135
 9451SOL    HW139815   2.729   3.640   2.704  2.4932  0.1117 -1.2837
 9451SOL    HW239816   2.795   3.522   2.639  0.6750  0.2733  0.1667
 9452SOL     OW39817   0.100   2.786   6.031 -0.0311  0.6896  0.5837
 9452SOL    HW139818   0.088   2.829   6.116 -0.2263  1.8078 -0.0040
 9452SOL    HW239819   0.188   2.813   6.007 -0.2482  0.6491 -0.2466
 9453SOL     OW39820   0.408   2.354  13.089  0.1543  0.5999  0.3886
 9453SOL    HW139821   0.354   2.416  13.138 -2.1117 -1.1686  0.1259
 9453SOL    HW239822   0.394   2.271  13.133  1.6277 -0.2342 -0.7238
 9454SOL     OW39823   3.939   1.508   9.466 -0.5849 -0.0101  0.1101
 9454SOL    HW139824   3.914   1.592   9.429 -2.2678 -1.0459 -1.1295
 9454SOL    HW239825   4.025   1.487   9.429  0.3955 -0.0688  2.4208
 9455SOL     OW39826   0.715   3.158   1.492  0.2999 -0.2234  0.1892
 9455SOL    HW139827   0.744   3.089   1.432  1.7903  1.2973 -0.8207
 9455SOL    HW239828   0.652   3.104   1.540  1.1571  0.9431  2.6450
 9456SOL     OW39829   4.609   3.107  17.303 -0.2638 -0.0840  0.4423
 9456SOL    HW139830   4.653   3.185  17.269 -0.2817 -0.3577 -0.2164
 9456SOL    HW239831   4.553   3.148  17.370 -0.9353 -1.2509  0.5949
 9457SOL     OW39832   2.645   4.478   7.594 -0.1721  0.2209  0.6395
 9457SOL    HW139833   2.648   4.554   7.652  1.7472  0.7234 -0.1144
 9457SOL    HW239834   2.732   4.467   7.555 -0.7432  0.0551 -0.6092
 9458SOL     OW39835   4.511   0.221   2.711  0.0973 -0.4118 -0.5996
 9458SOL    HW139836   4.581   0.240   2.774 -1.3520  2.4024  0.2036
 9458SOL    HW239837   4.561   0.166   2.651  2.6328 -0.4173  1.5017
 9459SOL     OW39838   4.444   0.109   2.015  0.2425  0.2505 -0.1569
 9459SOL    HW139839   4.365   0.161   2.004 -0.1617 -0.0922  1.1344
 9459SOL    HW239840   4.500   0.164   2.070 -1.7487 -2.2167  4.3533
 9460SOL     OW39841   4.376   2.304   7.766 -0.2004 -0.3613  0.0383
 9460SOL    HW139842   4.360   2.281   7.858 -2.4482 -0.6164 -0.4149
 9460SOL    HW239843   4.448   2.360   7.793  0.7341 -1.0788 -0.9916
 9461SOL     OW39844   0.639   1.600   3.871 -0.1949 -0.9103  0.0694
 9461SOL    HW139845   0.681   1.548   3.802  0.9004  0.1237 -0.0452
 9461SOL    HW239846   0.626   1.685   3.828  1.7951  0.0785  1.3959
 9462SOL     OW39847   0.350   1.647   6.713  0.2788 -0.0659  0.3889
 9462SOL    HW139848   0.375   1.557   6.731 -1.5683 -0.7195 -0.3148
 9462SOL    HW239849   0.259   1.656   6.685  0.4736  1.6637  0.2909
 9463SOL     OW39850   2.945   2.930  17.570  0.7472  0.2568  0.1919
 9463SOL    HW139851   2.870   2.913  17.627  1.7613 -1.4461  1.0154
 9463SOL    HW239852   3.007   2.866  17.605 -0.5760 -0.8484  0.5300
 9464SOL     OW39853   3.074   3.071  15.540  0.1100 -0.1940  0.5164
 9464SOL    HW139854   3.122   3.145  15.577 -0.0615  0.0625  0.2304
 9464SOL    HW239855   3.137   3.002  15.560  1.8369  1.7070  1.6244
 9465SOL     OW39856   2.935   3.474   0.186 -0.7318 -0.1446 -0.1685
 9465SOL    HW139857   3.016   3.455   0.140  0.3950  3.0590  0.5089
 9465SOL    HW239858   2.876   3.502   0.116 -0.9429  0.9976  0.4575
 9466SOL     OW39859   2.974   0.955   3.380 -0.0842  0.3945  0.3256
 9466SOL    HW139860   3.009   0.970   3.468  0.9183 -0.2661  0.0463
 9466SOL    HW239861   2.931   1.039   3.366 -1.8877 -0.7596 -1.0520
 9467SOL     OW39862   3.460   1.758   4.094 -0.2334  0.3826 -0.2651
 9467SOL    HW139863   3.437   1.677   4.140  2.3973 -1.4853 -2.2476
 9467SOL    HW239864   3.549   1.777   4.122  0.5086 -0.5704 -1.9770
 9468SOL     OW39865   2.980   1.751   6.083 -0.3094 -0.1075  0.1664
 9468SOL    HW139866   2.914   1.765   6.015 -0.8895 -0.3720  0.6862
 9468SOL    HW239867   3.006   1.842   6.101 -0.4840  0.0576 -0.3929
 9469SOL     OW39868   2.656   3.213   7.430 -0.6300 -0.2381  0.3888
 9469SOL    HW139869   2.660   3.134   7.377  0.7290 -0.5024  0.8885
 9469SOL    HW239870   2.743   3.225   7.468 -1.1866  1.4652  1.1580
 9470SOL     OW39871   4.640   1.318   7.588 -0.1016 -0.0633 -0.3441
 9470SOL    HW139872   4.623   1.300   7.680 -1.6863 -0.9632 -0.8179
 9470SOL    HW239873   0.000   1.270   7.585 -0.4158 -0.4595 -3.2127
 9471SOL     OW39874   3.151   4.157   5.006 -0.8333  0.5738  0.0658
 9471SOL    HW139875   3.240   4.129   5.023 -1.0784 -0.3914 -0.2401
 9471SOL    HW239876   3.130   4.098   4.934  1.2641  0.2589 -0.2661
 9472SOL     OW39877   4.052   2.484  13.740 -0.2759 -0.0909 -0.0203
 9472SOL    HW139878   3.985   2.431  13.698  1.4085 -3.7360  1.8951
 9472SOL    HW239879   4.004   2.555  13.783  0.2038 -1.5687  3.0092
 9473SOL     OW39880   0.168   4.617  12.045 -0.1047 -0.0946  0.3591
 9473SOL    HW139881   0.257   4.594  12.072  0.7053  2.0173 -0.4853
 9473SOL    HW239882   0.111   4.547  12.076 -0.3480  0.2402  0.6647
 9474SOL     OW39883   1.943   1.518   6.835  0.3752 -0.1131 -1.0682
 9474SOL    HW139884   1.921   1.483   6.921  0.6118  4.3027  0.7571
 9474SOL    HW239885   2.027   1.563   6.846  0.8991 -1.0976 -1.0224
 9475SOL     OW39886   3.194   0.053   9.862 -0.3619  0.1319  0.6507
 9475SOL    HW139887   3.133   0.127   9.866 -1.2451 -0.7427  3.4339
 9475SOL    HW239888   3.229   0.056   9.951  1.6931 -1.0877 -0.1250
 9476SOL     OW39889   0.382   2.371  12.044 -0.3196  0.2034  0.3048
 9476SOL    HW139890   0.332   2.300  12.004  1.5673 -0.6995 -0.4278
 9476SOL    HW239891   0.373   2.354  12.138 -1.9044  1.8109  0.4535
 9477SOL     OW39892   3.807   4.040   3.010 -0.1757  0.2512  0.1118
 9477SOL    HW139893   3.837   4.114   2.957  0.9827  0.2362  0.7613
 9477SOL    HW239894   3.781   4.077   3.095  0.5572 -0.3615  0.6000
 9478SOL     OW39895   1.983   0.066   9.998  0.2393 -0.2323 -0.3473
 9478SOL    HW139896   1.917   0.111  10.051  0.0068 -0.3357 -0.5490
 9478SOL    HW239897   2.048   0.066  10.068 -0.6742 -0.9591  0.4990
 9479SOL     OW39898   3.313   4.710  10.121 -0.3786 -0.1068 -0.0291
 9479SOL    HW139899   3.246   4.667  10.173 -0.2929  1.9226  1.7106
 9479SOL    HW239900   3.361   0.030  10.191  0.3869  1.7988 -1.7141
 9480SOL     OW39901   3.945   0.488   1.883  0.2465  0.2756 -0.3660
 9480SOL    HW139902   4.041   0.484   1.884  0.3243  2.0407 -0.8548
 9480SOL    HW239903   3.927   0.455   1.971 -2.8386 -0.6161 -1.3672
 9481SOL     OW39904   2.351   4.472   2.404 -0.6927 -0.6280  0.1998
 9481SOL    HW139905   2.337   4.392   2.453  2.5497 -0.4054  1.5010
 9481SOL    HW239906   2.303   4.531   2.462 -1.5818 -0.8221 -0.3432
 9482SOL     OW39907   0.393   2.640   5.278 -0.0549  0.3870 -0.2526
 9482SOL    HW139908   0.323   2.693   5.240 -0.5171  0.3254  0.5265
 9482SOL    HW239909   0.407   2.689   5.358  1.6330  1.4360 -1.1782
 9483SOL     OW39910   3.540   2.296  15.931  0.4977 -0.4353  0.6616
 9483SOL    HW139911   3.631   2.311  15.906  0.0612 -0.0124 -0.6423
 9483SOL    HW239912   3.525   2.379  15.977 -0.4809 -0.6278  0.7025
 9484SOL     OW39913   4.692   3.228  17.599  0.0553 -0.0278 -0.2791
 9484SOL    HW139914   4.605   3.190  17.613 -0.4521  1.4877  0.7021
 9484SOL    HW239915   4.663   3.319  17.588 -3.0467 -0.9113  0.5608
 9485SOL     OW39916   1.986   1.825   8.803 -0.2079 -0.5446  0.2076
 9485SOL    HW139917   1.939   1.881   8.864  1.5906 -1.6175  2.5677
 9485SOL    HW239918   1.916   1.776   8.760  1.6060 -0.4770 -2.7788
 9486SOL     OW39919   2.235   0.934   1.023  0.8880 -0.1776  0.3407
 9486SOL    HW139920   2.203   0.900   0.940  0.7676  0.4856  0.1185
 9486SOL    HW239921   2.231   1.028   1.006  2.5826 -0.2282 -0.3544
 9487SOL     OW39922   2.947   2.195   2.238  0.2104 -0.3453 -0.1846
 9487SOL    HW139923   2.962   2.287   2.218  1.7703 -1.0391 -2.1383
 9487SOL    HW239924   2.994   2.184   2.321 -2.0245  0.8844  1.2398
 9488SOL     OW39925   1.037   4.696   6.136 -0.7207  0.3074 -0.2725
 9488SOL    HW139926   0.986   0.044   6.174  0.1242  0.8307 -0.1169
 9488SOL    HW239927   1.125   0.009   6.148 -0.6812  0.1320 -0.0525
 9489SOL     OW39928   3.558   1.710   5.040  0.1332  0.1209  0.3171
 9489SOL    HW139929   3.625   1.777   5.050 -0.2805  0.8390 -1.6297
 9489SOL    HW239930   3.616   1.642   5.005  1.6751  2.2312 -1.1667
 9490SOL     OW39931   2.247   3.074  10.346 -0.1796 -0.2515 -0.2416
 9490SOL    HW139932   2.215   2.985  10.361  0.0744 -0.4892 -1.1149
 9490SOL    HW239933   2.247   3.079  10.251  1.3791 -0.9554 -0.2836
 9491SOL     OW39934   2.585   2.792   9.210  0.0446 -0.3517 -0.1151
 9491SOL    HW139935   2.670   2.772   9.249 -0.1009  2.1401  1.4798
 9491SOL    HW239936   2.533   2.712   9.218 -5.0333  2.7826 -2.2063
 9492SOL     OW39937   2.376   1.854   0.191  0.1704  0.2961  0.4086
 9492SOL    HW139938   2.427   1.775   0.170 -0.4256 -0.0265  0.1883
 9492SOL    HW239939   2.437   1.914   0.147  0.4259 -2.7721 -3.4436
 9493SOL     OW39940   2.021   2.880   6.212 -0.1708 -0.2355 -0.4307
 9493SOL    HW139941   2.113   2.861   6.193  0.1955 -0.7109  1.8361
 9493SOL    HW239942   2.029   2.869   6.307 -1.1035 -2.5415 -0.6258
 9494SOL     OW39943   1.004   1.387   0.512 -0.6948 -0.3470  1.1659
 9494SOL    HW139944   0.950   1.465   0.500  0.4062  0.2446  0.0429
 9494SOL    HW239945   1.032   1.395   0.603  2.4538  1.1234  0.0627
 9495SOL     OW39946   1.703   4.566   9.544  0.4823  0.3129  0.7722
 9495SOL    HW139947   1.706   4.517   9.463  0.6521  2.7882 -0.7227
 9495SOL    HW239948   1.768   4.521   9.597  0.2938 -1.9728 -0.9762
 9496SOL     OW39949   4.647   2.285  14.774  0.2457 -0.1425 -0.2899
 9496SOL    HW139950   4.603   2.357  14.818 -1.5652 -0.8492 -0.9298
 9496SOL    HW239951   4.592   2.213  14.806 -0.3381 -0.6208 -2.3413
 9497SOL     OW39952   4.101   3.175   5.031  0.0117  0.4647  0.1420
 9497SOL    HW139953   4.033   3.148   4.970 -0.7987  1.1591  0.7476
 9497SOL    HW239954   4.081   3.117   5.105  3.2544  0.7068  1.2302
 9498SOL     OW39955   4.532   1.884   2.572  0.0505  0.0761  0.3897
 9498SOL    HW139956   4.495   1.828   2.504 -2.6183  2.3478 -0.0455
 9498SOL    HW239957   4.515   1.838   2.654 -0.4163  2.2257  1.5113
 9499SOL     OW39958   1.508   2.450  12.002 -0.4914 -0.6659 -0.0256
 9499SOL    HW139959   1.442   2.513  12.027  0.7454  0.3746  0.5991
 9499SOL    HW239960   1.456   2.394  11.944 -1.5750  0.7105 -0.3643
 9500SOL     OW39961   2.421   2.341  13.307  0.4672 -0.4435  0.0010
 9500SOL    HW139962   2.458   2.311  13.224 -2.5215 -0.5984 -1.2706
 9500SOL    HW239963   2.329   2.345  13.281  0.5463  2.0842  0.0787
 9501SOL     OW39964   1.349   2.191   7.684  0.6158  0.2941  0.3857
 9501SOL    HW139965   1.402   2.178   7.762 -0.1018 -0.1118  0.8053
 9501SOL    HW239966   1.268   2.154   7.719  1.3196  0.3970  2.1056
 9502SOL     OW39967   3.105   0.163  16.733  0.1321  0.4660 -0.5406
 9502SOL    HW139968   3.146   0.183  16.817  0.1172 -0.7409 -0.2557
 9502SOL    HW239969   3.038   0.099  16.757  0.5332 -0.3187 -1.5540
 9503SOL     OW39970   0.872   0.915  17.136  0.0723 -0.3947  0.2362
 9503SOL    HW139971   0.889   0.837  17.188 -1.7807 -0.2936  1.0140
 9503SOL    HW239972   0.785   0.888  17.107  0.3391 -0.6862 -0.2904
 9504SOL     OW39973   3.756   1.106  13.957 -0.2818 -0.0155 -0.3181
 9504SOL    HW139974   3.683   1.147  14.003 -1.6433 -0.1358 -2.3266
 9504SOL    HW239975   3.776   1.176  13.895 -1.1937 -0.2296 -0.8690
 9505SOL     OW39976   4.356   4.489   7.097  0.3464 -0.4712 -0.3202
 9505SOL    HW139977   4.288   4.452   7.042  0.3615  1.2637 -1.5233
 9505SOL    HW239978   4.353   4.438   7.178 -0.0700 -2.0475 -1.3283
 9506SOL     OW39979   0.548   3.152  10.444  0.0042 -0.2696  0.6033
 9506SOL    HW139980   0.567   3.163  10.538  0.1493  0.5372  0.4825
 9506SOL    HW239981   0.471   3.208  10.432  0.4784  0.0504 -0.9281
 9507SOL     OW39982   2.181   2.365  11.158  0.0513  0.2262 -0.4897
 9507SOL    HW139983   2.242   2.438  11.163 -2.4621  2.4251 -2.0641
 9507SOL    HW239984   2.154   2.363  11.066  1.7027  0.2838 -0.9739
 9508SOL     OW39985   3.419   3.139   3.907 -0.2241 -0.0234  0.0810
 9508SOL    HW139986   3.452   3.229   3.913  0.0638 -0.2769  2.1263
 9508SOL    HW239987   3.482   3.099   3.847 -1.9455 -1.8468 -0.5131
 9509SOL     OW39988   1.834   2.652   6.124 -0.4242 -0.1911 -0.1008
 9509SOL    HW139989   1.874   2.739   6.116 -2.2142  1.0145  3.8001
 9509SOL    HW239990   1.881   2.601   6.058  0.1502  0.5851 -0.2959
 9510SOL     OW39991   1.886   0.272   5.718 -0.4515 -0.1038  0.0357
 9510SOL    HW139992   1.884   0.227   5.634 -0.6982 -0.5733  0.2968
 9510SOL    HW239993   1.808   0.231   5.756 -0.8702  2.5917  2.1376
 9511SOL     OW39994   0.671   2.596   9.490  0.3511 -0.1422 -0.5240
 9511SOL    HW139995   0.620   2.519   9.465 -1.8436  0.8793  0.8079
 9511SOL    HW239996   0.625   2.613   9.572  0.7260 -0.5027 -0.2405
 9512SOL     OW39997   1.661   4.655  16.342  0.3918  0.1551  0.2679
 9512SOL    HW139998   1.658   0.007  16.283  0.4404  1.0161  1.3434
 9512SOL    HW239999   1.599   4.683  16.410 -0.1099  0.1298 -0.1748
 9513SOL     OW40000   3.578   0.264   9.265  0.3411  0.1839  0.3631
 9513SOL    HW140001   3.541   0.332   9.322 -0.5797  2.1282 -2.5128
 9513SOL    HW240002   3.629   0.316   9.203  2.2339  0.0294  1.7926
 9514SOL     OW40003   4.039   3.885   4.997 -0.4721 -0.4816  0.7378
 9514SOL    HW140004   4.116   3.935   5.021 -0.1110 -2.2648  3.3618
 9514SOL    HW240005   4.007   3.942   4.927  2.0978  0.2068  0.1152
 9515SOL     OW40006   1.757   1.422  13.326 -0.1935 -0.1309  0.3578
 9515SOL    HW140007   1.685   1.416  13.264 -0.6971 -0.2811  0.9515
 9515SOL    HW240008   1.723   1.494  13.379 -0.6501  0.0191 -0.1450
 9516SOL     OW40009   1.811   1.198   4.815  0.6742  0.3650 -0.6016
 9516SOL    HW140010   1.855   1.134   4.871 -1.1626  0.6562  1.1908
 9516SOL    HW240011   1.891   1.234   4.777  1.2785 -1.5355 -1.1581
 9517SOL     OW40012   1.209   4.026   6.328  0.3097  0.4413  0.8108
 9517SOL    HW140013   1.166   4.016   6.413 -1.7938 -3.3882 -0.6779
 9517SOL    HW240014   1.187   4.119   6.325  1.6111  0.7557  0.8421
 9518SOL     OW40015   2.923   4.308   1.597 -0.3774  0.6059  0.4651
 9518SOL    HW140016   3.018   4.324   1.601 -0.6319  2.1944  0.2878
 9518SOL    HW240017   2.909   4.218   1.624 -0.8715  1.0094  1.5315
 9519SOL     OW40018   1.545   1.520  14.283  0.3193 -0.3612  0.0689
 9519SOL    HW140019   1.484   1.576  14.330  1.0407  2.0019 -1.8009
 9519SOL    HW240020   1.486   1.485  14.216  0.3817  1.2918 -0.8518
 9520SOL     OW40021   1.550   2.626   1.983  0.1359  0.3438 -0.2670
 9520SOL    HW140022   1.546   2.632   1.887  1.3794 -1.5061 -0.4263
 9520SOL    HW240023   1.643   2.645   1.998 -1.0848  3.3054  3.5492
 9521SOL     OW40024   0.585   4.616   5.412 -0.4970 -0.3616 -0.2341
 9521SOL    HW140025   0.577   4.535   5.362 -1.4049  1.1289 -2.4803
 9521SOL    HW240026   0.665   4.610   5.465 -1.2624 -0.2866  0.9385
 9522SOL     OW40027   4.613   1.795   6.096 -0.1865  0.0972  0.3512
 9522SOL    HW140028   4.681   1.748   6.048  0.1646  0.3640  0.5908
 9522SOL    HW240029   4.597   1.735   6.170  0.4258  1.0558  1.2502
 9523SOL     OW40030   0.730   4.154   5.480  0.5386  0.1270 -0.0007
 9523SOL    HW140031   0.772   4.225   5.528  0.5035  0.0880  0.0865
 9523SOL    HW240032   0.766   4.083   5.532  1.1888  0.2008 -0.3432
 9524SOL     OW40033   2.719   4.643   6.015 -0.2232 -0.6277 -0.3307
 9524SOL    HW140034   2.697   4.664   6.106  0.5054  0.6239 -0.4541
 9524SOL    HW240035   2.669   4.710   5.969  1.7802  2.3874  1.9583
 9525SOL     OW40036   2.769   4.087   9.001  0.1381  0.3716  0.4952
 9525SOL    HW140037   2.695   4.147   9.005 -0.4876 -0.4120  0.7976
 9525SOL    HW240038   2.844   4.143   9.021  0.1241  0.6181 -0.1649
 9526SOL     OW40039   1.483   3.990   7.860 -0.6012  0.5524  0.1109
 9526SOL    HW140040   1.458   3.912   7.810  1.3291 -1.8421  2.9099
 9526SOL    HW240041   1.455   4.058   7.798  0.9155  0.1361 -1.0122
 9527SOL     OW40042   4.406   3.798   1.653 -0.2401 -0.2160 -0.4411
 9527SOL    HW140043   4.348   3.789   1.578 -1.5643 -2.0494  0.8080
 9527SOL    HW240044   4.493   3.792   1.615 -0.0007 -0.5739  0.1775
 9528SOL     OW40045   2.674   1.352   2.604 -0.0955 -0.2409  0.0140
 9528SOL    HW140046   2.748   1.402   2.635 -0.1232 -0.2368  0.0736
 9528SOL    HW240047   2.639   1.406   2.533 -0.0993 -0.1292  0.1028
 9529SOL     OW40048   2.352   3.996  13.571  0.5354  0.2521 -0.1847
 9529SOL    HW140049   2.411   4.055  13.618  0.5169  0.4085 -0.3569
 9529SOL    HW240050   2.375   4.021  13.481  0.9426 -0.5668 -0.3190
 9530SOL     OW40051   1.055   1.483  14.616 -0.0701 -0.5624  0.6001
 9530SOL    HW140052   1.097   1.431  14.684  1.8593 -1.8803 -1.5924
 9530SOL    HW240053   1.068   1.572  14.649 -1.2792 -0.0983 -0.1535
 9531SOL     OW40054   2.800   1.409   5.135  0.2409  0.5639  0.5038
 9531SOL    HW140055   2.889   1.409   5.170  0.8774  0.2604 -1.1233
 9531SOL    HW240056   2.789   1.322   5.096  0.3971  0.2811  1.0979
 9532SOL     OW40057   0.290   3.938   5.538  0.5698  0.4441 -0.3454
 9532SOL    HW140058   0.252   3.868   5.591  1.7248 -0.8438 -1.2245
 9532SOL    HW240059   0.279   4.015   5.593 -1.5938 -0.1875  0.0974
 9533SOL     OW40060   1.235   2.543   3.849 -0.0725 -0.4998  0.1855
 9533SOL    HW140061   1.274   2.552   3.935  0.1523  0.7222 -0.0459
 9533SOL    HW240062   1.188   2.459   3.851 -0.8829 -0.0304  1.3630
 9534SOL     OW40063   3.305   0.906  15.926 -0.1933 -0.6593 -0.0778
 9534SOL    HW140064   3.231   0.872  15.977 -1.0195  0.2302 -0.6781
 9534SOL    HW240065   3.376   0.853  15.963 -0.5195 -0.1987  1.2045
 9535SOL     OW40066   2.793   0.565   5.361 -0.3159  0.0034  0.3760
 9535SOL    HW140067   2.773   0.626   5.431  1.1710 -0.2697  1.0404
 9535SOL    HW240068   2.886   0.555   5.382 -0.3708  0.8994  1.0488
 9536SOL     OW40069   3.410   1.697   0.633  0.0519  0.3375  0.2929
 9536SOL    HW140070   3.406   1.792   0.621  1.9196  0.4330  0.4554
 9536SOL    HW240071   3.321   1.681   0.666 -0.4560 -0.6165 -1.5439
 9537SOL     OW40072   4.265   3.630   6.791 -0.4576  0.4298 -0.3489
 9537SOL    HW140073   4.316   3.554   6.763 -1.5604 -1.7395  3.5136
 9537SOL    HW240074   4.185   3.585   6.818 -0.1045  0.5741  0.9549
 9538SOL     OW40075   2.522   2.128   4.611 -0.0800 -0.0476  0.3524
 9538SOL    HW140076   2.451   2.079   4.568  0.3698  1.7714 -2.4957
 9538SOL    HW240077   2.546   2.078   4.689 -0.4749  2.3158  1.9927
 9539SOL     OW40078   1.564   4.136   4.288  0.4454  0.3897 -0.2315
 9539SOL    HW140079   1.471   4.159   4.283  0.3502  0.2038  0.7681
 9539SOL    HW240080   1.574   4.056   4.339 -1.8076  1.2709  1.5904
 9540SOL     OW40081   3.371   1.924  17.420  0.5411  0.8637  0.1785
 9540SOL    HW140082   3.342   1.947  17.508  0.7174  1.5114  0.0666
 9540SOL    HW240083   3.339   2.003  17.377  1.5325  0.9915 -0.3179
 9541SOL     OW40084   4.108   3.395   1.568 -0.4428 -0.3013 -0.7567
 9541SOL    HW140085   4.064   3.327   1.518 -0.9936 -0.9652  0.6442
 9541SOL    HW240086   4.134   3.456   1.499 -1.4831  0.9682 -0.0340
 9542SOL     OW40087   2.007   1.367   8.539 -0.3939 -0.2343  0.5411
 9542SOL    HW140088   1.981   1.328   8.622 -0.2612  1.5853  1.4474
 9542SOL    HW240089   1.945   1.440   8.529 -0.5552 -0.3952  0.3619
 9543SOL     OW40090   3.558   3.950  10.654  0.1800 -0.3870  0.7529
 9543SOL    HW140091   3.496   3.953  10.727 -1.8448 -0.9482 -0.9627
 9543SOL    HW240092   3.611   4.029  10.668 -1.9199  1.2167 -0.3686
 9544SOL     OW40093   0.851   2.033   9.106  0.3372 -0.7519  0.0431
 9544SOL    HW140094   0.807   1.997   9.183 -0.9606  1.2292  0.2244
 9544SOL    HW240095   0.932   1.981   9.105  0.0952 -1.1497  1.6734
 9545SOL     OW40096   4.526   3.942   7.928  0.0128 -0.7446  0.0198
 9545SOL    HW140097   4.580   3.901   7.996  0.8315  2.1280  1.0762
 9545SOL    HW240098   4.593   3.967   7.864  0.3588 -2.4199 -0.2866
 9546SOL     OW40099   1.889   1.288  15.670  0.1181  0.7823 -0.1457
 9546SOL    HW140100   1.915   1.253  15.584 -1.5066  0.5285 -0.5383
 9546SOL    HW240101   1.969   1.337  15.688  0.3010 -0.0390  1.2471
 9547SOL     OW40102   2.771   3.256   4.686 -0.1490  0.1638  0.0989
 9547SOL    HW140103   2.778   3.162   4.701 -0.7939  0.2775  1.1351
 9547SOL    HW240104   2.676   3.264   4.674 -0.0088 -1.4035 -1.9156
 9548SOL     OW40105   0.580   3.580   9.890 -0.0330 -0.9227  0.5695
 9548SOL    HW140106   0.594   3.500   9.940 -2.8891 -1.9125 -0.1695
 9548SOL    HW240107   0.527   3.547   9.818  2.6685 -2.5535 -0.6511
 9549SOL     OW40108   0.663   3.374   6.319 -0.1497  0.2914  0.3883
 9549SOL    HW140109   0.639   3.420   6.238  2.0234 -0.7361 -0.8211
 9549SOL    HW240110   0.752   3.346   6.300 -0.5178 -0.6855  0.0885
 9550SOL     OW40111   2.689   2.700  15.828 -0.1187  0.5468 -0.9808
 9550SOL    HW140112   2.702   2.744  15.744 -1.0357  2.3399 -0.1949
 9550SOL    HW240113   2.716   2.771  15.886  1.9376 -0.6159 -0.5456
 9551SOL     OW40114   4.461   2.761   2.795  0.2542 -0.5146  0.1830
 9551SOL    HW140115   4.500   2.842   2.760  0.1090 -0.6181 -0.2130
 9551SOL    HW240116   4.542   2.720   2.825  0.6826 -1.3480 -2.1114
 9552SOL     OW40117   0.501   3.326   7.191 -0.1804 -0.2327  0.6800
 9552SOL    HW140118   0.484   3.273   7.114  0.2899  2.6940 -1.4449
 9552SOL    HW240119   0.419   3.320   7.241 -0.4250 -2.0440  0.0254
 9553SOL     OW40120   4.420   2.522  16.940 -0.3412 -0.2255 -0.0955
 9553SOL    HW140121   4.397   2.560  17.024  1.7182 -1.7833  1.1914
 9553SOL    HW240122   4.489   2.586  16.925 -0.6978  0.0034 -0.7852
 9554SOL     OW40123   2.027   1.501   3.708  0.4772 -0.3268 -0.4777
 9554SOL    HW140124   1.979   1.496   3.791  0.4635  2.8779 -0.2805
 9554SOL    HW240125   1.975   1.572   3.671 -1.7512 -1.3753  0.6710
 9555SOL     OW40126   4.605   3.527   8.115  0.1336 -0.4797  0.7101
 9555SOL    HW140127   4.538   3.582   8.074  0.6541  0.1420  0.6915
 9555SOL    HW240128   4.634   3.581   8.189 -1.5434 -0.0629  1.0652
 9556SOL     OW40129   2.126   4.370   5.321  0.0696  0.1080 -0.1238
 9556SOL    HW140130   2.119   4.367   5.416  0.3569 -1.6380 -0.1518
 9556SOL    HW240131   2.113   4.464   5.316 -1.0455 -0.0017  0.9147
 9557SOL     OW40132   2.864   2.535   8.794 -0.2394 -0.1810  0.1179
 9557SOL    HW140133   2.945   2.494   8.826 -0.5696 -0.4783  0.5651
 9557SOL    HW240134   2.811   2.545   8.872  0.6888  0.2953  0.6924
 9558SOL     OW40135   0.703   2.312   8.749 -0.0952  0.3890  0.3500
 9558SOL    HW140136   0.697   2.231   8.698 -1.6612  1.0725 -0.5526
 9558SOL    HW240137   0.719   2.288   8.840  2.4359 -2.7217 -0.8944
 9559SOL     OW40138   3.084   1.321   5.223  0.0567  0.0256 -0.0051
 9559SOL    HW140139   3.125   1.271   5.152 -0.5485 -0.5201  0.0306
 9559SOL    HW240140   3.148   1.391   5.234  0.6432 -0.8057  1.8407
 9560SOL     OW40141   3.620   0.749   8.747 -0.8038 -0.1276  0.0092
 9560SOL    HW140142   3.612   0.655   8.730  0.4971  0.1685 -2.2694
 9560SOL    HW240143   3.665   0.784   8.670  1.9011 -0.9775  1.2154
 9561SOL     OW40144   0.034   3.546   7.178  0.1129  0.0473 -0.0130
 9561SOL    HW140145   4.700   3.517   7.107  1.0629 -0.5769 -0.5308
 9561SOL    HW240146   0.117   3.561   7.133  1.6765 -0.6362  2.6395
 9562SOL     OW40147   3.710   1.558   3.560 -0.0064 -0.5374 -0.3546
 9562SOL    HW140148   3.638   1.575   3.499 -0.3256 -0.2615  0.0976
 9562SOL    HW240149   3.744   1.496   3.495  2.0623 -1.5249  1.6940
 9563SOL     OW40150   4.433   0.180   3.339 -0.4440 -0.1671 -0.0064
 9563SOL    HW140151   4.517   0.201   3.380 -0.5543  2.2770 -1.0776
 9563SOL    HW240152   4.442   0.193   3.245 -0.5147  0.5746  0.0914
 9564SOL     OW40153   1.840   4.264  10.820  0.4761 -0.2739 -0.2301
 9564SOL    HW140154   1.834   4.193  10.756 -0.9103  0.7077 -1.1971
 9564SOL    HW240155   1.791   4.236  10.898 -2.5694  3.1673 -0.8587
 9565SOL     OW40156   0.126   4.609   5.031  0.1840 -0.1941 -0.1286
 9565SOL    HW140157   0.167   4.529   5.065  1.3884  1.0059  1.2571
 9565SOL    HW240158   0.198   4.672   5.039 -0.3598  0.4383 -0.2895
 9566SOL     OW40159   2.357   2.938   8.943  0.1713  0.0415  0.0528
 9566SOL    HW140160   2.373   2.971   9.031  0.9048 -0.0287 -0.0483
 9566SOL    HW240161   2.447   2.933   8.909  0.5624 -0.0020  1.0981
 9567SOL     OW40162   0.539   2.946   2.475 -0.0542  0.0048  0.0316
 9567SOL    HW140163   0.568   2.858   2.497 -1.1907 -0.1233  1.0148
 9567SOL    HW240164   0.620   2.991   2.453  0.7872 -0.9719  1.1430
 9568SOL     OW40165   0.051   4.405   8.399  0.2225  0.4873 -0.3222
 9568SOL    HW140166   4.719   4.353   8.458  1.3983  0.5066  0.7870
 9568SOL    HW240167   0.133   4.370   8.433  0.6727  0.7534 -1.1401
   4.72297   4.72297  17.69380
