Membrane in water
40167
    1TCq1    O1    1   1.638   3.434  11.467 -0.3040  0.5732 -0.0086
    1TCq1    C1    2   1.602   3.335  11.379  0.6764  0.1968  0.1392
    1TCq1    O2    3   1.600   3.340  11.260 -0.0641 -0.2910  0.0114
    1TCq1    C2    4   1.502   3.251  11.451  0.2521 -0.4831  0.7192
    1TCq1    C3    5   1.393   3.211  11.375 -0.3587 -0.5869 -0.4801
    1TCq1    C4    6   1.283   3.160  11.443  0.3791 -0.3327  0.4417
    1TCq1    C5    7   1.278   3.146  11.579  0.0766 -0.3053 -0.1674
    1TCq1    C6    8   1.382   3.195  11.654 -0.4450 -0.0019  0.1570
    1TCq1    C7    9   1.503   3.246  11.596  0.0898  0.4061 -0.2968
    1TCq1    C8   10   1.346   3.219  11.790  0.3833  0.3540 -1.2757
    1TCq1    O4   11   1.235   3.184  11.830 -0.5693  0.0585 -0.2139
    1TCq1    C9   12   1.169   3.112  11.365 -0.2643 -0.3286 -0.0761
    1TCq1    O5   13   1.180   3.114  11.241 -0.2451  0.1047  0.0892
    1TCq1    O6   14   1.076   3.052  11.425  0.2054 -0.6015  0.3144
    1TCq1    H1   15   1.610   3.431  11.561 -0.0265 -0.1477  0.0535
    1TCq1    H2   16   1.384   3.225  11.268  2.0817  2.1639 -0.3137
    1TCq1    H3   17   1.186   3.109  11.621 -1.4512  1.7227 -1.7576
    1TCq1    H4   18   1.592   3.254  11.656 -0.2362 -0.4593  0.3139
    2MPD2     C   19   1.425   3.413  12.266 -0.0944 -0.4418 -0.3766
    2MPD2    C1   20   1.307   3.378  12.202 -0.4215  0.4811  0.6231
    2MPD2    C2   21   1.311   3.330  12.071  0.8054  0.0053  0.0496
    2MPD2    C3   22   1.425   3.334  11.995  0.1917 -0.1930  0.3176
    2MPD2    C4   23   1.543   3.368  12.060 -0.3762 -0.0755 -0.3235
    2MPD2    C5   24   1.543   3.394  12.199 -0.5247  0.7920  0.5498
    2MPD2     H   25   1.213   3.312  12.028  0.9254  1.6417 -0.9110
    2MPD2    H1   26   1.633   3.350  12.003 -1.0853  2.8019 -2.3502
    2MPD2    H2   27   1.428   3.451  12.368  0.0829 -0.3044 -0.4312
    2MPD2    H3   28   1.640   3.411  12.246  0.1763  1.0610 -0.9796
    2MPD2     N   29   1.437   3.300  11.858 -0.0813  0.4330 -0.6110
    2MPD2    H5   30   1.532   3.307  11.823  0.0124 -0.7835 -0.5793
    2MPD2    N1   31   1.177   3.409  12.244 -0.0110  0.1020  0.1241
    2MPD2    H7   32   1.100   3.379  12.186  0.9744  1.4932 -1.9293
    3TCq1    O1   33   4.588   4.038  11.736 -0.4440 -0.0812  0.7495
    3TCq1    C1   34   4.668   4.047  11.623 -0.5093  0.4346 -1.1853
    3TCq1    O2   35   4.692   3.949  11.556 -0.2699 -0.5733  0.4637
    3TCq1    C2   36   4.639   4.184  11.588  0.6865  0.1721 -0.3315
    3TCq1    C3   37   4.597   4.215  11.460 -0.2037 -0.2282  0.2085
    3TCq1    C4   38   4.544   4.337  11.430  0.1333  0.7121  0.6884
    3TCq1    C5   39   4.528   4.433  11.528  0.2988  0.4270  0.8730
    3TCq1    C6   40   4.562   4.395  11.657  0.4134 -0.6894 -0.5142
    3TCq1    C7   41   4.618   4.274  11.692 -0.5207 -1.0488  0.3728
    3TCq1    C8   42   4.571   4.504  11.760  0.1610 -0.4450  0.0391
    3TCq1    O4   43   4.594   4.471  11.876 -0.4373  0.0973 -0.0308
    3TCq1    C9   44   4.499   4.369  11.297 -0.2333  0.3210 -0.1421
    3TCq1    O5   45   4.526   4.288  11.206  0.6605  0.2801  0.1462
    3TCq1    O6   46   4.457   4.487  11.283  0.4738  0.3421  0.3288
    3TCq1    H1   47   4.536   4.116  11.766 -2.5170 -0.6463 -1.3784
    3TCq1    H2   48   4.602   4.146  11.376  0.3871  0.3044 -0.1909
    3TCq1    H3   49   4.471   4.523  11.509 -0.1857  0.4322  2.3687
    3TCq1    H4   50   4.645   4.256  11.796 -0.2784  1.3269  0.7360
    4MPD2     C   51   4.640   0.265  11.893 -0.1735 -1.0216 -1.3672
    4MPD2    C1   52   4.660   0.254  11.753  0.1558 -0.2107  0.4972
    4MPD2    C2   53   4.633   0.140  11.695  0.1488  0.6852  0.1160
    4MPD2    C3   54   4.600   0.025  11.772  0.1525 -0.0725 -0.0158
    4MPD2    C4   55   4.580   0.047  11.903  0.4675 -0.3024  0.6259
    4MPD2    C5   56   4.598   0.165  11.962 -0.2741  0.5874 -0.2901
    4MPD2     H   57   4.653   0.125  11.589 -0.5933 -1.1101  0.2302
    4MPD2    H1   58   4.547   4.690  11.967 -0.3150 -0.2620  0.2712
    4MPD2    H2   59   4.653   0.365  11.935  2.4020 -1.1260 -1.9063
    4MPD2    H3   60   4.584   0.169  12.069  1.1271  0.0731 -0.0871
    4MPD2     N   61   4.572   4.625  11.704  0.4733  0.9642  0.3462
    4MPD2    H5   62   4.569   4.644  11.605  2.3582 -2.7913 -0.4234
    4MPD2    N1   63   4.700   0.363  11.666 -0.2352  0.5029 -0.1021
    4MPD2    H7   64   0.001   0.334  11.572 -0.3968  2.8434 -0.8601
    5TCq1    O1   65   1.227   1.508  11.518 -0.0864  0.4566 -0.2206
    5TCq1    C1   66   1.178   1.383  11.544  0.6878 -0.0222 -0.2052
    5TCq1    O2   67   1.245   1.285  11.544 -0.5308 -0.1186 -0.3691
    5TCq1    C2   68   1.064   1.377  11.457 -0.6383 -0.2938 -0.0256
    5TCq1    C3   69   0.953   1.455  11.478  0.0161 -0.4715 -0.1090
    5TCq1    C4   70   0.843   1.451  11.394 -0.2252 -0.2096 -0.6744
    5TCq1    C5   71   0.840   1.352  11.297  0.5441  1.2347  0.7627
    5TCq1    C6   72   0.952   1.276  11.272 -0.3796  0.0986 -0.8742
    5TCq1    C7   73   1.066   1.290  11.349  0.2479  0.6897  0.1602
    5TCq1    C8   74   0.937   1.157  11.202  0.0848 -0.1408  0.6211
    5TCq1    O4   75   0.995   1.058  11.242 -1.0050  0.4213  0.0673
    5TCq1    C9   76   0.737   1.540  11.416  0.4056  0.0524  0.0978
    5TCq1    O5   77   0.636   1.534  11.339 -0.1301  0.0596  0.0401
    5TCq1    O6   78   0.761   1.625  11.509  0.0574  0.5999  0.1448
    5TCq1    H1   79   1.161   1.566  11.474  0.9817  0.0164 -2.4001
    5TCq1    H2   80   0.951   1.527  11.559 -0.4334  0.1025 -0.6407
    5TCq1    H3   81   0.744   1.348  11.247  0.0197 -3.1732  2.1829
    5TCq1    H4   82   1.155   1.232  11.326 -0.5263 -0.4414  0.0365
    6MPD2     C   83   0.706   1.096  10.918  0.2298  0.1841  0.3211
    6MPD2    C1   84   0.816   1.074  11.003 -0.5122 -0.3148  0.0678
    6MPD2    C2   85   0.875   0.952  11.006 -0.4837  0.8963 -0.1683
    6MPD2    C3   86   0.835   0.847  10.926  0.2316  0.1039 -0.7822
    6MPD2    C4   87   0.727   0.867  10.847  0.5448  0.1502  0.3355
    6MPD2    C5   88   0.666   0.991  10.837  0.0783  0.6368  0.6777
    6MPD2     H   89   0.958   0.927  11.071  0.6806  3.5232 -0.6336
    6MPD2    H1   90   0.683   0.801  10.773  1.5706  0.1403 -0.2690
    6MPD2    H2   91   0.647   1.187  10.908  2.4593  1.5090 -0.7826
    6MPD2    H3   92   0.583   0.998  10.768 -0.6030  0.7561  1.5041
    6MPD2     N   93   0.904   0.723  10.933  0.6077 -0.4216  0.4800
    6MPD2    H5   94   0.989   0.719  10.988  1.1257 -0.6586 -0.3291
    6MPD2    N1   95   0.846   1.174  11.100 -0.0367  0.2704 -0.5616
    6MPD2    H7   96   0.807   1.266  11.087 -1.8087 -0.6240 -1.6600
    7TCq1    O1   97   3.490   1.138  13.004 -0.1914  0.4876  0.0767
    7TCq1    C1   98   3.374   1.158  12.932 -0.1032 -0.5863  0.2375
    7TCq1    O2   99   3.357   1.239  12.842 -0.6917  0.2207 -0.4988
    7TCq1    C2  100   3.302   1.029  12.924 -0.8612 -0.6383  0.2235
    7TCq1    C3  101   3.270   0.986  12.801  0.0426  0.3443 -0.1350
    7TCq1    C4  102   3.188   0.877  12.794  0.1391 -0.4023  0.6092
    7TCq1    C5  103   3.135   0.813  12.904  0.9639 -0.0892  0.0163
    7TCq1    C6  104   3.176   0.862  13.025 -0.1354  0.1088 -0.8658
    7TCq1    C7  105   3.256   0.974  13.040  0.7240 -0.7685 -0.6019
    7TCq1    C8  106   3.144   0.779  13.146 -0.0103  0.1018 -0.0677
    7TCq1    O4  107   3.104   0.662  13.124  0.8534 -0.1809 -0.0232
    7TCq1    C9  108   3.147   0.836  12.658 -0.0706 -0.0792  0.3654
    7TCq1    O5  109   3.075   0.728  12.651 -0.0322 -0.1724 -0.0363
    7TCq1    O6  110   3.140   0.927  12.568  0.3697 -0.0576  0.0093
    7TCq1    H1  111   3.485   1.072  13.077 -0.2698 -0.1139 -0.4710
    7TCq1    H2  112   3.307   1.038  12.714 -1.3862 -2.3643 -2.3667
    7TCq1    H3  113   3.065   0.732  12.889  1.6047 -0.9317  1.5744
    7TCq1    H4  114   3.270   1.021  13.136 -1.1771 -1.9346  0.2392
    8MPD2     C  115   3.164   0.668  13.636 -0.0895  0.0031 -0.6227
    8MPD2    C1  116   3.153   0.582  13.534  0.3012 -0.8006 -0.6530
    8MPD2    C2  117   3.149   0.633  13.402 -0.2188  0.0085 -0.1258
    8MPD2    C3  118   3.152   0.773  13.389  0.8354  0.3306  0.3541
    8MPD2    C4  119   3.143   0.851  13.506  0.1449  0.0831  0.2005
    8MPD2    C5  120   3.142   0.803  13.630  0.2164  0.4043  0.4010
    8MPD2     H  121   3.151   0.571  13.314  2.9706  0.1824 -0.1603
    8MPD2    H1  122   3.135   0.959  13.501 -1.5791 -0.0721 -0.2421
    8MPD2    H2  123   3.161   0.629  13.737  1.0342  1.5899  0.0391
    8MPD2    H3  124   3.122   0.873  13.711 -1.8718 -0.5121  0.6848
    8MPD2     N  125   3.147   0.842  13.266 -0.6258  0.0251 -0.2079
    8MPD2    H5  126   3.154   0.943  13.272  0.8207 -0.2470  2.9193
    8MPD2    N1  127   3.155   0.450  13.566 -1.0141  0.2758  0.5154
    8MPD2    H7  128   3.160   0.433  13.666  0.7967 -0.0194  0.3842
    9TCq1    O1  129   0.937   4.030   9.961  0.1186  0.2135  0.3122
    9TCq1    C1  130   1.044   4.057  10.038 -0.5724  0.0308 -0.3525
    9TCq1    O2  131   1.157   4.061   9.985 -0.8407 -0.4298  0.1307
    9TCq1    C2  132   1.037   3.976  10.160 -0.0447  0.4961 -1.1634
    9TCq1    C3  133   0.909   3.937  10.203  0.4908  0.1419 -0.1470
    9TCq1    C4  134   0.906   3.857  10.314  0.3440 -1.2379 -0.2875
    9TCq1    C5  135   1.014   3.817  10.390 -0.2173  0.3680 -0.4090
    9TCq1    C6  136   1.135   3.860  10.340  0.7184 -0.3227 -0.0124
    9TCq1    C7  137   1.150   3.931  10.217 -0.1683 -0.1854  0.1242
    9TCq1    C8  138   1.251   3.832  10.421 -0.3190  0.0611 -0.0594
    9TCq1    O4  139   1.354   3.804  10.362  0.1704  0.1838 -0.0609
    9TCq1    C9  140   0.782   3.795  10.354  0.2744 -0.0285 -0.4131
    9TCq1    O5  141   0.682   3.831  10.279 -0.0389  0.1465 -0.0223
    9TCq1    O6  142   0.786   3.706  10.440 -0.1112 -0.9408 -0.1533
    9TCq1    H1  143   0.857   4.063  10.008 -1.5345 -0.3897 -2.0882
    9TCq1    H2  144   0.812   3.951  10.157  0.5420 -0.9873 -0.6067
    9TCq1    H3  145   0.999   3.762  10.482  2.0095  0.1614 -0.1822
    9TCq1    H4  146   1.247   3.949  10.171  1.0605 -2.3295  1.8566
   10MPD2     C  147   1.460   3.785  10.629 -1.0685  0.3985 -0.5595
   10MPD2    C1  148   1.321   3.809  10.656 -0.1596  0.8832  0.3120
   10MPD2    C2  149   1.289   3.836  10.789 -0.1723  0.4158  0.6162
   10MPD2    C3  150   1.388   3.844  10.884  0.1915 -0.3531  0.8770
   10MPD2    C4  151   1.516   3.835  10.854  0.1447 -0.4909  0.4144
   10MPD2    C5  152   1.552   3.801  10.725 -0.5931 -0.2751 -0.0301
   10MPD2     H  153   1.187   3.861  10.818 -0.6827 -0.4969 -0.3842
   10MPD2    H1  154   1.598   3.835  10.925  0.8264 -0.5444 -0.3737
   10MPD2    H2  155   1.489   3.770  10.526 -1.9333  0.3475 -0.8008
   10MPD2    H3  156   1.658   3.796  10.702 -0.7015 -0.6074 -0.4426
   10MPD2     N  157   1.361   3.853  11.025 -0.6346 -0.4498  0.1657
   10MPD2    H5  158   1.440   3.862  11.088 -0.4217  0.8682 -0.2899
   10MPD2    N1  159   1.231   3.830  10.554 -0.1555  0.2970 -0.0959
   10MPD2    H7  160   1.139   3.851  10.590  0.2318 -1.2140  1.7333
   11TCq1    O1  161   2.138   4.342  14.502 -0.7896 -0.3517  0.5811
   11TCq1    C1  162   2.192   4.253  14.586  0.4386  0.1314  1.3520
   11TCq1    O2  163   2.175   4.133  14.567 -0.2135  0.1067  0.0931
   11TCq1    C2  164   2.151   4.303  14.716  0.3308 -0.6836  0.3102
   11TCq1    C3  165   2.174   4.439  14.756 -0.0165 -0.0477 -0.0065
   11TCq1    C4  166   2.091   4.495  14.852  0.5861 -0.1317  0.9218
   11TCq1    C5  167   1.989   4.419  14.907  0.1536  0.2186  0.0799
   11TCq1    C6  168   1.974   4.287  14.872 -0.7138 -1.2565 -0.4412
   11TCq1    C7  169   2.054   4.231  14.777 -0.3149 -0.4407 -0.4120
   11TCq1    C8  170   1.863   4.206  14.933  0.0845 -0.8176 -0.4227
   11TCq1    O4  171   1.829   4.229  15.050 -0.1190  0.2012 -0.2335
   11TCq1    C9  172   2.102   4.635  14.880  0.4744 -0.1633  0.2990
   11TCq1    O5  173   2.191   4.704  14.827  0.1838 -0.4064 -0.6000
   11TCq1    O6  174   2.034   4.688  14.968 -0.5323 -0.6143 -0.1535
   11TCq1    H1  175   2.148   4.435  14.532 -2.6037 -0.1966  0.6747
   11TCq1    H2  176   2.245   4.502  14.704 -0.6015 -0.9927 -1.9634
   11TCq1    H3  177   1.922   4.458  14.983 -1.6798  1.0867 -1.9921
   11TCq1    H4  178   2.043   4.125  14.757 -0.3586 -0.8960  2.0120
   12MPD2     C  179   1.618   4.032  14.972 -0.0631  0.2824 -0.6183
   12MPD2    C1  180   1.692   4.039  14.858 -0.5975 -0.3359  0.4762
   12MPD2    C2  181   1.651   3.965  14.744  0.0109  0.1300  0.1688
   12MPD2    C3  182   1.537   3.888  14.750 -0.8116  0.4382 -0.3067
   12MPD2    C4  183   1.461   3.892  14.861 -0.2437  0.1369  0.0707
   12MPD2    C5  184   1.502   3.963  14.974  0.1313 -0.6445 -0.2893
   12MPD2     H  185   1.713   3.963  14.655  1.4624  0.1945  1.1747
   12MPD2    H1  186   1.378   3.825  14.881 -0.1001  0.8215  2.9989
   12MPD2    H2  187   1.641   4.097  15.056 -0.0270 -1.2089  0.5195
   12MPD2    H3  188   1.443   3.964  15.065 -1.0360 -1.8550 -1.0242
   12MPD2     N  189   1.506   3.805  14.637 -0.2963 -0.3945  0.7387
   12MPD2    H5  190   1.567   3.809  14.556 -0.1577  0.7584  0.9112
   12MPD2    N1  191   1.802   4.123  14.840  0.3741 -0.1487 -0.0810
   12MPD2    H7  192   1.831   4.139  14.744  0.0177 -3.0114 -0.6510
   13TCq1    O1  193   0.268   3.984  10.688 -0.1015  0.0902 -0.3537
   13TCq1    C1  194   0.385   4.019  10.624 -0.0123 -0.4609  0.2168
   13TCq1    O2  195   0.397   4.001  10.502 -0.2081  0.0728 -0.1426
   13TCq1    C2  196   0.417   4.136  10.695 -0.0262 -0.0888 -0.4902
   13TCq1    C3  197   0.371   4.244  10.630 -0.1105 -0.1079 -0.3893
   13TCq1    C4  198   0.355   4.354  10.705 -0.2048  0.8343 -0.1013
   13TCq1    C5  199   0.373   4.358  10.841  0.2262  0.3588 -0.3449
   13TCq1    C6  200   0.409   4.240  10.903 -0.3267 -0.1261 -0.4096
   13TCq1    C7  201   0.429   4.129  10.827  0.2503 -0.7072  0.4517
   13TCq1    C8  202   0.401   4.228  11.049  0.0527 -0.3568  0.0242
   13TCq1    O4  203   0.437   4.121  11.103  0.2031 -0.1336 -0.6592
   13TCq1    C9  204   0.310   4.477  10.641 -0.2807 -0.2286 -0.3772
   13TCq1    O5  205   0.306   4.482  10.518  0.5015 -0.8630  0.6628
   13TCq1    O6  206   0.257   4.565  10.712  0.3474  0.8337  0.7738
   13TCq1    H1  207   0.244   4.023  10.775  2.3413  2.1997 -0.6244
   13TCq1    H2  208   0.342   4.238  10.526  0.7853  2.0814 -0.7663
   13TCq1    H3  209   0.359   4.452  10.893 -0.9707 -0.0325  0.0473
   13TCq1    H4  210   0.458   4.037  10.877 -1.1315 -1.0267  0.6736
   14MPD2     C  211   0.211   4.452  11.272  0.1704  0.0268  0.3734
   14MPD2    C1  212   0.284   4.344  11.238 -0.2305  0.0624  0.5779
   14MPD2    C2  213   0.321   4.255  11.339  0.0116 -0.1486  0.0600
   14MPD2    C3  214   0.273   4.268  11.472  0.3171 -0.5159 -0.6105
   14MPD2    C4  215   0.186   4.374  11.498 -0.1332  0.1235  0.0194
   14MPD2    C5  216   0.157   4.457  11.396 -0.3361 -0.0312  0.1751
   14MPD2     H  217   0.387   4.172  11.319  0.5131  0.0344  0.9528
   14MPD2    H1  218   0.130   4.387  11.590 -0.6093  0.4466 -0.3133
   14MPD2    H2  219   0.177   4.525  11.199 -0.1070  1.0519  1.5234
   14MPD2    H3  220   0.095   4.545  11.409 -1.9377 -1.1786  0.3756
   14MPD2     N  221   0.325   4.175  11.568  0.3214  0.6057  0.4505
   14MPD2    H5  222   0.400   4.115  11.535 -0.8297 -0.2768 -0.5574
   14MPD2    N1  223   0.329   4.334  11.104  0.4072  0.2140  0.1609
   14MPD2    H7  224   0.288   4.402  11.041 -2.1501 -0.5503  0.9974
   15TCq1    O1  225   1.401   3.290   1.026 -0.3400  0.2673  0.6750
   15TCq1    C1  226   1.528   3.240   1.048 -0.0258 -0.1584 -0.1232
   15TCq1    O2  227   1.632   3.300   1.067  0.1474  0.4376  0.3619
   15TCq1    C2  228   1.503   3.113   1.113 -0.1061 -0.2979  0.4578
   15TCq1    C3  229   1.380   3.080   1.173 -0.3150  0.1447  0.4627
   15TCq1    C4  230   1.371   2.974   1.256 -1.2536 -0.3320 -0.1473
   15TCq1    C5  231   1.479   2.883   1.273  0.1957  0.3352 -0.0606
   15TCq1    C6  232   1.600   2.928   1.221  0.5575  0.4151 -0.9331
   15TCq1    C7  233   1.614   3.038   1.141  0.8308 -0.1051 -0.2337
   15TCq1    C8  234   1.726   2.864   1.255  0.1922  0.4213  0.4739
   15TCq1    O4  235   1.806   2.886   1.165 -0.1074  0.2261  0.2511
   15TCq1    C9  236   1.244   2.946   1.323  0.1379  0.2574 -0.2682
   15TCq1    O5  237   1.245   2.865   1.422 -0.1888  0.3672  0.0887
   15TCq1    O6  238   1.145   3.016   1.287 -0.0043  0.1017 -0.1144
   15TCq1    H1  239   1.344   3.215   0.998  0.1845  0.5851 -1.2722
   15TCq1    H2  240   1.292   3.144   1.173 -1.5833 -1.5764 -0.4508
   15TCq1    H3  241   1.468   2.802   1.344 -1.1617  0.2193 -0.3986
   15TCq1    H4  242   1.713   3.075   1.117  1.7080 -2.8041 -0.8218
   16MPD2     C  243   1.844   2.651   1.532  0.1879 -0.1638 -0.4548
   16MPD2    C1  244   1.850   2.727   1.417  0.4501 -0.6300  0.2391
   16MPD2    C2  245   1.963   2.707   1.344  0.1225  0.6233 -0.3331
   16MPD2    C3  246   2.071   2.633   1.392  0.1904 -0.0909 -0.1365
   16MPD2    C4  247   2.058   2.565   1.511  0.5280  0.0096 -0.5188
   16MPD2    C5  248   1.941   2.564   1.577  0.8051 -0.4646 -0.5937
   16MPD2     H  249   1.971   2.774   1.259  1.9457  1.0307  0.1686
   16MPD2    H1  250   2.145   2.512   1.548  0.0357  0.0178  0.6700
   16MPD2    H2  251   1.752   2.639   1.588  0.8443  0.9952  0.8736
   16MPD2    H3  252   1.930   2.502   1.666 -0.2877 -2.6729 -2.2603
   16MPD2     N  253   2.191   2.651   1.321  0.4483  0.8013  0.1672
   16MPD2    H5  254   2.180   2.673   1.223 -2.9589 -0.4977  0.2596
   16MPD2    N1  255   1.734   2.798   1.371  0.4530  0.7788 -0.1145
   16MPD2    H7  256   1.656   2.805   1.437 -0.0328 -1.3089 -0.4463
   17TCq1    O1  257   0.501   3.460  11.904  0.0811  0.0738  0.2252
   17TCq1    C1  258   0.488   3.518  11.786 -0.5794  0.3413  0.2163
   17TCq1    O2  259   0.400   3.599  11.752  0.3014  0.3136 -0.2148
   17TCq1    C2  260   0.576   3.449  11.698 -0.5052  0.5275 -0.8391
   17TCq1    C3  261   0.534   3.436  11.567 -0.0559  0.1454 -0.3311
   17TCq1    C4  262   0.619   3.401  11.466 -0.4336  0.2129 -0.4671
   17TCq1    C5  263   0.750   3.386  11.498  0.0424 -0.1938 -0.7635
   17TCq1    C6  264   0.791   3.416  11.625  0.4640 -0.2528 -0.5663
   17TCq1    C7  265   0.709   3.441  11.730 -0.3899 -0.3520  0.6265
   17TCq1    C8  266   0.935   3.431  11.656  0.4413 -0.3018  0.8056
   17TCq1    O4  267   0.972   3.448  11.772  0.5762  0.2298  0.1845
   17TCq1    C9  268   0.553   3.378  11.335  0.8383  0.1956  0.0131
   17TCq1    O5  269   0.625   3.350  11.235  0.0279 -0.2820  0.1761
   17TCq1    O6  270   0.441   3.434  11.320 -0.1371 -0.1911  0.1069
   17TCq1    H1  271   0.543   3.372  11.905  0.5414  0.3112  1.7624
   17TCq1    H2  272   0.429   3.454  11.549  0.0410  0.4353 -0.6108
   17TCq1    H3  273   0.813   3.346  11.419  0.4027 -2.2131  0.5531
   17TCq1    H4  274   0.739   3.469  11.831  0.0813  0.7153  0.1928
   18MPD2     C  275   1.231   3.517  11.643  0.2455  0.2252  1.0393
   18MPD2    C1  276   1.148   3.478  11.537 -0.7112  0.1640 -0.2860
   18MPD2    C2  277   1.200   3.481  11.412  0.7858  0.6382  0.0544
   18MPD2    C3  278   1.326   3.540  11.386 -0.0690 -0.8550 -0.1020
   18MPD2    C4  279   1.393   3.588  11.496 -0.3416 -0.1030 -0.0004
   18MPD2    C5  280   1.354   3.567  11.620  0.0139  0.6424 -0.8170
   18MPD2     H  281   1.136   3.451  11.330  1.2562 -1.1060  0.3230
   18MPD2    H1  282   1.477   3.656  11.487  0.5157 -1.1360  0.2017
   18MPD2    H2  283   1.201   3.503  11.747 -0.6531  2.1145  1.0192
   18MPD2    H3  284   1.418   3.602  11.700  0.6113 -1.0997 -0.5224
   18MPD2     N  285   1.381   3.554  11.255 -0.0908  0.2049  0.6148
   18MPD2    H5  286   1.463   3.613  11.246  0.3222 -0.1668  1.9197
   18MPD2    N1  287   1.013   3.429  11.544 -0.3324  0.0946 -0.4071
   18MPD2    H7  288   0.970   3.382  11.466 -1.3834  0.1966  0.1145
   19TMC2    C1  289   2.487   4.207  13.771  0.2117  1.2196 -0.6443
   19TMC2    C2  290   2.441   4.264  13.655  0.4169 -0.2534  0.7554
   19TMC2    C3  291   2.312   4.242  13.616 -0.1576  0.7991  0.4886
   19TMC2    C4  292   2.408   4.136  13.861  0.2184 -0.5191 -0.9782
   19TMC2    C5  293   2.283   4.109  13.817  0.1528 -0.2721 -0.7928
   19TMC2    C6  294   2.236   4.159  13.698 -0.0924  0.5306 -0.3223
   19TMC2     C  295   2.626   4.231  13.801  1.1616 -0.3135 -0.4892
   19TMC2     O  296   2.677   4.336  13.757  0.3472 -0.2545  0.2959
   19TMC2     H  297   2.492   4.343  13.601  0.6034 -0.9110 -0.0428
   19TMC2    H1  298   2.452   4.098  13.952  0.0011 -0.5479 -0.8864
   19TMC2    H2  299   2.134   4.142  13.668 -0.4289  1.0152  0.5459
   19TMC2    C7  300   2.198   4.002  13.873  0.5565 -0.0093 -0.2286
   19TMC2    C8  301   2.260   4.327  13.510  0.6455 -0.7169  0.0774
   19TMC2    O1  302   2.097   3.973  13.810 -0.2440 -0.2299 -0.1338
   19TMC2    O2  303   2.317   4.341  13.404  0.0112  0.6820  0.6032
   19TMC2    O5  304   2.132   4.359  13.537  0.3224  0.0194  1.0684
   19TMC2    H5  305   2.115   4.357  13.634  2.1587  0.5069  1.4093
   20MPD2     C  306   2.903   4.243  13.934 -0.1844  0.3929  0.3431
   20MPD2    C1  307   2.801   4.155  13.959  0.7869  0.0661  0.7753
   20MPD2    C2  308   2.822   4.067  14.069  0.1436 -0.6462 -0.0625
   20MPD2    C3  309   2.935   4.072  14.149  0.0188  0.8008  0.5359
   20MPD2    C4  310   3.027   4.172  14.116  0.1503  0.2021  0.3096
   20MPD2    C5  311   3.013   4.250  14.012 -0.1028  0.4155 -0.4666
   20MPD2     H  312   2.738   4.002  14.090 -0.6110 -0.0367 -1.2216
   20MPD2    H1  313   3.120   4.192  14.167  1.3668 -4.1306 -0.2556
   20MPD2    H2  314   2.894   4.317  13.855  0.2792 -0.3023 -0.3641
   20MPD2    H3  315   3.084   4.331  14.005  0.4199  0.1353  1.4287
   20MPD2     N  316   2.962   3.990  14.262 -0.0694 -0.2325 -0.6804
   20MPD2    H5  317   3.052   4.009  14.306  0.6828 -1.3148 -1.7447
   20MPD2    N1  318   2.675   4.147  13.893  0.4616  0.5846  0.0862
   20MPD2    H7  319   2.629   4.059  13.913  2.4501  0.0968  2.4264
   21MPD2     C  320   0.876   0.012  14.502 -0.3782 -0.6667 -0.4851
   21MPD2    C1  321   0.851   4.615  14.441  0.2768 -0.1717 -0.7513
   21MPD2    C2  322   0.746   4.595  14.361 -0.3892  0.7870  0.3450
   21MPD2    C3  323   0.650   4.691  14.339  0.7000 -0.2042 -0.0035
   21MPD2    C4  324   0.665   0.081  14.417 -0.4566 -0.5458  0.0109
   21MPD2    C5  325   0.784   0.110  14.481  0.7865 -0.3308  0.3402
   21MPD2     H  326   0.726   4.494  14.327 -0.1140  0.9664 -0.3406
   21MPD2    H1  327   0.592   0.160  14.407  0.9324  0.6415 -0.8539
   21MPD2    H2  328   0.959   0.030  14.569 -1.6820 -0.3312  1.0461
   21MPD2    H3  329   0.806   0.207  14.525  0.3870 -0.4865  0.8872
   21MPD2     N  330   0.532   4.662  14.277 -0.2724 -0.0165  0.3846
   21MPD2    H5  331   0.457   0.003  14.296  0.8712  2.4922 -3.6985
   21MPD2    N1  332   0.932   4.503  14.471 -0.3840 -0.0743  0.0971
   21MPD2    H7  333   0.897   4.416  14.433 -0.1093  0.1170 -0.5811
   22TCq2    C1  334   0.497   4.547  14.210 -0.2359 -0.1820  0.5799
   22TCq2    O2  335   0.569   4.465  14.157 -0.3338 -0.4361 -0.9214
   22TCq2    C2  336   0.354   4.534  14.187 -0.0650  0.4778 -0.9974
   22TCq2    C3  337   0.319   4.463  14.080  0.4403  0.0151 -0.4562
   22TCq2    C4  338   0.185   4.425  14.065 -0.1867 -0.0778  0.0458
   22TCq2    C5  339   0.090   4.472  14.155 -0.2725  0.1905 -0.2824
   22TCq2    C6  340   0.131   4.545  14.260  0.3533  0.0433  0.4949
   22TCq2    C7  341   0.265   4.567  14.279  0.3777 -0.4633  0.5902
   22TCq2    C8  342   0.032   4.592  14.355 -0.2901  0.2263 -0.3532
   22TCq2    O4  343   0.068   4.590  14.476  0.1588 -0.6952  0.9339
   22TCq2    C9  344   0.156   4.335  13.951 -0.5407 -0.5835  0.4150
   22TCq2    O5  345   0.074   4.241  13.978  0.1096 -0.1149 -0.3245
   22TCq2    O6  346   0.212   4.359  13.838  0.0076 -0.0334  0.3851
   22TCq2    H2  347   0.388   4.413  14.013 -0.5544  0.1876 -1.5903
   22TCq2    H3  348   4.711   4.444  14.141 -0.1455 -0.8379  0.7665
   22TCq2    H4  349   0.304   4.627  14.361  2.8309 -0.4852 -0.5541
   23MPD2     C  350   1.654   0.348  14.827  0.0571  0.3219 -0.3500
   23MPD2    C1  351   1.520   0.372  14.876  0.1045 -0.6423 -0.3179
   23MPD2    C2  352   1.445   0.468  14.819  0.0146  0.3222  0.4194
   23MPD2    C3  353   1.484   0.528  14.699 -0.2198  0.3365 -0.2510
   23MPD2    C4  354   1.615   0.513  14.653 -0.3582  0.0300  0.3183
   23MPD2    C5  355   1.693   0.418  14.716 -0.2396  0.4247 -0.3353
   23MPD2     H  356   1.339   0.473  14.843  0.0325 -1.8107  0.9474
   23MPD2    H1  357   1.646   0.568  14.565 -2.5653 -0.8286 -0.9997
   23MPD2    H2  358   1.726   0.282  14.876  0.6552  0.8727 -0.4861
   23MPD2    H3  359   1.796   0.406  14.685  0.5844  2.4684  1.5210
   23MPD2     N  360   1.402   0.618  14.628 -0.4916  0.8687 -0.0424
   23MPD2    H5  361   1.448   0.693  14.577  0.0265  0.1736 -0.5909
   23MPD2    N1  362   1.477   0.305  14.993 -0.0774  0.2356 -0.9280
   23MPD2    H7  363   1.398   0.361  15.024  1.2240  0.6672  1.5849
   24TCq2    C1  364   1.274   0.642  14.657 -0.3426  0.0013  0.0194
   24TCq2    O2  365   1.186   0.576  14.706  0.4424  0.7418  0.0810
   24TCq2    C2  366   1.226   0.769  14.593 -0.2904  0.4152  0.0325
   24TCq2    C3  367   1.307   0.849  14.517  0.0538 -0.0133  0.3794
   24TCq2    C4  368   1.253   0.961  14.469  0.4242 -0.4897  0.9654
   24TCq2    C5  369   1.120   0.990  14.483  0.0588  0.0970  0.0930
   24TCq2    C6  370   1.041   0.901  14.550 -0.0568 -0.5007  0.4702
   24TCq2    C7  371   1.095   0.797  14.615 -0.2892  0.9948  0.1129
   24TCq2    C8  372   0.900   0.941  14.564 -0.3579  0.2278  0.2648
   24TCq2    O4  373   0.865   1.047  14.511 -0.3927 -0.6705  0.1816
   24TCq2    C9  374   1.339   1.040  14.383 -0.6003 -0.0219 -0.5078
   24TCq2    O5  375   1.288   1.080  14.276 -0.8558 -0.4241  0.0393
   24TCq2    O6  376   1.458   1.052  14.410 -0.1684 -0.5077 -0.0749
   24TCq2    H2  377   1.415   0.842  14.517  0.1444  1.4545  0.2135
   24TCq2    H3  378   1.079   1.078  14.434  1.3655 -0.1485 -1.4736
   24TCq2    H4  379   1.032   0.718  14.655 -2.6218  2.6524 -0.2847
   25TMC2    C1  380   0.579   2.973  11.364 -0.0018  0.1765  0.8023
   25TMC2    C2  381   0.476   2.970  11.278 -1.3356  0.0544  0.4439
   25TMC2    C3  382   0.354   3.024  11.313 -0.0703 -0.7219  0.2782
   25TMC2    C4  383   0.570   3.013  11.493 -0.2221 -0.3127 -0.6460
   25TMC2    C5  384   0.442   3.050  11.535 -0.0054  0.1063 -0.1007
   25TMC2    C6  385   0.338   3.062  11.442  0.5211  0.1232 -0.2244
   25TMC2     C  386   0.690   2.885  11.327 -0.0346 -0.0349  0.0213
   25TMC2     O  387   0.803   2.929  11.316 -0.2338 -0.6293 -0.7416
   25TMC2     H  388   0.495   2.927  11.180 -0.4710  0.6097  0.3694
   25TMC2    H1  389   0.641   2.977  11.567 -1.3340 -0.4207  0.3633
   25TMC2    H2  390   0.234   3.085  11.466  0.4006  1.3576 -1.9389
   25TMC2    C7  391   0.429   3.093  11.673  0.3033 -0.1901 -0.7839
   25TMC2    C8  392   0.236   2.983  11.235 -0.4949 -0.3208  0.3689
   25TMC2    O1  393   0.507   3.043  11.752 -0.0742  0.1378  0.7237
   25TMC2    O2  394   0.191   2.872  11.257  0.2530 -0.7651  0.4189
   25TMC2    O5  395   0.282   3.012  11.111  0.9295 -0.3239 -0.8196
   25TMC2    H5  396   0.310   3.106  11.104 -0.5434  0.1108 -0.9826
   26MPD2     C  397   0.833   2.417  11.178 -0.3628 -0.0524  0.1104
   26MPD2    C1  398   0.704   2.411  11.226  0.1467  0.1021 -0.0772
   26MPD2    C2  399   0.648   2.522  11.285 -0.5625 -0.0420 -0.0494
   26MPD2    C3  400   0.718   2.642  11.298  0.0090 -0.2006  0.1200
   26MPD2    C4  401   0.849   2.644  11.265 -0.0078 -0.3052 -0.0006
   26MPD2    C5  402   0.901   2.537  11.198 -0.3287  0.1724  1.0252
   26MPD2     H  403   0.542   2.521  11.308 -0.0032 -1.6040  2.4636
   26MPD2    H1  404   0.913   2.730  11.280 -1.9357  0.9015  1.3970
   26MPD2    H2  405   0.881   2.333  11.130 -0.6378 -0.0622 -0.1405
   26MPD2    H3  406   1.007   2.544  11.179 -0.2250 -0.4725  1.3532
   26MPD2     N  407   0.651   2.756  11.334  0.7128 -0.6639  0.1981
   26MPD2    H5  408   0.558   2.748  11.372  0.6217 -2.2495 -0.3611
   26MPD2    N1  409   0.634   2.293  11.205 -0.2517  0.3603 -0.0946
   26MPD2    H7  410   0.683   2.228  11.145 -2.7118 -1.4857 -0.1027
   27TMC2    C1  411   4.204   0.575  11.841  0.3901 -0.7882 -0.0308
   27TMC2    C2  412   4.169   0.595  11.708  0.1703 -0.1114  0.7602
   27TMC2    C3  413   4.169   0.721  11.656 -0.0633 -0.4564 -0.2858
   27TMC2    C4  414   4.227   0.684  11.922  0.3118  0.1661 -0.4727
   27TMC2    C5  415   4.239   0.807  11.864 -0.8226 -1.2444  0.0427
   27TMC2    C6  416   4.205   0.828  11.734 -0.4878 -0.2531  0.0277
   27TMC2     C  417   4.117   0.479  11.915  0.7426 -0.3656 -0.3490
   27TMC2     O  418   4.117   0.492  12.039 -0.1353  0.3726  0.2660
   27TMC2     H  419   4.144   0.509  11.647 -0.3159 -0.5235  1.5507
   27TMC2    H1  420   4.268   0.668  12.021  0.1032  0.2252 -0.3761
   27TMC2    H2  421   4.207   0.924  11.684  0.4278 -0.3104 -0.0540
   27TMC2    C7  422   4.219   0.924  11.945 -0.5939  0.5555  0.0140
   27TMC2    C8  423   4.203   0.720  11.521  0.1593  0.1227  0.5308
   27TMC2    O1  424   4.217   1.030  11.881 -0.1923 -0.1640  0.0766
   27TMC2    O2  425   4.253   0.623  11.461  0.1603  0.2144  0.0044
   27TMC2    O5  426   4.135   0.824  11.464 -0.1300 -0.4353  0.0711
   27TMC2    H5  427   4.072   0.876  11.518  0.4062  1.2624 -0.9306
   28MPD2     C  428   3.830   0.057  11.969 -0.1631 -0.2752 -0.6215
   28MPD2    C1  429   3.843   0.166  12.051 -0.3212  0.3346  0.3669
   28MPD2    C2  430   3.935   0.269  12.027 -0.3746  0.1952 -0.0308
   28MPD2    C3  431   3.996   0.267  11.901 -0.0963 -0.3009  0.0903
   28MPD2    C4  432   3.973   0.163  11.816  0.7108 -0.2904 -0.4425
   28MPD2    C5  433   3.900   0.057  11.850 -0.1099  0.1304  0.0235
   28MPD2     H  434   3.945   0.349  12.099 -0.9635  0.6516 -0.4496
   28MPD2    H1  435   4.021   0.164  11.719  0.7764 -0.3922 -0.4115
   28MPD2    H2  436   3.765   4.698  11.994 -2.2880  1.1141 -1.4621
   28MPD2    H3  437   3.876   4.706  11.777 -1.6735 -0.3198  1.0228
   28MPD2     N  438   4.067   0.375  11.846  0.3870 -0.2988  0.3572
   28MPD2    H5  439   4.114   0.362  11.756 -1.3249 -1.1926 -0.4062
   28MPD2    N1  440   3.762   0.162  12.170 -0.5137 -0.1428  0.2040
   28MPD2    H7  441   3.716   0.073  12.185 -1.7780  0.5816  0.6544
   29MPD2     C  442   3.299   2.438  14.017  0.3091 -0.6615 -0.1391
   29MPD2    C1  443   3.431   2.414  14.061 -0.3093 -0.4762 -0.2562
   29MPD2    C2  444   3.484   2.502  14.155  0.0541 -0.0186  0.3919
   29MPD2    C3  445   3.402   2.605  14.207 -0.6014 -0.1917  0.0008
   29MPD2    C4  446   3.284   2.631  14.145  0.2804  0.2539  0.1735
   29MPD2    C5  447   3.232   2.554  14.047  0.6115 -0.0134  0.5147
   29MPD2     H  448   3.588   2.491  14.183 -0.0227  0.4700  0.8744
   29MPD2    H1  449   3.229   2.720  14.176 -1.4275  0.1337 -2.5059
   29MPD2    H2  450   3.248   2.368  13.952 -1.5882 -1.0924  1.8294
   29MPD2    H3  451   3.137   2.577  14.001  0.4439 -0.4203  0.6599
   29MPD2     N  452   3.437   2.693  14.310 -0.3681  0.3054  0.2359
   29MPD2    H5  453   3.365   2.754  14.347 -0.7518 -0.1945  0.3070
   29MPD2    N1  454   3.510   2.297  14.025  0.7029 -0.2510  0.3495
   29MPD2    H7  455   3.603   2.295  14.066 -0.0753  0.6262  2.1328
   30TCq2    C1  456   3.556   2.694  14.388 -0.1211 -0.3598  0.3931
   30TCq2    O2  457   3.666   2.641  14.370  0.2284  0.1790 -0.7144
   30TCq2    C2  458   3.561   2.826  14.446 -0.0981 -0.2012  0.2689
   30TCq2    C3  459   3.653   2.843  14.543  0.3850  0.2868  0.0505
   30TCq2    C4  460   3.686   2.973  14.584 -0.1678 -0.0104 -0.5729
   30TCq2    C5  461   3.625   3.083  14.525 -0.3153 -0.7207  0.0746
   30TCq2    C6  462   3.528   3.066  14.432  0.9611  0.1761 -0.2311
   30TCq2    C7  463   3.497   2.939  14.388 -0.2580 -0.1539  0.7694
   30TCq2    C8  464   3.426   3.168  14.394 -0.7232 -0.0985  0.2219
   30TCq2    O4  465   3.330   3.128  14.334  0.1180 -0.3205  0.2047
   30TCq2    C9  466   3.781   2.989  14.690 -0.5882  0.5112  0.5177
   30TCq2    O5  467   3.798   2.887  14.763 -0.1864  0.1688 -0.5001
   30TCq2    O6  468   3.824   3.103  14.712 -0.0286  0.6671  0.3148
   30TCq2    H2  469   3.718   2.763  14.578 -1.0482 -0.9419 -0.1181
   30TCq2    H3  470   3.654   3.180  14.563 -1.7864  0.0356 -0.7372
   30TCq2    H4  471   3.419   2.932  14.313 -2.0390  1.3306  2.4687
   31MPD2     C  472   1.369   1.319  14.934 -0.1433 -0.2531 -0.1680
   31MPD2    C1  473   1.255   1.372  14.881 -0.3220  0.0449  0.5210
   31MPD2    C2  474   1.147   1.399  14.962 -0.0105  0.2040 -0.6660
   31MPD2    C3  475   1.158   1.384  15.102 -0.4557 -0.0261  0.1974
   31MPD2    C4  476   1.275   1.332  15.153  0.1354  0.3260  0.0872
   31MPD2    C5  477   1.378   1.304  15.070 -0.1059 -0.0000 -0.3265
   31MPD2     H  478   1.062   1.456  14.925 -0.1035  0.3087 -0.2871
   31MPD2    H1  479   1.291   1.316  15.258 -0.6034 -0.9158  0.0104
   31MPD2    H2  480   1.447   1.285  14.867 -1.8476 -1.1518 -1.6664
   31MPD2    H3  481   1.470   1.261  15.110 -1.2857 -0.0546  2.3602
   31MPD2     N  482   1.054   1.423  15.194  0.6379 -0.2721  0.0222
   31MPD2    H5  483   1.064   1.399  15.292 -0.0800 -2.5047 -0.4520
   31MPD2    N1  484   1.248   1.383  14.740 -0.2923 -0.7052  0.5465
   31MPD2    H7  485   1.339   1.380  14.696 -0.8665 -1.1554 -0.6127
   32TCq2    C1  486   0.933   1.486  15.163 -0.0495 -0.0906  0.5856
   32TCq2    O2  487   0.904   1.564  15.072  0.4712 -0.4923 -0.9367
   32TCq2    C2  488   0.833   1.483  15.267  0.2863 -0.5826 -0.4540
   32TCq2    C3  489   0.730   1.577  15.259  0.0982  0.1164  0.4873
   32TCq2    C4  490   0.613   1.552  15.325 -0.3406  0.5154 -0.2353
   32TCq2    C5  491   0.599   1.440  15.404  0.1179  0.0450  0.3326
   32TCq2    C6  492   0.707   1.364  15.428 -0.0074  0.4576  0.0668
   32TCq2    C7  493   0.824   1.372  15.351 -0.3820 -0.5485  0.5930
   32TCq2    C8  494   0.714   1.301  15.556 -0.4851  0.9530 -0.1584
   32TCq2    O4  495   0.826   1.277  15.588 -0.1852  0.0793 -0.1758
   32TCq2    C9  496   0.502   1.641  15.303  0.0581  0.0681  0.0779
   32TCq2    O5  497   0.518   1.724  15.209 -0.0848 -0.4570 -0.1884
   32TCq2    O6  498   0.398   1.631  15.369 -0.3567 -0.6162 -0.3022
   32TCq2    H2  499   0.733   1.654  15.183 -1.5514 -1.7311 -1.4260
   32TCq2    H3  500   0.508   1.443  15.464  1.0990 -0.9075  1.8536
   32TCq2    H4  501   0.900   1.295  15.361  0.1563 -0.2618 -1.3293
   33MPD2     C  502   1.613   3.316  10.372  0.3901 -0.1049 -0.3789
   33MPD2    C1  503   1.504   3.376  10.438  0.5500 -0.2113  0.7271
   33MPD2    C2  504   1.398   3.425  10.357 -0.0847  0.7436  0.2015
   33MPD2    C3  505   1.403   3.414  10.217 -0.0346  0.1854 -0.4732
   33MPD2    C4  506   1.515   3.346  10.161 -0.1446  0.0067 -0.1956
   33MPD2    C5  507   1.617   3.296  10.236  0.1013  0.4626 -0.1969
   33MPD2     H  508   1.310   3.460  10.409  1.1559  0.9515  2.1702
   33MPD2    H1  509   1.525   3.346  10.053  0.5442  1.2177 -0.1299
   33MPD2    H2  510   1.694   3.274  10.430 -1.3770 -0.1983  1.9935
   33MPD2    H3  511   1.700   3.241  10.191  0.0325  1.7587 -1.9368
   33MPD2     N  512   1.310   3.472  10.121 -0.2605 -0.8196 -0.5649
   33MPD2    H5  513   1.347   3.482  10.028 -2.4326 -1.9225 -1.5524
   33MPD2    N1  514   1.514   3.383  10.582 -0.7365  0.2293 -0.8571
   33MPD2    H7  515   1.593   3.349  10.635  0.0325  0.7783 -1.6359
   34TCq2    C1  516   1.178   3.505  10.159  0.2774  0.3255 -0.2259
   34TCq2    O2  517   1.117   3.474  10.264 -0.2650 -0.1380 -0.4769
   34TCq2    C2  518   1.103   3.581  10.053 -0.1110  1.0128 -0.1294
   34TCq2    C3  519   0.970   3.564  10.059 -0.3070 -0.0548  0.1437
   34TCq2    C4  520   0.892   3.643   9.984  0.3477 -0.0713  0.1967
   34TCq2    C5  521   0.942   3.733   9.898 -0.2575 -0.9893  0.4328
   34TCq2    C6  522   1.081   3.757   9.898 -0.0503 -0.0782 -0.4195
   34TCq2    C7  523   1.164   3.680   9.981 -0.4830  0.1951  0.2750
   34TCq2    C8  524   1.147   3.825   9.783  0.4222 -0.2166 -0.4828
   34TCq2    O4  525   1.270   3.815   9.777 -0.1760 -0.1100 -0.2764
   34TCq2    C9  526   0.752   3.622   9.996 -1.0327  0.5201 -0.1897
   34TCq2    O5  527   0.676   3.689   9.924  0.1073  0.1783  0.0542
   34TCq2    O6  528   0.716   3.575  10.108 -0.1540  0.1022 -0.4095
   34TCq2    H2  529   0.924   3.487  10.120 -0.6277 -0.8813 -1.1429
   34TCq2    H3  530   0.877   3.779   9.825 -0.4541 -0.5297  0.8981
   34TCq2    H4  531   1.270   3.703   9.990 -0.2910 -0.4584 -0.3418
   35MPD2     C  532   3.403   0.978  11.723  0.1755 -0.3792 -0.5530
   35MPD2    C1  533   3.366   0.844  11.701  0.2920 -0.0812 -0.6566
   35MPD2    C2  534   3.286   0.812  11.596 -0.6580 -0.4159  0.6517
   35MPD2    C3  535   3.226   0.911  11.524  0.6071 -0.4661  0.1137
   35MPD2    C4  536   3.254   1.039  11.558  0.2208 -0.3092  0.4591
   35MPD2    C5  537   3.340   1.074  11.657  0.5978 -0.2382 -0.0573
   35MPD2     H  538   3.256   0.710  11.573 -2.7270  1.1075 -3.3861
   35MPD2    H1  539   3.207   1.126  11.514 -0.3632 -1.7270 -1.7217
   35MPD2    H2  540   3.454   1.012  11.813 -2.4427 -0.2868  0.8783
   35MPD2    H3  541   3.352   1.180  11.677  1.4633 -0.3013 -0.2349
   35MPD2     N  542   3.146   0.873  11.409 -0.3673 -0.1011 -0.3606
   35MPD2    H5  543   3.130   0.773  11.398  1.0581 -0.3770  0.0429
   35MPD2    N1  544   3.416   0.748  11.791 -0.8079  0.2716  0.3182
   35MPD2    H7  545   3.466   0.783  11.872 -0.7718 -2.5005  1.4853
   36TCq2    C1  546   3.097   0.955  11.310 -0.0512 -1.1184  0.7699
   36TCq2    O2  547   3.097   1.074  11.298 -0.3777 -0.2399  0.1007
   36TCq2    C2  548   3.015   0.889  11.209  0.0023  0.2209 -0.3050
   36TCq2    C3  549   2.982   0.955  11.094 -0.7403 -0.2745 -0.0501
   36TCq2    C4  550   2.898   0.905  11.009 -0.0462 -0.4366  0.2477
   36TCq2    C5  551   2.835   0.787  11.032 -0.8658 -0.4735  0.0727
   36TCq2    C6  552   2.867   0.720  11.149  0.6431  0.2617 -0.2727
   36TCq2    C7  553   2.955   0.770  11.241 -0.4134 -1.1165  0.6080
   36TCq2    C8  554   2.812   0.594  11.166  0.0085 -0.7072  0.2957
   36TCq2    O4  555   2.752   0.548  11.074  0.0501  0.0330 -0.7750
   36TCq2    C9  556   2.874   0.974  10.883  0.1343  0.1984 -0.8366
   36TCq2    O5  557   2.801   0.921  10.797 -0.7534 -0.0484 -0.3098
   36TCq2    O6  558   2.934   1.080  10.859 -0.0648 -0.2015  0.3865
   36TCq2    H2  559   3.023   1.051  11.066 -0.4360  0.5356  3.0871
   36TCq2    H3  560   2.763   0.749  10.961 -2.0449 -0.9577  1.5414
   36TCq2    H4  561   2.982   0.730  11.338 -2.2396  0.5119  1.7808
   37TMC2    C1  562   0.398   0.725  11.173  0.5349  0.3346 -0.7409
   37TMC2    C2  563   0.337   0.694  11.058  0.5768  0.2026 -0.2776
   37TMC2    C3  564   0.399   0.603  10.979  0.1667 -0.1276 -0.1341
   37TMC2    C4  565   0.517   0.678  11.211  0.4768  0.1575 -0.1322
   37TMC2    C5  566   0.577   0.588  11.127  0.6151  0.1857  0.3491
   37TMC2    C6  567   0.521   0.548  11.008 -0.3763 -0.0666  0.3219
   37TMC2     C  568   0.315   0.782  11.279 -0.5359  0.0741  0.3122
   37TMC2     O  569   0.234   0.863  11.249  0.5134 -0.2766  0.5734
   37TMC2     H  570   0.244   0.744  11.031  1.1446 -0.8515 -4.2420
   37TMC2    H1  571   0.568   0.708  11.302  1.3364  0.8058 -0.8146
   37TMC2    H2  572   0.574   0.479  10.943  2.3271  1.1193  1.2569
   37TMC2    C7  573   0.709   0.532  11.175  0.8715 -0.4474 -0.3335
   37TMC2    C8  574   0.335   0.574  10.856 -0.3150  1.1783  0.2038
   37TMC2    O1  575   0.758   0.578  11.278  0.3285 -0.0514 -0.1069
   37TMC2    O2  576   0.398   0.537  10.760  0.5322 -0.9813  0.7159
   37TMC2    O5  577   0.200   0.558  10.871  0.0576  0.2422 -0.0814
   37TMC2    H5  578   0.187   0.563  10.968 -0.0353 -0.2001 -0.0711
   38MPD2     C  579   0.209   0.849  11.773  0.3414  0.5032  0.0364
   38MPD2    C1  580   0.281   0.731  11.757  0.4204  0.2938 -0.6692
   38MPD2    C2  581   0.323   0.701  11.632 -0.0129 -0.1324 -0.7888
   38MPD2    C3  582   0.295   0.774  11.524 -0.5639 -0.4783  0.3909
   38MPD2    C4  583   0.216   0.889  11.535 -0.1902 -0.7409  0.1296
   38MPD2    C5  584   0.177   0.922  11.663 -0.9069  0.0550  0.3045
   38MPD2     H  585   0.378   0.607  11.627  0.4843  0.0035  2.0837
   38MPD2    H1  586   0.203   0.961  11.455 -2.1187  1.6881  2.6378
   38MPD2    H2  587   0.170   0.884  11.868  0.3873  0.2307  0.1560
   38MPD2    H3  588   0.120   1.014  11.675  0.2237  0.5943  1.5851
   38MPD2     N  589   0.345   0.732  11.401  0.2924  0.0473 -0.4915
   38MPD2    H5  590   0.407   0.652  11.398  0.8564  0.4186  0.9588
   38MPD2    N1  591   0.330   0.657  11.862 -0.7980  0.1130  0.3209
   38MPD2    H7  592   0.394   0.582  11.838  0.6458  1.2090  0.7889
   39MPD2     C  593   2.821   2.152   1.472 -0.0686  0.6439  0.0222
   39MPD2    C1  594   2.702   2.132   1.537  0.3590 -0.4487  0.4007
   39MPD2    C2  595   2.580   2.156   1.473  0.2016 -0.0394  0.9830
   39MPD2    C3  596   2.580   2.197   1.343  0.3637 -0.1843 -0.3090
   39MPD2    C4  597   2.700   2.221   1.280 -0.7844  0.3855 -0.6465
   39MPD2    C5  598   2.821   2.205   1.342 -1.1954 -0.1636  0.1609
   39MPD2     H  599   2.484   2.132   1.518  1.3835 -1.8736  2.5164
   39MPD2    H1  600   2.715   2.262   1.180  2.9611  0.8204  0.0974
   39MPD2    H2  601   2.919   2.130   1.513 -0.3867  0.7160  0.8308
   39MPD2    H3  602   2.915   2.228   1.293 -0.5076 -0.5834  1.2890
   39MPD2     N  603   2.462   2.224   1.270  0.1480 -0.2478  0.0190
   39MPD2    H5  604   2.481   2.241   1.172  0.0148  0.9145  0.1912
   39MPD2    N1  605   2.718   2.071   1.670 -0.1159  0.5148 -0.0989
   39MPD2    H7  606   2.812   2.051   1.700 -1.0930  0.6796  3.0188
   40TCq2    C1  607   2.614   2.041   1.755  0.3959 -0.4375  0.3556
   40TCq2    O2  608   2.495   2.069   1.740  0.3907 -0.4410  0.2533
   40TCq2    C2  609   2.655   1.991   1.884  0.2356  1.0424  0.0493
   40TCq2    C3  610   2.570   2.002   1.989  0.0935  0.1616 -0.4458
   40TCq2    C4  611   2.599   1.949   2.112  0.0486  0.4652 -0.5106
   40TCq2    C5  612   2.722   1.892   2.134  0.8026 -0.2696 -0.7841
   40TCq2    C6  613   2.814   1.902   2.027 -0.1197 -0.4350  0.0886
   40TCq2    C7  614   2.783   1.945   1.901  0.3487  0.5857  0.7675
   40TCq2    C8  615   2.935   1.822   2.037 -0.0536  0.4698  0.5079
   40TCq2    O4  616   2.941   1.740   2.126 -0.3749  0.3957  0.1023
   40TCq2    C9  617   2.501   1.951   2.211  0.7078 -0.9253 -0.0264
   40TCq2    O5  618   2.530   1.871   2.304 -0.0938  0.7201 -1.1383
   40TCq2    O6  619   2.416   2.045   2.208 -0.0432  0.6193  0.4601
   40TCq2    H2  620   2.466   2.032   1.978  0.4723  1.8776  0.6375
   40TCq2    H3  621   2.754   1.849   2.228  0.5043 -2.0332 -1.4815
   40TCq2    H4  622   2.849   1.938   1.815  0.5350  1.7935  0.8134
   41TMC2    C1  623   2.271   0.779  13.413 -0.4394 -0.1863 -0.5421
   41TMC2    C2  624   2.153   0.844  13.446 -0.7498 -0.0964  0.5117
   41TMC2    C3  625   2.128   0.970  13.385  0.0773  0.1001 -0.2195
   41TMC2    C4  626   2.346   0.820  13.307  0.9452 -0.1689 -0.3759
   41TMC2    C5  627   2.327   0.942  13.258  0.0993  0.0460  0.5283
   41TMC2    C6  628   2.226   1.019  13.298 -0.2001 -0.0128  0.2733
   41TMC2     C  629   2.261   0.638  13.449 -0.0164  0.7501  0.6082
   41TMC2     O  630   2.267   0.562  13.355  0.7690  0.4034 -0.0686
   41TMC2     H  631   2.095   0.814  13.532 -0.3906  0.2593  0.8795
   41TMC2    H1  632   2.427   0.753  13.280  0.4508 -0.7061 -0.5166
   41TMC2    H2  633   2.208   1.111  13.244 -0.0263  0.3821  0.8827
   41TMC2    C7  634   2.412   0.987  13.148  0.8769  0.4576  0.5406
   41TMC2    C8  635   2.039   1.060  13.452 -0.5412 -0.3848 -0.3386
   41TMC2    O1  636   2.431   1.111  13.146  0.5100  0.5322 -0.2662
   41TMC2    O2  637   1.990   1.027  13.564 -0.5078 -0.1335  0.0312
   41TMC2    O5  638   2.054   1.179  13.401 -0.4587  0.4761 -0.4163
   41TMC2    H5  639   2.051   1.182  13.303  0.7403 -1.3650 -0.5193
   42MPD2     C  640   2.180   0.387  13.588  0.0759  0.5900 -0.0761
   42MPD2    C1  641   2.176   0.511  13.649  0.4857 -0.7464 -0.1162
   42MPD2    C2  642   2.140   0.521  13.783  0.0383  0.0302 -0.5489
   42MPD2    C3  643   2.102   0.406  13.855  0.0897  0.0555  0.3888
   42MPD2    C4  644   2.115   0.290  13.792 -0.2056 -0.4419 -0.1769
   42MPD2    C5  645   2.153   0.277  13.661 -0.0448  0.2097 -0.4393
   42MPD2     H  646   2.140   0.611  13.844 -5.4322  0.8771 -1.7806
   42MPD2    H1  647   2.093   0.195  13.839  0.0351 -0.4782 -0.1348
   42MPD2    H2  648   2.195   0.375  13.481 -0.0312  0.2554 -0.0530
   42MPD2    H3  649   2.151   0.180  13.613 -1.8972  0.7806 -1.4938
   42MPD2     N  650   2.046   0.407  13.983 -0.2253  0.4583  0.0174
   42MPD2    H5  651   2.012   0.314  14.006  2.5411 -0.3463  0.7837
   42MPD2    N1  652   2.216   0.627  13.577  0.2622  0.1149 -0.2809
   42MPD2    H7  653   2.215   0.711  13.633  1.2147 -0.6604  0.8967
   43MPD2     C  654   3.496   3.059   1.001 -0.1118  0.5092  0.2437
   43MPD2    C1  655   3.462   3.140   0.896  0.9227  0.4524  0.2017
   43MPD2    C2  656   3.397   3.259   0.924 -0.0661 -0.3936  0.2089
   43MPD2    C3  657   3.386   3.301   1.061 -0.3633  0.2435 -1.1093
   43MPD2    C4  658   3.433   3.221   1.157  0.5580 -0.3321  0.2718
   43MPD2    C5  659   3.481   3.094   1.126 -0.1054 -0.7093 -0.2480
   43MPD2     H  660   3.361   3.322   0.843 -1.9222 -1.4715  0.1934
   43MPD2    H1  661   3.443   3.260   1.258  4.6499  0.0481 -0.2861
   43MPD2    H2  662   3.537   2.961   0.977  0.9783  0.9258  0.4033
   43MPD2    H3  663   3.522   3.033   1.206 -0.5073 -2.7433 -1.5900
   43MPD2     N  664   3.343   3.430   1.086  0.2055 -0.2585  0.1411
   43MPD2    H5  665   3.339   3.462   1.182  1.8829 -0.0770  0.1631
   43MPD2    N1  666   3.481   3.087   0.767 -0.1739  0.3534  0.7545
   43MPD2    H7  667   3.526   2.997   0.763  0.9471  0.9870 -0.8553
   44TCq2    C1  668   2.932   3.802   1.147  0.2815  0.4480  0.1896
   44TCq2    O2  669   2.879   3.789   1.032 -0.4410 -0.1239  0.0824
   44TCq2    C2  670   3.075   3.782   1.150 -0.3823 -0.2027  0.0561
   44TCq2    C3  671   3.139   3.809   1.265  0.0911 -0.2493 -0.0931
   44TCq2    C4  672   3.263   3.760   1.275 -0.5030 -0.3871  1.0385
   44TCq2    C5  673   3.331   3.683   1.183 -0.4821 -0.1775  0.5592
   44TCq2    C6  674   3.257   3.653   1.073 -0.2669  0.3657 -0.5870
   44TCq2    C7  675   3.133   3.701   1.053 -0.7388 -0.2392 -0.2933
   44TCq2    C8  676   3.289   3.528   1.006  0.4928  0.0173  0.1954
   44TCq2    O4  677   3.269   3.529   0.884  0.4943 -0.2463 -0.8207
   44TCq2    C9  678   3.330   3.791   1.395  0.8849  0.5005  0.8018
   44TCq2    O5  679   3.255   3.835   1.489 -0.6806 -0.0457  0.2815
   44TCq2    O6  680   3.456   3.762   1.401 -0.1979  0.7405 -0.0426
   44TCq2    H2  681   3.101   3.876   1.341 -1.3294 -1.2496  0.0615
   44TCq2    H3  682   3.433   3.654   1.206  0.2386  1.6580 -0.3730
   44TCq2    H4  683   3.070   3.663   0.974  0.7648 -0.9426 -1.1730
   45TMC2    C1  684   0.281   0.293   9.684 -1.2770  0.0945 -0.2200
   45TMC2    C2  685   0.330   0.186   9.761 -0.2929 -0.0504  0.0421
   45TMC2    C3  686   0.397   0.218   9.872  0.3028  0.9097  0.0233
   45TMC2    C4  687   0.266   0.424   9.733 -0.2276  0.6828 -0.0879
   45TMC2    C5  688   0.345   0.446   9.846 -0.6361  0.5524 -0.3101
   45TMC2    C6  689   0.403   0.344   9.920  0.6008  0.5313 -0.5720
   45TMC2     C  690   0.229   0.249   9.559  0.1835 -0.4006  0.0471
   45TMC2     O  691   0.253   0.136   9.509 -0.7431  0.4338 -0.4921
   45TMC2     H  692   0.336   0.082   9.731  1.4472  0.3547 -0.9532
   45TMC2    H1  693   0.216   0.507   9.684 -1.8863  0.6470  1.5256
   45TMC2    H2  694   0.477   0.367   9.995 -0.6646  0.5614  0.6596
   45TMC2    C7  695   0.374   0.581   9.884 -0.0181 -0.1565  0.0126
   45TMC2    C8  696   0.464   0.116   9.948  0.6640  0.0221  0.1907
   45TMC2    O1  697   0.387   0.600  10.004  0.2463 -0.4190 -0.1488
   45TMC2    O2  698   0.542   0.129  10.044  0.2077 -0.2450 -0.1027
   45TMC2    O5  699   0.355   0.029   9.944 -0.0161  0.2005 -0.4646
   45TMC2    H5  700   0.296   0.037   9.866  0.5146 -0.4859 -0.9332
   46MPD2     C  701   4.704   0.176   9.431  0.2547 -0.2216 -0.1243
   46MPD2    C1  702   0.025   0.306   9.437 -0.9361  0.2121  0.1566
   46MPD2    C2  703   4.667   0.407   9.383  0.1410  0.7702 -0.3992
   46MPD2    C3  704   4.554   0.378   9.308  0.7694 -0.1004 -0.4395
   46MPD2    C4  705   4.514   0.245   9.303  0.1951 -0.5967 -0.1271
   46MPD2    C5  706   4.583   0.148   9.373  0.1276  0.0364 -0.2085
   46MPD2     H  707   4.717   0.503   9.373 -2.2583  1.8117 -2.4313
   46MPD2    H1  708   4.423   0.206   9.258 -1.1216  2.2240  0.0372
   46MPD2    H2  709   0.031   0.093   9.476 -2.3119 -0.9678  1.4440
   46MPD2    H3  710   4.540   0.049   9.375  0.1548  0.0252 -0.1859
   46MPD2     N  711   4.482   0.485   9.246  1.0413 -0.1495 -0.2765
   46MPD2    H5  712   4.527   0.576   9.246  0.4776  0.1407 -1.2228
   46MPD2    N1  713   0.137   0.342   9.507  0.3805  0.0361  0.7367
   46MPD2    H7  714   0.160   0.438   9.528 -3.0573  0.7511  1.2080
   47TMC2    C1  715   1.361   1.060   9.461  0.2135  0.7471  0.0399
   47TMC2    C2  716   1.350   0.953   9.377 -0.1003  0.8674  0.7352
   47TMC2    C3  717   1.230   0.918   9.326  0.5299  0.4335 -0.0467
   47TMC2    C4  718   1.253   1.147   9.469 -0.3856  0.4260  0.1833
   47TMC2    C5  719   1.137   1.115   9.406 -0.6936  1.2148 -0.0323
   47TMC2    C6  720   1.115   0.991   9.350  0.2588 -0.0371  0.2181
   47TMC2     C  721   1.487   1.102   9.512 -0.2385  0.2878 -0.4979
   47TMC2     O  722   1.481   1.213   9.566 -0.0707  0.4132 -0.0019
   47TMC2     H  723   1.438   0.897   9.348 -0.3006  0.0387  1.7521
   47TMC2    H1  724   1.269   1.245   9.515 -2.4180  1.6932 -1.7971
   47TMC2    H2  725   1.026   0.959   9.297 -0.1899  0.8062  0.4600
   47TMC2    C7  726   1.038   1.217   9.390 -0.7559  0.2657  0.1755
   47TMC2    C8  727   1.232   0.797   9.242  0.3809  0.3505  0.4174
   47TMC2    O1  728   1.043   1.308   9.477 -0.1949 -0.7726  0.1801
   47TMC2    O2  729   1.129   0.777   9.176 -0.3366  0.1039  0.2027
   47TMC2    O5  730   1.283   0.701   9.320  0.4764 -0.1083 -0.2660
   47TMC2    H5  731   1.332   0.729   9.400  1.7460  1.4207 -1.5551
   48MPD2     C  732   1.778   1.178   9.549 -0.6346  0.1379 -0.7114
   48MPD2    C1  733   1.727   1.050   9.519 -0.3402 -0.0799  0.6556
   48MPD2    C2  734   1.826   0.952   9.504  0.6441 -0.2526  0.2415
   48MPD2    C3  735   1.954   0.976   9.529 -0.0964 -0.3219  0.0021
   48MPD2    C4  736   1.996   1.098   9.572 -0.3520 -0.2237  0.0533
   48MPD2    C5  737   1.911   1.201   9.573 -0.2364  0.1225 -0.6127
   48MPD2     H  738   1.798   0.855   9.466 -1.0779 -0.0274  0.9157
   48MPD2    H1  739   2.102   1.120   9.584 -0.3534 -0.3684  0.3330
   48MPD2    H2  740   1.708   1.260   9.540 -0.3175  0.4159 -0.6034
   48MPD2    H3  741   1.949   1.300   9.592  1.2903 -0.5925  0.0290
   48MPD2     N  742   2.036   0.859   9.520 -0.1661 -0.1425 -0.2787
   48MPD2    H5  743   1.989   0.778   9.481 -0.2842  1.2448 -2.9737
   48MPD2    N1  744   1.592   1.021   9.490 -0.6311 -0.1928 -0.6326
   48MPD2    H7  745   1.573   0.927   9.459 -0.3372 -0.8949  1.3154
   49MPD2     C  746   4.594   3.131   9.746 -0.0725  0.0934 -0.4196
   49MPD2    C1  747   4.602   3.064   9.868 -1.1864  0.7676 -0.1546
   49MPD2    C2  748   4.654   3.130   9.980 -0.6428  0.9177 -0.2613
   49MPD2    C3  749   4.685   3.267   9.968 -0.1962 -0.9565  0.4391
   49MPD2    C4  750   4.669   3.334   9.851 -0.9140  0.3450  0.0680
   49MPD2    C5  751   4.632   3.263   9.741  0.5309  0.5012 -0.2643
   49MPD2     H  752   4.671   3.078  10.073 -1.6472 -1.0151 -1.1591
   49MPD2    H1  753   4.673   3.442   9.842 -0.8250  0.1797 -1.9113
   49MPD2    H2  754   4.560   3.083   9.655  2.4839 -0.9585 -0.8230
   49MPD2    H3  755   4.601   3.306   9.647 -3.0604 -0.2265  0.5842
   49MPD2     N  756   4.724   3.351  10.079  0.7890 -0.7787 -0.7312
   49MPD2    H5  757   4.723   3.452  10.064 -1.2326 -0.7990 -0.7614
   49MPD2    N1  758   4.582   2.925   9.869 -0.6175 -0.1259 -0.2170
   49MPD2    H7  759   4.599   2.877   9.957  2.0757  2.1709  0.5264
   50TCq2    C1  760   4.496   2.858   9.784  0.5327 -0.3074  0.1380
   50TCq2    O2  761   4.440   2.889   9.680 -0.4111  0.0894  0.8940
   50TCq2    C2  762   4.494   2.710   9.816 -0.4992 -0.3245  0.7911
   50TCq2    C3  763   4.392   2.638   9.760  0.6813  0.2704  0.1294
   50TCq2    C4  764   4.386   2.505   9.782 -0.5178 -0.5641  0.7672
   50TCq2    C5  765   4.480   2.440   9.857  0.0834 -0.3669  0.1657
   50TCq2    C6  766   4.573   2.515   9.926  0.1135  0.0651  0.1222
   50TCq2    C7  767   4.579   2.650   9.905 -0.1267 -0.3597 -0.2363
   50TCq2    C8  768   4.666   2.448  10.019  0.3207 -0.2939 -0.4016
   50TCq2    O4  769   4.689   2.328  10.009  0.0873  0.1828 -0.4519
   50TCq2    C9  770   4.282   2.428   9.719  0.3430  0.7925 -0.5741
   50TCq2    O5  771   4.214   2.487   9.628  0.0762 -0.1659  0.2256
   50TCq2    O6  772   4.284   2.301   9.733  0.6941  0.7637 -0.2948
   50TCq2    H2  773   4.313   2.684   9.702 -0.6944  1.0635  2.6339
   50TCq2    H3  774   4.476   2.333   9.874 -0.7604 -0.7195 -2.2020
   50TCq2    H4  775   4.661   2.706   9.949 -0.1766 -0.1907 -0.3593
   51MPD2     C  776   0.667   0.541   1.671  0.1584 -0.4016 -0.4488
   51MPD2    C1  777   0.654   0.673   1.631 -0.4992  1.1355  0.2125
   51MPD2    C2  778   0.751   0.766   1.669 -0.3912  0.6879  0.0730
   51MPD2    C3  779   0.862   0.725   1.747  0.2681  0.4529  0.4212
   51MPD2    C4  780   0.874   0.597   1.791  0.7374  0.3673 -0.2104
   51MPD2    C5  781   0.773   0.513   1.757  1.1955 -0.6371  0.5736
   51MPD2     H  782   0.737   0.865   1.628 -1.5962  1.1038  1.4913
   51MPD2    H1  783   0.964   0.563   1.842 -0.1669 -0.6229  0.7203
   51MPD2    H2  784   0.598   0.458   1.661 -1.8312  1.1377  0.4487
   51MPD2    H3  785   0.780   0.413   1.796 -1.6123 -0.0273  2.6479
   51MPD2     N  786   0.967   0.808   1.789 -0.4715  0.5174  0.0255
   51MPD2    H5  787   1.025   0.764   1.860 -1.4461 -1.6790 -0.5285
   51MPD2    N1  788   0.538   0.715   1.562 -0.1001  0.6078  0.8157
   51MPD2    H7  789   0.535   0.808   1.522  2.4829  0.5577  0.4872
   52TCq2    C1  790   0.974   0.940   1.766  0.4184  0.4451 -0.5075
   52TCq2    O2  791   0.900   1.012   1.699 -0.2036 -0.1108  0.4135
   52TCq2    C2  792   1.080   1.007   1.842  0.1257 -0.8516 -0.1663
   52TCq2    C3  793   1.208   0.969   1.826 -0.7612 -0.5997  0.2893
   52TCq2    C4  794   1.309   1.063   1.839 -0.3923  0.5302 -0.7329
   52TCq2    C5  795   1.282   1.193   1.883  0.4671  0.4323 -0.0017
   52TCq2    C6  796   1.154   1.229   1.903 -0.0344  0.5363  0.2575
   52TCq2    C7  797   1.053   1.139   1.868  1.0298  0.3505 -0.7106
   52TCq2    C8  798   1.123   1.358   1.850  0.0792  0.6163  0.6257
   52TCq2    O4  799   1.009   1.390   1.817  0.2813 -0.0616  0.1107
   52TCq2    C9  800   1.442   1.018   1.851 -0.8815 -0.1979 -0.3164
   52TCq2    O5  801   1.455   0.895   1.862  0.3343 -0.5145 -0.1105
   52TCq2    O6  802   1.529   1.103   1.878 -0.1534 -0.1481  0.2482
   52TCq2    H2  803   1.239   0.866   1.813  2.3969  0.1380  1.8460
   52TCq2    H3  804   1.366   1.248   1.923  1.7479 -1.7957  0.3725
   52TCq2    H4  805   0.950   1.174   1.869  0.8887 -0.0910  0.2284
   53TMC2    C1  806   1.344   0.387  11.489  0.2484  0.6025  0.6928
   53TMC2    C2  807   1.475   0.377  11.513 -0.1029 -0.2638  0.8710
   53TMC2    C3  808   1.524   0.432  11.631 -0.3371  0.2637  0.1351
   53TMC2    C4  809   1.263   0.450  11.581 -0.1457  0.5826  0.5247
   53TMC2    C5  810   1.313   0.505  11.697  0.0854  1.0201  0.3752
   53TMC2    C6  811   1.442   0.492  11.729  0.2640  0.0428 -0.1369
   53TMC2     C  812   1.286   0.315  11.378 -0.1904 -0.5607  0.2575
   53TMC2     O  813   1.331   0.204  11.354  0.0002  0.1439  0.1747
   53TMC2     H  814   1.529   0.335  11.429 -1.8270 -0.3083 -0.2204
   53TMC2    H1  815   1.156   0.438  11.571 -0.2900  1.1614  1.3309
   53TMC2    H2  816   1.486   0.542  11.815 -1.5752  0.1073  0.7700
   53TMC2    C7  817   1.225   0.587  11.775 -0.1663  0.5087 -0.7559
   53TMC2    C8  818   1.670   0.466  11.646  0.7375  0.2875  0.0539
   53TMC2    O1  819   1.123   0.619  11.715  0.6376 -0.2772 -0.1111
   53TMC2    O2  820   1.700   0.581  11.681 -0.1145 -0.1943  0.5253
   53TMC2    O5  821   1.737   0.390  11.556  0.1380 -0.3334  0.5105
   53TMC2    H5  822   1.685   0.318  11.516 -0.7627  1.4415 -1.5177
   54MPD2     C  823   1.082   0.183  11.210 -0.3795  0.1260 -0.8500
   54MPD2    C1  824   1.075   0.312  11.253  0.0742 -0.4970 -0.1072
   54MPD2    C2  825   0.959   0.387  11.225 -0.0136 -0.4607  0.5501
   54MPD2    C3  826   0.853   0.335  11.151  0.5170  0.2246  0.1175
   54MPD2    C4  827   0.870   0.210  11.099  0.5127 -0.5392  0.0956
   54MPD2    C5  828   0.973   0.134  11.139 -0.0279 -0.3975  0.2434
   54MPD2     H  829   0.951   0.491  11.256 -0.2894  0.0513 -1.2485
   54MPD2    H1  830   0.796   0.155  11.041  0.7186 -1.4665  0.7178
   54MPD2    H2  831   1.161   0.116  11.243  0.7412  2.0157  0.3006
   54MPD2    H3  832   0.994   0.035  11.100 -0.5701 -0.2531 -0.4040
   54MPD2     N  833   0.731   0.409  11.122  0.2208 -0.6913 -0.0359
   54MPD2    H5  834   0.660   0.367  11.063 -0.0537  0.2815 -0.3902
   54MPD2    N1  835   1.175   0.375  11.335 -0.0057 -0.0018  0.5901
   54MPD2    H7  836   1.167   0.475  11.352  1.2506 -0.1642  2.0926
   55MPD2     C  837   1.566   3.022  17.461 -0.8117  0.0877 -0.3002
   55MPD2    C1  838   1.533   2.906  17.522  0.7532  0.9314  0.0631
   55MPD2    C2  839   1.467   2.918  17.644 -0.6574 -0.1986 -0.6548
   55MPD2    C3  840   1.440   3.048  17.694 -0.1263 -0.1519  0.0383
   55MPD2    C4  841   1.482   3.165  17.640 -0.8668 -0.2638 -0.4965
   55MPD2    C5  842   1.548   3.143  17.524  0.4592 -0.4639 -0.1156
   55MPD2     H  843   1.414   2.839  17.696  1.3847 -0.5358  0.9029
   55MPD2    H1  844   1.474   3.264  17.684 -0.9085 -0.9511  1.0304
   55MPD2    H2  845   1.613   3.010  17.364  1.8679 -1.6912  1.2307
   55MPD2    H3  846   1.588   3.232  17.476 -0.7182 -0.2538 -0.7214
   55MPD2     N  847   1.354   3.047   0.108 -0.2443 -0.5338  0.2804
   55MPD2    H5  848   1.338   2.955   0.149  0.2855 -0.6512  0.2335
   55MPD2    N1  849   1.559   2.781  17.463 -0.3452 -0.2611 -0.2644
   55MPD2    H7  850   1.617   2.786  17.380  0.3432  1.7269  0.3297
   56TCq2    C1  851   1.523   2.659  17.511  0.0015  0.2597 -0.6159
   56TCq2    O2  852   1.474   2.631  17.621  0.0750  0.4151 -0.3291
   56TCq2    C2  853   1.594   2.554  17.442 -0.3025  0.0760 -0.1558
   56TCq2    C3  854   1.659   2.572  17.325 -0.2430  0.7988 -0.1890
   56TCq2    C4  855   1.741   2.477  17.277 -0.2417  0.8407  0.0813
   56TCq2    C5  856   1.766   2.371  17.353  0.6189 -0.2015 -0.4842
   56TCq2    C6  857   1.708   2.354  17.473  0.4133  0.3605 -0.1731
   56TCq2    C7  858   1.614   2.441  17.518  0.5771  0.3648 -0.0814
   56TCq2    C8  859   1.746   2.233  17.546 -0.2216 -0.2624  0.5761
   56TCq2    O4  860   1.857   2.185  17.519  0.6607  0.0624  0.3431
   56TCq2    C9  861   1.808   2.492  17.153  0.4079  0.5234 -0.4716
   56TCq2    O5  862   1.768   2.581  17.075  0.7584 -0.3359 -0.3131
   56TCq2    O6  863   1.881   2.397  17.123  0.6530 -0.7866 -0.0621
   56TCq2    H2  864   1.643   2.657  17.259 -1.1861  0.3627 -0.5277
   56TCq2    H3  865   1.846   2.302  17.327 -0.5666 -1.6300 -0.2926
   56TCq2    H4  866   1.575   2.436  17.619 -2.5822  0.8110 -1.2895
   57TMC2    C1  867   0.652   4.440  13.485 -0.7204  0.3171  0.0522
   57TMC2    C2  868   0.684   4.422  13.617 -0.3073 -0.4550  0.0912
   57TMC2    C3  869   0.778   4.330  13.650  0.3115  0.5778  0.2958
   57TMC2    C4  870   0.731   4.391  13.387 -0.0488  0.4619 -0.4344
   57TMC2    C5  871   0.824   4.300  13.420  0.2321  0.1823  0.4764
   57TMC2    C6  872   0.850   4.261  13.549  0.2565 -0.3346  0.0066
   57TMC2     C  873   0.511   4.449  13.463  1.2764 -0.4835 -0.3735
   57TMC2     O  874   0.456   4.533  13.530 -0.5956 -0.0660  0.0696
   57TMC2     H  875   0.616   4.465  13.690  0.1248  1.6425 -0.7271
   57TMC2    H1  876   0.711   4.408  13.282 -0.6236  0.8897 -0.2525
   57TMC2    H2  877   0.935   4.199  13.574  1.3936  0.6315 -1.4321
   57TMC2    C7  878   0.938   4.287  13.333  0.0289 -0.2910  0.2116
   57TMC2    C8  879   0.791   4.276  13.786  0.0125  0.5147  0.4783
   57TMC2    O1  880   0.975   4.382  13.269  0.5840  0.4689 -0.3074
   57TMC2    O2  881   0.902   4.254  13.826  0.3743 -0.2063 -0.3294
   57TMC2    O5  882   0.684   4.309  13.864 -0.1990 -0.3667 -0.0237
   57TMC2    H5  883   0.601   4.309  13.812 -0.3383  3.0770  0.1723
   58MPD2     C  884   0.074   4.212  13.347  0.5174  0.1089  0.0393
   58MPD2    C1  885   0.101   4.310  13.442 -0.1214 -0.0234 -0.2948
   58MPD2    C2  886   0.230   4.367  13.442 -0.1558 -0.2258  0.1204
   58MPD2    C3  887   0.331   4.321  13.354  0.3967 -0.7139 -0.0525
   58MPD2    C4  888   0.299   4.231  13.256 -0.0417 -0.3051  0.6260
   58MPD2    C5  889   0.168   4.182  13.252  0.3178  0.1425  0.4121
   58MPD2     H  890   0.252   4.433  13.525 -0.9436 -0.2610  0.3596
   58MPD2    H1  891   0.362   4.193  13.176 -1.4552 -0.5548 -0.3900
   58MPD2    H2  892   4.699   4.172  13.335 -0.0167  1.1564  0.9116
   58MPD2    H3  893   0.142   4.113  13.172 -0.7243  0.0090  0.8598
   58MPD2     N  894   0.463   4.370  13.359 -0.0795  0.5048  0.3246
   58MPD2    H5  895   0.529   4.319  13.301  0.4287  0.6843  0.7325
   58MPD2    N1  896   0.021   4.348  13.552 -0.3298  0.0283 -0.3430
   58MPD2    H7  897   0.062   4.404  13.626  0.5972 -0.5378 -0.4356
   59MPD2     C  898   3.212   4.507  12.749  0.1565 -0.0929  0.4540
   59MPD2    C1  899   3.321   4.442  12.707  0.5962  0.4217  0.3472
   59MPD2    C2  900   3.438   4.478  12.762  0.0528  0.6419  0.7549
   59MPD2    C3  901   3.446   4.579  12.857 -0.3994  0.3078  0.3264
   59MPD2    C4  902   3.328   4.647  12.889  1.3971  0.2216 -0.0533
   59MPD2    C5  903   3.212   4.605  12.841  0.4845 -0.0806  0.0017
   59MPD2     H  904   3.527   4.431  12.721 -0.0052  2.7998 -1.8197
   59MPD2    H1  905   3.321   0.007  12.956 -0.1018  1.8209 -2.2430
   59MPD2    H2  906   3.116   4.493  12.700  0.9807 -1.6181 -0.7360
   59MPD2    H3  907   3.120   4.656  12.870  1.1341  1.4779 -0.6484
   59MPD2     N  908   3.566   4.632  12.920 -0.2078 -0.4796  0.1512
   59MPD2    H5  909   3.568   4.705  12.991 -1.1480  2.6456 -3.0481
   59MPD2    N1  910   3.323   4.356  12.593  0.1030 -0.3181 -0.4446
   59MPD2    H7  911   3.412   4.330  12.550  0.5106 -1.2297  0.9435
   60TCq2    C1  912   3.219   4.284  12.534  0.3744  0.7070 -0.5842
   60TCq2    O2  913   3.101   4.283  12.570  0.1916 -0.0285  0.5123
   60TCq2    C2  914   3.258   4.215  12.418  0.7528 -0.0036  0.3735
   60TCq2    C3  915   3.193   4.099  12.385 -0.7098 -0.2665 -0.0497
   60TCq2    C4  916   3.244   4.040  12.268 -0.4628  0.5752 -0.7845
   60TCq2    C5  917   3.347   4.092  12.197 -0.1862  0.2235 -0.2614
   60TCq2    C6  918   3.387   4.218  12.224 -0.3930 -0.7551  0.3018
   60TCq2    C7  919   3.356   4.279  12.340 -0.2922  0.1252 -0.2452
   60TCq2    C8  920   3.476   4.288  12.127 -0.1954 -0.3563  0.3231
   60TCq2    O4  921   3.534   4.213  12.047 -0.5213 -0.8127  0.6033
   60TCq2    C9  922   3.186   3.922  12.215  0.6203 -0.0815  0.7130
   60TCq2    O5  923   3.215   3.895  12.092 -0.5272  0.3899  0.3153
   60TCq2    O6  924   3.098   3.870  12.290  0.4734 -0.8473  0.3986
   60TCq2    H2  925   3.106   4.053  12.430  0.2498 -0.8053  1.2690
   60TCq2    H3  926   3.378   4.045  12.104 -0.1518 -2.8002  1.2914
   60TCq2    H4  927   3.378   4.384  12.357 -2.0673  0.6836 -1.3267
   61MPD2     C  928   2.386   0.590  14.199  1.0901 -0.4580 -0.1768
   61MPD2    C1  929   2.400   0.686  14.298  0.8216  0.1307 -0.0843
   61MPD2    C2  930   2.442   0.813  14.270 -0.1312 -0.2095  0.5227
   61MPD2    C3  931   2.461   0.853  14.141  0.2738 -0.2109  0.3887
   61MPD2    C4  932   2.447   0.762  14.041 -0.8683  0.5529 -0.2263
   61MPD2    C5  933   2.413   0.630  14.071  0.0935  0.1583 -1.2381
   61MPD2     H  934   2.464   0.881  14.352 -0.6638 -1.1830  1.4746
   61MPD2    H1  935   2.462   0.787  13.937  0.5084  1.0728  0.1044
   61MPD2    H2  936   2.359   0.487  14.218  2.7289 -0.3266  2.8993
   61MPD2    H3  937   2.400   0.558  13.990 -3.6365 -0.4121 -0.1180
   61MPD2     N  938   2.503   0.982  14.119  0.6133 -0.0369  0.1673
   61MPD2    H5  939   2.521   1.040  14.201  0.6890 -1.3049  1.0519
   61MPD2    N1  940   2.392   0.663  14.433  0.0992  0.6485 -0.3730
   61MPD2    H7  941   2.387   0.739  14.500 -3.2845 -0.4966  0.7128
   62TCq2    C1  942   2.349   0.546  14.492 -0.7946  0.2814  0.6583
   62TCq2    O2  943   2.325   0.435  14.447 -0.6344 -0.1842 -0.1455
   62TCq2    C2  944   2.300   0.570  14.625  0.0615  0.4811 -0.8816
   62TCq2    C3  945   2.217   0.474  14.682 -0.6192 -0.2798 -0.3385
   62TCq2    C4  946   2.157   0.505  14.801 -0.3158 -0.1794 -0.5041
   62TCq2    C5  947   2.148   0.634  14.847  0.1316  0.0212  0.3712
   62TCq2    C6  948   2.237   0.728  14.782 -0.9684 -0.3477  0.3382
   62TCq2    C7  949   2.318   0.693  14.679 -0.3446 -0.8080  0.1239
   62TCq2    C8  950   2.270   0.852  14.842 -0.5241 -0.4217  0.2873
   62TCq2    O4  951   2.368   0.911  14.795 -0.2941  0.2521  0.0937
   62TCq2    C9  952   2.097   0.397  14.874  0.4364  0.0510 -0.0120
   62TCq2    O5  953   2.133   0.279  14.842 -0.2963  0.1394  0.4151
   62TCq2    O6  954   2.036   0.418  14.980 -0.2324 -0.8615 -0.0348
   62TCq2    H2  955   2.199   0.377  14.636 -0.5841  0.4936 -1.9813
   62TCq2    H3  956   2.093   0.649  14.938 -0.0858  2.3191 -0.1403
   62TCq2    H4  957   2.388   0.769  14.646 -1.4370  0.5363  0.9300
   63TMC2    C1  958   2.095   0.908  11.104 -0.0226 -0.0873  0.6104
   63TMC2    C2  959   2.112   0.966  11.229  0.0961 -0.3950  0.2362
   63TMC2    C3  960   2.209   1.056  11.245  0.2871 -0.5854  0.3798
   63TMC2    C4  961   2.186   0.925  11.001 -0.3599  0.0734 -0.1907
   63TMC2    C5  962   2.276   1.023  11.022  0.5256 -0.5025  0.8818
   63TMC2    C6  963   2.293   1.091  11.145 -0.6739  0.3033  0.1363
   63TMC2     C  964   1.982   0.820  11.076 -0.0012  0.4261  0.5946
   63TMC2     O  965   1.887   0.847  11.150 -0.6886  0.4896 -0.3227
   63TMC2     H  966   2.038   0.952  11.308  1.7540  0.4069  1.9306
   63TMC2    H1  967   2.180   0.877  10.904 -3.2447 -2.2543  1.1383
   63TMC2    H2  968   2.372   1.161  11.168 -0.0610  0.3456 -2.1837
   63TMC2    C7  969   2.349   1.063  10.902  0.1439 -0.7451 -0.0891
   63TMC2    C8  970   2.243   1.092  11.379  0.3413 -0.1066  0.2011
   63TMC2    O1  971   2.301   1.023  10.797 -0.1032  0.3216 -0.3701
   63TMC2    O2  972   2.316   1.179  11.410 -0.3318  0.6894 -0.3244
   63TMC2    O5  973   2.220   0.979  11.448 -0.2557 -0.3830  0.2771
   63TMC2    H5  974   2.160   0.917  11.400 -0.5395 -0.4620  0.7288
   64MPD2     C  975   1.779   0.435  10.820 -0.2787 -0.4037 -0.2464
   64MPD2    C1  976   1.916   0.431  10.806 -0.2948  0.3804 -0.1468
   64MPD2    C2  977   1.987   0.537  10.855  0.3209 -0.2514 -0.4303
   64MPD2    C3  978   1.926   0.635  10.923  0.7938  0.6655 -0.3066
   64MPD2    C4  979   1.792   0.643  10.939 -0.0089 -0.0342 -0.4122
   64MPD2    C5  980   1.718   0.543  10.889  0.6762  0.1878  0.2529
   64MPD2     H  981   2.092   0.545  10.829  0.5488  0.8381  0.8919
   64MPD2    H1  982   1.745   0.717  11.003 -0.6637 -0.8647  0.0642
   64MPD2    H2  983   1.711   0.364  10.775 -0.2545 -1.1196  0.8536
   64MPD2    H3  984   1.611   0.537  10.908  0.4221  1.5793 -0.7218
   64MPD2     N  985   2.016   0.717  10.991  0.9177  0.1321 -0.1866
   64MPD2    H5  986   2.114   0.718  10.962  0.7300 -1.0532 -0.8386
   64MPD2    N1  987   1.990   0.322  10.745 -0.0465  0.0126 -0.2642
   64MPD2    H7  988   2.090   0.322  10.758 -0.1298  2.9607  0.3838
   65MPD2     C  989   3.461   0.843  15.872  0.3359  0.1381 -0.6768
   65MPD2    C1  990   3.407   0.843  15.750  0.5546 -0.5545  0.3767
   65MPD2    C2  991   3.334   0.737  15.706  0.6724  0.0360 -0.4918
   65MPD2    C3  992   3.304   0.627  15.785 -0.0332 -0.4214  0.2564
   65MPD2    C4  993   3.361   0.622  15.915  0.0185  0.2119  0.2654
   65MPD2    C5  994   3.438   0.732  15.952 -0.4356 -0.1114  0.0254
   65MPD2     H  995   3.285   0.750  15.610 -0.8704 -0.9624  0.1427
   65MPD2    H1  996   3.325   0.548  15.985 -0.0531  0.5988  0.6326
   65MPD2    H2  997   3.524   0.924  15.906  0.3582 -1.1153  2.3090
   65MPD2    H3  998   3.484   0.727  16.050  2.0378  1.6394 -1.0576
   65MPD2     N  999   3.228   0.520  15.739 -0.0856  0.1560  0.0508
   65MPD2    H5 1000   3.192   0.465  15.817  0.6051 -0.6362 -0.1828
   65MPD2    N1 1001   3.418   0.955  15.660  0.2026 -0.5784  0.1905
   65MPD2    H7 1002   3.364   0.940  15.575 -0.7506  3.7427  0.0269
   66TCq2    C1 1003   3.467   1.081  15.688  0.0322 -0.2434 -0.0001
   66TCq2    O2 1004   3.488   1.136  15.796  0.3231  0.5164  0.1700
   66TCq2    C2 1005   3.476   1.161  15.566 -0.0266  0.4131 -0.0494
   66TCq2    C3 1006   3.460   1.105  15.444 -0.0659  0.0499  0.5049
   66TCq2    C4 1007   3.437   1.187  15.331 -0.1602  0.2788 -1.2803
   66TCq2    C5 1008   3.453   1.320  15.342 -0.0626 -0.3506  0.2178
   66TCq2    C6 1009   3.472   1.369  15.467  1.0484 -0.4136 -0.0249
   66TCq2    C7 1010   3.489   1.300  15.585 -0.6264  0.2661  0.3004
   66TCq2    C8 1011   3.498   1.510  15.471 -0.3283 -0.0009  0.7269
   66TCq2    O4 1012   3.538   1.575  15.377 -0.2828 -0.4402 -0.9090
   66TCq2    C9 1013   3.384   1.143  15.200  0.4607  0.1250 -0.9301
   66TCq2    O5 1014   3.359   1.020  15.195  0.1273  0.3701 -0.1555
   66TCq2    O6 1015   3.322   1.230  15.136  0.9055 -0.5016 -0.3570
   66TCq2    H2 1016   3.447   0.997  15.439  1.0505 -0.1082  1.0621
   66TCq2    H3 1017   3.428   1.390  15.264  1.6499  2.6072  2.3501
   66TCq2    H4 1018   3.503   1.342  15.683  1.5365 -0.2600  0.2268
   67MPD2     C 1019   2.864   4.436  14.410  0.1204 -0.8391  0.6792
   67MPD2    C1 1020   2.853   4.567  14.362  0.1901 -0.1006  0.9587
   67MPD2    C2 1021   2.769   4.593  14.261 -0.3539 -0.3513  0.0290
   67MPD2    C3 1022   2.705   4.492  14.197  0.3624 -0.4742 -0.0390
   67MPD2    C4 1023   2.721   4.362  14.244 -0.1578  0.9367  0.1401
   67MPD2    C5 1024   2.795   4.329  14.352 -0.2903 -0.4947  0.3642
   67MPD2     H 1025   2.752   4.698  14.239 -2.0244 -0.4402  0.9175
   67MPD2    H1 1026   2.672   4.283  14.189 -0.4074 -1.1440  3.3552
   67MPD2    H2 1027   2.922   4.409  14.497  0.8561 -1.0394  0.1179
   67MPD2    H3 1028   2.791   4.227  14.387  2.9928 -0.6312  0.3339
   67MPD2     N 1029   2.616   4.509  14.092 -0.7480  0.6887 -0.1549
   67MPD2    H5 1030   2.569   4.425  14.060 -0.7006 -0.1257  1.9176
   67MPD2    N1 1031   2.925   4.678  14.413 -0.3634  0.1884  0.0089
   67MPD2    H7 1032   2.896   0.046  14.386  1.0336  0.5440 -0.2406
   68TCq2    C1 1033   3.020   4.656  14.513 -0.5182  0.2141 -0.2888
   68TCq2    O2 1034   3.073   4.549  14.541 -0.6548 -0.6219 -0.2649
   68TCq2    C2 1035   3.076   0.055  14.567  0.6353 -0.6308 -0.3244
   68TCq2    C3 1036   3.005   0.174  14.580 -0.2203 -0.0118 -0.0601
   68TCq2    C4 1037   3.059   0.279  14.653 -0.5710 -0.3198 -0.0727
   68TCq2    C5 1038   3.188   0.267  14.704  0.7444 -0.0271  0.4388
   68TCq2    C6 1039   3.259   0.151  14.687 -0.3202  0.3918 -0.0584
   68TCq2    C7 1040   3.206   0.044  14.627  0.6954  0.0256  0.4588
   68TCq2    C8 1041   3.399   0.155  14.720  0.1216 -0.1219 -0.3618
   68TCq2    O4 1042   3.478   0.096  14.646  0.2885  0.2745  0.4128
   68TCq2    C9 1043   2.996   0.412  14.645 -0.2025 -0.3345  0.1030
   68TCq2    O5 1044   2.881   0.432  14.590 -0.0418 -0.5608  0.1988
   68TCq2    O6 1045   3.067   0.505  14.689  0.2289  0.0831  0.0731
   68TCq2    H2 1046   2.903   0.177  14.542 -0.7388 -0.3998  1.3286
   68TCq2    H3 1047   3.230   0.359  14.744 -0.1266  0.0854  1.0944
   68TCq2    H4 1048   3.256   4.673  14.622 -1.3715 -1.0420  0.6191
   69TMC2    C1 1049   0.614   1.187  12.448 -0.3902  0.2502 -0.4554
   69TMC2    C2 1050   0.496   1.250  12.424 -0.5116 -0.1644 -0.0417
   69TMC2    C3 1051   0.504   1.354  12.339 -0.2430 -0.0527  0.3643
   69TMC2    C4 1052   0.733   1.215  12.382 -0.2252  0.1642  0.4241
   69TMC2    C5 1053   0.723   1.303  12.275 -0.3938 -0.4375  0.3534
   69TMC2    C6 1054   0.611   1.376  12.255  0.6627  0.5727 -0.1191
   69TMC2     C 1055   0.617   1.074  12.534 -0.1481  0.0918 -0.0783
   69TMC2     O 1056   0.507   1.028  12.564  0.7009  0.1321  1.3656
   69TMC2     H 1057   0.409   1.218  12.479 -0.8319  0.7744  0.0029
   69TMC2    H1 1058   0.818   1.148  12.388  0.0354  0.4010 -0.6655
   69TMC2    H2 1059   0.596   1.452  12.179 -0.7854  1.4502  1.0366
   69TMC2    C7 1060   0.827   1.295  12.170  0.3594 -0.1335  1.1561
   69TMC2    C8 1061   0.372   1.407  12.291  0.4726 -0.6258  0.5157
   69TMC2    O1 1062   0.922   1.221  12.198 -0.1382  0.2592  0.1442
   69TMC2    O2 1063   0.341   1.420  12.174  0.4459 -0.2813 -0.0418
   69TMC2    O5 1064   0.308   1.437  12.410  0.0862  0.2938 -0.6373
   69TMC2    H5 1065   0.375   1.441  12.481  2.2041  1.6794 -2.7111
   70MPD2     C 1066   0.916   0.913  12.674  0.1615  0.1424  0.3571
   70MPD2    C1 1067   0.781   0.926  12.641  0.0598  0.1942  0.2231
   70MPD2    C2 1068   0.707   0.812  12.668 -0.0739 -0.0185 -0.0337
   70MPD2    C3 1069   0.764   0.697  12.723  0.8088 -0.2430  0.1976
   70MPD2    C4 1070   0.892   0.694  12.758  0.2359 -0.4197 -0.1255
   70MPD2    C5 1071   0.970   0.804  12.734 -0.3411  0.4167  0.1716
   70MPD2     H 1072   0.602   0.810  12.643  0.2730  0.4607 -1.5443
   70MPD2    H1 1073   0.935   0.606  12.805 -1.4887  0.3705  2.9221
   70MPD2    H2 1074   0.992   0.985  12.647  0.9878 -1.1821 -0.8566
   70MPD2    H3 1075   1.070   0.812  12.775 -0.5358  0.8606  0.5559
   70MPD2     N 1076   0.688   0.580  12.757  0.4582 -0.1609  0.1050
   70MPD2    H5 1077   0.736   0.499  12.796  0.4893 -0.0402  0.3207
   70MPD2    N1 1078   0.746   1.046  12.581  1.0799  0.5024  0.5198
   70MPD2    H7 1079   0.815   1.118  12.562  0.0538  1.5626  0.8228
   71TMC2    C1 1080   2.500   1.376   1.452  0.1063  0.1830  0.0709
   71TMC2    C2 1081   2.426   1.392   1.561  0.3753 -0.5668  0.7351
   71TMC2    C3 1082   2.315   1.312   1.572 -0.7983  0.2597  0.2423
   71TMC2    C4 1083   2.475   1.278   1.358 -0.0405  0.2749 -1.2420
   71TMC2    C5 1084   2.358   1.207   1.372 -1.0001  0.1392  0.1270
   71TMC2    C6 1085   2.281   1.223   1.476  0.0781 -0.5605  0.0150
   71TMC2     C 1086   2.613   1.462   1.414 -0.0627  0.8892 -0.2612
   71TMC2     O 1087   2.612   1.492   1.297 -0.0031  0.3530 -0.7290
   71TMC2     H 1088   2.439   1.486   1.615 -0.0177  1.2875 -2.3795
   71TMC2    H1 1089   2.531   1.261   1.267  3.2718  0.2938  0.7822
   71TMC2    H2 1090   2.181   1.182   1.481  0.1031 -0.7113 -0.6934
   71TMC2    C7 1091   2.337   1.089   1.288  0.8163  0.6736  0.7330
   71TMC2    C8 1092   2.202   1.378   1.629 -0.6684  0.4490 -0.1552
   71TMC2    O1 1093   2.437   1.045   1.232  0.3708 -0.6766  0.0369
   71TMC2    O2 1094   2.185   1.498   1.617  0.0519 -0.3388  0.1284
   71TMC2    O5 1095   2.123   1.286   1.694  0.0178  0.0138  0.3751
   71TMC2    H5 1096   2.182   1.209   1.705 -1.6104 -1.0766  1.3950
   72MPD2     C 1097   2.990   1.791   1.500 -0.4772  0.3229 -0.4678
   72MPD2    C1 1098   2.909   1.777   1.391  0.0785  0.4689  0.2518
   72MPD2    C2 1099   2.805   1.692   1.398  0.3445  0.3747  0.1055
   72MPD2    C3 1100   2.771   1.622   1.517 -0.6982 -0.7621 -0.5243
   72MPD2    C4 1101   2.860   1.633   1.619 -0.7747 -0.0306 -0.3485
   72MPD2    C5 1102   2.964   1.721   1.612 -0.0353  0.1086 -0.3258
   72MPD2     H 1103   2.746   1.674   1.309  0.0737 -0.5153  0.4633
   72MPD2    H1 1104   2.852   1.578   1.712  0.1414  0.5188  0.0574
   72MPD2    H2 1105   3.070   1.864   1.507  1.2263 -1.7252  1.3954
   72MPD2    H3 1106   3.037   1.734   1.691 -2.2890  1.2771  1.5277
   72MPD2     N 1107   2.678   1.524   1.525  0.8175  0.0661 -0.3429
   72MPD2    H5 1108   2.668   1.484   1.618 -2.3126 -1.7674 -1.4413
   72MPD2    N1 1109   2.946   1.848   1.275  0.1809 -0.5216  0.5271
   72MPD2    H7 1110   2.879   1.841   1.199 -0.6838  0.6056  1.1788
   73TMC2    C1 1111   2.527   3.675  13.940  0.2937 -0.4055  0.0943
   73TMC2    C2 1112   2.496   3.555  13.875  0.2491 -0.0888 -0.1586
   73TMC2    C3 1113   2.558   3.442  13.916 -0.3608 -0.6147  0.4586
   73TMC2    C4 1114   2.616   3.684  14.044  0.0385  0.3720 -0.1786
   73TMC2    C5 1115   2.683   3.564  14.075  0.5139 -0.7865 -0.5682
   73TMC2    C6 1116   2.654   3.440  14.014  0.1849  0.0762  0.2758
   73TMC2     C 1117   2.537   3.787  13.845 -0.5803 -0.0095  0.6969
   73TMC2     O 1118   2.626   3.863  13.872  0.2308  0.1898  0.4939
   73TMC2     H 1119   2.420   3.555  13.798 -0.7681  0.9234  0.8586
   73TMC2    H1 1120   2.642   3.782  14.081  0.1568  0.0656  0.5502
   73TMC2    H2 1121   2.703   3.346  14.036  0.9750  0.5323  0.4641
   73TMC2    C7 1122   2.823   3.587  14.086  0.5074  0.5913  0.0984
   73TMC2    C8 1123   2.515   3.312  13.863 -0.6044  0.3212  0.3959
   73TMC2    O1 1124   2.903   3.509  14.128 -0.3095  0.1102 -0.6737
   73TMC2    O2 1125   2.406   3.292  13.816  0.5939  0.3413  0.2822
   73TMC2    O5 1126   2.632   3.250  13.832 -0.2223  0.4287 -0.7215
   73TMC2    H5 1127   2.713   3.305  13.842  0.9639 -1.0675 -2.0581
   74MPD2     C 1128   2.453   4.026  13.402 -0.5016  0.1809 -0.0090
   74MPD2    C1 1129   2.564   4.016  13.479  0.0820 -0.0701  0.3515
   74MPD2    C2 1130   2.564   3.932  13.587 -0.7379 -0.2023 -0.3688
   74MPD2    C3 1131   2.453   3.857  13.629 -0.6204 -0.1223 -0.2343
   74MPD2    C4 1132   2.344   3.864  13.541  1.0790 -0.0211  0.6443
   74MPD2    C5 1133   2.345   3.949  13.432  0.6216 -0.8615 -0.0315
   74MPD2     H 1134   2.647   3.927  13.657 -0.3467 -0.2744 -0.8441
   74MPD2    H1 1135   2.252   3.809  13.554  1.2625 -0.5806 -0.3870
   74MPD2    H2 1136   2.460   4.093  13.317  1.2271  1.8379  1.4608
   74MPD2    H3 1137   2.254   3.956  13.373 -0.9071 -1.7524  2.1984
   74MPD2     N 1138   2.442   3.783  13.747  0.0906  0.2447 -0.1688
   74MPD2    H5 1139   2.359   3.725  13.754  0.9627 -1.0361 -0.5260
   74MPD2    N1 1140   2.678   4.090  13.452  0.0622 -0.7106  0.1426
   74MPD2    H7 1141   2.669   4.148  13.369 -2.6072  0.7240  1.4365
   75TCq2    C1 1142   2.582   4.628  14.035  0.9785  0.1942  0.0264
   75TCq2    O2 1143   2.645   0.006  14.048  0.2991 -0.0805 -0.4280
   75TCq2    C2 1144   2.466   4.611  13.949  0.1792  0.0499 -0.3444
   75TCq2    C3 1145   2.375   4.510  13.971  0.0968 -0.1118 -0.0860
   75TCq2    C4 1146   2.273   4.496  13.886  0.5293 -0.0046 -0.9590
   75TCq2    C5 1147   2.264   4.579  13.772  0.0814  0.3033  0.3984
   75TCq2    C6 1148   2.352   4.684  13.762 -0.3155  0.6394  0.1614
   75TCq2    C7 1149   2.453   4.702  13.850 -0.2261  0.0945 -0.7516
   75TCq2    C8 1150   2.387   4.720  13.622  0.6560  0.5532  0.5461
   75TCq2    O4 1151   2.357   4.632  13.541  0.2079 -0.4704  0.2013
   75TCq2    C9 1152   2.175   4.398  13.910 -0.4966 -0.0932  0.1901
   75TCq2    O5 1153   2.089   4.397  13.821 -0.1820  0.4839  0.2054
   75TCq2    O6 1154   2.175   4.332  14.017  0.1783  0.0603  0.5038
   75TCq2    H2 1155   2.372   4.446  14.058 -0.9666  0.3702  0.2260
   75TCq2    H3 1156   2.177   4.568  13.708  0.5909 -1.0028 -0.0666
   75TCq2    H4 1157   2.526   0.056  13.843 -1.2676  0.7256 -4.5241
   76MPD2     C 1158   1.834   0.720  12.124 -0.7050 -0.1990  0.1288
   76MPD2    C1 1159   1.821   0.717  11.983 -0.2332  0.5349 -0.8048
   76MPD2    C2 1160   1.920   0.658  11.906  0.2300  0.6703 -0.5688
   76MPD2    C3 1161   2.031   0.600  11.961 -0.0348  0.5984  0.1740
   76MPD2    C4 1162   2.042   0.601  12.095 -0.2138  0.5792  0.4776
   76MPD2    C5 1163   1.948   0.659  12.178  0.4796 -0.1581 -0.8088
   76MPD2     H 1164   1.912   0.676  11.799  2.4848  4.1595 -0.1663
   76MPD2    H1 1165   2.131   0.557  12.140  0.8853  1.4125 -0.8871
   76MPD2    H2 1166   1.761   0.767  12.188 -1.4037 -3.4649  1.7094
   76MPD2    H3 1167   1.957   0.652  12.286 -0.0235  1.6370 -0.6544
   76MPD2     N 1168   2.128   0.534  11.881  0.0308 -0.7389 -0.1195
   76MPD2    H5 1169   2.184   0.478  11.945  0.3646 -1.3970 -0.9873
   76MPD2    N1 1170   1.714   0.783  11.909  0.3185 -0.2119 -0.8134
   76MPD2    H7 1171   1.714   0.781  11.807 -1.4046  0.8631 -0.8274
   77TCq2    C1 1172   2.118   0.511  11.749 -0.0633 -0.4788 -0.2310
   77TCq2    O2 1173   2.062   0.575  11.665  0.4226  0.2325  0.2581
   77TCq2    C2 1174   2.176   0.386  11.709  0.7828  0.3069  0.0678
   77TCq2    C3 1175   2.125   0.330  11.594 -0.1146  0.3319 -0.5448
   77TCq2    C4 1176   2.206   0.228  11.541  0.0208  0.2233 -0.3449
   77TCq2    C5 1177   2.314   0.184  11.605 -0.2994  0.1221  0.4321
   77TCq2    C6 1178   2.361   0.238  11.725  0.2821  0.6893  1.4102
   77TCq2    C7 1179   2.287   0.345  11.778  0.2993 -0.2361  0.4236
   77TCq2    C8 1180   2.501   0.233  11.739 -0.4087  0.2383  0.4934
   77TCq2    O4 1181   2.567   0.198  11.642 -0.0796 -0.0928 -0.2137
   77TCq2    C9 1182   2.175   0.166  11.411  0.5978  0.2638  0.0604
   77TCq2    O5 1183   2.115   0.235  11.325  0.0024 -0.3760  0.2695
   77TCq2    O6 1184   2.240   0.065  11.379  0.6374 -0.1809  0.3756
   77TCq2    H2 1185   2.036   0.368  11.544 -1.4680  1.2391  2.6068
   77TCq2    H3 1186   2.363   0.094  11.569 -3.5463 -1.7248  0.5672
   77TCq2    H4 1187   2.332   0.407  11.855 -1.5169  0.0568  1.2357
   78MPD1     C 1188   2.838   4.525   1.529  0.5143  0.3844  0.6791
   78MPD1    C1 1189   2.730   4.502   1.612 -0.1126 -0.0541  0.2742
   78MPD1    C2 1190   2.742   4.494   1.744 -0.1544  0.3051 -0.0099
   78MPD1    C3 1191   2.868   4.481   1.799  0.3741 -0.3763  0.8031
   78MPD1    C4 1192   2.981   4.491   1.715 -0.1721  0.1707  0.5594
   78MPD1    C5 1193   2.962   4.504   1.584  0.2190  0.3720  0.3963
   78MPD1     H 1194   2.653   4.498   1.805 -0.9855 -1.6000 -1.0811
   78MPD1    H1 1195   3.084   4.484   1.748  0.0570 -0.2203 -0.2409
   78MPD1    H2 1196   2.828   4.525   1.421  0.3639 -0.1273  0.6922
   78MPD1    H3 1197   3.051   4.505   1.522  0.5141 -1.9802  0.7807
   78MPD1     N 1198   2.882   4.469   1.939 -0.1726  0.0505 -0.2700
   78MPD1    H5 1199   2.968   4.490   1.988  0.2439 -1.1037 -0.5264
   78MPD1    N1 1200   2.600   4.508   1.557  0.5085 -0.0421  0.2119
   78MPD1    H6 1201   2.592   4.455   1.470 -0.1265  1.2047 -0.4839
   78MPD1    H7 1202   2.535   4.467   1.623  0.7006  1.9734  1.6394
   79TCq2    C1 1203   2.785   4.418   2.026 -0.9941 -0.5166  0.2359
   79TCq2    O2 1204   2.691   4.352   1.996  0.8278  0.0120  0.0166
   79TCq2    C2 1205   2.826   4.422   2.164  0.0042 -0.9247 -0.4290
   79TCq2    C3 1206   2.754   4.356   2.254  0.1388  0.0440 -0.0185
   79TCq2    C4 1207   2.792   4.363   2.386 -0.7397  0.1279  0.9952
   79TCq2    C5 1208   2.892   4.440   2.428 -0.5521  0.1659  0.8291
   79TCq2    C6 1209   2.963   4.512   2.337 -0.3332  0.0856 -0.1370
   79TCq2    C7 1210   2.937   4.502   2.202 -0.1019 -0.0568 -0.1013
   79TCq2    C8 1211   3.064   4.607   2.373  0.7970  0.0541 -0.2101
   79TCq2    O4 1212   3.115   4.670   2.284  0.2420 -0.2012 -0.2091
   79TCq2    C9 1213   2.718   4.291   2.489 -0.4067  0.1045  0.4603
   79TCq2    O5 1214   2.623   4.222   2.442  0.4757 -0.1482  0.2402
   79TCq2    O6 1215   2.761   4.277   2.604 -0.1840 -0.1157 -0.4816
   79TCq2    H2 1216   2.683   4.284   2.215 -0.0023 -1.1337  2.4412
   79TCq2    H3 1217   2.905   4.450   2.535 -0.5514  0.7147  0.7778
   79TCq2    H4 1218   2.973   4.578   2.133  1.0720  1.0933  1.7856
   80MPD2     C 1219   1.168   0.246  12.051 -0.5038  0.4056  0.0504
   80MPD2    C1 1220   1.057   0.240  11.973  0.5563 -0.2255  0.9465
   80MPD2    C2 1221   0.947   0.312  12.014  0.1269  0.6227  0.1433
   80MPD2    C3 1222   0.954   0.403  12.119  0.6191  0.6288  0.6046
   80MPD2    C4 1223   1.070   0.406  12.198 -0.3646  0.0517 -0.0055
   80MPD2    C5 1224   1.179   0.332  12.149 -0.9251  0.3331 -0.3796
   80MPD2     H 1225   0.855   0.297  11.958  0.7324 -1.6094 -0.2473
   80MPD2    H1 1226   1.092   0.471  12.282  0.3676 -0.9408  0.5597
   80MPD2    H2 1227   1.259   0.197  12.018 -0.7340 -0.3499  0.5459
   80MPD2    H3 1228   1.275   0.329  12.199 -1.1205  1.2586  0.0547
   80MPD2     N 1229   0.838   0.479  12.159 -0.7609  0.0404 -0.8031
   80MPD2    H5 1230   0.829   0.512  12.255  0.8151  1.6319 -1.2073
   80MPD2    N1 1231   1.042   0.144  11.873  0.0903  0.3226  0.5118
   80MPD2    H7 1232   0.951   0.129  11.831  1.4745 -4.1870 -0.8462
   81TCq2    C1 1233   1.144   0.089  11.805  0.2385 -0.1844  0.2883
   81TCq2    O2 1234   1.269   0.109  11.812  0.5564 -0.3525  0.3773
   81TCq2    C2 1235   1.093   4.706  11.716 -0.1262 -0.2623  0.0012
   81TCq2    C3 1236   1.155   4.698  11.596  0.7614  0.8385  0.2715
   81TCq2    C4 1237   1.098   4.621  11.498 -0.4365 -0.7428  0.0194
   81TCq2    C5 1238   0.984   4.549  11.521  0.0177  0.3232 -1.0994
   81TCq2    C6 1239   0.931   4.553  11.645 -0.1704 -0.3255  0.1950
   81TCq2    C7 1240   0.988   4.629  11.745 -0.1582  0.4269  0.8942
   81TCq2    C8 1241   0.798   4.499  11.667 -0.4217 -0.5773 -0.3537
   81TCq2    O4 1242   0.730   4.471  11.570 -0.2236  0.1338  0.1368
   81TCq2    C9 1243   1.173   4.590  11.378 -0.5361 -0.0160  0.5487
   81TCq2    O5 1244   1.118   4.520  11.294 -0.0663 -0.0208 -0.4817
   81TCq2    O6 1245   1.294   4.630  11.358  0.5614 -0.2374  0.0870
   81TCq2    H2 1246   1.244   0.030  11.571  1.5388 -0.2445  0.5529
   81TCq2    H3 1247   0.946   4.486  11.441 -0.4059  2.4886 -2.6079
   81TCq2    H4 1248   0.952   4.633  11.847 -1.7902  2.1544  0.2470
   82MPD2     C 1249   3.887   0.378  10.425  0.1220 -0.0859 -0.1136
   82MPD2    C1 1250   3.879   0.277  10.334 -0.4352  0.3859  0.6435
   82MPD2    C2 1251   3.927   0.149  10.370  0.3764 -0.3384 -0.0583
   82MPD2    C3 1252   3.980   0.125  10.495  0.0606  0.3161  0.1000
   82MPD2    C4 1253   3.991   0.236  10.581 -0.5710  0.6293 -0.5524
   82MPD2    C5 1254   3.943   0.359  10.554  0.3497  0.3623 -0.6062
   82MPD2     H 1255   3.911   0.071  10.297 -3.4501  1.3400 -1.0043
   82MPD2    H1 1256   4.029   0.218  10.681  2.7818  1.5259 -1.6712
   82MPD2    H2 1257   3.860   0.481  10.405 -1.5900 -1.2427 -3.7144
   82MPD2    H3 1258   3.961   0.440  10.624  0.5053 -0.4036  0.2313
   82MPD2     N 1259   4.024   0.005  10.551 -0.1689  0.6933 -0.4624
   82MPD2    H5 1260   4.069   0.001  10.642  0.6880  0.0799 -0.9165
   82MPD2    N1 1261   3.802   0.312  10.221  0.1324  0.4794  0.3635
   82MPD2    H7 1262   3.764   0.406  10.210  1.2421  0.8545 -0.3462
   83TCq2    C1 1263   3.984   4.611  10.501  0.3495 -0.4306 -0.1068
   83TCq2    O2 1264   3.917   4.594  10.402  0.2404 -0.0845 -0.4930
   83TCq2    C2 1265   4.044   4.504  10.582  0.6765 -0.2326  0.6010
   83TCq2    C3 1266   4.128   4.520  10.692 -0.0759 -0.0447  0.1189
   83TCq2    C4 1267   4.170   4.407  10.752 -0.2686 -0.2377 -0.4516
   83TCq2    C5 1268   4.130   4.277  10.717 -0.1079 -0.2203  0.0109
   83TCq2    C6 1269   4.055   4.269  10.601 -0.8912  0.6773  0.3078
   83TCq2    C7 1270   4.016   4.381  10.536  0.0177 -0.1117  0.0183
   83TCq2    C8 1271   3.998   4.138  10.562 -0.1299 -0.2770  0.3014
   83TCq2    O4 1272   3.925   4.137  10.460 -0.1165 -0.5359 -0.4575
   83TCq2    C9 1273   4.262   4.417  10.862  0.8002 -0.0882 -0.6925
   83TCq2    O5 1274   4.312   4.528  10.900  0.6150 -0.1480  0.4785
   83TCq2    O6 1275   4.289   4.309  10.923 -0.0382 -0.2258  0.1158
   83TCq2    H2 1276   4.165   4.619  10.717 -0.5983 -0.2491  1.7086
   83TCq2    H3 1277   4.144   4.194  10.785  0.5132  0.8169  1.1489
   83TCq2    H4 1278   3.949   4.371  10.451  0.5264  0.6393 -0.4750
   84TCq2    C1 1279   0.019   3.307  10.207  0.9875  0.2297 -0.4371
   84TCq2    O2 1280   4.724   3.196  10.258  0.3283 -0.2457 -0.4869
   84TCq2    C2 1281   0.088   3.410  10.277 -0.5775  0.0446 -0.1530
   84TCq2    C3 1282   0.173   3.503  10.216 -0.6861  0.2495  0.1527
   84TCq2    C4 1283   0.227   3.606  10.286  0.0010 -0.1708  0.0883
   84TCq2    C5 1284   0.216   3.599  10.424  0.3595 -0.4190 -0.3969
   84TCq2    C6 1285   0.157   3.490  10.478 -0.3038 -0.5706  0.9713
   84TCq2    C7 1286   0.089   3.392  10.410  0.2119 -0.0587 -0.2111
   84TCq2    C8 1287   0.145   3.496  10.620  0.0463  0.5827 -0.5148
   84TCq2    O4 1288   0.160   3.598  10.680 -0.3938 -0.1897 -0.4917
   84TCq2    C9 1289   0.322   3.694  10.225  0.4007 -0.4146  0.6309
   84TCq2    O5 1290   0.349   3.670  10.109  0.0470 -0.3926  0.0705
   84TCq2    O6 1291   0.382   3.780  10.299  0.2479 -0.1453  0.3500
   84TCq2    H2 1292   0.187   3.506  10.108  0.9551 -2.3826  0.2830
   84TCq2    H3 1293   0.275   3.672  10.479  0.3236 -1.0018  0.4108
   84TCq2    H4 1294   0.014   3.330  10.459 -1.1430  1.0851 -0.8570
   85MPD2     C 1295   0.146   1.633  16.402 -0.5602 -0.1122  0.1926
   85MPD2    C1 1296   0.268   1.575  16.381 -0.3295  0.8988 -0.1640
   85MPD2    C2 1297   0.370   1.646  16.320  0.2173 -0.3622  0.2915
   85MPD2    C3 1298   0.347   1.778  16.284  0.6306  0.9064  1.0532
   85MPD2    C4 1299   0.219   1.832  16.306  0.3915 -0.4936 -0.3826
   85MPD2    C5 1300   0.119   1.765  16.368 -0.2932  0.8633 -0.3916
   85MPD2     H 1301   0.467   1.601  16.300  1.6907  2.5851  0.7584
   85MPD2    H1 1302   0.194   1.925  16.255  1.8206 -0.9942 -2.0164
   85MPD2    H2 1303   0.057   1.579  16.431 -0.1939 -0.6111  0.3902
   85MPD2    H3 1304   0.021   1.811  16.373 -0.9550 -0.5871  0.2713
   85MPD2     N 1305   0.457   1.841  16.214 -0.0960  0.2742  0.2632
   85MPD2    H5 1306   0.540   1.786  16.194 -0.9424 -0.9054  0.0112
   85MPD2    N1 1307   0.299   1.440  16.412 -0.8317 -0.8142  0.7813
   85MPD2    H7 1308   0.390   1.405  16.385  0.3945  1.1055  2.4175
   86TCq2    C1 1309   0.468   1.979  16.192 -0.4354 -0.2425 -0.1120
   86TCq2    O2 1310   0.379   2.063  16.206 -0.2078 -0.3868  0.2729
   86TCq2    C2 1311   0.596   2.036  16.147 -0.0625  0.0566  0.2881
   86TCq2    C3 1312   0.593   2.172  16.137  0.5023  0.0149 -0.2892
   86TCq2    C4 1313   0.686   2.241  16.081 -1.6362 -0.5752  0.3350
   86TCq2    C5 1314   0.781   2.171  16.011 -0.1059 -0.2212 -0.1436
   86TCq2    C6 1315   0.779   2.034  16.005 -1.2781 -0.3036 -0.0498
   86TCq2    C7 1316   0.691   1.959  16.088  0.3268 -0.3286 -0.9189
   86TCq2    C8 1317   0.856   1.967  15.896 -0.8784  0.7268 -0.1282
   86TCq2    O4 1318   0.898   1.851  15.908  0.4186  0.1220 -0.0716
   86TCq2    C9 1319   0.698   2.382  16.093  0.1204  0.5924 -0.1190
   86TCq2    O5 1320   0.613   2.440  16.167  0.2486 -0.2409 -0.1152
   86TCq2    O6 1321   0.780   2.443  16.018 -0.0675  0.0859 -0.0636
   86TCq2    H2 1322   0.526   2.236  16.194 -1.8954 -1.0909 -1.8673
   86TCq2    H3 1323   0.856   2.238  15.969  1.7657 -2.2083  0.0169
   86TCq2    H4 1324   0.687   1.852  16.072 -0.8202 -1.0079  3.7498
   87MPD2     C 1325   2.830   0.108   1.784 -0.3318 -0.1705  0.8529
   87MPD2    C1 1326   2.898   0.155   1.671 -0.4655 -0.0901 -0.2304
   87MPD2    C2 1327   2.840   0.255   1.592 -0.4339  0.2933  0.3116
   87MPD2    C3 1328   2.725   0.317   1.633 -0.2941 -0.3450 -0.2117
   87MPD2    C4 1329   2.664   0.278   1.742  0.1033 -0.0293 -0.6749
   87MPD2    C5 1330   2.713   0.172   1.821  0.1021 -0.2472  0.6837
   87MPD2     H 1331   2.898   0.294   1.510 -0.9676  0.6702  0.1151
   87MPD2    H1 1332   2.571   0.325   1.771  0.5117  0.3663  0.0354
   87MPD2    H2 1333   2.874   0.035   1.851 -0.3778 -0.5441  0.4715
   87MPD2    H3 1334   2.651   0.150   1.908  0.0276 -0.3003  0.6174
   87MPD2     N 1335   2.674   0.429   1.558 -0.5944  0.3682 -0.1231
   87MPD2    H5 1336   2.586   0.466   1.592 -0.0037  3.6902 -2.1571
   87MPD2    N1 1337   3.029   0.108   1.646  0.1999  0.9659 -0.5224
   87MPD2    H7 1338   3.062   0.042   1.716 -0.2873  0.3619 -0.8670
   88TCq2    C1 1339   3.103   0.130   1.530  0.2398  0.9778  0.4579
   88TCq2    O2 1340   3.062   0.169   1.422  0.2525  0.2157  0.3372
   88TCq2    C2 1341   3.242   0.089   1.540 -0.0445 -0.1874  0.3177
   88TCq2    C3 1342   3.287   0.039   1.657  0.0366  0.2855  0.3028
   88TCq2    C4 1343   3.413   4.707   1.659 -0.3690  0.1244  0.9105
   88TCq2    C5 1344   3.488   4.692   1.548  0.3493  0.5730  0.6991
   88TCq2    C6 1345   3.442   0.024   1.433 -0.8242 -0.3297 -0.2568
   88TCq2    C7 1346   3.318   0.086   1.428 -0.2020  0.0763  0.9860
   88TCq2    C8 1347   3.534   0.014   1.316  1.3734  0.2246 -0.3243
   88TCq2    O4 1348   3.620   4.650   1.328  0.2234 -0.5424 -0.2204
   88TCq2    C9 1349   3.457   4.643   1.784 -0.1577  0.7264  0.0614
   88TCq2    O5 1350   3.378   4.619   1.876 -0.0963  0.0196  0.5547
   88TCq2    O6 1351   3.573   4.594   1.778 -0.2344  0.2059 -0.0799
   88TCq2    H2 1352   3.230   0.044   1.749 -0.5325 -0.8691  0.0161
   88TCq2    H3 1353   3.585   4.645   1.559  2.2426  4.5236  0.5884
   88TCq2    H4 1354   3.273   0.119   1.335  0.1071 -0.1634  0.7530
   89MPD2     C 1355   3.204   1.674   2.011  0.2913  0.1270  0.0015
   89MPD2    C1 1356   3.165   1.789   1.946 -0.4900  0.4735  0.1001
   89MPD2    C2 1357   3.259   1.840   1.859 -0.2767 -0.6559 -0.6573
   89MPD2    C3 1358   3.380   1.779   1.837  0.6572 -0.0642  0.7484
   89MPD2    C4 1359   3.419   1.666   1.909  0.3345 -0.3315 -0.0856
   89MPD2    C5 1360   3.332   1.625   2.007  0.4928  0.3622 -0.5675
   89MPD2     H 1361   3.245   1.930   1.801  1.5578 -0.9846 -1.6204
   89MPD2    H1 1362   3.516   1.620   1.898  0.7297  0.4794 -0.0351
   89MPD2    H2 1363   3.140   1.626   2.084  0.9519 -1.1829 -0.2667
   89MPD2    H3 1364   3.364   1.541   2.068  1.4740 -0.6358 -2.4353
   89MPD2     N 1365   3.467   1.836   1.737 -0.5242 -0.0136 -0.3768
   89MPD2    H5 1366   3.443   1.926   1.697 -1.7803 -0.7844 -1.3822
   89MPD2    N1 1367   3.037   1.858   1.958 -0.3120 -0.1531 -0.0114
   89MPD2    H7 1368   3.014   1.930   1.891  0.1871  1.1939  1.2500
   90TCq2    C1 1369   3.585   1.787   1.698  0.1225 -0.6771 -0.0922
   90TCq2    O2 1370   3.647   1.692   1.743 -0.0437 -0.2671  0.3392
   90TCq2    C2 1371   3.659   1.889   1.631  0.7419 -0.4084  0.0416
   90TCq2    C3 1372   3.792   1.860   1.620  0.2246 -0.3156 -0.1580
   90TCq2    C4 1373   3.882   1.963   1.587 -0.2525  0.2046 -0.2210
   90TCq2    C5 1374   3.836   2.095   1.576  0.0500  0.9935 -0.7346
   90TCq2    C6 1375   3.704   2.117   1.582 -0.0062 -0.0770 -0.3051
   90TCq2    C7 1376   3.610   2.017   1.610  0.2823 -0.1190  0.4429
   90TCq2    C8 1377   3.652   2.237   1.525 -0.7144  0.1894 -0.6547
   90TCq2    O4 1378   3.554   2.288   1.570  0.4095 -0.2013 -0.0052
   90TCq2    C9 1379   4.020   1.930   1.569 -0.4211 -0.3140  0.7540
   90TCq2    O5 1380   4.057   1.815   1.608 -0.0275 -0.7948 -0.2282
   90TCq2    O6 1381   4.096   2.026   1.542  0.4798  0.0676 -0.0829
   90TCq2    H2 1382   3.827   1.758   1.614  1.6936  0.2260 -0.8035
   90TCq2    H3 1383   3.912   2.167   1.548  2.5388 -1.0391  0.7975
   90TCq2    H4 1384   3.504   2.039   1.605  0.9428  2.9537  0.2899
   91TMC2    C1 1385   0.538   2.487  16.504  0.1930  0.3349 -0.4355
   91TMC2    C2 1386   0.570   2.583  16.413  0.2271 -0.2166  0.2732
   91TMC2    C3 1387   0.470   2.659  16.357  0.3376 -0.0910 -0.0266
   91TMC2    C4 1388   0.413   2.481  16.548  0.1378 -0.2910  0.2521
   91TMC2    C5 1389   0.317   2.574  16.517  0.2894 -0.4328 -0.3494
   91TMC2    C6 1390   0.344   2.665  16.417 -0.8434  0.0326 -0.2072
   91TMC2     C 1391   0.612   2.362  16.513  0.2767  0.1604 -0.9607
   91TMC2     O 1392   0.550   2.270  16.561  0.2753  0.1371 -0.0660
   91TMC2     H 1393   0.663   2.576  16.358  0.4924  0.8854  0.5719
   91TMC2    H1 1394   0.378   2.416  16.628 -0.5951 -1.7372 -1.2654
   91TMC2    H2 1395   0.270   2.741  16.393  0.5932  0.7950 -2.1220
   91TMC2    C7 1396   0.175   2.540  16.538 -0.5125 -0.0856  0.3267
   91TMC2    C8 1397   0.498   2.746  16.242  0.6455 -0.4662 -0.0484
   91TMC2    O1 1398   0.132   2.500  16.647  0.2918  0.4348 -0.4536
   91TMC2    O2 1399   0.453   2.857  16.241 -0.0579 -0.2151 -0.1710
   91TMC2    O5 1400   0.608   2.697  16.181 -0.2983  0.4306  0.8638
   91TMC2    H5 1401   0.600   2.599  16.179 -1.8788  0.5648  0.4496
   92MPD2     C 1402   0.813   2.153  16.410 -0.9662 -0.6994 -0.0442
   92MPD2    C1 1403   0.840   2.285  16.448 -0.0838 -0.4386  0.0539
   92MPD2    C2 1404   0.962   2.333  16.408  0.0188 -1.0186  0.7201
   92MPD2    C3 1405   1.065   2.257  16.351 -0.8696  0.2095 -0.7271
   92MPD2    C4 1406   1.043   2.127  16.309  0.2618 -0.4839  0.0431
   92MPD2    C5 1407   0.916   2.082  16.350  0.2772  0.3160 -0.4701
   92MPD2     H 1408   0.972   2.438  16.433  1.5985 -1.0770  0.3561
   92MPD2    H1 1409   1.117   2.059  16.269 -0.8498 -1.0500 -1.0534
   92MPD2    H2 1410   0.714   2.109  16.418 -2.0731  2.0630  1.4949
   92MPD2    H3 1411   0.891   1.977  16.337 -1.0043  1.1190 -4.3888
   92MPD2     N 1412   1.193   2.318  16.342 -0.3836 -0.5736  0.0311
   92MPD2    H5 1413   1.202   2.415  16.372 -1.2931 -0.9263  1.4300
   92MPD2    N1 1414   0.750   2.383  16.498 -0.1796 -0.0230  0.0276
   92MPD2    H7 1415   0.777   2.480  16.494  1.3851 -0.5500 -2.0595
   93MPD2     C 1416   2.064   2.725  13.593 -0.4967  0.6287  0.1500
   93MPD2    C1 1417   2.042   2.731  13.725 -0.0858 -0.8916 -0.1187
   93MPD2    C2 1418   1.941   2.655  13.770  0.5642  0.5345 -0.3231
   93MPD2    C3 1419   1.856   2.578  13.688  0.3097  0.2828  0.1547
   93MPD2    C4 1420   1.900   2.555  13.564  0.3520  0.5657  0.7347
   93MPD2    C5 1421   2.002   2.636  13.514 -0.4710 -0.5021 -0.1454
   93MPD2     H 1422   1.905   2.675  13.870 -0.0183  1.0984 -0.6522
   93MPD2    H1 1423   1.864   2.478  13.497  1.2403 -0.0008  0.9050
   93MPD2    H2 1424   2.141   2.785  13.545  0.8435 -0.9751  0.2800
   93MPD2    H3 1425   2.028   2.611  13.412  0.3749  2.1765 -0.5779
   93MPD2     N 1426   1.743   2.501  13.726 -0.5535  0.2873  0.1335
   93MPD2    H5 1427   1.684   2.475  13.648  0.8463  1.7232 -1.4158
   93MPD2    N1 1428   2.115   2.815  13.806  0.0722  0.6817  0.1091
   93MPD2    H7 1429   2.096   2.811  13.906 -2.2527 -1.7468 -0.4430
   94TCq2    C1 1430   2.211   2.907  13.766 -0.1542  0.4093  0.0147
   94TCq2    O2 1431   2.242   2.962  13.659  0.2233  0.6232 -0.2464
   94TCq2    C2 1432   2.282   2.966  13.875  0.5828 -0.3636  0.0549
   94TCq2    C3 1433   2.217   2.987  13.989  0.2209  0.9084 -0.5564
   94TCq2    C4 1434   2.296   3.023  14.102 -0.2237  0.1915 -0.0826
   94TCq2    C5 1435   2.435   3.029  14.093  0.2465 -0.7454 -0.1648
   94TCq2    C6 1436   2.494   3.009  13.966 -0.0587 -0.2137  0.0984
   94TCq2    C7 1437   2.416   2.977  13.861  0.1523 -0.0939  0.3079
   94TCq2    C8 1438   2.637   2.974  13.962  0.3477 -0.2727 -0.0580
   94TCq2    O4 1439   2.669   2.891  13.875 -0.1885 -0.1527  0.7882
   94TCq2    C9 1440   2.231   3.047  14.221 -0.1435 -1.0446 -0.0964
   94TCq2    O5 1441   2.105   3.047  14.223 -0.1169  0.1123  0.0745
   94TCq2    O6 1442   2.307   3.056  14.321  0.1264  0.5041  0.0751
   94TCq2    H2 1443   2.111   2.966  13.998  0.2554  1.4687  1.1942
   94TCq2    H3 1444   2.490   3.061  14.181 -1.2870 -0.9060  0.8527
   94TCq2    H4 1445   2.457   2.959  13.763 -0.7590  1.0566 -0.2908
   95TMC2    C1 1446   2.615   4.401  16.203  0.2091 -0.1908 -0.1314
   95TMC2    C2 1447   2.670   4.283  16.164  0.8953  0.4887  0.1990
   95TMC2    C3 1448   2.656   4.174  16.242 -1.1135  0.0542 -0.0966
   95TMC2    C4 1449   2.535   4.405  16.316  0.2774 -0.1000  0.2888
   95TMC2    C5 1450   2.536   4.298  16.398 -0.4706  0.0921  0.2851
   95TMC2    C6 1451   2.586   4.171  16.359 -0.3920  0.3226  0.4243
   95TMC2     C 1452   2.641   4.517  16.120  0.0264 -0.2069 -0.4633
   95TMC2     O 1453   2.675   4.495  16.003 -0.4090  0.0969 -0.2572
   95TMC2     H 1454   2.739   4.271  16.081  0.4885 -2.4583  0.3008
   95TMC2    H1 1455   2.484   4.494  16.349  0.5264 -1.0647  3.2112
   95TMC2    H2 1456   2.606   4.090  16.427  1.8724  1.1789  0.7734
   95TMC2    C7 1457   2.491   4.313  16.535  0.7728  0.1829 -0.6037
   95TMC2    C8 1458   2.667   4.047  16.172 -0.1912  0.6577  0.9798
   95TMC2    O1 1459   2.522   4.420  16.587 -0.1211 -0.1413 -0.2516
   95TMC2    O2 1460   2.747   4.030  16.084 -0.7425  0.3920  0.0932
   95TMC2    O5 1461   2.595   3.950  16.226 -0.0914  0.7932 -0.1875
   95TMC2    H5 1462   2.534   3.982  16.296  0.7693  1.7534  0.1184
   96MPD2     C 1463   2.769   0.290  16.106  0.1770 -0.2364 -0.6489
   96MPD2    C1 1464   2.790   0.192  16.011  0.1164  0.6027 -0.0798
   96MPD2    C2 1465   2.753   0.066  16.043  0.2425  0.1015 -0.8611
   96MPD2    C3 1466   2.680   0.034  16.159 -0.4701  0.4982  0.3144
   96MPD2    C4 1467   2.654   0.132  16.252 -0.2728 -0.0561 -0.4817
   96MPD2    C5 1468   2.706   0.255  16.221 -1.0003  0.1468  0.2705
   96MPD2     H 1469   2.783   4.711  15.977 -1.3782 -1.3438  0.1587
   96MPD2    H1 1470   2.601   0.120  16.345  0.6221 -0.7518 -0.0597
   96MPD2    H2 1471   2.809   0.390  16.104 -0.4228  0.0703  4.0919
   96MPD2    H3 1472   2.682   0.335  16.290 -0.0117  0.1039  0.6694
   96MPD2     N 1473   2.643   4.629  16.198 -0.2984  0.4083  0.3453
   96MPD2    H5 1474   2.610   4.622  16.294 -0.0677  3.8787  0.6760
   96MPD2    N1 1475   2.860   0.232  15.892 -0.1050  0.1200 -0.2060
   96MPD2    H7 1476   2.889   0.329  15.881  0.8734 -0.2839 -1.0800
   97MPD2     C 1477   4.538   1.190   0.935 -0.2585 -0.7122 -0.3659
   97MPD2    C1 1478   4.493   1.304   0.998 -0.1620  0.7213  0.1145
   97MPD2    C2 1479   4.541   1.426   0.958  1.0602 -0.6972 -0.6467
   97MPD2    C3 1480   4.619   1.437   0.843  0.3567  0.1514  0.0148
   97MPD2    C4 1481   4.654   1.329   0.773 -0.1731 -0.6921 -0.5054
   97MPD2    C5 1482   4.611   1.208   0.821 -0.1467 -0.6727  0.8360
   97MPD2     H 1483   4.513   1.517   1.010  0.7488 -1.2686  0.1858
   97MPD2    H1 1484   0.001   1.339   0.693  2.5438  3.9836  2.5144
   97MPD2    H2 1485   4.513   1.090   0.967  0.8069 -0.3826  1.5375
   97MPD2    H3 1486   4.647   1.114   0.779 -0.8356 -1.2637  1.5742
   97MPD2     N 1487   4.654   1.569   0.796  0.0934  0.0593  0.5203
   97MPD2    H5 1488   4.720   1.571   0.719  0.5251  0.7016  0.9130
   97MPD2    N1 1489   4.403   1.285   1.111 -1.0568  0.5550 -0.4224
   97MPD2    H7 1490   4.393   1.192   1.149 -0.7201  0.6243 -0.1622
   98TCq2    C1 1491   4.604   1.691   0.837  0.7948  0.0049  0.1405
   98TCq2    O2 1492   4.506   1.722   0.906 -0.0586  0.3496 -0.1086
   98TCq2    C2 1493   4.669   1.799   0.758  0.1196 -0.5038  0.1963
   98TCq2    C3 1494   4.598   1.906   0.713 -0.4053  0.1160  0.6152
   98TCq2    C4 1495   4.662   1.998   0.630  0.2703 -0.3233 -0.8948
   98TCq2    C5 1496   0.061   1.974   0.583  0.4520  0.3721 -0.3957
   98TCq2    C6 1497   0.124   1.862   0.625 -0.5380  0.0321 -0.0764
   98TCq2    C7 1498   0.067   1.767   0.712  0.0369 -0.4033 -0.1028
   98TCq2    C8 1499   0.252   1.825   0.563 -0.3213 -0.7583 -0.6154
   98TCq2    O4 1500   0.285   1.881   0.457 -0.2160  0.3706  1.2182
   98TCq2    C9 1501   4.603   2.130   0.590 -0.2357 -0.1340  0.3164
   98TCq2    O5 1502   4.496   2.167   0.646 -0.1263  0.0770  0.7316
   98TCq2    O6 1503   4.641   2.178   0.484 -0.2831  0.7017 -0.0814
   98TCq2    H2 1504   4.503   1.941   0.751 -1.6163 -1.1985 -1.2284
   98TCq2    H3 1505   0.103   2.052   0.520  1.8058  0.0859  0.1622
   98TCq2    H4 1506   0.125   1.681   0.743  1.3515  0.3647 -0.3988
   99MPD2     C 1507   2.473   3.905   1.345  0.6518 -0.0355 -0.1011
   99MPD2    C1 1508   2.550   3.860   1.451 -0.1898  0.2591  0.4166
   99MPD2    C2 1509   2.683   3.813   1.422  0.3803  0.2088  0.4094
   99MPD2    C3 1510   2.737   3.834   1.292 -0.1165  0.0028  0.1554
   99MPD2    C4 1511   2.655   3.892   1.199  0.6576 -0.8214 -0.0228
   99MPD2    C5 1512   2.525   3.924   1.221 -0.3892  0.3514  0.1578
   99MPD2     H 1513   2.747   3.773   1.499  1.4929 -2.6445 -1.9873
   99MPD2    H1 1514   2.687   3.919   1.099  2.4513  0.8068  1.0005
   99MPD2    H2 1515   2.373   3.944   1.353  1.0845  0.9634  0.4519
   99MPD2    H3 1516   2.464   3.978   1.149 -2.1626  1.3580  2.4194
   99MPD2     N 1517   2.872   3.798   1.270  0.2137  0.1450 -0.0487
   99MPD2    H5 1518   2.925   3.768   1.352 -2.9305 -0.2267  1.8167
   99MPD2    N1 1519   2.491   3.848   1.579 -0.6434  0.4703  0.8225
   99MPD2    H7 1520   2.547   3.791   1.643  0.9391  2.2694  1.0483
  100TCq2    C1 1521   2.362   3.872   1.619  0.0725 -0.0565  0.2487
  100TCq2    O2 1522   2.262   3.896   1.551 -0.0711 -0.2989 -0.3770
  100TCq2    C2 1523   2.346   3.879   1.768  0.0029  0.3264  0.0076
  100TCq2    C3 1524   2.458   3.874   1.848 -0.0387  0.2312  0.0725
  100TCq2    C4 1525   2.441   3.908   1.987  0.4262  0.1410 -0.5087
  100TCq2    C5 1526   2.313   3.929   2.041 -0.4372 -0.4681 -0.0180
  100TCq2    C6 1527   2.209   3.913   1.956  0.4859 -0.3660  0.0167
  100TCq2    C7 1528   2.218   3.899   1.815  0.3172  0.2226  0.0650
  100TCq2    C8 1529   2.076   3.945   2.009 -0.2700  0.0129 -0.2544
  100TCq2    O4 1530   2.071   3.984   2.124  0.2091  0.0646 -0.2973
  100TCq2    C9 1531   2.555   3.918   2.071 -0.1429 -0.1197  0.2222
  100TCq2    O5 1532   2.533   3.930   2.192 -0.4394 -0.2212  0.1012
  100TCq2    O6 1533   2.664   3.887   2.024  0.2895 -0.1664  0.2173
  100TCq2    H2 1534   2.560   3.851   1.818  0.3706  2.4677 -0.2319
  100TCq2    H3 1535   2.300   3.948   2.147 -1.3669  0.8619 -0.3753
  100TCq2    H4 1536   2.134   3.902   1.747  0.4933  0.7439 -0.1277
  101MPD2     C 1537   4.438   0.346  12.657 -1.1283 -0.1363 -0.0239
  101MPD2    C1 1538   4.372   0.413  12.757 -0.4307 -0.2339 -0.6409
  101MPD2    C2 1539   4.284   0.337  12.847 -0.1491  0.3606  0.4804
  101MPD2    C3 1540   4.274   0.200  12.836  0.3317 -0.4914 -0.6384
  101MPD2    C4 1541   4.344   0.147  12.736 -0.6358 -0.4113  0.7754
  101MPD2    C5 1542   4.417   0.212  12.645  0.3992  0.2872  0.6797
  101MPD2     H 1543   4.224   0.385  12.924  0.6812  0.4014  1.1063
  101MPD2    H1 1544   4.351   0.042  12.708  1.3337 -0.1825  0.4326
  101MPD2    H2 1545   4.498   0.401  12.585 -1.1845  1.0605  0.8214
  101MPD2    H3 1546   4.479   0.163  12.571 -1.5895 -0.0807 -0.7550
  101MPD2     N 1547   4.176   0.131  12.918  0.0850 -0.0459  0.3570
  101MPD2    H5 1548   4.119   0.187  12.980 -0.9435  0.4884 -1.0597
  101MPD2    N1 1549   4.394   0.554  12.757 -0.3019  0.2419  0.1059
  101MPD2    H7 1550   4.441   0.599  12.679 -1.0118  1.0829  0.1704
  102TCq2    C1 1551   4.621   0.931  12.609  0.5971 -0.6652  0.2894
  102TCq2    O2 1552   4.709   0.849  12.590  0.2499 -0.1885 -0.1614
  102TCq2    C2 1553   4.531   0.923  12.721 -0.4199 -0.1956 -0.2020
  102TCq2    C3 1554   4.465   1.034  12.770  0.3562  0.0522  0.5029
  102TCq2    C4 1555   4.359   1.007  12.861  0.0130  0.1523  0.5232
  102TCq2    C5 1556   4.326   0.877  12.903 -0.0046  0.2837  0.6000
  102TCq2    C6 1557   4.400   0.774  12.850  0.1686 -0.8046 -0.0644
  102TCq2    C7 1558   4.500   0.799  12.762  0.0479 -0.3898  0.4744
  102TCq2    C8 1559   4.347   0.636  12.855 -0.8936  0.4301 -0.3239
  102TCq2    O4 1560   4.264   0.613  12.946  0.1726 -0.5318 -0.4460
  102TCq2    C9 1561   4.277   1.115  12.902  0.1644  0.0489  0.3945
  102TCq2    O5 1562   4.307   1.231  12.873 -0.1890 -0.7718  0.5105
  102TCq2    O6 1563   4.162   1.079  12.947  0.0118  0.8540  0.5043
  102TCq2    H2 1564   4.478   1.137  12.741  0.3467 -0.6659 -2.0873
  102TCq2    H3 1565   4.241   0.874  12.970  1.6432 -2.4649  2.5816
  102TCq2    H4 1566   4.574   0.723  12.743  1.2994  0.5477  1.6750
  103TMC2    C1 1567   2.825   0.379  12.466 -0.2357 -0.2615  0.7587
  103TMC2    C2 1568   2.963   0.384  12.479  0.0335 -0.1228  0.5165
  103TMC2    C3 1569   3.013   0.437  12.595 -0.0985 -0.8509 -0.3541
  103TMC2    C4 1570   2.745   0.438  12.561  0.3821 -0.3648 -0.4620
  103TMC2    C5 1571   2.796   0.490  12.674 -0.0344 -0.1603 -0.8077
  103TMC2    C6 1572   2.935   0.495  12.690 -0.3078  0.5193  0.2984
  103TMC2     C 1573   2.761   0.353  12.333  0.0744 -1.0083 -0.6952
  103TMC2     O 1574   2.640   0.367  12.328  0.2687  0.1944  0.2235
  103TMC2     H 1575   3.028   0.348  12.400 -2.0592  0.7231 -1.6358
  103TMC2    H1 1576   2.638   0.453  12.552  0.5759  0.0902 -2.0475
  103TMC2    H2 1577   2.974   0.522  12.788 -1.5664 -0.1637  0.9933
  103TMC2    C7 1578   2.714   0.578  12.741 -0.3074  0.1474  0.5499
  103TMC2    C8 1579   3.144   0.405  12.631  0.6153  0.4939  0.0804
  103TMC2    O1 1580   2.593   0.563  12.734 -0.2968  0.5262 -0.1353
  103TMC2    O2 1581   3.201   0.297  12.605 -0.3523  0.2733 -0.2198
  103TMC2    O5 1582   3.198   0.507  12.706 -0.4850 -0.4363  0.0133
  103TMC2    H5 1583   3.141   0.586  12.694  0.3748  0.2210  0.2340
  104MPD2     C 1584   2.925   0.296  12.018 -0.2622 -0.4937  0.7618
  104MPD2    C1 1585   2.817   0.303  12.098 -0.9821 -0.1583  0.1454
  104MPD2    C2 1586   2.690   0.301  12.042 -0.1046 -0.5241  0.4951
  104MPD2    C3 1587   2.672   0.279  11.906 -0.0374  0.0165  0.3627
  104MPD2    C4 1588   2.785   0.268  11.825 -0.6399  0.0203 -1.0639
  104MPD2    C5 1589   2.907   0.281  11.882 -0.9512  0.1858  0.6709
  104MPD2     H 1590   2.605   0.318  12.107 -1.3260 -2.5940 -0.5769
  104MPD2    H1 1591   2.784   0.254  11.718 -0.8848  1.0145 -1.1933
  104MPD2    H2 1592   3.025   0.300  12.061  0.7319 -0.3899 -1.5957
  104MPD2    H3 1593   2.999   0.259  11.829 -1.9988  1.4216 -1.6457
  104MPD2     N 1594   2.537   0.272  11.863 -0.3297  0.2078  0.2905
  104MPD2    H5 1595   2.464   0.290  11.932 -2.2056 -2.1642 -1.1009
  104MPD2    N1 1596   2.847   0.319  12.236 -0.3914 -0.4468  0.5672
  104MPD2    H7 1597   2.943   0.313  12.268  0.3740 -1.2377 -1.9422
  105MPD2     C 1598   4.151   4.320  17.689  0.5073  0.0935  0.5000
  105MPD2    C1 1599   4.084   4.436   0.032 -0.5821 -0.2954  0.9660
  105MPD2    C2 1600   4.055   4.461   0.158  0.3954 -0.0428  0.4324
  105MPD2    C3 1601   4.106   4.373   0.258 -0.4600  0.2259 -0.0400
  105MPD2    C4 1602   4.186   4.263   0.213  0.3124  0.5480  0.6882
  105MPD2    C5 1603   4.204   4.234   0.083 -0.6403  0.3714  0.2884
  105MPD2     H 1604   3.993   4.545   0.187  2.7252  1.0669  2.1321
  105MPD2    H1 1605   4.231   4.192   0.281 -2.5724 -2.5032 -0.5934
  105MPD2    H2 1606   4.142   4.282  17.588 -2.3680 -1.9982  1.5516
  105MPD2    H3 1607   4.267   4.153   0.048  3.1503  2.8304  1.2963
  105MPD2     N 1608   4.079   4.406   0.391 -0.4404 -0.6614 -0.1525
  105MPD2    H5 1609   4.045   4.500   0.409 -1.3581 -0.6602 -1.9031
  105MPD2    N1 1610   4.026   4.529  17.644  0.5122  0.2224 -0.6998
  105MPD2    H7 1611   3.991   4.617  17.680 -1.0001 -0.7580  0.2098
  106TCq2    C1 1612   4.081   4.323   0.500 -0.6010 -0.8044  0.4316
  106TCq2    O2 1613   4.136   4.213   0.495 -0.1563  0.1434  0.4435
  106TCq2    C2 1614   4.022   4.374   0.625 -0.3252 -0.1597 -0.3849
  106TCq2    C3 1615   4.022   4.281   0.717 -0.4775  0.3358 -0.9191
  106TCq2    C4 1616   3.980   4.312   0.844 -0.1621  0.1396 -0.4571
  106TCq2    C5 1617   3.947   4.444   0.868 -0.4200  0.1086  0.3601
  106TCq2    C6 1618   3.934   4.533   0.763 -0.0566  0.2599  0.5773
  106TCq2    C7 1619   3.973   4.498   0.639  0.9976 -0.9365 -0.1428
  106TCq2    C8 1620   3.905   4.673   0.785 -0.2619 -0.3577  0.6357
  106TCq2    O4 1621   3.891   0.024   0.691  0.3558 -0.0865 -0.2962
  106TCq2    C9 1622   3.992   4.222   0.954  0.0921  0.0101 -0.3893
  106TCq2    O5 1623   3.962   4.263   1.069 -0.4086 -0.5302  0.2923
  106TCq2    O6 1624   4.051   4.113   0.928 -0.5953 -0.1954 -0.8327
  106TCq2    H2 1625   4.037   4.177   0.692 -2.6536 -0.5830  1.5180
  106TCq2    H3 1626   3.914   4.459   0.970  4.6792  2.4803  1.6585
  106TCq2    H4 1627   3.984   4.573   0.561  1.1993  0.6088  1.3803
  107TMC2    C1 1628   0.106   3.680  11.565  0.3035 -0.0935 -0.0937
  107TMC2    C2 1629   0.227   3.744  11.541 -0.3687 -0.7465  0.8270
  107TMC2    C3 1630   0.264   3.739  11.411 -0.2436  0.3643 -0.0362
  107TMC2    C4 1631   0.033   3.615  11.473 -0.0277  0.2862 -0.5202
  107TMC2    C5 1632   0.079   3.609  11.345  0.8013 -0.8671 -0.5787
  107TMC2    C6 1633   0.202   3.661  11.312  0.8722 -0.0843 -0.2196
  107TMC2     C 1634   0.053   3.691  11.702 -0.3132 -0.4136  0.3953
  107TMC2     O 1635   4.663   3.656  11.719 -0.2064  0.7122  0.0956
  107TMC2     H 1636   0.300   3.788  11.607  0.3597 -0.8848  0.1034
  107TMC2    H1 1637   4.675   3.551  11.499  1.5320 -1.7309 -0.4554
  107TMC2    H2 1638   0.243   3.653  11.212  2.5939 -0.1810  0.5028
  107TMC2    C7 1639   0.030   3.501  11.266 -0.3431  0.6123 -0.5673
  107TMC2    C8 1640   0.393   3.808  11.388  0.3321 -0.4101  0.3003
  107TMC2    O1 1641   0.023   3.402  11.337  0.2379 -1.3790 -0.1471
  107TMC2    O2 1642   0.433   3.896  11.469  0.2700 -0.2036  0.2158
  107TMC2    O5 1643   0.466   3.705  11.350  0.1136  0.4956 -0.1881
  107TMC2    H5 1644   0.428   3.618  11.327 -1.3306  1.3270 -0.9162
  108MPD2     C 1645   0.226   3.795  12.013 -0.4191  0.3565  0.3247
  108MPD2    C1 1646   0.124   3.782  11.921 -0.0933 -0.0278 -0.2682
  108MPD2    C2 1647   4.722   3.824  11.965 -0.0175  0.2586 -0.2454
  108MPD2    C3 1648   4.697   3.859  12.097  0.9462 -0.2793  0.3566
  108MPD2    C4 1649   0.078   3.878  12.178  0.0286  0.8775  0.1092
  108MPD2    C5 1650   0.201   3.840  12.135  0.7423 -0.1158  0.2978
  108MPD2     H 1651   4.643   3.822  11.892  0.7382 -2.3128 -0.9989
  108MPD2    H1 1652   0.058   3.903  12.281  2.2692 -1.9847  1.2462
  108MPD2    H2 1653   0.327   3.762  11.993 -0.4498  0.4097  0.0813
  108MPD2    H3 1654   0.282   3.845  12.207  0.8971  1.4148  0.0117
  108MPD2     N 1655   4.564   3.875  12.150  0.2799 -0.6700 -0.4720
  108MPD2    H5 1656   4.551   3.898  12.248  0.7832  1.1742 -0.8479
  108MPD2    N1 1657   0.151   3.725  11.796  0.5191  0.4503  0.4571
  108MPD2    H7 1658   0.244   3.684  11.788  1.3782  2.3663  0.7544
  109MPD2     C 1659   4.080   0.384   2.544 -0.5469  0.3497  0.4282
  109MPD2    C1 1660   4.016   0.475   2.462 -0.0317 -1.0173  0.2223
  109MPD2    C2 1661   4.076   0.597   2.426 -0.3084 -0.1526 -0.5237
  109MPD2    C3 1662   4.212   0.617   2.452 -0.6957 -0.5919 -0.9093
  109MPD2    C4 1663   4.278   0.522   2.532  0.1233 -0.8193  0.3299
  109MPD2    C5 1664   4.217   0.404   2.577 -0.7399 -0.1077 -0.4694
  109MPD2     H 1665   4.034   0.679   2.369 -1.1548  0.2879  0.7123
  109MPD2    H1 1666   4.385   0.532   2.538 -0.1294  1.2080  1.3655
  109MPD2    H2 1667   4.039   0.284   2.557 -1.0664  0.5192  0.1029
  109MPD2    H3 1668   4.276   0.331   2.631 -0.4202 -1.0264 -2.0736
  109MPD2     N 1669   4.278   0.718   2.383 -0.1370 -0.1930 -0.3137
  109MPD2    H5 1670   4.229   0.774   2.315  2.5269  2.0282 -0.4154
  109MPD2    N1 1671   3.884   0.443   2.425 -0.0094  0.4760  0.0773
  109MPD2    H7 1672   3.839   0.358   2.459  2.4721 -1.9118 -2.5816
  110TCq2    C1 1673   4.414   0.749   2.386  0.2377 -0.0501 -0.5070
  110TCq2    O2 1674   4.500   0.702   2.457  0.3074 -0.7787 -0.2932
  110TCq2    C2 1675   4.450   0.852   2.285 -0.3430 -0.7961  0.6684
  110TCq2    C3 1676   4.549   0.942   2.310  0.4526  0.2197 -0.2046
  110TCq2    C4 1677   4.561   1.046   2.230 -0.6096  0.1437  0.0541
  110TCq2    C5 1678   4.477   1.056   2.114 -0.3100  0.7310 -0.3647
  110TCq2    C6 1679   4.387   0.954   2.092 -0.7785 -0.4813 -0.2713
  110TCq2    C7 1680   4.366   0.857   2.182 -0.5037 -0.3735 -0.2013
  110TCq2    C8 1681   4.317   0.954   1.972  0.1668 -0.2590 -0.7470
  110TCq2    O4 1682   4.372   1.014   1.879  0.7235  0.0361  0.8358
  110TCq2    C9 1683   4.675   1.136   2.246  0.1532 -0.1585 -0.0625
  110TCq2    O5 1684   0.031   1.106   2.334  0.4516 -0.0288  0.2586
  110TCq2    O6 1685   4.717   1.200   2.149 -0.7524  0.5837  0.0311
  110TCq2    H2 1686   4.609   0.934   2.399 -2.6140 -1.6654  1.7084
  110TCq2    H3 1687   4.504   1.130   2.040  2.1243  0.1663 -0.0460
  110TCq2    H4 1688   4.290   0.784   2.154  0.0127 -0.4327 -1.4359
  111TMC2    C1 1689   0.138   1.478  11.145  0.2570 -0.0266 -0.3070
  111TMC2    C2 1690   0.240   1.531  11.072 -0.0255 -0.6135  0.6748
  111TMC2    C3 1691   0.365   1.507  11.116  0.4581 -0.2053  0.0145
  111TMC2    C4 1692   0.158   1.383  11.247  0.1891  0.3743 -0.3056
  111TMC2    C5 1693   0.286   1.351  11.273 -0.0770 -0.4219  0.8142
  111TMC2    C6 1694   0.393   1.410  11.209 -0.1605 -0.1364 -0.0414
  111TMC2     C 1695   0.008   1.517  11.076 -0.6390 -0.4179 -0.2420
  111TMC2     O 1696   0.020   1.596  10.980 -0.0533 -0.2350 -0.0246
  111TMC2     H 1697   0.227   1.601  10.990  0.8658  1.5693  2.4108
  111TMC2    H1 1698   0.076   1.340  11.303 -0.0808 -1.2276 -1.9122
  111TMC2    H2 1699   0.490   1.362  11.210  1.2534  2.7462 -0.2093
  111TMC2    C7 1700   0.332   1.247  11.372  0.2179 -0.2482 -0.5106
  111TMC2    C8 1701   0.465   1.541  11.020 -0.1319 -0.5815 -0.4199
  111TMC2    O1 1702   0.270   1.236  11.479 -0.1678 -0.4183  0.6033
  111TMC2    O2 1703   0.439   1.544  10.902 -0.0732 -0.2135 -0.0382
  111TMC2    O5 1704   0.585   1.523  11.080  0.2130  0.3874  0.2086
  111TMC2    H5 1705   0.592   1.541  11.176  1.8980 -2.0100  0.5359
  112MPD2     C 1706   4.220   1.496  11.028 -0.0835 -0.1615  0.2095
  112MPD2    C1 1707   4.315   1.542  10.938 -0.0618 -0.0469 -0.0407
  112MPD2    C2 1708   4.450   1.523  10.969  0.5914  0.6619 -0.1380
  112MPD2    C3 1709   4.490   1.467  11.091 -0.1246 -0.4341  0.0260
  112MPD2    C4 1710   4.391   1.426  11.179 -0.1330 -0.1280  0.3335
  112MPD2    C5 1711   4.259   1.439  11.141  0.0855 -0.3392  0.9613
  112MPD2     H 1712   4.523   1.553  10.895  2.2460 -0.5763  1.0035
  112MPD2    H1 1713   4.419   1.366  11.265 -0.5011  3.4953  2.9905
  112MPD2    H2 1714   4.113   1.508  11.015  0.0353  0.5928 -0.0577
  112MPD2    H3 1715   4.183   1.396  11.206  1.0302 -0.9255  1.6846
  112MPD2     N 1716   4.624   1.446  11.128  0.5538  0.2198 -0.3094
  112MPD2    H5 1717   4.648   1.398  11.214 -1.5235  0.3090  0.3303
  112MPD2    N1 1718   4.284   1.610  10.817  0.4263  0.4263  0.1311
  112MPD2    H7 1719   4.363   1.624  10.755 -0.6851  0.2146 -1.3250
  113MPD2     C 1720   1.635   3.691   1.387  0.2147 -0.1520 -0.4155
  113MPD2    C1 1721   1.582   3.818   1.375  0.2089  0.6133  0.5080
  113MPD2    C2 1722   1.525   3.858   1.251  1.2000  0.3785 -0.8442
  113MPD2    C3 1723   1.496   3.765   1.150  0.2884  0.8701  0.0453
  113MPD2    C4 1724   1.536   3.633   1.176 -0.5113  0.4299  0.4140
  113MPD2    C5 1725   1.612   3.604   1.288  0.1820 -0.2769  0.5758
  113MPD2     H 1726   1.493   3.961   1.238  0.1395  0.3550  1.5476
  113MPD2    H1 1727   1.498   3.556   1.109  1.9369 -0.0997 -0.3976
  113MPD2    H2 1728   1.689   3.658   1.475 -0.2247  0.8517  0.2165
  113MPD2    H3 1729   1.632   3.499   1.308 -0.7863 -0.4943  0.4193
  113MPD2     N 1730   1.428   3.795   1.031 -0.3003 -0.0456 -0.1880
  113MPD2    H5 1731   1.426   3.722   0.960 -1.3626 -2.1061  1.9460
  113MPD2    N1 1732   1.596   3.920   1.470 -0.3732 -0.3391 -0.3214
  113MPD2    H7 1733   1.551   4.007   1.445 -0.8926 -1.1553 -2.2255
  114TCq2    C1 1734   1.364   3.909   0.999 -0.2614  0.6129  0.2099
  114TCq2    O2 1735   1.360   4.015   1.056 -0.1022  0.2257 -1.0914
  114TCq2    C2 1736   1.308   3.899   0.865  0.5208 -0.5947 -0.0009
  114TCq2    C3 1737   1.335   4.017   0.791 -0.3820 -0.3490  0.1382
  114TCq2    C4 1738   1.329   4.008   0.653  0.5569  0.4983  0.1001
  114TCq2    C5 1739   1.290   3.893   0.593  0.4366 -0.2438 -0.0486
  114TCq2    C6 1740   1.264   3.779   0.669 -0.3085 -0.5526 -0.0365
  114TCq2    C7 1741   1.268   3.779   0.810  0.3234  0.0895  0.0644
  114TCq2    C8 1742   1.195   3.675   0.596  0.8898 -0.4103  0.1191
  114TCq2    O4 1743   1.118   3.707   0.508  0.3978 -0.1334  0.4189
  114TCq2    C9 1744   1.380   4.110   0.567  0.5245 -0.3090  0.0450
  114TCq2    O5 1745   1.378   4.078   0.450 -0.4429  0.9273 -0.0032
  114TCq2    O6 1746   1.437   4.212   0.613 -0.4605 -0.3187 -0.3144
  114TCq2    H2 1747   1.385   4.101   0.838 -0.3548  1.1069 -2.4745
  114TCq2    H3 1748   1.281   3.892   0.485  0.2090  0.3904 -0.0368
  114TCq2    H4 1749   1.240   3.693   0.869 -1.8496  1.1484  0.5805
  115TMC2    C1 1750   3.171   1.908   0.143 -0.0897 -0.1427 -0.3882
  115TMC2    C2 1751   3.270   1.836   0.080 -0.0210 -0.1477  0.3812
  115TMC2    C3 1752   3.319   1.892  17.670 -0.0602  0.4742  0.1974
  115TMC2    C4 1753   3.120   2.032   0.096 -0.2204  0.3552  0.4015
  115TMC2    C5 1754   3.185   2.092  17.688  0.0682 -0.4941 -0.0460
  115TMC2    C6 1755   3.277   2.016  17.617  0.0965  0.0702 -0.4290
  115TMC2     C 1756   3.084   1.836   0.226  0.2777  0.0287 -0.0577
  115TMC2     O 1757   2.968   1.828   0.188  0.1261  0.3843 -0.4775
  115TMC2     H 1758   3.298   1.740   0.122  0.2388  1.0714  2.9465
  115TMC2    H1 1759   3.032   2.076   0.143 -1.1121 -1.7148  0.7150
  115TMC2    H2 1760   3.328   2.050  17.527 -1.1255  1.5284 -0.5577
  115TMC2    C7 1761   3.130   2.212  17.623 -0.0326 -0.3100 -0.0344
  115TMC2    C8 1762   3.397   1.811  17.582  0.1569  0.1735 -0.3190
  115TMC2    O1 1763   3.013   2.225  17.619  0.5944  0.2709  0.0560
  115TMC2    O2 1764   3.381   1.811  17.462  0.2885 -0.2343  0.2309
  115TMC2    O5 1765   3.458   1.714  17.653 -0.0224  0.1143  0.2478
  115TMC2    H5 1766   3.469   1.738   0.046 -1.5563  0.2991  0.3762
  116MPD2     C 1767   3.066   1.338   0.337 -0.0784  0.4803  0.1917
  116MPD2    C1 1768   2.997   1.407   0.240  0.0874 -0.1336  0.3286
  116MPD2    C2 1769   3.021   1.542   0.235 -0.1240 -0.0322  0.5003
  116MPD2    C3 1770   3.110   1.610   0.319  0.5144 -0.3607  0.2504
  116MPD2    C4 1771   3.177   1.539   0.414  0.9107 -0.4373 -0.4254
  116MPD2    C5 1772   3.145   1.404   0.431 -0.5549 -0.2442 -0.7714
  116MPD2     H 1773   2.977   1.597   0.152 -2.3410 -3.0528 -0.3365
  116MPD2    H1 1774   3.244   1.582   0.487 -0.3891 -0.8607  1.0270
  116MPD2    H2 1775   3.052   1.231   0.348  2.2899  0.1133 -0.4170
  116MPD2    H3 1776   3.201   1.342   0.500  1.1864 -0.4290 -2.3507
  116MPD2     N 1777   3.151   1.748   0.305  0.1162  0.0914 -0.0116
  116MPD2    H5 1778   3.229   1.776   0.364  0.0453 -0.9594  0.5694
  116MPD2    N1 1779   2.917   1.336   0.146  0.1574  0.4768  0.5232
  116MPD2    H7 1780   2.899   1.237   0.158  1.8584  0.1018 -0.0497
  117TMC2    C1 1781   1.969   3.176  13.778 -0.2802  0.4916 -0.2110
  117TMC2    C2 1782   2.002   3.138  13.655  0.0557  1.1711  0.7366
  117TMC2    C3 1783   2.079   3.223  13.578  0.2065  0.0955  0.1581
  117TMC2    C4 1784   2.015   3.287  13.832  0.1212 -0.4055  0.4805
  117TMC2    C5 1785   2.098   3.367  13.757  0.2914  0.3570 -0.4719
  117TMC2    C6 1786   2.123   3.349  13.624  0.2029 -1.2222 -0.1798
  117TMC2     C 1787   1.849   3.112  13.821  0.0702  0.2233 -0.2973
  117TMC2     O 1788   1.823   3.002  13.770  0.1000 -0.0822 -0.1030
  117TMC2     H 1789   1.973   3.048  13.601 -0.6282  1.5189  0.5360
  117TMC2    H1 1790   1.989   3.321  13.932 -0.3633 -0.9643  0.5478
  117TMC2    H2 1791   2.162   3.416  13.548  1.5919 -0.6892  0.9839
  117TMC2    C7 1792   2.141   3.493  13.817  0.4561 -0.0423  0.5929
  117TMC2    C8 1793   2.091   3.195  13.441  0.0845  0.2418  0.8761
  117TMC2    O1 1794   2.193   3.569  13.737  0.2936 -0.6539 -0.1944
  117TMC2    O2 1795   2.120   3.280  13.358  0.6696  0.0105 -0.2235
  117TMC2    O5 1796   2.149   3.074  13.443  0.6407 -0.1785  0.4736
  117TMC2    H5 1797   2.160   3.033  13.531  0.0882  1.2027  1.1838
  118MPD2     C 1798   2.159   3.604  14.174  0.8617  0.8000 -0.0002
  118MPD2    C1 1799   2.145   3.616  14.034  0.5969  0.3807 -0.0493
  118MPD2    C2 1800   2.162   3.742  13.975  0.0568 -0.1553  0.2160
  118MPD2    C3 1801   2.204   3.848  14.052 -0.4699 -0.5773  0.1535
  118MPD2    C4 1802   2.219   3.833  14.192  0.2890 -1.1812 -0.2616
  118MPD2    C5 1803   2.189   3.708  14.247 -0.4709  0.1861  0.0283
  118MPD2     H 1804   2.144   3.754  13.868  1.9141  2.1895  0.1805
  118MPD2    H1 1805   2.247   3.923  14.246 -0.3872 -0.1429 -1.6330
  118MPD2    H2 1806   2.152   3.509  14.226 -1.7138  0.9557 -0.0545
  118MPD2    H3 1807   2.185   3.687  14.353 -1.1724  0.6060  0.0846
  118MPD2     N 1808   2.245   3.961  13.992  0.2610  0.0889  0.4993
  118MPD2    H5 1809   2.289   4.036  14.046 -0.6684  0.0362  1.3240
  118MPD2    N1 1810   2.126   3.499  13.951  0.2420  0.3674  0.8023
  118MPD2    H7 1811   2.098   3.418  14.004  0.7711  0.4783  1.2580
  119MPD2     C 1812   0.164   0.031  13.662  0.6883  0.5620  0.2784
  119MPD2    C1 1813   0.040   4.703  13.700 -0.1984  0.2509 -0.5696
  119MPD2    C2 1814   4.683   4.674  13.594 -0.1633  0.4325  0.4732
  119MPD2    C3 1815   4.723   4.681  13.456  0.2907 -0.7106 -0.3093
  119MPD2    C4 1816   0.126   4.714  13.432 -0.2695  0.1712 -0.5965
  119MPD2    C5 1817   0.204   0.051  13.528  0.2790 -0.8426 -0.5422
  119MPD2     H 1818   4.579   4.651  13.614 -0.4413 -0.2999 -1.7379
  119MPD2    H1 1819   0.170   4.712  13.333  1.8826  1.1992  0.3283
  119MPD2    H2 1820   0.244   0.058  13.729  3.2271 -2.9103 -1.3066
  119MPD2    H3 1821   0.300   0.087  13.492  0.7067 -2.1923 -0.7493
  119MPD2     N 1822   4.649   4.637  13.344  0.3723  0.2014 -0.3613
  119MPD2    H5 1823   4.699   4.625  13.257  0.5038 -0.2083 -0.2298
  119MPD2    N1 1824   0.008   4.701  13.846  0.1800  0.3688  0.9137
  119MPD2    H7 1825   0.070   0.038  13.897  1.0651  1.1185 -1.0494
  120TCq2    C1 1826   4.517   4.588  13.356 -0.1947  0.3776  0.1726
  120TCq2    O2 1827   4.430   4.605  13.443  0.8579  0.5881 -0.4139
  120TCq2    C2 1828   4.471   4.533  13.229  0.4227  0.3757  0.1477
  120TCq2    C3 1829   4.565   4.467  13.148 -0.7758  0.0907  0.4555
  120TCq2    C4 1830   4.521   4.414  13.029  0.0342  0.3183  0.2638
  120TCq2    C5 1831   4.385   4.405  13.007 -0.4110  0.2239  0.1062
  120TCq2    C6 1832   4.297   4.467  13.095 -0.3019  0.4138  0.5141
  120TCq2    C7 1833   4.338   4.537  13.210  0.5865  0.0722 -0.2377
  120TCq2    C8 1834   4.161   4.423  13.092 -0.2365  0.2749  0.8744
  120TCq2    O4 1835   4.121   4.365  12.996  0.4459 -0.5127  0.0360
  120TCq2    C9 1836   4.616   4.348  12.946 -0.4450 -0.3327  0.0395
  120TCq2    O5 1837   0.012   4.372  12.954 -0.1348  0.6165  0.6886
  120TCq2    O6 1838   4.567   4.246  12.883  0.2526 -0.0943  0.7104
  120TCq2    H2 1839   4.671   4.460  13.166 -0.6342 -2.3532 -1.3639
  120TCq2    H3 1840   4.349   4.353  12.919  0.0510 -2.0649  1.2535
  120TCq2    H4 1841   4.272   4.589  13.277  0.7192 -0.2003  0.1032
  121TMC2    C1 1842   1.771   1.695  13.860  0.4988  0.9039 -0.1649
  121TMC2    C2 1843   1.757   1.647  13.988  0.0781 -0.2820  0.7332
  121TMC2    C3 1844   1.681   1.533  13.996 -0.0806 -0.4187 -0.2954
  121TMC2    C4 1845   1.718   1.647  13.744  0.0469 -0.1616 -0.5440
  121TMC2    C5 1846   1.636   1.537  13.763 -0.9675 -0.8510 -0.4609
  121TMC2    C6 1847   1.626   1.476  13.884 -0.0763 -0.2747  0.1208
  121TMC2     C 1848   1.832   1.826  13.851  0.7631 -0.1181 -0.0809
  121TMC2     O 1849   1.926   1.853  13.932 -0.0797  0.1470 -0.0762
  121TMC2     H 1850   1.792   1.711  14.068  0.3551  0.1488  0.2703
  121TMC2    H1 1851   1.751   1.674  13.644 -0.2773 -1.0589 -0.8861
  121TMC2    H2 1852   1.547   1.403  13.898  0.7427 -0.7662  2.1533
  121TMC2    C7 1853   1.511   1.552  13.687 -0.3061 -0.1395  0.3482
  121TMC2    C8 1854   1.640   1.472  14.117  0.2892  0.0912 -0.7624
  121TMC2    O1 1855   1.499   1.661  13.635  0.1372 -0.2037  0.1151
  121TMC2    O2 1856   1.533   1.409  14.128 -0.1783 -0.5108  0.4187
  121TMC2    O5 1857   1.697   1.544  14.219  0.3785  0.2433  0.2951
  121TMC2    H5 1858   1.791   1.571  14.214  0.5776 -0.4865  0.0134
  122MPD2     C 1859   1.961   2.049  13.710  0.2937  0.3676  0.0735
  122MPD2    C1 1860   1.839   2.002  13.672  0.4830 -0.2514  1.2920
  122MPD2    C2 1861   1.780   2.043  13.555  0.1935 -0.2964  0.6773
  122MPD2    C3 1862   1.835   2.152  13.491 -0.7676 -0.9336  0.4451
  122MPD2    C4 1863   1.948   2.214  13.541  0.2638 -0.5240  1.0310
  122MPD2    C5 1864   2.017   2.151  13.639 -0.2697 -0.4322  0.1247
  122MPD2     H 1865   1.695   1.989  13.516  2.8211 -3.5171 -0.6135
  122MPD2    H1 1866   1.999   2.290  13.483 -0.3882 -1.4310 -0.7511
  122MPD2    H2 1867   2.015   2.008  13.795 -0.9865  3.2320  2.2455
  122MPD2    H3 1868   2.117   2.179  13.671 -0.8111  0.2292  1.2266
  122MPD2     N 1869   1.778   2.212  13.381 -0.3521  0.6089  0.7453
  122MPD2    H5 1870   1.818   2.295  13.337  0.4509  0.7919  1.8128
  122MPD2    N1 1871   1.791   1.883  13.730 -0.3083  0.2139 -0.2429
  122MPD2    H7 1872   1.707   1.841  13.691  0.2784 -1.8184  0.6686
  123MPD2     C 1873   0.563   0.473   9.443 -0.1335  0.2066 -0.4301
  123MPD2    C1 1874   0.548   0.344   9.401  0.9125 -0.5008 -0.0611
  123MPD2    C2 1875   0.607   0.240   9.476  0.3441  0.1889 -0.2776
  123MPD2    C3 1876   0.683   0.265   9.587  0.2342 -0.0784  0.1673
  123MPD2    C4 1877   0.699   0.396   9.627 -0.0547 -0.6844  0.1238
  123MPD2    C5 1878   0.635   0.495   9.559 -0.4373  0.5562  0.6584
  123MPD2     H 1879   0.588   0.137   9.448 -0.3458  0.2999 -0.1954
  123MPD2    H1 1880   0.755   0.422   9.715 -3.3446  1.1864  1.6614
  123MPD2    H2 1881   0.523   0.562   9.394 -1.1339 -1.2907 -2.3174
  123MPD2    H3 1882   0.654   0.597   9.592 -0.0995  0.7811 -0.2585
  123MPD2     N 1883   0.741   0.155   9.660 -1.3001 -1.0464  0.2218
  123MPD2    H5 1884   0.720   0.067   9.614 -1.1592 -0.6280 -0.6477
  123MPD2    N1 1885   0.476   0.331   9.280 -0.2470  0.3887 -0.3260
  123MPD2    H7 1886   0.446   0.418   9.237  1.1497  0.6915 -0.6960
  124TCq2    C1 1887   0.822   0.158   9.773 -0.0019  0.1166 -0.6356
  124TCq2    O2 1888   0.865   0.258   9.826 -0.3156 -0.4967  0.0333
  124TCq2    C2 1889   0.859   0.034   9.842  0.1781  0.7738 -0.0334
  124TCq2    C3 1890   0.954   0.048   9.937 -0.5932  0.0175  0.2283
  124TCq2    C4 1891   0.943   4.693  10.045 -0.7767 -0.7836  0.1765
  124TCq2    C5 1892   0.850   4.593  10.052 -0.7392  0.3340  0.7616
  124TCq2    C6 1893   0.751   4.588   9.963  0.8042 -0.7352 -0.2334
  124TCq2    C7 1894   0.753   4.670   9.860  0.0923  0.5331 -0.5675
  124TCq2    C8 1895   0.637   4.503   9.998 -0.0720 -0.2870 -0.0969
  124TCq2    O4 1896   0.628   4.453  10.110 -0.2075 -0.2393 -0.5687
  124TCq2    C9 1897   1.038   4.708  10.149 -0.3471  0.2778 -0.1512
  124TCq2    O5 1898   1.086   0.100  10.160 -0.2266 -0.0940 -0.0243
  124TCq2    O6 1899   1.059   4.604  10.219 -0.0858  0.1183 -0.2059
  124TCq2    H2 1900   1.035   0.118   9.921 -0.1392 -0.9935 -1.8581
  124TCq2    H3 1901   0.853   4.521  10.133 -0.4610  1.0063  1.3477
  124TCq2    H4 1902   0.669   4.684   9.792  0.8105  0.5082 -1.4682
  125TMC2    C1 1903   0.673   1.900   9.610 -0.0613  0.3992  0.0168
  125TMC2    C2 1904   0.640   2.029   9.571 -0.5839  0.3244 -0.2907
  125TMC2    C3 1905   0.618   2.047   9.442 -0.7208  0.2129 -0.5530
  125TMC2    C4 1906   0.693   1.797   9.521  0.1887  0.8554  0.9136
  125TMC2    C5 1907   0.670   1.823   9.386  0.3837 -0.2943  0.8585
  125TMC2    C6 1908   0.625   1.944   9.345  0.3653  1.0277 -0.1678
  125TMC2     C 1909   0.707   1.864   9.741 -0.5356  1.3391  0.3292
  125TMC2     O 1910   0.797   1.779   9.760 -0.9766  0.0870  0.7079
  125TMC2     H 1911   0.641   2.109   9.644  2.1719  0.7138 -0.7430
  125TMC2    H1 1912   0.719   1.699   9.559 -0.3869 -0.2615 -1.5613
  125TMC2    H2 1913   0.609   1.963   9.240  0.3777 -2.3386 -0.7897
  125TMC2    C7 1914   0.648   1.710   9.298  0.3122  0.4270  0.6384
  125TMC2    C8 1915   0.639   2.187   9.397 -0.1150 -0.1186  0.0672
  125TMC2    O1 1916   0.566   1.723   9.206 -0.0254 -0.2982 -0.3394
  125TMC2    O2 1917   0.717   2.266   9.453  0.4245 -0.3115 -0.3962
  125TMC2    O5 1918   0.543   2.219   9.308  0.0705  0.4678  0.1518
  125TMC2    H5 1919   0.482   2.143   9.300  2.9938 -1.3862 -4.3790
  126MPD1     C 1920   0.553   1.838  10.228 -0.5491  0.8268 -0.0470
  126MPD1    C1 1921   0.461   1.911  10.158  0.0308 -0.1003 -0.3773
  126MPD1    C2 1922   0.491   1.953  10.026  0.1183 -0.0634  0.0608
  126MPD1    C3 1923   0.603   1.891   9.963 -0.4260 -0.0433 -0.0629
  126MPD1    C4 1924   0.692   1.811  10.029 -0.4593 -0.6678 -0.0786
  126MPD1    C5 1925   0.659   1.783  10.165  0.4027 -0.2552 -0.0654
  126MPD1     H 1926   0.439   2.031   9.971  1.2625  0.5752 -0.1217
  126MPD1    H1 1927   0.780   1.766   9.986  0.2005  0.1053  0.4680
  126MPD1    H2 1928   0.530   1.805  10.329 -1.4045  1.3004 -0.0822
  126MPD1    H3 1929   0.719   1.715  10.225 -0.2508 -0.2545  0.5891
  126MPD1     N 1930   0.622   1.923   9.829 -0.6206  0.3921  0.5953
  126MPD1    H5 1931   0.550   1.990   9.802  0.4869  1.6268  0.6868
  126MPD1    N1 1932   0.365   1.974  10.236  0.1797  0.2098 -0.0423
  126MPD1    H6 1933   0.283   1.989  10.178 -0.1973 -0.4966  0.3058
  126MPD1    H7 1934   0.333   1.921  10.317 -1.9062 -0.4245 -1.2673
  127MPD2     C 1935   1.774   0.068   9.213 -0.1941  0.2621 -0.0853
  127MPD2    C1 1936   1.831   0.021   9.334  0.0531  0.2845 -0.1225
  127MPD2    C2 1937   1.912   0.112   9.400 -0.0053 -0.0811  0.0553
  127MPD2    C3 1938   1.932   0.237   9.347  0.0419 -0.3228  0.5065
  127MPD2    C4 1939   1.857   0.275   9.241  0.0779  0.0590 -0.1889
  127MPD2    C5 1940   1.774   0.191   9.173 -0.3008  0.3790 -0.2685
  127MPD2     H 1941   1.965   0.061   9.480 -2.3930 -0.2300  1.5537
  127MPD2    H1 1942   1.860   0.374   9.196  0.2264 -0.2413 -0.8392
  127MPD2    H2 1943   1.703   4.721   9.174  3.7537 -0.8813 -5.0501
  127MPD2    H3 1944   1.708   0.218   9.091 -0.5787 -1.8501 -0.7978
  127MPD2     N 1945   2.034   0.317   9.413  0.0920 -0.7543 -0.1663
  127MPD2    H5 1946   2.069   0.275   9.499 -0.8135  1.9799  1.5225
  127MPD2    N1 1947   1.812   4.605   9.371 -0.7331 -0.0806 -0.5355
  127MPD2    H7 1948   1.750   4.558   9.306 -0.2551  0.9999 -1.7701
  128TCq2    C1 1949   1.842   4.554   9.491  0.0907 -0.6223  0.0947
  128TCq2    O2 1950   1.909   4.603   9.579 -0.0705 -0.4215 -0.0253
  128TCq2    C2 1951   1.788   4.424   9.514  0.1193 -0.2199  0.4438
  128TCq2    C3 1952   1.853   4.351   9.608  0.7822 -0.2021 -0.0857
  128TCq2    C4 1953   1.798   4.227   9.626 -0.6228  0.6194  0.5574
  128TCq2    C5 1954   1.675   4.191   9.576 -0.3166  0.1930  0.3516
  128TCq2    C6 1955   1.622   4.274   9.487  0.1272  0.1754 -0.8236
  128TCq2    C7 1956   1.671   4.390   9.449 -0.4195  0.4405  0.0323
  128TCq2    C8 1957   1.494   4.243   9.426  0.1030 -0.2158 -0.3509
  128TCq2    O4 1958   1.455   4.288   9.318  0.3244  0.7618 -0.0047
  128TCq2    C9 1959   1.877   4.140   9.713 -0.3975  0.0258  0.2825
  128TCq2    O5 1960   1.995   4.181   9.712 -0.1235  0.4327 -0.4951
  128TCq2    O6 1961   1.839   4.023   9.728  0.3538 -0.3251 -0.4076
  128TCq2    H2 1962   1.950   4.381   9.648  0.1381  2.6333 -0.6341
  128TCq2    H3 1963   1.640   4.092   9.600  2.7043 -0.8613  0.3420
  128TCq2    H4 1964   1.622   4.457   9.379 -0.9793  0.0994  0.1046
  129MPD2     C 1965   4.358   0.712   1.762  0.1774 -0.8893 -0.3631
  129MPD2    C1 1966   4.473   0.653   1.807  0.4220 -0.0886 -0.3625
  129MPD2    C2 1967   4.580   0.636   1.725  0.3529 -0.6554  0.3611
  129MPD2    C3 1968   4.579   0.684   1.593 -0.8041  0.3504 -0.3430
  129MPD2    C4 1969   4.462   0.746   1.548  0.0373 -1.1420 -0.0048
  129MPD2    C5 1970   4.349   0.755   1.631 -0.2363 -0.3050  0.5034
  129MPD2     H 1971   4.667   0.581   1.759  0.0970 -0.8515  0.7113
  129MPD2    H1 1972   4.462   0.808   1.460  2.1798  2.1050  2.3115
  129MPD2    H2 1973   4.267   0.726   1.819  1.0266  1.1345  0.4714
  129MPD2    H3 1974   4.264   0.814   1.598  0.3247  0.1747 -0.0890
  129MPD2     N 1975   4.698   0.665   1.520 -0.1757  0.0545  0.6954
  129MPD2    H5 1976   0.058   0.632   1.564 -0.7552 -2.6114 -0.2323
  129MPD2    N1 1977   4.475   0.586   1.934  0.3915 -0.2409  0.5887
  129MPD2    H7 1978   4.563   0.545   1.961 -0.8009 -1.5147  2.5331
  130TCq2    C1 1979   4.361   0.546   2.002  0.0976  0.6936  0.1667
  130TCq2    O2 1980   4.247   0.577   1.990  0.2047  0.0008 -0.9808
  130TCq2    C2 1981   4.394   0.466   2.113 -0.6699  0.5946  0.5269
  130TCq2    C3 1982   4.523   0.462   2.161  0.2038  0.2701 -0.2490
  130TCq2    C4 1983   4.558   0.370   2.260 -0.4321 -0.5564  0.0636
  130TCq2    C5 1984   4.462   0.282   2.301 -0.2538  0.7083 -0.0722
  130TCq2    C6 1985   4.332   0.286   2.254  0.1957 -0.1511  0.0328
  130TCq2    C7 1986   4.297   0.376   2.154 -0.2089  0.1951  0.3420
  130TCq2    C8 1987   4.226   0.191   2.292 -0.2092  0.3767  0.6175
  130TCq2    O4 1988   4.139   0.168   2.207 -0.0006 -0.7837  0.5089
  130TCq2    C9 1989   4.688   0.367   2.316 -0.0936 -0.2372  0.0460
  130TCq2    O5 1990   4.720   0.286   2.408  0.6386  0.5474  0.0680
  130TCq2    O6 1991   0.047   0.447   2.267 -0.2456 -0.2260  0.0990
  130TCq2    H2 1992   4.594   0.541   2.137  0.5885 -0.3272 -1.0658
  130TCq2    H3 1993   4.496   0.209   2.373  0.6491  1.1767 -0.0250
  130TCq2    H4 1994   4.197   0.373   2.111  1.3297 -2.6505 -2.9922
  131MPD2     C 1995   4.592   4.414   9.501  0.8324  0.4215 -0.9268
  131MPD2    C1 1996   4.693   4.490   9.557 -0.1346  0.6748 -0.1330
  131MPD2    C2 1997   0.053   4.558   9.475  0.4504 -0.1911  0.2025
  131MPD2    C3 1998   0.038   4.561   9.336 -0.7059  0.1826 -0.1317
  131MPD2    C4 1999   4.651   4.493   9.286  0.9218 -0.6982  0.4428
  131MPD2    C5 2000   4.572   4.415   9.369 -0.0779 -0.1012  0.0736
  131MPD2     H 2001   0.148   4.599   9.506 -0.3706 -0.0466  2.5441
  131MPD2    H1 2002   4.637   4.487   9.179  0.8673  1.7330  0.3270
  131MPD2    H2 2003   4.522   4.356   9.560  0.1150  0.9520 -1.2581
  131MPD2    H3 2004   4.503   4.339   9.334  0.4883 -0.6729  0.1873
  131MPD2     N 2005   0.105   4.648   9.250  0.2498 -1.4532  0.0621
  131MPD2    H5 2006   0.183   4.696   9.294 -0.4239 -1.6380  1.4532
  131MPD2    N1 2007   4.709   4.488   9.699  0.6390 -0.4301  0.0922
  131MPD2    H7 2008   4.646   4.435   9.758 -0.6828 -0.6423 -1.5262
  132TCq2    C1 2009   0.057   4.680  10.261 -0.2515  0.0931  0.5848
  132TCq2    O2 2010   0.043   4.628  10.369 -0.4549 -0.6768  0.1125
  132TCq2    C2 2011   0.018   4.603  10.141 -0.5403  0.2922 -0.8134
  132TCq2    C3 2012   4.661   4.493  10.164 -0.7077  0.2808  0.1093
  132TCq2    C4 2013   4.636   4.398  10.065  0.4570 -0.6747 -0.3723
  132TCq2    C5 2014   4.697   4.417   9.942 -0.2643 -0.7866 -0.5356
  132TCq2    C6 2015   0.031   4.534   9.917 -0.3868 -0.1391  0.2973
  132TCq2    C7 2016   0.055   4.627  10.013 -0.0986 -0.4428  0.3735
  132TCq2    C8 2017   0.064   4.563   9.779  0.2092 -0.8863 -0.3339
  132TCq2    O4 2018   0.151   4.649   9.745 -0.4743 -0.1269  0.3104
  132TCq2    C9 2019   4.575   4.273  10.092 -0.7071 -0.0599  0.1592
  132TCq2    O5 2020   4.590   4.186   9.999  0.2161  0.8325 -0.0387
  132TCq2    O6 2021   4.482   4.291  10.168  0.0450 -0.4226 -0.3296
  132TCq2    H2 2022   4.622   4.466  10.262  1.6622 -2.4418  0.3137
  132TCq2    H3 2023   4.707   4.329   9.879  1.1503  0.0783 -1.5394
  132TCq2    H4 2024   0.101   4.718   9.977  1.4286 -1.1164  0.6015
  133MPD2     C 2025   4.449   1.380   8.820 -0.4602  0.2885  0.1003
  133MPD2    C1 2026   4.505   1.318   8.927 -0.2059  0.4482  0.5522
  133MPD2    C2 2027   4.462   1.192   8.966 -0.3495  0.2254  0.3896
  133MPD2    C3 2028   4.352   1.142   8.902  0.1888 -0.8401  0.1900
  133MPD2    C4 2029   4.288   1.216   8.801 -0.2973  0.1910  0.3342
  133MPD2    C5 2030   4.341   1.329   8.752  0.2923 -0.3851  0.0374
  133MPD2     H 2031   4.509   1.145   9.051  1.6303  0.6003 -0.5063
  133MPD2    H1 2032   4.199   1.181   8.750  0.5427 -0.7626 -0.4928
  133MPD2    H2 2033   4.477   1.483   8.800 -2.3292  0.7987  0.1148
  133MPD2    H3 2034   4.291   1.384   8.674 -0.9015 -0.2908  0.8761
  133MPD2     N 2035   4.304   1.012   8.926  0.0254  0.2843 -0.1839
  133MPD2    H5 2036   4.217   0.988   8.880  1.8944 -2.6017 -2.2765
  133MPD2    N1 2037   4.618   1.375   8.978  0.2390  0.1620 -0.3694
  133MPD2    H7 2038   4.646   1.459   8.929  0.2995  1.2297  1.4995
  134TCq2    C1 2039   4.702   1.328   9.079 -0.5663 -0.1509 -0.0541
  134TCq2    O2 2040   4.689   1.237   9.157 -0.6981 -0.1895  0.8060
  134TCq2    C2 2041   0.069   1.430   9.115  0.5730  0.4818 -0.8970
  134TCq2    C3 2042   0.053   1.561   9.080  0.4974 -0.2672 -0.1761
  134TCq2    C4 2043   0.132   1.659   9.130 -0.4480  0.4169 -0.1753
  134TCq2    C5 2044   0.247   1.617   9.198 -0.2213  0.3996 -0.3530
  134TCq2    C6 2045   0.255   1.487   9.236  0.1752 -0.2506 -0.1060
  134TCq2    C7 2046   0.175   1.384   9.190 -0.3253  0.0871  0.2174
  134TCq2    C8 2047   0.334   1.453   9.352 -0.2425  0.4859 -0.2729
  134TCq2    O4 2048   0.350   1.334   9.381  0.3244 -0.0983  0.6163
  134TCq2    C9 2049   0.109   1.799   9.085 -0.5073  0.4369  0.5674
  134TCq2    O5 2050   0.019   1.817   8.998  0.3119 -0.2363 -0.1931
  134TCq2    O6 2051   0.199   1.883   9.131  0.4054 -0.3770 -0.4686
  134TCq2    H2 2052   4.687   1.591   9.030 -0.2642  1.3792  2.2183
  134TCq2    H3 2053   0.318   1.697   9.217  0.5666 -0.1793 -0.8518
  134TCq2    H4 2054   0.173   1.279   9.217  1.7638  0.0274  0.1420
  135MPD2     C 2055   1.934   1.810   9.903  0.6149 -0.0962  0.6240
  135MPD2    C1 2056   1.807   1.838   9.851  1.3148 -0.1786  0.4706
  135MPD2    C2 2057   1.783   1.773   9.725 -0.0721 -0.1150 -0.2305
  135MPD2    C3 2058   1.878   1.677   9.673 -0.6130  0.3751 -0.5331
  135MPD2    C4 2059   1.998   1.655   9.733  0.0671 -0.3388 -0.1704
  135MPD2    C5 2060   2.024   1.722   9.848 -0.0551  0.4224  0.0884
  135MPD2     H 2061   1.692   1.779   9.667 -0.0983 -1.0171 -0.2782
  135MPD2    H1 2062   2.081   1.603   9.687 -0.3902  2.7944 -4.5171
  135MPD2    H2 2063   1.968   1.865   9.990  3.6725  2.5988 -2.2876
  135MPD2    H3 2064   2.124   1.704   9.886  0.0049 -0.7816 -0.6591
  135MPD2     N 2065   1.858   1.604   9.556  0.5027  0.2501  1.1987
  135MPD2    H5 2066   1.934   1.553   9.513  0.2961 -0.1840  1.3458
  135MPD2    N1 2067   1.714   1.927   9.907  0.4287  0.4874  0.5849
  135MPD2    H7 2068   1.627   1.939   9.857  1.3069 -3.3156 -1.8469
  136TCq2    C1 2069   1.715   1.973  10.034 -0.0580 -0.1502  0.0723
  136TCq2    O2 2070   1.791   1.941  10.126  0.1364 -0.3481  0.2065
  136TCq2    C2 2071   1.612   2.077  10.047 -1.0119  0.2179 -0.6642
  136TCq2    C3 2072   1.566   2.147   9.941  0.1568  0.1913 -0.0546
  136TCq2    C4 2073   1.492   2.258   9.970 -0.0494  0.2931  0.9907
  136TCq2    C5 2074   1.465   2.296  10.097  0.9045  0.2150 -0.8412
  136TCq2    C6 2075   1.514   2.219  10.201 -0.1014  0.5242  0.7652
  136TCq2    C7 2076   1.584   2.103  10.176  0.1940 -0.5570  0.4785
  136TCq2    C8 2077   1.427   2.221  10.324 -0.4720  0.8409 -0.2348
  136TCq2    O4 2078   1.403   2.334  10.355 -0.0900  0.4042  0.1256
  136TCq2    C9 2079   1.440   2.342   9.866  0.6170 -0.1820  0.3358
  136TCq2    O5 2080   1.424   2.285   9.756 -0.2049 -0.2529  0.3250
  136TCq2    O6 2081   1.396   2.457   9.893 -0.5095 -0.7108  0.1987
  136TCq2    H2 2082   1.589   2.127   9.837 -0.6321  2.7862 -0.7192
  136TCq2    H3 2083   1.395   2.378  10.108 -0.4939 -1.2150  1.0605
  136TCq2    H4 2084   1.625   2.053  10.263  0.9758  0.3733  0.6445
  137MPD2     C 2085   1.330   0.004   9.888  0.2727 -0.0621  0.3521
  137MPD2    C1 2086   1.332   0.128   9.840 -0.2192  0.2095 -0.1148
  137MPD2    C2 2087   1.389   0.233   9.915  0.1649  0.0209  0.3080
  137MPD2    C3 2088   1.429   0.211  10.041 -0.3622 -0.6569  0.2616
  137MPD2    C4 2089   1.423   0.085  10.091 -0.0832 -0.6550 -0.6859
  137MPD2    C5 2090   1.370   4.709  10.014  0.7459  0.4658  0.1036
  137MPD2     H 2091   1.387   0.330   9.868 -1.9852 -0.8253 -1.3108
  137MPD2    H1 2092   1.475   0.058  10.183 -0.0730  0.7392 -0.2837
  137MPD2    H2 2093   1.303   4.652   9.817  0.7350  2.1704 -2.2495
  137MPD2    H3 2094   1.379   4.610  10.055  1.3935  1.0526  1.3919
  137MPD2     N 2095   1.488   0.316  10.112  0.2758 -0.5963  0.5256
  137MPD2    H5 2096   1.498   0.404  10.063  1.3948 -0.7785  0.4121
  137MPD2    N1 2097   1.286   0.145   9.703 -0.3025 -0.2546 -0.4565
  137MPD2    H7 2098   1.255   0.066   9.647  1.2957 -1.5234  0.4098
  138TCq2    C1 2099   1.266   0.265   9.640  0.3223  0.0246  0.2833
  138TCq2    O2 2100   1.281   0.380   9.681  0.5936  0.1942 -0.1636
  138TCq2    C2 2101   1.188   0.263   9.520  0.0540 -0.5413  0.6217
  138TCq2    C3 2102   1.100   0.162   9.498 -0.6240 -0.3859  0.3511
  138TCq2    C4 2103   1.002   0.177   9.408  0.1455  0.6792 -0.3947
  138TCq2    C5 2104   0.975   0.289   9.344  0.1408  0.3189  0.1531
  138TCq2    C6 2105   1.054   0.397   9.380 -0.8437  0.0964  0.2945
  138TCq2    C7 2106   1.171   0.384   9.451 -0.2431  0.0559  0.0278
  138TCq2    C8 2107   0.989   0.524   9.380 -0.1256  0.6279  0.1456
  138TCq2    O4 2108   0.913   0.553   9.286  0.0425 -0.4220  0.0368
  138TCq2    C9 2109   0.927   0.059   9.374  0.0413 -0.1449  0.3079
  138TCq2    O5 2110   0.930   4.687   9.457  0.2293 -0.0632  0.3481
  138TCq2    O6 2111   0.877   0.055   9.256  0.1770  0.3423  0.1947
  138TCq2    H2 2112   1.116   0.067   9.547  0.3177 -1.4097 -1.9257
  138TCq2    H3 2113   0.884   0.296   9.285  2.1620 -0.4900 -3.0815
  138TCq2    H4 2114   1.223   0.476   9.477 -0.1139  0.0874 -0.3475
  139TMC2    C1 2115   1.811   3.903  13.349 -0.8943 -0.0353 -0.1527
  139TMC2    C2 2116   1.917   3.981  13.299  0.2752 -0.1115 -0.3453
  139TMC2    C3 2117   1.910   4.113  13.320 -0.3255  0.0560  1.1416
  139TMC2    C4 2118   1.715   3.963  13.427 -1.3069 -0.4528 -0.7929
  139TMC2    C5 2119   1.718   4.098  13.450 -0.0526 -0.7482 -0.1940
  139TMC2    C6 2120   1.814   4.179  13.388 -0.3244 -0.7029 -0.4239
  139TMC2     C 2121   1.830   3.759  13.328 -0.1418  0.1073 -0.9967
  139TMC2     O 2122   1.908   3.714  13.252 -0.3155  0.5381 -0.8158
  139TMC2     H 2123   1.996   3.933  13.242  0.5957  0.4454 -0.3704
  139TMC2    H1 2124   1.625   3.908  13.448 -0.5716 -1.6344 -0.7627
  139TMC2    H2 2125   1.808   4.288  13.388 -1.4110 -0.7644 -1.8805
  139TMC2    C7 2126   1.602   4.161  13.510 -0.2461  0.4479  0.4153
  139TMC2    C8 2127   1.960   4.180  13.200 -0.6475  0.0525 -0.2653
  139TMC2    O1 2128   1.594   4.288  13.500  0.2268 -0.2898  0.2010
  139TMC2    O2 2129   2.012   4.289  13.227  0.2978 -0.2221 -0.2619
  139TMC2    O5 2130   1.845   4.169  13.133 -0.0797 -0.3858  0.2533
  139TMC2    H5 2131   1.813   4.077  13.124 -0.7373 -0.0133 -1.2888
  140MPD2     C 2132   1.686   3.495  13.546  0.3826 -0.5619 -0.0326
  140MPD2    C1 2133   1.748   3.549  13.432 -0.1384  0.0346  0.8201
  140MPD2    C2 2134   1.789   3.464  13.335 -0.1032  0.5047  0.2612
  140MPD2    C3 2135   1.772   3.319  13.350 -0.3931  0.1046  0.5904
  140MPD2    C4 2136   1.726   3.271  13.469 -0.3785  0.3254 -0.7318
  140MPD2    C5 2137   1.682   3.358  13.564 -0.1114  0.8292  0.0568
  140MPD2     H 2138   1.834   3.500  13.244 -2.3127  4.1021  0.5659
  140MPD2    H1 2139   1.726   3.169  13.508 -1.2006 -0.5513 -3.0474
  140MPD2    H2 2140   1.645   3.562  13.620 -3.3099 -1.5542 -1.1884
  140MPD2    H3 2141   1.640   3.307  13.650  0.4150  0.6083  0.1856
  140MPD2     N 2142   1.799   3.228  13.246 -0.1455 -0.4163  0.3749
  140MPD2    H5 2143   1.814   3.272  13.156 -1.8809 -1.2317 -0.3108
  140MPD2    N1 2144   1.757   3.689  13.420 -0.1701  0.4533 -0.9742
  140MPD2    H7 2145   1.726   3.737  13.504 -0.8190  0.9011 -1.4698
  141TCq2    C1 2146   2.020   0.517  14.059 -0.0445  0.0060 -0.3034
  141TCq2    O2 2147   2.046   0.636  14.041  0.0354  0.2678 -0.0825
  141TCq2    C2 2148   1.975   0.480  14.188 -0.4021 -0.1837 -0.1570
  141TCq2    C3 2149   2.013   0.362  14.240 -0.1580 -0.2766 -0.1691
  141TCq2    C4 2150   1.996   0.333  14.372 -0.4354 -0.3548  0.7353
  141TCq2    C5 2151   1.966   0.438  14.462 -0.2423  0.3351  0.8387
  141TCq2    C6 2152   1.943   0.561  14.401 -0.5198 -0.4556  0.2648
  141TCq2    C7 2153   1.945   0.581  14.268 -0.4019 -1.0387  0.4254
  141TCq2    C8 2154   1.946   0.682  14.483  0.0980  0.3584 -0.0061
  141TCq2    O4 2155   1.920   0.667  14.601 -0.0064  0.4105  0.2519
  141TCq2    C9 2156   2.008   0.194  14.422 -0.3653 -0.1377 -0.4267
  141TCq2    O5 2157   1.997   0.182  14.548 -0.4533  0.4972  0.2002
  141TCq2    O6 2158   1.994   0.100  14.341 -0.6224 -0.3410  0.6418
  141TCq2    H2 2159   2.061   0.286  14.179  1.5083 -0.2920  1.1338
  141TCq2    H3 2160   1.962   0.428  14.570  2.4704  0.6383  0.9557
  141TCq2    H4 2161   1.915   0.679  14.231 -1.4850 -0.4192  2.9588
  142MPD2     C 2162   4.417   3.426  10.508  0.5528 -0.1008  0.3570
  142MPD2    C1 2163   4.443   3.464  10.379  0.2488  0.3092  0.3271
  142MPD2    C2 2164   4.509   3.587  10.354 -0.8795 -0.7952  1.0730
  142MPD2    C3 2165   4.550   3.672  10.455 -0.9151 -0.1013 -0.3451
  142MPD2    C4 2166   4.548   3.617  10.582 -0.6651  0.3011  0.4117
  142MPD2    C5 2167   4.485   3.491  10.612 -0.1381  0.4648 -0.4322
  142MPD2     H 2168   4.508   3.632  10.255 -0.0514  1.3609  2.0421
  142MPD2    H1 2169   4.584   3.668  10.672 -0.6300  0.0122  0.5612
  142MPD2    H2 2170   4.353   3.341  10.529 -1.5377  1.6224  0.9271
  142MPD2    H3 2171   4.474   3.470  10.718  1.3431 -1.4632 -0.6721
  142MPD2     N 2172   4.621   3.796  10.434  0.3590 -0.2332  0.0256
  142MPD2    H5 2173   4.656   3.830  10.523 -1.5743  0.7611  0.4024
  142MPD2    N1 2174   4.380   3.383  10.279 -0.6661  0.5489 -0.1523
  142MPD2    H7 2175   4.326   3.304  10.313  1.1767 -0.9672 -0.8072
  143TCq2    C1 2176   4.659   3.849  10.321  0.0149 -0.7212 -0.1315
  143TCq2    O2 2177   4.656   3.811  10.205 -0.2702 -0.5676  0.2263
  143TCq2    C2 2178   4.707   3.984  10.359  0.3107 -0.2583  0.6700
  143TCq2    C3 2179   4.678   4.053  10.481  0.3258  0.2139 -0.6118
  143TCq2    C4 2180   0.014   4.174  10.506  0.6760 -0.4817 -0.0933
  143TCq2    C5 2181   0.099   4.227  10.418 -0.1511 -0.7708  0.5890
  143TCq2    C6 2182   0.131   4.153  10.305 -0.3623  0.0409  0.6415
  143TCq2    C7 2183   0.069   4.036  10.268  0.0585 -0.1146 -0.2316
  143TCq2    C8 2184   0.226   4.222  10.218 -0.1711 -0.1897 -0.3511
  143TCq2    O4 2185   0.301   4.305  10.261  0.5786 -0.3414 -0.2104
  143TCq2    C9 2186   4.715   4.246  10.632  0.3828 -0.8723  0.2144
  143TCq2    O5 2187   4.669   4.168  10.725 -1.1124 -0.2879  0.2802
  143TCq2    O6 2188   0.016   4.364  10.629 -0.1449  0.9280 -0.0155
  143TCq2    H2 2189   4.605   4.010  10.550  0.9363 -0.2346 -0.2414
  143TCq2    H3 2190   0.138   4.326  10.440 -0.3691 -0.3768 -0.8122
  143TCq2    H4 2191   0.113   3.974  10.191  0.7906 -1.0861  0.9697
  144MPD2     C 2192   1.872   3.005   0.699  0.0627  0.2750  0.2488
  144MPD2    C1 2193   1.994   2.955   0.682  0.6955 -0.0214 -0.4066
  144MPD2    C2 2194   2.083   2.976   0.788 -0.4012  0.1129  0.0068
  144MPD2    C3 2195   2.052   3.041   0.905  0.1475 -0.2199  0.4716
  144MPD2    C4 2196   1.921   3.081   0.923 -0.3409  0.4075  0.4898
  144MPD2    C5 2197   1.838   3.072   0.816 -0.3364  0.6357  0.0057
  144MPD2     H 2198   2.189   2.950   0.789 -0.1790  1.1110  1.8754
  144MPD2    H1 2199   1.883   3.142   1.004 -1.8743 -1.5403  1.2208
  144MPD2    H2 2200   1.790   2.996   0.629  2.5487  0.2060 -2.6774
  144MPD2    H3 2201   1.739   3.116   0.822 -0.7389 -0.3641  0.6601
  144MPD2     N 2202   2.146   3.070   1.008 -0.3462  1.1354 -0.2570
  144MPD2    H5 2203   2.107   3.113   1.091  1.8341 -0.1677  1.4604
  144MPD2    N1 2204   2.033   2.887   0.564  0.2554  0.4342 -0.5484
  144MPD2    H7 2205   2.125   2.846   0.571 -1.0639 -2.0582  2.1755
  145TCq2    C1 2206   2.284   3.040   1.009 -0.7671 -0.6045 -0.2164
  145TCq2    O2 2207   2.367   3.002   0.922  0.3262  0.1383  0.2389
  145TCq2    C2 2208   2.339   3.071   1.142  0.1814 -0.6364 -0.6766
  145TCq2    C3 2209   2.475   3.100   1.152  0.7933 -0.0280  0.4586
  145TCq2    C4 2210   2.526   3.125   1.277  0.4087  0.0923 -0.2581
  145TCq2    C5 2211   2.450   3.113   1.391  0.8729  0.3662  0.4113
  145TCq2    C6 2212   2.323   3.074   1.377  1.0771 -0.2376  0.2291
  145TCq2    C7 2213   2.261   3.057   1.254 -0.0188  0.2249  0.4301
  145TCq2    C8 2214   2.250   3.029   1.497  0.1244 -0.3447 -0.4343
  145TCq2    O4 2215   2.315   2.990   1.593 -0.5519  0.0085  0.3909
  145TCq2    C9 2216   2.664   3.172   1.294 -0.0987  0.8728 -0.0347
  145TCq2    O5 2217   2.691   3.240   1.401 -0.3253  0.5901  0.6417
  145TCq2    O6 2218   2.728   3.195   1.187  0.4519 -0.1766 -0.0619
  145TCq2    H2 2219   2.526   3.116   1.058 -1.6582  2.3342 -0.4698
  145TCq2    H3 2220   2.487   3.132   1.491  2.8244  1.0876 -0.4511
  145TCq2    H4 2221   2.161   3.015   1.257 -0.6672  2.0385  5.0890
  146TMC2    C1 2222   3.989   1.897  12.590 -0.7213 -0.2517  0.7677
  146TMC2    C2 2223   3.909   1.989  12.524  0.5351  0.1130 -0.5915
  146TMC2    C3 2224   3.953   2.035  12.404  0.0962  0.3860  0.0247
  146TMC2    C4 2225   4.100   1.841  12.536  0.0475 -0.4025  0.1960
  146TMC2    C5 2226   4.142   1.889  12.414  0.3361 -0.7199  0.1936
  146TMC2    C6 2227   4.064   1.983  12.345  0.7319  0.5006 -0.6993
  146TMC2     C 2228   3.943   1.855  12.721  0.1555 -0.3752  0.8344
  146TMC2     O 2229   3.833   1.896  12.762 -0.3074  0.6015  0.8660
  146TMC2     H 2230   3.820   2.032  12.567 -1.3542 -3.0937 -1.3066
  146TMC2    H1 2231   4.159   1.765  12.586 -0.4279 -0.1886  1.0667
  146TMC2    H2 2232   4.101   2.034  12.257 -3.6889  1.0157 -2.2548
  146TMC2    C7 2233   4.285   1.872  12.376 -0.2067  0.5136 -0.2571
  146TMC2    C8 2234   3.881   2.146  12.350  0.0539 -0.0578  0.0251
  146TMC2    O1 2235   4.332   1.954  12.298  0.1618 -0.3361  0.9616
  146TMC2    O2 2236   3.800   2.220  12.406 -0.5240  0.3543 -0.3441
  146TMC2    O5 2237   3.896   2.132  12.215 -0.0832 -0.0142 -0.1864
  146TMC2    H5 2238   3.937   2.051  12.178  1.0308  0.7968 -0.6895
  147MPD2     C 2239   0.010   1.630  12.353 -0.1815  0.0059  0.4803
  147MPD2    C1 2240   4.676   1.587  12.462 -0.0871  0.2835  0.4927
  147MPD2    C2 2241   4.547   1.631  12.500  0.0472  0.2008 -0.9070
  147MPD2    C3 2242   4.489   1.720  12.411 -0.0595 -0.7317  0.0637
  147MPD2    C4 2243   4.557   1.771  12.302 -0.1304 -0.3172  0.6111
  147MPD2    C5 2244   4.675   1.725  12.273 -0.0695  0.3649 -0.2459
  147MPD2     H 2245   4.496   1.603  12.591  0.0755 -2.1810 -1.6247
  147MPD2    H1 2246   4.506   1.836  12.231 -0.6566 -2.0384 -0.5957
  147MPD2    H2 2247   0.104   1.585  12.324 -0.6185 -0.7638  0.2416
  147MPD2    H3 2248   0.008   1.766  12.192  2.5709  0.8250  1.8721
  147MPD2     N 2249   4.356   1.762  12.435 -1.3852  0.1720  0.7959
  147MPD2    H5 2250   4.293   1.704  12.490 -1.6492  0.9734  1.3452
  147MPD2    N1 2251   0.024   1.494  12.538  0.1663 -0.1282 -0.3592
  147MPD2    H7 2252   0.112   1.463  12.498  1.2385  0.9590  1.1953
  148MPD2     C 2253   4.222   0.851   9.950 -0.7758 -0.5026  0.6859
  148MPD2    C1 2254   4.276   0.737  10.006  0.4359 -0.4957 -0.1692
  148MPD2    C2 2255   4.229   0.612   9.967  0.2254 -0.1418 -0.0421
  148MPD2    C3 2256   4.128   0.606   9.869  0.0201 -0.2491 -0.3566
  148MPD2    C4 2257   4.086   0.722   9.813  0.3593 -0.4044  0.0321
  148MPD2    C5 2258   4.129   0.839   9.855 -0.4018 -0.1957 -0.0416
  148MPD2     H 2259   4.256   0.524  10.023  1.3899 -1.1651 -2.2070
  148MPD2    H1 2260   4.010   0.718   9.736 -0.8992  1.1665  1.2083
  148MPD2    H2 2261   4.252   0.953   9.970 -0.5193 -0.5036  0.3113
  148MPD2    H3 2262   4.086   0.926   9.806  0.4186  0.0631 -0.2980
  148MPD2     N 2263   4.065   0.484   9.828  0.1271  0.2952 -0.4425
  148MPD2    H5 2264   3.990   0.502   9.762 -2.2769  0.5624  2.3995
  148MPD2    N1 2265   4.380   0.747  10.101 -0.3611  0.6102  0.2820
  148MPD2    H7 2266   4.420   0.665  10.144 -0.9041 -0.0936 -0.5651
  149TCq2    C1 2267   4.442   0.865  10.146 -1.2841  0.5800  0.2921
  149TCq2    O2 2268   4.421   0.983  10.129 -0.1370  0.6569  0.3163
  149TCq2    C2 2269   4.551   0.830  10.235 -1.0265 -0.2166  0.0772
  149TCq2    C3 2270   4.591   0.922  10.324 -0.3374  0.1202  0.2334
  149TCq2    C4 2271   4.678   0.890  10.420  0.4378  0.6837  0.0161
  149TCq2    C5 2272   4.712   0.764  10.445 -0.6363 -0.0134 -0.1048
  149TCq2    C6 2273   4.680   0.672  10.343  0.4406  0.0728 -0.9477
  149TCq2    C7 2274   4.602   0.704  10.235  0.3893  0.3489 -0.9339
  149TCq2    C8 2275   4.660   0.529  10.384  0.1338 -0.3722  0.0592
  149TCq2    O4 2276   4.560   0.474  10.340  0.8295  0.0268  0.3865
  149TCq2    C9 2277   4.674   0.976  10.540 -0.4142 -0.3553  0.3287
  149TCq2    O5 2278   0.043   0.953  10.617  0.0675  0.6723  0.0684
  149TCq2    O6 2279   4.565   1.030  10.566 -0.2863  0.0512  0.0539
  149TCq2    H2 2280   4.540   1.016  10.342 -0.7277  0.2464 -1.6210
  149TCq2    H3 2281   0.037   0.736  10.537  0.7222 -0.9771 -1.1359
  149TCq2    H4 2282   4.587   0.629  10.159 -1.9968 -1.6370  1.4785
  150MPD2     C 2283   1.446   4.044  11.858 -0.5900 -0.0015  0.4063
  150MPD2    C1 2284   1.459   4.063  11.725 -0.6876  0.4644  0.1013
  150MPD2    C2 2285   1.548   4.164  11.693  0.5800  0.1941  0.0118
  150MPD2    C3 2286   1.609   4.248  11.787 -0.1112 -0.5307  0.1513
  150MPD2    C4 2287   1.582   4.233  11.922  0.2028 -0.3486 -0.0567
  150MPD2    C5 2288   1.497   4.128  11.953  0.0753 -0.5212  0.1295
  150MPD2     H 2289   1.572   4.181  11.589  0.1896  0.3062 -0.0605
  150MPD2    H1 2290   1.624   4.294  12.001 -1.3932  0.6426  0.0393
  150MPD2    H2 2291   1.382   3.968  11.901 -0.3698 -0.7551 -0.6087
  150MPD2    H3 2292   1.471   4.112  12.057  1.1052 -1.6444  0.2271
  150MPD2     N 2293   1.697   4.343  11.731 -0.4468  0.8450 -0.1850
  150MPD2    H5 2294   1.712   4.349  11.631  1.8106  2.6204  0.2765
  150MPD2    N1 2295   1.395   3.980  11.634  0.4927  0.6843  0.8251
  150MPD2    H7 2296   1.322   3.920  11.671  0.0934  1.1949  0.8601
  151TCq2    C1 2297   1.770   4.433  11.809  0.0397 -0.9484 -0.0239
  151TCq2    O2 2298   1.810   4.419  11.925 -0.1563  0.2677  0.1601
  151TCq2    C2 2299   1.827   4.543  11.732 -0.6439 -0.9542  0.0819
  151TCq2    C3 2300   1.755   4.591  11.613 -1.0361  0.6156 -0.2017
  151TCq2    C4 2301   1.752   0.001  11.593  0.2225  0.1841 -0.6973
  151TCq2    C5 2302   1.832   0.086  11.658  0.2857 -0.9617  0.4103
  151TCq2    C6 2303   1.920   0.032  11.751 -0.0216  0.7212 -0.1715
  151TCq2    C7 2304   1.912   4.631  11.797 -0.2112  0.5441  0.3206
  151TCq2    C8 2305   1.996   0.115  11.832 -0.2083  0.1325 -0.1935
  151TCq2    O4 2306   1.938   0.225  11.849 -0.7906 -0.1287 -0.1907
  151TCq2    C9 2307   1.664   0.048  11.491  0.1673 -0.8229  0.5348
  151TCq2    O5 2308   1.598   4.685  11.428  0.2581  0.4454  0.5663
  151TCq2    O6 2309   1.686   0.162  11.442 -0.0489  0.2941 -0.0932
  151TCq2    H2 2310   1.700   4.522  11.550 -2.4057  1.2230  0.3311
  151TCq2    H3 2311   1.839   0.193  11.640 -1.8762 -0.6188  1.5807
  151TCq2    H4 2312   1.964   4.590  11.883 -0.2057 -2.3556 -1.0435
  152MPD2     C 2313   0.971   4.017  13.006 -0.1068 -0.2544  0.4767
  152MPD2    C1 2314   1.023   4.070  12.891  0.0821 -0.7685 -0.3751
  152MPD2    C2 2315   0.947   4.136  12.797  0.1498  0.7109  0.3812
  152MPD2    C3 2316   0.812   4.139  12.817  0.1553  0.1980 -0.3379
  152MPD2    C4 2317   0.755   4.082  12.930  0.7546  0.0554  0.4815
  152MPD2    C5 2318   0.837   4.025  13.022  0.4651  0.6050  0.0188
  152MPD2     H 2319   0.974   4.187  12.706  1.8906  0.1181  0.5604
  152MPD2    H1 2320   0.648   4.074  12.948  0.5876  0.5741 -0.3019
  152MPD2    H2 2321   1.035   3.982  13.086  2.5667  1.6023 -0.8722
  152MPD2    H3 2322   0.804   4.013  13.125  0.2179 -0.0815 -0.1371
  152MPD2     N 2323   0.744   4.217  12.715  0.1273  0.3194  0.6294
  152MPD2    H5 2324   0.803   4.253  12.642  1.2607 -0.9065  0.9448
  152MPD2    N1 2325   1.164   4.070  12.889 -0.2975 -0.1428 -0.2635
  152MPD2    H7 2326   1.214   4.025  12.965  0.0338  0.6910  0.0177
  153TCq2    C1 2327   1.247   4.123  12.792 -0.1272  0.2198  0.2302
  153TCq2    O2 2328   1.220   4.179  12.684 -0.0875 -0.3323 -0.6644
  153TCq2    C2 2329   1.389   4.084  12.810  0.4859  0.4914 -0.4077
  153TCq2    C3 2330   1.431   4.001  12.913  0.1686 -0.1554  0.0609
  153TCq2    C4 2331   1.560   4.005  12.940  0.4964 -0.0467 -0.0415
  153TCq2    C5 2332   1.647   4.088  12.873  0.4598  0.3318 -0.2073
  153TCq2    C6 2333   1.601   4.170  12.778 -0.0066  0.0298 -0.5743
  153TCq2    C7 2334   1.467   4.165  12.740  0.1492 -0.0760 -0.4559
  153TCq2    C8 2335   1.699   4.222  12.681  0.4901 -0.3217 -0.1632
  153TCq2    O4 2336   1.666   4.190  12.568 -0.1943 -0.1388  0.1503
  153TCq2    C9 2337   1.627   3.915  13.037  0.3052 -0.9084 -0.4580
  153TCq2    O5 2338   1.562   3.826  13.099  0.0204  0.2102 -0.1075
  153TCq2    O6 2339   1.746   3.947  13.066  0.8615 -0.5673 -0.0003
  153TCq2    H2 2340   1.362   3.935  12.964 -2.8875  1.8756 -1.4754
  153TCq2    H3 2341   1.754   4.072  12.884  0.7031 -0.0694 -3.0705
  153TCq2    H4 2342   1.436   4.229  12.658 -1.0490  2.0944  1.6640
  154MPD2     C 2343   0.923   0.947   1.210 -0.0122 -0.2073 -0.0284
  154MPD2    C1 2344   0.991   0.914   1.099  0.5538  0.7572  0.1729
  154MPD2    C2 2345   1.096   0.827   1.115  0.1141 -0.2969 -0.1350
  154MPD2    C3 2346   1.120   0.761   1.237  0.3030 -0.1386  0.0593
  154MPD2    C4 2347   1.047   0.787   1.350  0.2087  0.5568  0.4301
  154MPD2    C5 2348   0.953   0.888   1.327  0.5066  0.4185  0.6605
  154MPD2     H 2349   1.166   0.818   1.033 -0.7444 -2.4168 -0.6583
  154MPD2    H1 2350   1.083   0.759   1.448 -0.3616  1.3350  0.8686
  154MPD2    H2 2351   0.856   1.033   1.211 -2.7210 -2.2921 -1.9314
  154MPD2    H3 2352   0.903   0.924   1.416 -2.6917 -1.3670 -0.4088
  154MPD2     N 2353   1.232   0.673   1.233 -0.6062  0.4782  0.4294
  154MPD2    H5 2354   1.294   0.671   1.153  0.5648 -0.8068  1.3878
  154MPD2    N1 2355   0.950   0.972   0.974 -0.8741  0.2129  0.0298
  154MPD2    H7 2356   0.875   1.040   0.983 -1.5089 -0.4686 -0.1843
  155TCq2    C1 2357   1.016   0.951   0.859  0.0650 -0.0750  0.4085
  155TCq2    O2 2358   1.076   0.850   0.817  0.3505  0.0638  0.3702
  155TCq2    C2 2359   1.008   1.064   0.774  0.2088  0.2365 -0.0008
  155TCq2    C3 2360   0.979   1.187   0.825  0.3533  0.1913  0.1223
  155TCq2    C4 2361   0.971   1.288   0.734 -0.0376 -0.6030  0.2040
  155TCq2    C5 2362   0.976   1.268   0.600 -0.0048  0.0455  0.1761
  155TCq2    C6 2363   1.014   1.148   0.550 -0.2290 -0.7879 -0.2596
  155TCq2    C7 2364   1.040   1.042   0.637 -0.3141 -0.8485 -0.5234
  155TCq2    C8 2365   1.042   1.149   0.410  0.6340 -0.6005 -0.0869
  155TCq2    O4 2366   1.012   1.243   0.340 -0.3381  0.1109  0.2167
  155TCq2    C9 2367   0.986   1.425   0.782  0.2452  0.4560 -0.1552
  155TCq2    O5 2368   1.034   1.507   0.696 -0.3273  0.4520 -0.6768
  155TCq2    O6 2369   1.024   1.430   0.902  0.1564 -0.2671  0.1414
  155TCq2    H2 2370   0.988   1.210   0.930 -1.3290 -2.2664  0.7906
  155TCq2    H3 2371   0.978   1.359   0.541  0.9430  0.0939  0.2937
  155TCq2    H4 2372   1.079   0.945   0.607 -1.8005 -1.1905 -1.3106
  156MPD2     C 2373   1.418   1.657  11.863 -0.1614 -0.2242  0.8497
  156MPD2    C1 2374   1.414   1.795  11.848  0.7104  0.2097 -0.2526
  156MPD2    C2 2375   1.445   1.874  11.954  0.2453 -0.6208 -0.3405
  156MPD2    C3 2376   1.448   1.815  12.083 -0.2838  0.7036  0.0821
  156MPD2    C4 2377   1.454   1.678  12.097 -0.3913 -0.0659 -0.1913
  156MPD2    C5 2378   1.441   1.601  11.986  0.3079  0.4816 -0.0156
  156MPD2     H 2379   1.455   1.981  11.943 -1.9145  0.0118  3.9246
  156MPD2    H1 2380   1.470   1.632  12.194  0.8315  0.9410  0.0829
  156MPD2    H2 2381   1.396   1.594  11.777  1.9398 -1.0076  0.8787
  156MPD2    H3 2382   1.446   1.493  11.999 -0.5174  0.4603  0.1224
  156MPD2     N 2383   1.463   1.907  12.188  0.5616  0.0454 -0.3946
  156MPD2    H5 2384   1.460   2.007  12.171 -0.9496  0.0902  0.1389
  156MPD2    N1 2385   1.372   1.840  11.726  0.0159 -0.2581  0.4395
  156MPD2    H7 2386   1.352   1.770  11.655  0.2717 -0.7603  0.8652
  157TCq2    C1 2387   1.370   1.967  11.684  0.1866  0.2696  0.7790
  157TCq2    O2 2388   1.393   2.076  11.733  0.0009 -0.0266 -0.2520
  157TCq2    C2 2389   1.310   1.982  11.551 -0.7260  0.0745  0.3137
  157TCq2    C3 2390   1.248   1.874  11.484 -0.1548  0.2349  0.3995
  157TCq2    C4 2391   1.218   1.875  11.353 -0.4331 -0.5352  0.3319
  157TCq2    C5 2392   1.256   1.984  11.284 -0.2859  0.2853  0.0106
  157TCq2    C6 2393   1.322   2.086  11.347  0.3641  0.2081  0.3063
  157TCq2    C7 2394   1.351   2.091  11.480  0.2411  0.4952 -0.4966
  157TCq2    C8 2395   1.346   2.215  11.282  0.0657  0.7023 -0.3353
  157TCq2    O4 2396   1.459   2.267  11.286 -0.4809  0.2229  0.0466
  157TCq2    C9 2397   1.140   1.776  11.284 -0.0080  0.8033 -0.5627
  157TCq2    O5 2398   1.141   1.766  11.160  0.1247  0.3929 -0.2854
  157TCq2    O6 2399   1.077   1.693  11.353 -0.2284 -0.2327 -0.2053
  157TCq2    H2 2400   1.212   1.791  11.542  2.0729 -1.1886 -0.2567
  157TCq2    H3 2401   1.237   1.986  11.177 -2.3332 -0.4207  0.3620
  157TCq2    H4 2402   1.397   2.181  11.517 -0.0976  0.1886  0.6576
  158TMC2    C1 2403   1.575   0.724  13.179 -0.2197  0.2787  0.3646
  158TMC2    C2 2404   1.581   0.840  13.105  0.1528 -0.2947  0.1085
  158TMC2    C3 2405   1.492   0.845  13.002  0.3010 -0.0903  0.2406
  158TMC2    C4 2406   1.470   0.637  13.169 -0.2844  0.6092 -0.0270
  158TMC2    C5 2407   1.377   0.651  13.077  0.5877 -0.2867  0.2812
  158TMC2    C6 2408   1.390   0.762  12.996 -0.1272  0.7468  1.0008
  158TMC2     C 2409   1.652   0.737  13.305 -0.2074 -0.5278 -0.9134
  158TMC2     O 2410   1.733   0.829  13.301  0.1907 -0.1587 -0.2618
  158TMC2     H 2411   1.663   0.911  13.100  0.4178 -0.6020  0.0735
  158TMC2    H1 2412   1.473   0.546  13.229 -0.0932  0.0313 -0.9165
  158TMC2    H2 2413   1.320   0.778  12.915  0.2451  1.3440  0.7959
  158TMC2    C7 2414   1.259   0.565  13.067  0.8971 -0.1302  0.2438
  158TMC2    C8 2415   1.476   0.975  12.928 -1.1147  0.5802 -0.3861
  158TMC2    O1 2416   1.179   0.579  12.973 -0.3897 -0.1398 -0.3291
  158TMC2    O2 2417   1.390   0.987  12.844  0.3676 -0.8382 -0.4462
  158TMC2    O5 2418   1.521   1.082  13.003  0.5473 -0.3452  0.1797
  158TMC2    H5 2419   1.580   1.054  13.076  0.6090  1.8523  0.9658
  159MPD2     C 2420   1.762   0.706  13.801  0.0273  0.0497 -0.4547
  159MPD2    C1 2421   1.638   0.652  13.776 -0.5120 -0.0083  0.4648
  159MPD2    C2 2422   1.594   0.633  13.648  0.3894  0.9905 -0.1015
  159MPD2    C3 2423   1.673   0.669  13.541 -0.5173 -0.3200  0.2700
  159MPD2    C4 2424   1.802   0.725  13.567  0.1298 -0.1515  0.0350
  159MPD2    C5 2425   1.846   0.737  13.698  0.0648  0.5126 -0.2592
  159MPD2     H 2426   1.498   0.587  13.626 -0.3430  2.3351  0.2694
  159MPD2    H1 2427   1.858   0.764  13.483 -0.8880  1.5134  0.1462
  159MPD2    H2 2428   1.807   0.720  13.899 -0.9775  1.5423 -0.1937
  159MPD2    H3 2429   1.949   0.764  13.720 -0.0453  2.6920 -2.3275
  159MPD2     N 2430   1.609   0.663  13.410  0.0177 -0.4619 -0.1898
  159MPD2    H5 2431   1.538   0.592  13.398 -0.3356 -0.5638  2.3906
  159MPD2    N1 2432   1.566   0.622  13.896  0.0996  0.0629 -0.3879
  159MPD2    H7 2433   1.618   0.630  13.983 -0.7459  1.2894  0.0101
  160TMC2    C1 2434   0.978   2.953   1.605  0.2639 -0.0534 -0.0530
  160TMC2    C2 2435   1.039   2.851   1.678  0.1959  0.0988 -0.4963
  160TMC2    C3 2436   1.029   2.728   1.629 -0.6615  0.3344 -0.3220
  160TMC2    C4 2437   0.920   2.934   1.481 -0.4622  0.0721  0.4192
  160TMC2    C5 2438   0.926   2.802   1.431 -0.4397  0.3694 -0.1932
  160TMC2    C6 2439   0.975   2.697   1.512  0.3111 -0.3191  0.2696
  160TMC2     C 2440   1.001   3.088   1.660  0.1351 -0.1278 -0.2166
  160TMC2     O 2441   1.083   3.094   1.745 -0.4914 -0.4855 -0.4052
  160TMC2     H 2442   1.108   2.872   1.759 -0.4836 -1.6319  0.5450
  160TMC2    H1 2443   0.888   3.016   1.418 -1.2270  0.4323  1.2886
  160TMC2    H2 2444   0.974   2.593   1.482 -0.0241 -0.1144 -0.4390
  160TMC2    C7 2445   0.878   2.762   1.303  0.9802  0.3369  0.0848
  160TMC2    C8 2446   1.146   2.646   1.658 -0.1542  0.1182  0.5381
  160TMC2    O1 2447   0.843   2.645   1.284  0.1269 -0.6736  0.2279
  160TMC2    O2 2448   1.122   2.551   1.732  0.6626  0.2017  0.3420
  160TMC2    O5 2449   1.227   2.652   1.549  0.3497  0.4496 -1.1231
  160TMC2    H5 2450   1.223   2.737   1.501  1.2692  1.1401  0.0198
  161MPD2     C 2451   0.996   3.382   1.720  0.0417  0.2594 -0.3212
  161MPD2    C1 2452   0.926   3.320   1.617 -0.6722 -0.1118  0.2101
  161MPD2    C2 2453   0.857   3.405   1.530  0.4559 -0.6869 -0.1605
  161MPD2    C3 2454   0.879   3.540   1.527 -0.6786 -0.2678  0.4193
  161MPD2    C4 2455   0.962   3.596   1.619  0.0381 -0.2530 -0.1996
  161MPD2    C5 2456   1.013   3.517   1.719 -0.3205 -0.3600 -0.3984
  161MPD2     H 2457   0.796   3.352   1.458  0.1628  0.4065 -0.7114
  161MPD2    H1 2458   0.968   3.704   1.627  0.6528 -0.3244  0.3435
  161MPD2    H2 2459   1.052   3.320   1.789 -0.3839  0.5445  0.2752
  161MPD2    H3 2460   1.073   3.565   1.797 -2.6867  2.9709 -0.6161
  161MPD2     N 2461   0.822   3.633   1.441  0.7045 -0.6000 -0.2086
  161MPD2    H5 2462   0.863   3.726   1.435 -1.4056  0.2890 -0.7427
  161MPD2    N1 2463   0.915   3.180   1.596 -0.3279 -0.3609  0.6734
  161MPD2    H7 2464   0.839   3.145   1.539  1.6220 -2.1999 -0.7648
  162TMC2    C1 2465   3.511   0.523   1.382  0.7995 -0.3244 -0.0057
  162TMC2    C2 2466   3.451   0.631   1.315  0.4655 -1.0172 -0.4979
  162TMC2    C3 2467   3.324   0.667   1.351 -0.0235 -0.0708  0.3367
  162TMC2    C4 2468   3.443   0.461   1.487 -0.6142  0.1995  0.3950
  162TMC2    C5 2469   3.313   0.494   1.518 -0.0418 -0.4534  0.0354
  162TMC2    C6 2470   3.257   0.597   1.449  0.1260  0.5392 -0.2082
  162TMC2     C 2471   3.649   0.482   1.339  0.2167  0.4081 -0.3311
  162TMC2     O 2472   3.684   0.538   1.234  0.3809  0.5340  0.2862
  162TMC2     H 2473   3.489   0.680   1.226  1.4803  2.1243  1.6619
  162TMC2    H1 2474   3.488   0.374   1.534 -0.6870 -0.9783 -1.7173
  162TMC2    H2 2475   3.157   0.631   1.473  0.6307  1.1815  0.9762
  162TMC2    C7 2476   3.255   0.472   1.648  0.7003  0.3593 -0.0730
  162TMC2    C8 2477   3.257   0.753   1.264 -0.5700  0.1929  0.0066
  162TMC2    O1 2478   3.162   0.542   1.674 -0.2565 -0.1570 -0.3653
  162TMC2    O2 2479   3.316   0.846   1.210 -0.0774 -0.3885 -0.4258
  162TMC2    O5 2480   3.135   0.710   1.235 -0.3755  0.4036  0.0601
  162TMC2    H5 2481   3.108   0.620   1.262 -0.2884  0.9305  1.9210
  163MPD2     C 2482   4.083   0.214   1.349 -0.6115 -0.9217  0.0364
  163MPD2    C1 2483   4.035   0.303   1.255  0.1757  0.2861  0.6599
  163MPD2    C2 2484   3.920   0.367   1.279 -0.2447  0.0350 -0.0001
  163MPD2    C3 2485   3.840   0.354   1.394  0.1119  0.3511 -0.4455
  163MPD2    C4 2486   3.897   0.269   1.489  0.3092  1.2383 -0.5262
  163MPD2    C5 2487   4.014   0.202   1.466  0.0504  0.0126 -0.3263
  163MPD2     H 2488   3.879   0.425   1.196  0.5644  0.0398 -0.3969
  163MPD2    H1 2489   3.845   0.246   1.581  1.2730  0.0532 -0.2798
  163MPD2    H2 2490   4.175   0.159   1.336  0.6962  0.7740  2.0931
  163MPD2    H3 2491   4.050   0.128   1.537 -0.7409 -0.2454 -0.1973
  163MPD2     N 2492   3.712   0.401   1.423  0.7620 -0.0628 -0.6169
  163MPD2    H5 2493   3.661   0.372   1.506  2.7890 -1.7264  0.0635
  163MPD2    N1 2494   4.104   0.315   1.135  0.2404  0.1701 -0.1674
  163MPD2    H7 2495   4.174   0.247   1.104  1.1978  0.5835  1.0924
  164TCq2    C1 2496   4.701   0.495  11.691  0.0232 -0.1706 -0.1202
  164TCq2    O2 2497   4.647   0.552  11.787 -0.1121 -0.3559  0.5140
  164TCq2    C2 2498   4.717   0.566  11.559 -0.3111  0.6325 -0.1252
  164TCq2    C3 2499   0.076   0.507  11.470  0.6111  0.1856 -0.7616
  164TCq2    C4 2500   0.056   0.531  11.339  0.0364  0.1322  0.1122
  164TCq2    C5 2501   4.687   0.625  11.296 -1.1946  0.2436 -0.6898
  164TCq2    C6 2502   4.611   0.685  11.389  0.0067  0.4482 -0.3777
  164TCq2    C7 2503   4.617   0.647  11.516 -0.2039  0.0823 -0.0290
  164TCq2    C8 2504   4.518   0.785  11.346 -0.1125 -0.2433 -0.2084
  164TCq2    O4 2505   4.450   0.767  11.245 -0.4642 -0.0824  0.3062
  164TCq2    C9 2506   0.152   0.474  11.240  0.0487 -0.1395 -0.3188
  164TCq2    O5 2507   0.118   0.492  11.118 -0.2692  0.1162 -0.4518
  164TCq2    O6 2508   0.246   0.401  11.287 -0.2503  0.2482  0.0161
  164TCq2    H2 2509   0.155   0.441  11.504  1.5900  2.0458  0.5588
  164TCq2    H3 2510   4.679   0.653  11.191  0.9239  0.8438 -0.6894
  164TCq2    H4 2511   4.553   0.684  11.595  0.6610  0.3539  0.5418
  165MPD2     C 2512   1.381   1.597   1.718  0.5893 -0.4535  0.1575
  165MPD2    C1 2513   1.254   1.547   1.742  0.1690  0.3022  0.4311
  165MPD2    C2 2514   1.141   1.615   1.682  0.0281 -0.5850 -0.0618
  165MPD2    C3 2515   1.156   1.740   1.616 -0.1779  0.7448 -0.1729
  165MPD2    C4 2516   1.284   1.785   1.592 -0.8768 -0.0012 -0.0413
  165MPD2    C5 2517   1.391   1.713   1.646  0.5659 -0.6540  0.3287
  165MPD2     H 2518   1.045   1.565   1.688 -0.5529  0.6136  0.4820
  165MPD2    H1 2519   1.311   1.872   1.535  4.1143 -1.5845 -0.0900
  165MPD2    H2 2520   1.469   1.544   1.751  0.2703 -0.2172  1.3932
  165MPD2    H3 2521   1.495   1.742   1.635  1.4015 -3.7868 -0.0389
  165MPD2     N 2522   1.047   1.813   1.560 -0.7251 -0.5693 -0.9525
  165MPD2    H5 2523   1.074   1.900   1.515 -1.7220  2.2382  3.8013
  165MPD2    N1 2524   1.241   1.426   1.814 -0.2400 -0.0877 -0.5319
  165MPD2    H7 2525   1.320   1.377   1.853  0.9357  0.9196 -1.6352
  166TCq2    C1 2526   0.923   1.787   1.592  0.0307 -0.6416  0.1830
  166TCq2    O2 2527   0.868   1.709   1.668  0.2156 -0.0529 -0.3890
  166TCq2    C2 2528   0.839   1.892   1.540  0.4923 -0.2297 -0.0527
  166TCq2    C3 2529   0.721   1.914   1.605  0.4168  0.4497 -0.0578
  166TCq2    C4 2530   0.622   1.982   1.553 -0.2297 -0.0925  0.5645
  166TCq2    C5 2531   0.645   2.049   1.439 -0.4012  0.3467  0.0123
  166TCq2    C6 2532   0.764   2.033   1.371  0.2723  0.1688  0.1457
  166TCq2    C7 2533   0.857   1.941   1.414  0.6387  0.2032 -0.2479
  166TCq2    C8 2534   0.790   2.110   1.246 -0.2301 -0.1809  0.8407
  166TCq2    O4 2535   0.906   2.119   1.206  0.1374  0.1794 -0.3487
  166TCq2    C9 2536   0.494   1.997   1.618 -0.1773  0.3323 -0.0988
  166TCq2    O5 2537   0.407   2.069   1.563 -0.0036 -0.3767  0.3087
  166TCq2    O6 2538   0.486   1.949   1.735  0.3154 -0.1437 -0.1012
  166TCq2    H2 2539   0.709   1.886   1.709 -0.0384 -0.8708 -0.4698
  166TCq2    H3 2540   0.563   2.108   1.400 -0.5651  0.3878  0.4191
  166TCq2    H4 2541   0.939   1.907   1.352  0.3693  0.4072 -0.7120
  167TMC2    C1 2542   3.963   0.889  12.722  0.0467  0.6942  0.8830
  167TMC2    C2 2543   3.946   0.935  12.849 -0.0462 -0.3301  0.4867
  167TMC2    C3 2544   3.936   0.852  12.953 -0.2919 -0.2146 -0.0002
  167TMC2    C4 2545   3.966   0.752  12.689  0.1352 -0.4689 -0.0497
  167TMC2    C5 2546   3.951   0.672  12.801 -0.3777  0.5752  0.6395
  167TMC2    C6 2547   3.939   0.719  12.933 -0.1223 -0.4304 -0.0843
  167TMC2     C 2548   3.965   0.990  12.623 -0.6501  0.1264 -0.5574
  167TMC2     O 2549   3.944   1.106  12.655  0.2163 -0.2182  0.5967
  167TMC2     H 2550   3.940   1.041  12.872 -0.3559  0.0714 -1.4363
  167TMC2    H1 2551   3.941   0.708  12.593  0.1273  1.3346 -0.8767
  167TMC2    H2 2552   3.927   0.651  13.017  0.5912  2.1096  2.0796
  167TMC2    C7 2553   3.939   0.530  12.783 -0.2573  0.3859  0.6380
  167TMC2    C8 2554   3.911   0.900  13.090  0.1225 -0.1827 -0.1447
  167TMC2    O1 2555   3.901   0.471  12.882  0.1955  0.1121  0.2159
  167TMC2    O2 2556   3.861   0.827  13.172  0.4603  0.5442  0.1346
  167TMC2    O5 2557   4.007   0.989  13.123 -1.0027  0.3996  0.3374
  167TMC2    H5 2558   4.059   1.017  13.045 -2.4549  0.8245 -0.4757
  168MPD2     C 2559   4.024   1.135  12.375 -0.3271  0.3945 -0.1398
  168MPD2    C1 2560   4.047   1.001  12.386  0.2409  0.2106  0.3191
  168MPD2    C2 2561   4.095   0.932  12.284  0.1534  0.2803  0.3577
  168MPD2    C3 2562   4.118   0.987  12.161 -0.3828  0.5093 -0.6670
  168MPD2    C4 2563   4.101   1.119  12.143 -0.8633  0.3600  0.7324
  168MPD2    C5 2564   4.058   1.193  12.252 -0.2451  0.5392  0.3798
  168MPD2     H 2565   4.116   0.826  12.295 -4.0532 -0.6171 -0.0029
  168MPD2    H1 2566   4.129   1.168  12.050 -0.6991  0.4600  0.8332
  168MPD2    H2 2567   3.982   1.201  12.450  3.9011  2.8958  0.0210
  168MPD2    H3 2568   4.040   1.300  12.249 -0.4084  0.5050  0.0953
  168MPD2     N 2569   4.166   0.892  12.067 -0.1609  0.3808 -0.3805
  168MPD2    H5 2570   4.170   0.795  12.097 -4.3649  0.4855  0.6122
  168MPD2    N1 2571   4.010   0.931  12.507 -0.4788 -0.4652  0.3400
  168MPD2    H7 2572   4.031   0.832  12.511 -0.3909 -0.4150  1.1014
  169MPD1     C 2573   2.381   3.640   9.713 -0.8295  0.9342 -0.5552
  169MPD1    C1 2574   2.256   3.617   9.657 -0.5375  0.0583  0.0134
  169MPD1    C2 2575   2.187   3.700   9.578 -0.7742 -0.4244  0.2739
  169MPD1    C3 2576   2.242   3.825   9.553 -0.0879  0.1185 -0.2542
  169MPD1    C4 2577   2.372   3.851   9.600 -0.7846  0.4038  0.7062
  169MPD1    C5 2578   2.434   3.759   9.685  0.5337 -0.2272 -0.3970
  169MPD1     H 2579   2.088   3.666   9.548 -0.4034 -0.9824 -0.3372
  169MPD1    H1 2580   2.424   3.944   9.580  1.1534 -1.2190 -1.7262
  169MPD1    H2 2581   2.437   3.570   9.773 -1.6632  1.1321  0.4612
  169MPD1    H3 2582   2.527   3.797   9.725 -0.0143  1.1870 -0.4746
  169MPD1     N 2583   2.177   3.911   9.470  0.3714  0.2436  0.1057
  169MPD1    H5 2584   2.092   3.879   9.425  2.0213 -1.1137 -2.0067
  169MPD1    N1 2585   2.206   3.479   9.668 -0.3539 -0.5060 -0.0124
  169MPD1    H6 2586   2.231   3.443   9.760 -1.9682  0.3194  0.7512
  169MPD1    H7 2587   2.106   3.477   9.648 -0.6972  2.7199  1.4401
  170MPD1     C 2588   0.060   2.413  13.086  0.0567  0.2948  0.1978
  170MPD1    C1 2589   0.060   2.383  13.219  0.0308 -1.0558  0.5528
  170MPD1    C2 2590   0.100   2.475  13.310  0.0486  0.3639 -0.4220
  170MPD1    C3 2591   0.146   2.599  13.272  0.2893  0.3913 -0.3400
  170MPD1    C4 2592   0.146   2.627  13.133  0.3061 -0.6899 -0.5462
  170MPD1    C5 2593   0.109   2.531  13.045 -0.6926 -0.1172  0.0049
  170MPD1     H 2594   0.090   2.456  13.416  1.3668  0.9647 -0.1909
  170MPD1    H1 2595   0.178   2.725  13.098 -1.4971 -0.4406 -1.4954
  170MPD1    H2 2596   0.028   2.338  13.015  0.6985 -0.0525  0.2755
  170MPD1    H3 2597   0.130   2.549  12.940 -0.0187 -1.7006 -0.1179
  170MPD1     N 2598   0.173   2.700  13.372  0.4170 -0.3428  0.1713
  170MPD1    H5 2599   0.159   2.666  13.466 -0.3638 -0.6240 -0.0456
  170MPD1    N1 2600   4.724   2.263  13.257  0.2422 -0.5493  0.4351
  170MPD1    H6 2601   4.709   2.250  13.357 -1.1417 -0.3750  0.2548
  170MPD1    H7 2602   4.646   2.226  13.203  1.4160 -0.8671 -1.0295
  171MPD1     C 2603   3.642   3.531  15.230 -0.1577  0.2932 -0.8045
  171MPD1    C1 2604   3.600   3.577  15.356  0.1183 -0.0962  0.6036
  171MPD1    C2 2605   3.642   3.513  15.469 -0.3814 -0.8409 -0.1713
  171MPD1    C3 2606   3.714   3.392  15.463  0.4201 -0.6772  0.2144
  171MPD1    C4 2607   3.752   3.341  15.341 -0.1142 -0.2799 -0.5987
  171MPD1    C5 2608   3.716   3.414  15.228 -0.0875  0.0958 -0.3832
  171MPD1     H 2609   3.597   3.552  15.560  0.2807 -1.4260  0.3984
  171MPD1    H1 2610   3.818   3.255  15.338 -0.2527 -0.3420 -2.2963
  171MPD1    H2 2611   3.622   3.579  15.134 -1.9194  0.6507 -0.2607
  171MPD1    H3 2612   3.749   3.379  15.131  1.1590 -0.0986  0.1133
  171MPD1     N 2613   3.765   3.322  15.583  0.7179  0.4260 -0.2788
  171MPD1    H5 2614   3.811   3.232  15.567 -0.1249 -0.2073  0.8934
  171MPD1    N1 2615   3.509   3.684  15.350  0.5117  0.5128 -0.1320
  171MPD1    H6 2616   3.510   3.747  15.429 -2.8485 -0.5172  0.7017
  171MPD1    H7 2617   3.509   3.731  15.260  2.4995 -0.0098 -0.4252
  172MPD1     C 2618   2.345   2.245   0.615  0.2355  0.2152  0.5340
  172MPD1    C1 2619   2.254   2.343   0.615 -0.2467 -0.8734  0.2167
  172MPD1    C2 2620   2.301   2.473   0.605 -0.0731  0.3254 -0.4721
  172MPD1    C3 2621   2.439   2.499   0.594  0.1353  0.3967  0.6131
  172MPD1    C4 2622   2.526   2.397   0.589 -0.4146  0.4510  0.2207
  172MPD1    C5 2623   2.486   2.266   0.603 -0.4367  0.3620 -1.0149
  172MPD1     H 2624   2.230   2.555   0.614 -0.3926 -0.1807  1.6803
  172MPD1    H1 2625   2.631   2.425   0.590 -0.7275  1.5719  0.8555
  172MPD1    H2 2626   2.310   2.146   0.637  1.0602 -0.0789  0.5351
  172MPD1    H3 2627   2.556   2.184   0.603 -0.7560  0.0942 -0.2964
  172MPD1     N 2628   2.489   2.627   0.574  0.1792  0.8426  0.8800
  172MPD1    H5 2629   2.590   2.633   0.562  0.2105 -1.5633 -0.0338
  172MPD1    N1 2630   2.120   2.318   0.655 -0.0560 -0.2020  0.1788
  172MPD1    H6 2631   2.086   2.227   0.624  1.2549 -0.0268 -1.7960
  172MPD1    H7 2632   2.058   2.393   0.624 -0.4555  0.9815  3.7944
  173MPD1     C 2633   3.901   2.625  13.641 -0.0255 -0.0377 -0.6209
  173MPD1    C1 2634   4.026   2.647  13.687  0.1563 -0.3161 -0.7269
  173MPD1    C2 2635   4.055   2.597  13.813 -0.0642 -0.2519  0.2307
  173MPD1    C3 2636   3.963   2.529  13.884 -0.7362 -0.6649  0.2285
  173MPD1    C4 2637   3.847   2.483  13.823 -0.3979  0.5352  0.8155
  173MPD1    C5 2638   3.822   2.530  13.702  0.1235  0.0642 -0.2127
  173MPD1     H 2639   4.148   2.624  13.861 -0.5330  2.0138 -0.1455
  173MPD1    H1 2640   3.784   2.415  13.879 -0.7150 -0.2023 -0.4519
  173MPD1    H2 2641   3.872   2.668  13.546 -1.3546  0.6402  0.0900
  173MPD1    H3 2642   3.737   2.496  13.645  1.2963  0.0717 -1.9712
  173MPD1     N 2643   3.996   2.493  14.021  0.1821  0.0777 -0.2956
  173MPD1    H5 2644   4.076   2.536  14.066  0.8959 -1.1082 -0.4462
  173MPD1    N1 2645   4.111   2.730  13.613  0.1513  0.9494 -0.0482
  173MPD1    H6 2646   4.104   2.702  13.515  0.3522 -2.5296  0.9531
  173MPD1    H7 2647   4.211   2.714  13.626  0.0675  1.0274  0.6447
  174MPD1     C 2648   4.688   2.478  14.740 -0.1238  0.1536 -0.5747
  174MPD1    C1 2649   4.686   2.484  14.609  0.2909  0.5916  0.9057
  174MPD1    C2 2650   4.565   2.471  14.538  1.2090 -0.1162  0.2019
  174MPD1    C3 2651   4.451   2.432  14.608 -0.5027  0.9712 -0.3084
  174MPD1    C4 2652   4.458   2.424  14.743  0.3203 -0.0347  0.0954
  174MPD1    C5 2653   4.573   2.452  14.812  0.2196 -1.0886 -0.4918
  174MPD1     H 2654   4.569   2.484  14.431 -0.4432  1.9127  0.3847
  174MPD1    H1 2655   4.371   2.402  14.804  0.4552  0.5899  0.5188
  174MPD1    H2 2656   0.056   2.499  14.791  0.1057  0.9734 -1.3331
  174MPD1    H3 2657   4.575   2.442  14.920  1.5442  2.1487 -0.2047
  174MPD1     N 2658   4.330   2.401  14.540 -0.0375 -0.1854  0.5008
  174MPD1    H5 2659   4.260   2.363  14.603 -1.8345  2.7015  0.1992
  174MPD1    N1 2660   0.081   2.522  14.549 -0.3267  0.1574  0.2815
  174MPD1    H6 2661   0.076   2.468  14.463 -1.9846  1.2562 -0.3042
  174MPD1    H7 2662   0.162   2.486  14.599  1.8731  1.5518 -2.2302
  175MPD1     C 2663   3.303   3.415  15.595 -0.3707  0.3080 -0.4870
  175MPD1    C1 2664   3.193   3.324  15.593 -0.1689  1.0266  0.1092
  175MPD1    C2 2665   3.106   3.322  15.700 -1.1840  0.5538  0.3201
  175MPD1    C3 2666   3.138   3.394  15.811 -0.1408  0.2379  0.9033
  175MPD1    C4 2667   3.244   3.473  15.816  0.2257  0.3562  0.2157
  175MPD1    C5 2668   3.324   3.488  15.705  0.1869 -0.3875 -0.5400
  175MPD1     H 2669   3.013   3.265  15.694  0.2473 -1.6119 -1.2228
  175MPD1    H1 2670   3.259   3.544  15.897 -3.5982  2.2596 -0.7439
  175MPD1    H2 2671   3.363   3.432  15.506  1.3958 -1.3023  0.3918
  175MPD1    H3 2672   3.415   3.546  15.709  0.1738 -0.6360  3.6320
  175MPD1     N 2673   3.058   3.390  15.924 -0.5471 -0.0138  0.0338
  175MPD1    H5 2674   3.092   3.450  15.998 -0.0195 -1.2208  0.7867
  175MPD1    N1 2675   3.169   3.249  15.473 -0.1976 -0.0982  0.1210
  175MPD1    H6 2676   3.249   3.224  15.415 -0.7174  0.2752 -0.7636
  175MPD1    H7 2677   3.114   3.165  15.490  0.9696 -1.4819 -2.9237
  176MPD1     C 2678   3.824   0.669   0.036 -0.2999  0.1559  0.4192
  176MPD1    C1 2679   3.719   0.759   0.024  0.2364 -0.5012  0.2825
  176MPD1    C2 2680   3.754   0.893   0.014  0.8735 -0.0248  0.2816
  176MPD1    C3 2681   3.884   0.935   0.013  0.3059  0.4013 -0.5024
  176MPD1    C4 2682   3.982   0.843   0.002 -0.2579  0.0968 -0.0590
  176MPD1    C5 2683   3.952   0.714   0.004  0.3016  0.3831 -0.5307
  176MPD1     H 2684   3.681   0.973   0.020 -1.0476 -1.7449 -0.2238
  176MPD1    H1 2685   4.085   0.871  17.685 -0.3917  0.9381  0.4658
  176MPD1    H2 2686   3.815   0.561   0.045 -1.4385 -0.0699 -3.3417
  176MPD1    H3 2687   4.036   0.647  17.694  1.1872  1.7793 -2.2357
  176MPD1     N 2688   3.911   1.075  17.692 -0.0327 -0.0501  0.1270
  176MPD1    H5 2689   3.828   1.134  17.691  0.9790  1.3494 -0.1812
  176MPD1    N1 2690   3.593   0.726   0.071 -0.2285 -0.0004  0.1894
  176MPD1    H6 2691   3.510   0.773   0.036 -0.2270  1.0262  1.5810
  176MPD1    H7 2692   3.569   0.627   0.067  0.3009 -0.1213 -0.0329
  177MPD1     C 2693   2.737   0.454  10.109  0.5918 -0.3276  0.0072
  177MPD1    C1 2694   2.763   0.555  10.020  0.3499 -0.2915 -0.3481
  177MPD1    C2 2695   2.675   0.574   9.918 -0.5971 -0.8716  0.0284
  177MPD1    C3 2696   2.561   0.500   9.901 -0.3840 -0.4982 -0.2661
  177MPD1    C4 2697   2.532   0.397   9.990  0.6551 -0.2530  0.2782
  177MPD1    C5 2698   2.623   0.370  10.093  0.3630  0.4795  0.4873
  177MPD1     H 2699   2.680   0.655   9.846 -1.4073 -0.2263  0.7019
  177MPD1    H1 2700   2.450   0.329   9.970 -0.1883  0.9835 -0.3921
  177MPD1    H2 2701   2.804   0.433  10.192  0.5461 -0.4026  0.0245
  177MPD1    H3 2702   2.616   0.290  10.166  0.8605 -1.3629 -1.4885
  177MPD1     N 2703   2.489   0.526   9.781 -0.5895  0.2232 -0.4001
  177MPD1    H5 2704   2.524   0.600   9.721  2.0242 -1.2142 -0.6618
  177MPD1    N1 2705   2.879   0.631  10.023  0.6809  0.0481  0.1671
  177MPD1    H6 2706   2.875   0.733  10.016 -0.5360  0.0124  0.2564
  177MPD1    H7 2707   2.929   0.619  10.111 -0.9720 -1.6791  0.8642
  178MPD1     C 2708   0.320   0.783   0.728  0.3065  0.5129 -0.2734
  178MPD1    C1 2709   0.256   0.901   0.724 -0.0711 -0.1109  0.1115
  178MPD1    C2 2710   0.232   0.966   0.601  0.1768  0.1884  1.1048
  178MPD1    C3 2711   0.304   0.914   0.490 -0.0117  0.0141 -0.7079
  178MPD1    C4 2712   0.381   0.798   0.498 -0.0372  0.3722 -0.4893
  178MPD1    C5 2713   0.385   0.735   0.615 -0.0413  0.0022 -0.0862
  178MPD1     H 2714   0.176   1.058   0.604  0.8937  0.6095  1.7784
  178MPD1    H1 2715   0.447   0.760   0.420 -1.0059 -1.5206 -0.3797
  178MPD1    H2 2716   0.321   0.724   0.818 -0.0844 -0.4215 -0.8808
  178MPD1    H3 2717   0.433   0.638   0.621 -1.9778 -0.9137  0.5282
  178MPD1     N 2718   0.313   0.987   0.369  0.0604 -0.0107  0.7105
  178MPD1    H5 2719   0.370   0.941   0.299 -0.0119  0.7977  0.1136
  178MPD1    N1 2720   0.186   0.938   0.835  0.4432 -0.3611 -0.0445
  178MPD1    H6 2721   0.246   0.913   0.913 -0.7200  0.3212  1.0783
  178MPD1    H7 2722   0.163   1.037   0.835  2.0260  0.0137 -1.6058
  179MPD1     C 2723   3.275   0.300  16.455 -0.7772  0.7709  0.3265
  179MPD1    C1 2724   3.359   0.385  16.390  0.1842 -0.3252  0.0167
  179MPD1    C2 2725   3.421   0.339  16.271 -0.5079 -0.1419  0.1932
  179MPD1    C3 2726   3.426   0.206  16.245 -0.7228  0.6658  0.1096
  179MPD1    C4 2727   3.343   0.115  16.310 -0.4178 -0.6220  0.3430
  179MPD1    C5 2728   3.265   0.166  16.410 -0.0549 -0.0272  0.4184
  179MPD1     H 2729   3.494   0.402  16.222  1.5461 -2.3248  0.4442
  179MPD1    H1 2730   3.345   0.009  16.290 -0.4212 -0.1073 -2.4341
  179MPD1    H2 2731   3.212   0.323  16.539  0.6659  3.8876  0.5606
  179MPD1    H3 2732   3.202   0.095  16.462  1.0441 -1.7950 -0.6759
  179MPD1     N 2733   3.505   0.141  16.140  0.1285  0.2739  0.6974
  179MPD1    H5 2734   3.493   0.045  16.109 -0.7137 -0.0092  1.9269
  179MPD1    N1 2735   3.342   0.522  16.417 -1.0072  0.0195  0.1744
  179MPD1    H6 2736   3.422   0.574  16.383  0.7792 -4.3875 -2.3164
  179MPD1    H7 2737   3.330   0.548  16.515  4.1970 -2.0164  1.3413
  180MPD1     C 2738   4.023   1.803  14.833 -0.1167  0.0637 -0.2209
  180MPD1    C1 2739   4.147   1.747  14.804  0.0240 -0.4481  0.5494
  180MPD1    C2 2740   4.147   1.615  14.769 -0.1242  0.1622  0.1064
  180MPD1    C3 2741   4.034   1.539  14.751  0.5858 -0.4871 -0.1231
  180MPD1    C4 2742   3.911   1.597  14.786  0.6813 -0.1937  0.4914
  180MPD1    C5 2743   3.904   1.727  14.824 -0.7897 -0.2072  0.0246
  180MPD1     H 2744   4.239   1.569  14.733  0.3473 -1.2986  3.1847
  180MPD1    H1 2745   3.821   1.537  14.791 -0.1304  0.8827 -1.2782
  180MPD1    H2 2746   4.020   1.903  14.874 -1.8570  0.1510 -0.5627
  180MPD1    H3 2747   3.809   1.772  14.849 -1.6745 -0.6821 -2.4657
  180MPD1     N 2748   4.054   1.411  14.705  0.0385 -0.1938  0.2224
  180MPD1    H5 2749   4.146   1.370  14.696  0.2595  0.5872 -1.1809
  180MPD1    N1 2750   4.276   1.810  14.828  0.1210 -0.1117 -0.3963
  180MPD1    H6 2751   4.364   1.776  14.791  0.6058  1.9697 -1.1809
  180MPD1    H7 2752   4.269   1.909  14.806 -0.7064 -0.2042 -0.5647
  181MPD1     C 2753   1.133   2.841   9.118  0.1943  0.2139 -0.4260
  181MPD1    C1 2754   1.218   2.947   9.143 -0.2152  0.2389  0.5653
  181MPD1    C2 2755   1.320   2.935   9.235 -0.2758 -0.2845  0.0257
  181MPD1    C3 2756   1.330   2.815   9.310 -0.2102 -0.0630 -0.2114
  181MPD1    C4 2757   1.249   2.712   9.293 -0.1795 -0.2805 -0.3328
  181MPD1    C5 2758   1.159   2.726   9.194  0.4196  0.1784  0.2872
  181MPD1     H 2759   1.384   3.020   9.254  0.5792 -0.7970 -0.5719
  181MPD1    H1 2760   1.255   2.618   9.346  3.6219 -1.0287 -2.0667
  181MPD1    H2 2761   1.058   2.830   9.041  1.3451 -0.5445 -1.4388
  181MPD1    H3 2762   1.107   2.640   9.154 -0.6018  2.2908 -2.9745
  181MPD1     N 2763   1.427   2.800   9.415 -0.9657 -0.5074  0.1932
  181MPD1    H5 2764   1.430   2.700   9.433  1.6445 -0.4233  0.2117
  181MPD1    N1 2765   1.201   3.062   9.064 -0.2349  0.4843  0.5852
  181MPD1    H6 2766   1.249   3.141   9.106 -0.2371 -0.3659  2.1653
  181MPD1    H7 2767   1.108   3.088   9.032  0.9637  1.8027 -1.8355
  182MPD1     C 2768   2.439   1.812   1.414  0.0407 -0.7717  0.1233
  182MPD1    C1 2769   2.312   1.855   1.455  1.0612 -0.3240 -0.3869
  182MPD1    C2 2770   2.206   1.836   1.364 -0.4565 -0.9138 -0.2773
  182MPD1    C3 2771   2.233   1.811   1.225  0.4317  0.3197  0.8564
  182MPD1    C4 2772   2.364   1.790   1.186 -0.6209 -0.1844 -0.2328
  182MPD1    C5 2773   2.463   1.787   1.285 -0.0493  0.0062  0.1732
  182MPD1     H 2774   2.106   1.856   1.398  0.4360  0.7656  1.3731
  182MPD1    H1 2775   2.396   1.764   1.086  1.2191  0.1366  0.2757
  182MPD1    H2 2776   2.521   1.795   1.482  0.6812 -0.8248 -0.6665
  182MPD1    H3 2777   2.566   1.766   1.257 -0.2593 -1.2592  0.3572
  182MPD1     N 2778   2.136   1.806   1.121  0.1495 -0.5635  0.2833
  182MPD1    H5 2779   2.167   1.789   1.026  2.4228  1.0479  0.7396
  182MPD1    N1 2780   2.287   1.899   1.582 -0.1707  0.0526  0.4593
  182MPD1    H6 2781   2.198   1.947   1.594  0.6553  2.3834 -2.6618
  182MPD1    H7 2782   2.358   1.963   1.618 -0.3740 -0.2143  1.3322
  183MPD1     C 2783   1.846   1.982   8.910 -0.8516  0.1600  1.5341
  183MPD1    C1 2784   1.759   2.052   8.986  0.5288  0.5913  0.0707
  183MPD1    C2 2785   1.810   2.152   9.067 -0.2922  0.6639  0.8676
  183MPD1    C3 2786   1.947   2.158   9.083 -0.5524  0.1769  1.0616
  183MPD1    C4 2787   2.030   2.081   9.010 -0.2632  0.0945 -0.4736
  183MPD1    C5 2788   1.977   1.985   8.928  0.4359  0.3371  0.3928
  183MPD1     H 2789   1.743   2.229   9.105 -0.6098 -0.5936  2.8648
  183MPD1    H1 2790   2.138   2.079   9.017 -0.1816  0.7176 -1.5994
  183MPD1    H2 2791   1.817   1.907   8.837  0.4943  1.6042 -0.4978
  183MPD1    H3 2792   2.044   1.919   8.875  1.6151  1.6912  0.1954
  183MPD1     N 2793   2.005   2.257   9.171 -0.4067 -0.1554 -0.0169
  183MPD1    H5 2794   1.946   2.332   9.203 -0.6172 -0.2019 -0.2929
  183MPD1    N1 2795   1.622   2.042   8.953 -0.1750  0.4921  1.1824
  183MPD1    H6 2796   1.602   1.944   8.937  1.7334  0.4525 -0.9606
  183MPD1    H7 2797   1.556   2.075   9.024 -0.3646 -1.7885  2.0595
  184MPD1     C 2798   1.703   4.465  10.481 -0.2582 -0.4094 -0.0057
  184MPD1    C1 2799   1.699   4.602  10.489 -0.0539 -0.3995 -0.4629
  184MPD1    C2 2800   1.737   4.665  10.376  0.2603 -0.0235 -0.6522
  184MPD1    C3 2801   1.763   4.606  10.250 -0.2343  0.2816  0.6493
  184MPD1    C4 2802   1.753   4.473  10.240  0.2993  0.6035 -0.4982
  184MPD1    C5 2803   1.728   4.401  10.358 -0.0390  0.2876  0.5846
  184MPD1     H 2804   1.725   0.048  10.376 -0.8002 -0.1452  2.1559
  184MPD1    H1 2805   1.777   4.417  10.150  0.8507  1.7757 -1.0823
  184MPD1    H2 2806   1.672   4.394  10.557 -1.5739 -0.6975 -0.8206
  184MPD1    H3 2807   1.746   4.294  10.356 -1.4312  0.0524  0.5125
  184MPD1     N 2808   1.790   4.675  10.128  0.5942  0.0765 -0.2931
  184MPD1    H5 2809   1.813   4.621  10.045  1.0536  0.6584 -0.5450
  184MPD1    N1 2810   1.671   4.665  10.605  0.5771 -0.1452 -0.2410
  184MPD1    H6 2811   1.656   0.038  10.585  0.3959  0.2108  1.6749
  184MPD1    H7 2812   1.594   4.631  10.662 -0.9041  0.9926 -1.5697
  185MPD1     C 2813   1.363   0.107   9.214 -0.2000 -0.0074  0.1481
  185MPD1    C1 2814   1.410   0.000   9.289 -0.2724 -0.6321  0.1674
  185MPD1    C2 2815   1.474   0.022   9.411 -0.5339  0.1702  0.3336
  185MPD1    C3 2816   1.523   0.148   9.444  0.3927  0.2926 -0.5445
  185MPD1    C4 2817   1.491   0.253   9.354 -0.2332 -0.1051 -0.3798
  185MPD1    C5 2818   1.411   0.231   9.244 -0.6227 -0.3149  0.0263
  185MPD1     H 2819   1.497   4.657   9.466  4.4554  3.1361  3.2013
  185MPD1    H1 2820   1.522   0.356   9.366  0.4998 -0.7022  2.7180
  185MPD1    H2 2821   1.309   0.093   9.121 -0.4808 -2.2768  0.6438
  185MPD1    H3 2822   1.384   0.308   9.173 -1.6721  0.5343  1.3561
  185MPD1     N 2823   1.597   0.176   9.567  0.2085 -0.1564 -0.2644
  185MPD1    H5 2824   1.619   0.273   9.585 -0.4827 -0.0726  0.1503
  185MPD1    N1 2825   1.354   4.597   9.261  0.2187 -0.1039  0.2685
  185MPD1    H6 2826   1.412   4.526   9.305  1.8749  2.3994  2.1635
  185MPD1    H7 2827   1.347   4.583   9.160  1.1623  0.4083  0.1235
  186MPD1     C 2828   4.577   0.395  15.821  0.3487  0.2566 -0.8871
  186MPD1    C1 2829   4.571   0.289  15.907 -0.3662  0.5457 -0.3385
  186MPD1    C2 2830   4.627   0.299  16.030 -0.0628 -0.6280  0.7899
  186MPD1    C3 2831   4.685   0.416  16.067  0.4600 -0.8711 -0.6107
  186MPD1    C4 2832   4.701   0.521  15.978  0.2173  0.0507 -0.1390
  186MPD1    C5 2833   4.655   0.501  15.853  0.1398  0.2632 -0.0484
  186MPD1     H 2834   4.609   0.219  16.102 -2.0910 -0.5256  0.4058
  186MPD1    H1 2835   0.026   0.614  16.002  0.1296 -0.2300  1.1566
  186MPD1    H2 2836   4.543   0.389  15.718 -0.6105  1.7525 -0.6546
  186MPD1    H3 2837   4.666   0.586  15.786 -0.5297  0.0232 -0.4655
  186MPD1     N 2838   4.719   0.445  16.201 -0.0197  1.0141 -0.4768
  186MPD1    H5 2839   0.033   0.539  16.206  0.9685  0.4398  2.7206
  186MPD1    N1 2840   4.505   0.175  15.864  0.6296 -0.3044  0.0876
  186MPD1    H6 2841   4.440   0.193  15.788  0.4000 -2.7811 -0.3016
  186MPD1    H7 2842   4.451   0.134  15.941 -0.0521 -0.2343 -0.3547
  187MPD1     C 2843   4.557   1.684   0.447 -0.2339  0.6819  0.8997
  187MPD1    C1 2844   4.428   1.653   0.419 -0.4296  0.0302  0.2433
  187MPD1    C2 2845   4.362   1.728   0.323  0.5570  0.6374  0.1324
  187MPD1    C3 2846   4.422   1.822   0.243  0.4288 -0.1414 -0.4388
  187MPD1    C4 2847   4.553   1.854   0.271  0.5316  0.4651 -0.3668
  187MPD1    C5 2848   4.616   1.787   0.372 -0.3539  0.0209 -0.7100
  187MPD1     H 2849   4.260   1.702   0.296  0.6148 -1.4749  2.0429
  187MPD1    H1 2850   4.610   1.932   0.221  0.6876  0.2585 -0.5095
  187MPD1    H2 2851   4.610   1.631   0.525 -0.6517 -1.1164 -0.0320
  187MPD1    H3 2852   4.719   1.817   0.383 -0.7018  0.8940  0.1597
  187MPD1     N 2853   4.363   1.893   0.136  0.0183 -0.4315 -0.3782
  187MPD1    H5 2854   4.427   1.945   0.077  1.7536 -1.8867  0.2154
  187MPD1    N1 2855   4.375   1.544   0.488  0.2733  0.2590  0.1433
  187MPD1    H6 2856   4.422   1.532   0.577 -0.0550 -0.9414  0.1564
  187MPD1    H7 2857   4.274   1.552   0.499  0.1999  1.1489 -1.1200
  188MPD1     C 2858   4.574   2.218   9.335  0.0381  0.4443  0.0187
  188MPD1    C1 2859   4.682   2.162   9.395  0.0938 -0.3041 -0.1877
  188MPD1    C2 2860   4.692   2.028   9.396 -0.9623 -1.1167 -0.4320
  188MPD1    C3 2861   4.591   1.946   9.348  0.0167  0.6033  0.2217
  188MPD1    C4 2862   4.475   2.007   9.305  0.3459 -0.2253 -0.2119
  188MPD1    C5 2863   4.467   2.144   9.299  0.0836  0.2757 -0.0462
  188MPD1     H 2864   0.060   1.984   9.430  0.5166  0.1521 -2.8250
  188MPD1    H1 2865   4.395   1.943   9.269 -0.0269  0.6574 -0.9744
  188MPD1    H2 2866   4.546   2.321   9.352 -0.6868 -0.0334  1.6561
  188MPD1    H3 2867   4.374   2.191   9.268 -0.2200  0.9485  1.8474
  188MPD1     N 2868   4.580   1.800   9.372  0.2584 -0.0024  0.1476
  188MPD1    H5 2869   4.491   1.759   9.345 -0.5081 -0.1934  2.9956
  188MPD1    N1 2870   0.057   2.251   9.445  0.1854  0.5122 -0.4336
  188MPD1    H6 2871   0.096   2.223   9.535 -1.0941 -1.1680 -0.3953
  188MPD1    H7 2872   0.026   2.347   9.464  0.2309  0.4087  0.1780
  189MPD1     C 2873   1.480   1.441   0.172 -0.5404  0.2580 -0.1287
  189MPD1    C1 2874   1.356   1.410   0.222  0.5500  0.5371 -0.3575
  189MPD1    C2 2875   1.276   1.518   0.254 -0.4403 -0.3322 -0.2694
  189MPD1    C3 2876   1.290   1.646   0.207 -0.8823  0.0828  0.3850
  189MPD1    C4 2877   1.415   1.678   0.153 -0.2348  0.6097  0.2803
  189MPD1    C5 2878   1.508   1.572   0.144 -0.4876  0.6716  0.0108
  189MPD1     H 2879   1.180   1.490   0.297 -0.1122  0.4608  1.0012
  189MPD1    H1 2880   1.445   1.774   0.113  0.3475  0.5336  0.5375
  189MPD1    H2 2881   1.556   1.366   0.154 -1.7268 -0.5824 -1.6023
  189MPD1    H3 2882   1.609   1.593   0.110 -1.5495  3.7521 -1.2340
  189MPD1     N 2883   1.186   1.741   0.230  0.8556  0.1562  0.8025
  189MPD1    H5 2884   1.106   1.706   0.281 -0.2079  2.0900  0.4574
  189MPD1    N1 2885   1.331   1.278   0.263 -0.0923  0.3404  0.3192
  189MPD1    H6 2886   1.382   1.211   0.205  1.9841  1.2969  1.0259
  189MPD1    H7 2887   1.234   1.253   0.278  0.5920 -2.0819  0.6959
  190MPD1     C 2888   4.506   1.470  14.947  0.3740 -0.9662 -0.6641
  190MPD1    C1 2889   4.480   1.510  15.073  0.0190  0.2255  1.0173
  190MPD1    C2 2890   4.527   1.429  15.180  0.3122  0.2712  0.2826
  190MPD1    C3 2891   4.614   1.319  15.148  0.1051  0.3434 -0.1578
  190MPD1    C4 2892   4.647   1.290  15.022  0.6674 -0.7274 -0.1701
  190MPD1    C5 2893   4.581   1.359  14.920 -0.1289  0.1468 -0.2147
  190MPD1     H 2894   4.497   1.448  15.283  0.1236 -1.4643  0.5482
  190MPD1    H1 2895   4.723   1.215  15.000  2.4645  1.1956 -0.5156
  190MPD1    H2 2896   4.452   1.510  14.862 -0.2481  1.9578  1.1147
  190MPD1    H3 2897   4.601   1.332  14.817  0.8875 -0.4604  0.1433
  190MPD1     N 2898   4.643   1.235  15.260  0.5899  0.2298  0.3323
  190MPD1    H5 2899   4.608   1.263  15.351 -1.0305  0.8626 -0.5061
  190MPD1    N1 2900   4.368   1.600  15.098 -0.6452  0.5358  0.6795
  190MPD1    H6 2901   4.377   1.622  15.197 -1.4815  0.1565  0.8386
  190MPD1    H7 2902   4.370   1.684  15.042 -1.2524 -0.2055 -0.4502
  191MPD1     C 2903   4.346   2.982  13.147  0.1417 -0.2249  0.1862
  191MPD1    C1 2904   4.441   3.019  13.054  0.1226 -0.7529 -0.2409
  191MPD1    C2 2905   4.391   3.071  12.934  0.1230  0.0943  0.4538
  191MPD1    C3 2906   4.262   3.105  12.918  0.7303 -0.1124 -0.0173
  191MPD1    C4 2907   4.175   3.060  13.013 -0.0665 -0.4240 -0.6172
  191MPD1    C5 2908   4.218   3.003  13.124  0.5458  0.7551 -0.1600
  191MPD1     H 2909   4.458   3.101  12.855 -0.0771 -0.4301  0.0891
  191MPD1    H1 2910   4.067   3.065  13.004 -0.2189  1.8540  2.7009
  191MPD1    H2 2911   4.368   2.921  13.234 -0.3419  0.6559  0.9172
  191MPD1    H3 2912   4.143   2.961  13.191  0.8551 -0.1164 -0.3590
  191MPD1     N 2913   4.224   3.176  12.802 -0.1861  0.6503 -0.6305
  191MPD1    H5 2914   4.304   3.216  12.753 -0.3191  1.0240 -0.5415
  191MPD1    N1 2915   4.574   2.984  13.073 -0.2364  0.3117  0.4496
  191MPD1    H6 2916   4.642   3.018  13.005  0.7689 -0.3423  1.1270
  191MPD1    H7 2917   4.588   3.014  13.169 -2.4830 -2.0665  1.5241
  192MPD1     C 2918   3.486   3.828  12.433  0.6074 -0.3558 -0.5418
  192MPD1    C1 2919   3.475   3.694  12.436 -0.3610  0.3073  0.2100
  192MPD1    C2 2920   3.585   3.610  12.438  0.1210  0.3365  0.8872
  192MPD1    C3 2921   3.711   3.664  12.425  0.3538 -0.0828 -0.6346
  192MPD1    C4 2922   3.722   3.799  12.403 -0.2002  0.1574 -0.4715
  192MPD1    C5 2923   3.610   3.877  12.414 -0.0219 -0.2657 -0.1557
  192MPD1     H 2924   3.563   3.504  12.440 -1.7219  0.7197  0.5793
  192MPD1    H1 2925   3.818   3.847  12.394  0.2024 -0.8356 -1.4045
  192MPD1    H2 2926   3.403   3.898  12.434  1.7282  0.9811 -1.0341
  192MPD1    H3 2927   3.626   3.985  12.410 -0.0879 -0.2643 -0.4260
  192MPD1     N 2928   3.822   3.585  12.419  0.2608 -0.2851  0.6531
  192MPD1    H5 2929   3.912   3.632  12.427  0.4916 -0.1699 -2.8729
  192MPD1    N1 2930   3.350   3.639  12.464 -0.6775 -0.2629 -0.6808
  192MPD1    H6 2931   3.276   3.686  12.411 -0.1619  0.8972 -0.3710
  192MPD1    H7 2932   3.353   3.542  12.436  0.7957 -0.0900 -1.1324
  193MPD1     C 2933   3.548   3.176  17.005 -0.9952 -0.2156  0.1188
  193MPD1    C1 2934   3.529   3.300  17.067  0.5156  0.0414 -0.1152
  193MPD1    C2 2935   3.604   3.396  17.013 -0.1741 -0.4734 -0.3731
  193MPD1    C3 2936   3.688   3.382  16.909  0.4347 -0.2981  0.0742
  193MPD1    C4 2937   3.706   3.258  16.848 -0.2673  0.5984 -0.2791
  193MPD1    C5 2938   3.628   3.161  16.892  0.7431 -0.1839 -0.0090
  193MPD1     H 2939   3.605   3.493  17.063  3.1481 -1.1353  0.8880
  193MPD1    H1 2940   3.774   3.233  16.767 -0.8906 -2.3688  0.1238
  193MPD1    H2 2941   3.475   3.098  17.021 -1.1273 -0.3635 -1.1920
  193MPD1    H3 2942   3.636   3.064  16.844 -0.8806 -0.7264  0.8243
  193MPD1     N 2943   3.745   3.499  16.856 -0.4901  0.0799 -0.4124
  193MPD1    H5 2944   3.707   3.582  16.900  0.9831 -0.9630  2.8557
  193MPD1    N1 2945   3.418   3.328  17.154  0.0303 -0.4415  0.2525
  193MPD1    H6 2946   3.390   3.253  17.218  0.1287 -1.2371 -0.6408
  193MPD1    H7 2947   3.423   3.408  17.217  0.8729 -1.7101  1.8092
  194MPD1     C 2948   0.946   0.539  16.719 -0.2416  0.5808 -0.3166
  194MPD1    C1 2949   0.875   0.422  16.691  0.1408 -0.6967 -0.3245
  194MPD1    C2 2950   0.956   0.315  16.660  0.4925 -0.3945  0.3964
  194MPD1    C3 2951   1.095   0.319  16.660  0.5501 -0.0055 -0.2150
  194MPD1    C4 2952   1.153   0.441  16.686 -0.6205  0.1809  0.1364
  194MPD1    C5 2953   1.081   0.546  16.717 -0.1951 -0.1958 -0.4403
  194MPD1     H 2954   0.916   0.218  16.636  3.2494 -1.3974 -0.1698
  194MPD1    H1 2955   1.258   0.467  16.688 -0.8300  1.0647 -0.2478
  194MPD1    H2 2956   0.899   0.630  16.755  0.1792  0.6410  0.0791
  194MPD1    H3 2957   1.133   0.637  16.746  0.1437 -1.1065  1.8076
  194MPD1     N 2958   1.178   0.206  16.635 -0.5519  1.0021 -0.1332
  194MPD1    H5 2959   1.279   0.216  16.642 -0.3149 -2.0705  0.7609
  194MPD1    N1 2960   0.740   0.413  16.711  0.1370  0.3702 -0.8029
  194MPD1    H6 2961   0.697   0.505  16.700  0.2540  0.1224 -3.2689
  194MPD1    H7 2962   0.691   0.348  16.650 -1.2277  3.2088 -2.7207
  195MPD1     C 2963   3.388   3.081   0.035  0.0607 -0.2542  0.1590
  195MPD1    C1 2964   3.288   3.033   0.116 -0.1611  0.5615 -0.4040
  195MPD1    C2 2965   3.302   2.904   0.156 -0.8205  0.1935  1.1078
  195MPD1    C3 2966   3.407   2.818   0.118 -0.1085  0.6563  0.1392
  195MPD1    C4 2967   3.499   2.875   0.028 -0.0768  0.5361  0.0298
  195MPD1    C5 2968   3.486   3.004  17.693 -0.8417 -0.2221 -0.3938
  195MPD1     H 2969   3.224   2.862   0.218  0.3297 -3.0086  0.3883
  195MPD1    H1 2970   3.586   2.821  17.694  0.2625  0.7365  0.5483
  195MPD1    H2 2971   3.387   3.183  17.700  0.3140 -0.6469 -0.9292
  195MPD1    H3 2972   3.556   3.041  17.620 -2.2617 -2.3794 -2.8440
  195MPD1     N 2973   3.430   2.678   0.160 -0.7338 -0.3318  0.2204
  195MPD1    H5 2974   3.510   2.633   0.116 -1.0093 -1.7192  1.1498
  195MPD1    N1 2975   3.194   3.121   0.167  0.6127 -0.1263 -0.3083
  195MPD1    H6 2976   3.172   3.183   0.090  1.3164  0.6712  0.1213
  195MPD1    H7 2977   3.113   3.087   0.217 -0.2051  0.6854 -1.0874
  196MPD1     C 2978   3.778   1.770   0.708 -0.0271 -0.4804 -0.7122
  196MPD1    C1 2979   3.739   1.897   0.687  0.2310 -0.0586  0.5411
  196MPD1    C2 2980   3.625   1.940   0.744 -0.5204 -0.3323 -0.0525
  196MPD1    C3 2981   3.545   1.857   0.829 -0.3797  0.0890 -0.0290
  196MPD1    C4 2982   3.599   1.724   0.847 -0.0967 -0.1641 -0.0716
  196MPD1    C5 2983   3.719   1.693   0.796 -0.7375  0.6116  0.6181
  196MPD1     H 2984   3.592   2.039   0.711  1.6942  0.2318 -0.5297
  196MPD1    H1 2985   3.547   1.662   0.919 -0.2340 -0.5798 -0.5346
  196MPD1    H2 2986   3.872   1.734   0.666  0.8793 -0.9061  1.7165
  196MPD1    H3 2987   3.758   1.592   0.803 -1.8206  0.1303 -0.2234
  196MPD1     N 2988   3.421   1.883   0.889 -0.5744  0.1782 -0.6102
  196MPD1    H5 2989   3.383   1.810   0.949  1.1148 -1.0268 -0.9913
  196MPD1    N1 2990   3.798   1.974   0.587 -0.3283 -0.6932  0.0198
  196MPD1    H6 2991   3.768   2.071   0.595  1.6076 -0.0081 -0.9165
  196MPD1    H7 2992   3.899   1.958   0.588 -0.1359  0.2846 -3.0757
  197MPD1     C 2993   2.294   3.311  17.369  0.0355  0.2616  0.2284
  197MPD1    C1 2994   2.347   3.403  17.461 -0.2186 -0.9189 -0.1099
  197MPD1    C2 2995   2.393   3.526  17.413  0.7167 -0.0772 -0.3683
  197MPD1    C3 2996   2.397   3.547  17.273 -0.7235  0.0506  0.2209
  197MPD1    C4 2997   2.349   3.446  17.186  0.1036  0.5818  0.5716
  197MPD1    C5 2998   2.301   3.333  17.235  0.1750  0.2909  0.1732
  197MPD1     H 2999   2.438   3.593  17.485  3.3427 -1.7387 -0.4756
  197MPD1    H1 3000   2.330   3.465  17.081  0.8455  0.1752  0.3650
  197MPD1    H2 3001   2.247   3.218  17.398  1.1438 -0.5027 -0.4228
  197MPD1    H3 3002   2.257   3.260  17.168 -0.6173  0.1734  0.8150
  197MPD1     N 3003   2.455   3.659  17.208 -0.1004 -0.9028  0.1728
  197MPD1    H5 3004   2.459   3.656  17.107 -1.0616 -0.5425  0.1244
  197MPD1    N1 3005   2.332   3.375  17.596  0.1085  0.1819  0.5746
  197MPD1    H6 3006   2.409   3.403  17.655 -3.2088  2.1250  3.9319
  197MPD1    H7 3007   2.333   3.273  17.605 -0.3888 -0.0596 -1.9326
  198MPD1     C 3008   3.745   1.690  15.711 -0.6343  0.2912 -0.2750
  198MPD1    C1 3009   3.815   1.733  15.595 -0.5948 -0.5912 -0.7018
  198MPD1    C2 3010   3.917   1.824  15.604 -0.4846 -0.0013  0.5138
  198MPD1    C3 3011   3.946   1.879  15.726 -0.0676  0.8338  0.3664
  198MPD1    C4 3012   3.876   1.843  15.837  0.1059 -0.4853 -0.4106
  198MPD1    C5 3013   3.774   1.748  15.832  0.0098 -0.4433 -0.2658
  198MPD1     H 3014   3.981   1.855  15.522 -1.4424  0.3949 -0.0842
  198MPD1    H1 3015   3.887   1.889  15.935  1.2599 -0.6115 -0.4829
  198MPD1    H2 3016   3.663   1.621  15.701 -0.4339 -0.1738  1.3166
  198MPD1    H3 3017   3.717   1.726  15.922 -1.6824 -0.4043 -1.3201
  198MPD1     N 3018   4.051   1.980  15.733 -0.1504 -0.0926 -0.1428
  198MPD1    H5 3019   4.073   2.026  15.645 -0.6371  1.2909  0.4606
  198MPD1    N1 3020   3.787   1.662  15.476  0.4162  0.2250  0.0597
  198MPD1    H6 3021   3.817   1.716  15.395 -1.6497  0.3676 -0.6026
  198MPD1    H7 3022   3.695   1.621  15.460  0.4889  0.4121 -0.8368
  199MPD1     C 3023   1.313   2.847  10.084  0.5209 -0.4696  0.2307
  199MPD1    C1 3024   1.424   2.928  10.057 -0.6571 -0.2757  0.3965
  199MPD1    C2 3025   1.404   3.033   9.968  0.3421 -0.7298  1.4370
  199MPD1    C3 3026   1.281   3.069   9.916  0.4920  0.3955  0.0069
  199MPD1    C4 3027   1.176   2.983   9.941  0.0511 -0.5519  0.2651
  199MPD1    C5 3028   1.195   2.878  10.022 -0.0159  0.5487 -0.2745
  199MPD1     H 3029   1.490   3.094   9.943 -0.4218  0.2639  1.2577
  199MPD1    H1 3030   1.074   3.008   9.915 -0.0292 -2.0686 -0.9041
  199MPD1    H2 3031   1.317   2.767  10.157  0.3245 -1.6663 -1.0599
  199MPD1    H3 3032   1.107   2.821  10.047  0.9617 -0.3350  1.1180
  199MPD1     N 3033   1.255   3.176   9.829  0.1470  0.3373  0.6942
  199MPD1    H5 3034   1.158   3.185   9.802  0.7406  2.1548 -0.8220
  199MPD1    N1 3035   1.541   2.907  10.136  0.4687  0.8466  0.4504
  199MPD1    H6 3036   1.611   2.943  10.071  1.3077  2.4596  2.2571
  199MPD1    H7 3037   1.555   2.807  10.148 -0.4792  0.5743 -0.6037
  200MPD1     C 3038   0.082   3.546  15.307  0.0641  0.1956  0.1542
  200MPD1    C1 3039   0.085   3.525  15.171  1.1197  0.1968  0.3637
  200MPD1    C2 3040   0.212   3.529  15.110  0.0335  0.7564  0.1410
  200MPD1    C3 3041   0.333   3.533  15.183 -0.0206 -0.4636 -0.8857
  200MPD1    C4 3042   0.324   3.543  15.319 -0.6179  0.2884  0.0444
  200MPD1    C5 3043   0.198   3.542  15.378  0.3236  0.3222  0.0329
  200MPD1     H 3044   0.219   3.525  15.002  3.0095  0.9432  0.3460
  200MPD1    H1 3045   0.407   3.570  15.382  0.9646 -1.1560 -1.4360
  200MPD1    H2 3046   4.712   3.543  15.359 -0.5064  1.5158 -0.8092
  200MPD1    H3 3047   0.182   3.537  15.485 -0.5488 -0.3241 -0.1275
  200MPD1     N 3048   0.458   3.522  15.116  0.2020  0.1570  0.0966
  200MPD1    H5 3049   0.459   3.538  15.016 -0.4578 -2.0272 -0.2554
  200MPD1    N1 3050   4.690   3.526  15.095 -0.3387  0.1436 -0.2557
  200MPD1    H6 3051   4.693   3.464  15.015 -1.9523 -0.6353  0.2754
  200MPD1    H7 3052   4.609   3.496  15.150  0.1841 -1.9568 -0.6250
  201MPD1     C 3053   4.294   2.437  13.363  0.8004 -0.1049 -0.3651
  201MPD1    C1 3054   4.159   2.466  13.337  0.2415 -0.5775  0.6778
  201MPD1    C2 3055   4.070   2.368  13.375 -0.1701  0.0902  0.8299
  201MPD1    C3 3056   4.118   2.236  13.408  0.3570 -0.6377  0.5956
  201MPD1    C4 3057   4.251   2.211  13.423 -0.1560 -0.0196 -0.1866
  201MPD1    C5 3058   4.340   2.313  13.399 -0.0062  0.0732  0.4425
  201MPD1     H 3059   3.963   2.385  13.371  0.2011  2.1772 -0.0556
  201MPD1    H1 3060   4.301   2.121  13.458 -1.1717 -0.3534  0.3813
  201MPD1    H2 3061   4.366   2.518  13.364  0.0677  0.5406 -0.0346
  201MPD1    H3 3062   4.447   2.306  13.414  0.2854 -0.7934 -2.1745
  201MPD1     N 3063   4.026   2.133  13.444 -0.4405 -0.1657 -0.0283
  201MPD1    H5 3064   3.929   2.164  13.444 -0.0994  0.8630 -1.5471
  201MPD1    N1 3065   4.121   2.596  13.303 -0.3887  0.2013  0.0984
  201MPD1    H6 3066   4.188   2.668  13.276 -0.4550 -0.5579 -2.1140
  201MPD1    H7 3067   4.030   2.618  13.262 -0.2000 -1.7990 -1.4130
  202MPD1     C 3068   2.794   1.166   9.117 -0.2002  0.4931  0.1267
  202MPD1    C1 3069   2.695   1.242   9.169  0.1601  0.1356 -0.3418
  202MPD1    C2 3070   2.732   1.337   9.261 -0.2732  0.2656 -0.4082
  202MPD1    C3 3071   2.865   1.356   9.312 -0.4503 -0.2540 -0.0134
  202MPD1    C4 3072   2.960   1.270   9.263  0.3385 -0.0515 -0.5179
  202MPD1    C5 3073   2.926   1.177   9.165  0.5560 -0.3697  0.5293
  202MPD1     H 3074   2.661   1.416   9.281  0.9113  1.4517 -0.8869
  202MPD1    H1 3075   3.065   1.278   9.290 -0.0316  1.9264  0.2544
  202MPD1    H2 3076   2.780   1.101   9.031 -1.9228 -1.3709  1.8231
  202MPD1    H3 3077   3.000   1.121   9.109 -0.7456 -1.0692 -0.4694
  202MPD1     N 3078   2.898   1.459   9.404 -0.1941  0.0876  0.8005
  202MPD1    H5 3079   2.994   1.469   9.433  0.2232  0.8754 -0.8797
  202MPD1    N1 3080   2.582   1.263   9.083  0.0160  0.0129 -0.3818
  202MPD1    H6 3081   2.563   1.200   9.006 -1.5511  1.9966 -1.6253
  202MPD1    H7 3082   2.505   1.311   9.129 -1.0935 -2.2644  0.1422
  203MPD1     C 3083   2.281   3.733  12.314  0.1027  0.2157 -0.4036
  203MPD1    C1 3084   2.290   3.654  12.208 -0.5804 -0.7911  0.7391
  203MPD1    C2 3085   2.278   3.516  12.224  0.5721 -0.5878  0.4091
  203MPD1    C3 3086   2.259   3.465  12.355 -0.2679 -0.6721 -0.0929
  203MPD1    C4 3087   2.251   3.552  12.458  0.6259 -0.3477  0.7580
  203MPD1    C5 3088   2.261   3.683  12.442 -0.0829  0.0479  0.4736
  203MPD1     H 3089   2.290   3.444  12.144 -1.0392  0.4888 -0.8129
  203MPD1    H1 3090   2.230   3.523  12.561 -0.9239  0.9099  0.7915
  203MPD1    H2 3091   2.283   3.841  12.306 -2.2089  0.2444 -0.5236
  203MPD1    H3 3092   2.244   3.755  12.522  0.3436  1.7400 -0.9580
  203MPD1     N 3093   2.259   3.323  12.377 -0.2609 -0.0262  0.2393
  203MPD1    H5 3094   2.306   3.263  12.310 -3.3693 -2.0073 -0.1816
  203MPD1    N1 3095   2.316   3.710  12.093 -0.3589 -1.3271  0.1524
  203MPD1    H6 3096   2.408   3.754  12.095  0.1900 -2.5900  2.0932
  203MPD1    H7 3097   2.315   3.645  12.014 -1.2429 -2.3663  1.0345
  204MPD1     C 3098   1.522   3.590   0.191  0.3526  0.2869 -0.3465
  204MPD1    C1 3099   1.387   3.568   0.171 -1.1927 -0.3959 -0.2081
  204MPD1    C2 3100   1.352   3.543   0.037  0.1154  0.3512  0.4543
  204MPD1    C3 3101   1.445   3.559  17.637  0.0417 -0.2631 -0.1514
  204MPD1    C4 3102   1.572   3.600  17.670 -0.4770 -0.4091  0.8410
  204MPD1    C5 3103   1.615   3.612   0.098  0.5173  1.1932 -0.1753
  204MPD1     H 3104   1.256   3.498   0.012 -0.0704  1.7597 -1.3388
  204MPD1    H1 3105   1.653   3.608  17.598 -0.0389  2.7084  1.6562
  204MPD1    H2 3106   1.561   3.584   0.292 -0.7252  1.5625  0.1512
  204MPD1    H3 3107   1.717   3.634   0.126  0.8273 -1.3167  0.5916
  204MPD1     N 3108   1.420   3.510  17.504 -0.4888  0.3042 -0.9979
  204MPD1    H5 3109   1.325   3.484  17.480 -0.6903 -1.3902  1.5875
  204MPD1    N1 3110   1.305   3.512   0.267 -0.1355  0.0941 -0.3388
  204MPD1    H6 3111   1.323   3.548   0.361 -1.2303 -1.6164  0.5352
  204MPD1    H7 3112   1.208   3.516   0.238 -0.0338  0.9518 -0.5485
  205MPD1     C 3113   1.947   2.220  16.558 -0.4020  0.2163 -0.2243
  205MPD1    C1 3114   1.835   2.301  16.535 -0.6375  0.2633 -0.7448
  205MPD1    C2 3115   1.751   2.319  16.648 -0.1101  0.1694 -1.2083
  205MPD1    C3 3116   1.770   2.271  16.773 -0.2498 -0.4783 -0.1118
  205MPD1    C4 3117   1.883   2.198  16.786 -0.2835 -0.5901 -0.1209
  205MPD1    C5 3118   1.965   2.164  16.683 -0.6856 -0.4452  0.0452
  205MPD1     H 3119   1.665   2.381  16.627 -0.8660 -0.1808  0.8538
  205MPD1    H1 3120   1.918   2.147  16.875 -3.2025  0.3742  1.5749
  205MPD1    H2 3121   2.022   2.197  16.483 -0.2818 -1.1418  0.2994
  205MPD1    H3 3122   2.050   2.098  16.697 -0.0147  0.5543  0.6115
  205MPD1     N 3123   1.687   2.291  16.882  0.5270  0.3878 -0.1837
  205MPD1    H5 3124   1.722   2.254  16.970  0.3337  2.3063  0.7029
  205MPD1    N1 3125   1.806   2.364  16.411 -0.4501  0.4987  0.1432
  205MPD1    H6 3126   1.793   2.464  16.429  1.3274  0.4908  1.5229
  205MPD1    H7 3127   1.896   2.364  16.363  0.6498 -0.1066  2.1918
  206MPD1     C 3128   1.405   1.679  16.610 -0.3975  0.8190 -0.4479
  206MPD1    C1 3129   1.365   1.582  16.690  0.5180 -0.0823  0.0319
  206MPD1    C2 3130   1.301   1.472  16.634  0.1077 -1.0156  0.4751
  206MPD1    C3 3131   1.253   1.480  16.506  0.3656  0.3224 -0.5683
  206MPD1    C4 3132   1.278   1.590  16.431 -0.0237  0.9184 -0.1186
  206MPD1    C5 3133   1.358   1.695  16.482 -0.2981 -0.4773 -0.5225
  206MPD1     H 3134   1.301   1.382  16.694 -1.0314 -2.6076 -1.9027
  206MPD1    H1 3135   1.228   1.593  16.335  1.2907  0.4430 -0.8137
  206MPD1    H2 3136   1.473   1.759  16.640  0.4754 -1.1014  2.7230
  206MPD1    H3 3137   1.390   1.784  16.430 -0.1527 -1.4383 -2.0670
  206MPD1     N 3138   1.182   1.374  16.439 -0.1856  0.5250  0.3645
  206MPD1    H5 3139   1.153   1.393  16.343  1.8460 -0.7566 -0.5273
  206MPD1    N1 3140   1.424   1.559  16.821  0.0088 -0.1791 -0.4336
  206MPD1    H6 3141   1.370   1.494  16.878 -1.5506  0.1452 -1.5350
  206MPD1    H7 3142   1.443   1.649  16.864  2.3293 -0.7547 -0.2545
  207MPD1     C 3143   4.196   3.138   9.227 -0.0774  0.1546 -0.0697
  207MPD1    C1 3144   4.280   3.229   9.282 -0.9456 -0.7719 -0.1445
  207MPD1    C2 3145   4.277   3.250   9.423 -0.3281  0.5911 -0.9963
  207MPD1    C3 3146   4.199   3.169   9.504 -0.0542 -0.4421  0.1831
  207MPD1    C4 3147   4.109   3.079   9.446  0.4812 -0.0065  0.5268
  207MPD1    C5 3148   4.104   3.070   9.312 -0.4775  0.7537  0.3849
  207MPD1     H 3149   4.343   3.324   9.467 -0.0763  0.2498 -0.7967
  207MPD1    H1 3150   4.043   3.024   9.512  0.7901 -0.4683  0.4566
  207MPD1    H2 3151   4.192   3.121   9.120  2.4181 -0.4250 -0.0787
  207MPD1    H3 3152   4.030   3.006   9.265 -0.8122  1.6675 -0.3291
  207MPD1     N 3153   4.177   3.185   9.640 -0.5904 -0.0268 -0.7392
  207MPD1    H5 3154   4.119   3.123   9.697 -1.2065  3.0410  1.9336
  207MPD1    N1 3155   4.338   3.327   9.194 -0.3131  0.7252  0.1295
  207MPD1    H6 3156   4.356   3.283   9.104 -1.6116  1.5320 -0.5230
  207MPD1    H7 3157   4.419   3.382   9.220  1.5427 -0.7705 -2.5577
  208MPD1     C 3158   2.665   2.196  17.555 -0.3876 -0.2474  0.2610
  208MPD1    C1 3159   2.678   2.088  17.637  0.3805  0.4225 -0.4865
  208MPD1    C2 3160   2.569   2.010  17.660 -0.2989  0.2305  0.2820
  208MPD1    C3 3161   2.453   2.028  17.595  1.0629 -0.0307 -0.2335
  208MPD1    C4 3162   2.446   2.124  17.498  0.9648 -0.1810 -0.0785
  208MPD1    C5 3163   2.552   2.210  17.482  0.1446 -0.5402  0.0387
  208MPD1     H 3164   2.572   1.930   0.031 -2.8817 -0.9657 -0.9236
  208MPD1    H1 3165   2.352   2.148  17.449  1.5639  0.7549 -0.7693
  208MPD1    H2 3166   2.742   2.271  17.544 -0.2056 -0.4675  0.0372
  208MPD1    H3 3167   2.550   2.298  17.419 -1.6306 -1.7414 -1.5704
  208MPD1     N 3168   2.340   1.952  17.636  0.3871  0.4691 -0.2467
  208MPD1    H5 3169   2.352   1.888   0.012  0.4765  0.5340 -0.2074
  208MPD1    N1 3170   2.793   2.069   0.007 -0.0759  0.1363  0.8150
  208MPD1    H6 3171   2.797   1.968   0.018 -0.8689 -0.2814 -2.6635
  208MPD1    H7 3172   2.874   2.112  17.665 -0.4622  1.1854  1.1282
  209MPD1     C 3173   0.062   1.796   9.880  0.1966 -0.1113  0.8422
  209MPD1    C1 3174   4.722   1.912   9.841 -0.0531  0.7121 -0.7883
  209MPD1    C2 3175   4.688   2.003   9.937  0.2233 -0.5896  0.7149
  209MPD1    C3 3176   4.709   1.986  10.073 -0.6657  0.3073 -0.0683
  209MPD1    C4 3177   0.052   1.874  10.115 -0.1787  0.4240  0.0777
  209MPD1    C5 3178   0.082   1.777  10.017 -0.2191 -0.4567 -0.6482
  209MPD1     H 3179   4.643   2.098   9.910  0.3068 -0.2789  1.6619
  209MPD1    H1 3180   0.077   1.839  10.214 -0.9430 -1.5808 -0.4367
  209MPD1    H2 3181   0.092   1.717   9.812 -1.3501  1.4018 -1.6061
  209MPD1    H3 3182   0.134   1.689  10.054  1.2649  0.6780 -0.0479
  209MPD1     N 3183   4.660   2.079  10.160 -0.7312  0.3144 -0.1301
  209MPD1    H5 3184   4.622   2.165  10.122 -1.6825  0.2606  0.7100
  209MPD1    N1 3185   0.000   1.948   9.708  0.2839  0.1424 -0.3022
  209MPD1    H6 3186   0.012   1.868   9.647  0.9655 -1.1056  1.4853
  209MPD1    H7 3187   4.637   1.995   9.687  1.4362  2.5338  0.1440
  210MPD1     C 3188   0.202   2.705  10.965  0.4701 -0.1990  0.6549
  210MPD1    C1 3189   0.203   2.564  10.953 -0.4885  0.4553 -0.0393
  210MPD1    C2 3190   0.126   2.505  10.859  0.5144 -0.0403  0.7633
  210MPD1    C3 3191   0.046   2.581  10.774  0.8997  0.2035  0.3623
  210MPD1    C4 3192   0.056   2.721  10.775  0.2319 -0.0816  0.0432
  210MPD1    C5 3193   0.130   2.782  10.877 -0.1263  0.5998 -0.2250
  210MPD1     H 3194   0.126   2.397  10.859 -1.6901 -0.0436 -0.8941
  210MPD1    H1 3195   0.001   2.777  10.702  0.0155  0.8380  0.9140
  210MPD1    H2 3196   0.263   2.754  11.041  2.6240 -0.3659 -0.9496
  210MPD1    H3 3197   0.130   2.889  10.892 -0.7433  0.8993 -2.2782
  210MPD1     N 3198   4.702   2.521  10.670 -0.0169 -0.6077  0.0897
  210MPD1    H5 3199   4.659   2.581  10.600  1.7213 -2.0602 -2.2322
  210MPD1    N1 3200   0.302   2.493  11.024  0.2204  0.6823  0.0061
  210MPD1    H6 3201   0.286   2.393  11.021 -0.9995  0.8977 -0.5438
  210MPD1    H7 3202   0.316   2.527  11.119  0.4119 -3.2498  1.3923
  211MPD1     C 3203   2.027   2.013  15.839  0.2019  0.1286 -0.6772
  211MPD1    C1 3204   1.942   1.952  15.934 -0.8440  0.2430  0.2739
  211MPD1    C2 3205   1.836   2.021  15.988  0.0778  0.2478  0.1334
  211MPD1    C3 3206   1.823   2.157  15.972  0.2199 -0.4104 -1.1597
  211MPD1    C4 3207   1.919   2.221  15.891  0.4527  0.4312  0.1235
  211MPD1    C5 3208   2.015   2.150  15.821  0.0492 -0.4691  0.3493
  211MPD1     H 3209   1.770   1.968  16.055  0.0194 -0.1310 -0.2225
  211MPD1    H1 3210   1.914   2.326  15.863  0.7052  0.3020 -0.3976
  211MPD1    H2 3211   2.109   1.958  15.794  0.5942 -0.2596  0.5168
  211MPD1    H3 3212   2.084   2.201  15.755 -0.3250 -1.0687 -0.5109
  211MPD1     N 3213   1.713   2.221  16.037  0.0489  0.1307 -0.8926
  211MPD1    H5 3214   1.651   2.167  16.096  1.4843 -0.6019 -0.0627
  211MPD1    N1 3215   1.947   1.816  15.959  0.0892  0.3107  0.3289
  211MPD1    H6 3216   2.036   1.774  15.934 -0.4858 -0.1362 -1.0144
  211MPD1    H7 3217   1.920   1.792  16.054 -0.3844 -2.0340 -0.4020
  212MPD1     C 3218   0.906   1.107  16.778 -0.1108 -0.2339 -0.7535
  212MPD1    C1 3219   0.979   0.994  16.801 -0.1665  0.2300 -0.0062
  212MPD1    C2 3220   0.927   0.895  16.885  0.4520  0.4705 -0.1163
  212MPD1    C3 3221   0.809   0.918  16.953  0.5211 -0.2594  0.5196
  212MPD1    C4 3222   0.738   1.038  16.931 -0.1296  0.0613  0.8241
  212MPD1    C5 3223   0.786   1.131  16.839 -0.0745  0.6597  0.4168
  212MPD1     H 3224   0.988   0.807  16.903  0.6748  0.5746 -0.3619
  212MPD1    H1 3225   0.643   1.052  16.981  0.4260  0.9363  1.6185
  212MPD1    H2 3226   0.949   1.182  16.711  2.9738 -0.0878  1.4121
  212MPD1    H3 3227   0.726   1.219  16.816  1.7209  1.8129  0.1473
  212MPD1     N 3228   0.750   0.820  17.040 -0.3514  0.2463  0.2644
  212MPD1    H5 3229   0.662   0.851  17.080 -0.2225  3.2154 -1.7013
  212MPD1    N1 3230   1.117   0.999  16.778  0.0110  0.2373  0.2851
  212MPD1    H6 3231   1.146   1.070  16.710 -0.2810  2.1102  2.1194
  212MPD1    H7 3232   1.166   0.911  16.770 -0.4681 -0.0382  0.3492
  213MPD1     C 3233   2.964   2.650  15.725  0.3698  0.1371  0.1638
  213MPD1    C1 3234   2.867   2.550  15.708  0.1395  0.4356  0.5329
  213MPD1    C2 3235   2.899   2.464  15.613  0.4830  0.3524  0.1692
  213MPD1    C3 3236   3.033   2.432  15.584 -0.2147 -0.2100 -0.0120
  213MPD1    C4 3237   3.133   2.516  15.621 -0.5296  0.0915 -0.5705
  213MPD1    C5 3238   3.100   2.630  15.693  0.4852 -0.4310 -0.3560
  213MPD1     H 3239   2.823   2.396  15.576 -0.6438  0.8579  1.5728
  213MPD1    H1 3240   3.237   2.488  15.610 -0.0232  1.9170 -0.5070
  213MPD1    H2 3241   2.945   2.736  15.788 -1.1854 -0.2443  0.2202
  213MPD1    H3 3242   3.174   2.704  15.721 -0.2034  0.5993 -1.2496
  213MPD1     N 3243   3.052   2.318  15.507  0.4742 -0.5546  0.0677
  213MPD1    H5 3244   2.970   2.260  15.492 -1.0136  0.8868  2.7305
  213MPD1    N1 3245   2.732   2.579  15.731  0.5617 -0.3489 -0.5019
  213MPD1    H6 3246   2.716   2.630  15.817  0.2270 -0.4108 -0.5286
  213MPD1    H7 3247   2.672   2.498  15.743  0.7869 -0.6278 -1.2387
  214MPD1     C 3248   2.759   1.630  15.855 -0.7499 -0.5970  0.0673
  214MPD1    C1 3249   2.883   1.591  15.815 -0.0668 -0.3666  0.1217
  214MPD1    C2 3250   2.946   1.656  15.715  0.3528 -0.0931 -0.3412
  214MPD1    C3 3251   2.893   1.765  15.661  0.3409  0.4499 -1.0009
  214MPD1    C4 3252   2.766   1.812  15.699 -0.3132 -0.0937 -0.3032
  214MPD1    C5 3253   2.694   1.733  15.789  0.3920  0.2501  0.0292
  214MPD1     H 3254   3.046   1.630  15.683  0.3111 -0.9938  0.2693
  214MPD1    H1 3255   2.732   1.903  15.650  1.7918  0.3666 -0.9236
  214MPD1    H2 3256   2.699   1.575  15.927 -1.0068 -3.0037 -2.0010
  214MPD1    H3 3257   2.594   1.765  15.814 -0.3816 -1.4937 -0.8582
  214MPD1     N 3258   2.965   1.846  15.563  0.3216 -0.2456 -0.3064
  214MPD1    H5 3259   2.919   1.928  15.526  2.0212  0.5419 -0.6444
  214MPD1    N1 3260   2.944   1.482  15.877  0.2460 -0.2607  0.2070
  214MPD1    H6 3261   2.909   1.456  15.969 -1.3252 -2.1962 -0.9279
  214MPD1    H7 3262   3.043   1.498  15.888  0.8857 -2.1411 -2.5303
  215MPD1     C 3263   4.126   2.029  10.960 -0.8576  0.0021  0.5029
  215MPD1    C1 3264   4.097   2.154  10.917 -0.7862 -0.1281  0.3729
  215MPD1    C2 3265   4.201   2.238  10.894  0.0857  0.1701  0.6676
  215MPD1    C3 3266   4.324   2.218  10.952  0.4276  0.3844 -0.3795
  215MPD1    C4 3267   4.346   2.096  11.020 -0.0673 -0.8009  0.1739
  215MPD1    C5 3268   4.245   2.007  11.015 -0.7957  0.7537 -0.1460
  215MPD1     H 3269   4.190   2.330  10.839  0.1653 -0.8070 -0.9839
  215MPD1    H1 3270   4.432   2.081  11.085 -0.5914  0.9009  1.2509
  215MPD1    H2 3271   4.057   1.945  10.962  0.3967 -1.0199  0.4831
  215MPD1    H3 3272   4.265   1.910  11.059 -0.0808  0.6009 -0.8174
  215MPD1     N 3273   4.412   2.326  10.960 -0.8492 -0.0269  0.5183
  215MPD1    H5 3274   4.375   2.416  10.930  2.0434  0.6374 -1.0523
  215MPD1    N1 3275   3.966   2.180  10.867 -0.1616 -1.0231  0.7943
  215MPD1    H6 3276   3.885   2.124  10.891 -0.2851 -1.9347 -1.8245
  215MPD1    H7 3277   3.934   2.275  10.887 -0.7928 -0.8783 -0.8882
  216MPD1     C 3278   1.103   4.571  16.101  0.0798  0.0744  0.5688
  216MPD1    C1 3279   1.015   4.608  16.199  0.5130 -0.0014 -0.0438
  216MPD1    C2 3280   0.981   4.518  16.295  0.4583 -0.3048 -0.4889
  216MPD1    C3 3281   1.052   4.405  16.316  0.4640  0.3573  0.4940
  216MPD1    C4 3282   1.139   4.367  16.216 -0.0857 -0.5788 -0.1969
  216MPD1    C5 3283   1.160   4.446  16.109  1.0909  1.2598 -0.2565
  216MPD1     H 3284   0.905   4.531  16.370  0.4998 -0.7493 -0.3734
  216MPD1    H1 3285   1.208   4.283  16.219  0.2985 -0.2448  0.3561
  216MPD1    H2 3286   1.135   4.650  16.033  1.7167 -0.9343  0.1577
  216MPD1    H3 3287   1.229   4.421  16.029 -0.0768  0.4724 -1.0182
  216MPD1     N 3288   1.021   4.319  16.427 -0.0950 -0.4741  0.0676
  216MPD1    H5 3289   0.964   4.364  16.498 -0.5976 -0.8535 -0.0953
  216MPD1    N1 3290   0.937   4.719  16.180 -0.2257  0.4177 -0.2723
  216MPD1    H6 3291   0.994   0.065  16.135  1.4482 -0.8864 -0.1708
  216MPD1    H7 3292   0.910   0.044  16.265 -0.9815  2.9293 -1.9750
  217MPD1     C 3293   1.173   1.033   8.882  0.1445 -0.9165  0.0717
  217MPD1    C1 3294   1.146   1.144   8.959 -0.0714 -0.2457 -0.1842
  217MPD1    C2 3295   1.243   1.210   9.024 -0.1021 -0.0815 -0.3046
  217MPD1    C3 3296   1.365   1.148   9.040 -0.5646 -0.4853 -0.1319
  217MPD1    C4 3297   1.387   1.037   8.970 -0.2387  0.0332 -0.3586
  217MPD1    C5 3298   1.293   0.967   8.898 -0.5925 -0.3776 -0.0467
  217MPD1     H 3299   1.220   1.307   9.066 -1.3274 -0.4862 -0.0292
  217MPD1    H1 3300   1.476   0.978   8.989  0.9327  1.6531 -0.8293
  217MPD1    H2 3301   1.087   0.984   8.836  0.8007 -0.4991 -1.5979
  217MPD1    H3 3302   1.310   0.869   8.853 -1.8791  0.2285 -1.8853
  217MPD1     N 3303   1.472   1.200   9.120 -0.1381  0.1871  0.7228
  217MPD1    H5 3304   1.555   1.141   9.128  0.4445  1.1390  1.7631
  217MPD1    N1 3305   1.014   1.197   8.940  0.3393 -0.6016 -0.4034
  217MPD1    H6 3306   0.977   1.256   9.015 -0.1797 -0.1708 -0.9912
  217MPD1    H7 3307   0.950   1.130   8.898 -1.5755  0.5829  0.6044
  218MPD1     C 3308   3.454   3.022  12.731 -0.0020  0.2853 -0.3916
  218MPD1    C1 3309   3.564   3.093  12.683 -0.3850  0.2011 -0.1486
  218MPD1    C2 3310   3.693   3.043  12.708 -0.8955  0.5585  0.0406
  218MPD1    C3 3311   3.704   2.932  12.792  0.0607 -0.2066  0.0411
  218MPD1    C4 3312   3.591   2.865  12.839  0.3989 -0.0732  0.1411
  218MPD1    C5 3313   3.468   2.901  12.806 -1.1439 -0.1419  0.0935
  218MPD1     H 3314   3.779   3.088  12.660  0.2785 -0.1422  1.4903
  218MPD1    H1 3315   3.599   2.782  12.908  3.4902  0.3520  0.2765
  218MPD1    H2 3316   3.352   3.048  12.706 -0.1731  0.1565  0.1739
  218MPD1    H3 3317   3.378   2.852  12.839 -1.5799 -0.5582 -1.6875
  218MPD1     N 3318   3.840   2.903  12.816 -0.0857 -0.2668  0.0136
  218MPD1    H5 3319   3.913   2.963  12.777  0.6180 -1.2675 -0.1894
  218MPD1    N1 3320   3.539   3.195  12.583  0.4365 -0.4080 -0.2080
  218MPD1    H6 3321   3.620   3.252  12.560  1.6021 -2.3688 -0.9005
  218MPD1    H7 3322   3.453   3.249  12.595  0.8449  0.6367 -1.9552
  219MPD1     C 3323   4.624   2.965  12.283  0.6979 -0.1451  0.1441
  219MPD1    C1 3324   4.518   3.037  12.329 -0.1916  0.1172  0.8446
  219MPD1    C2 3325   4.437   2.979  12.425  0.1270  0.2602 -0.7994
  219MPD1    C3 3326   4.457   2.853  12.468 -0.4399  0.5288 -0.2665
  219MPD1    C4 3327   4.567   2.785  12.430 -0.5174  0.9365 -0.5364
  219MPD1    C5 3328   4.656   2.844  12.337 -0.2629 -0.6932  0.1236
  219MPD1     H 3329   4.368   3.043  12.478  1.3307  0.6179  0.3368
  219MPD1    H1 3330   4.585   2.685  12.469  0.4251  1.2597 -0.1504
  219MPD1    H2 3331   4.693   3.003  12.208 -0.0605 -1.7361 -1.3666
  219MPD1    H3 3332   0.026   2.798  12.309 -1.2655 -0.6090 -3.4387
  219MPD1     N 3333   4.375   2.789  12.567  0.4397  0.7784  0.5555
  219MPD1    H5 3334   4.413   2.712  12.621 -0.5769 -0.4221 -0.4400
  219MPD1    N1 3335   4.507   3.172  12.295 -0.3010  0.8023  0.7130
  219MPD1    H6 3336   4.417   3.215  12.317  0.6064  2.5531  1.0933
  219MPD1    H7 3337   4.533   3.198  12.200 -0.6793  0.5109  0.5307
  220MPD1     C 3338   3.723   3.316   9.586 -0.4640  0.9678 -0.5582
  220MPD1    C1 3339   3.635   3.223   9.634  0.7014  0.5983  0.2249
  220MPD1    C2 3340   3.661   3.171   9.755  0.6933 -0.5142 -0.3058
  220MPD1    C3 3341   3.765   3.223   9.837  0.5739 -0.3433 -0.7759
  220MPD1    C4 3342   3.843   3.327   9.790 -0.3194 -0.4350  1.3389
  220MPD1    C5 3343   3.823   3.371   9.662 -0.3043  0.2128  1.1423
  220MPD1     H 3344   3.612   3.078   9.784  1.6424 -0.6105  0.9844
  220MPD1    H1 3345   3.921   3.379   9.845  0.4782 -0.4221  0.1975
  220MPD1    H2 3346   3.717   3.362   9.488 -1.2512  1.1757 -0.4173
  220MPD1    H3 3347   3.894   3.439   9.616  0.2557 -1.0239  0.1628
  220MPD1     N 3348   3.794   3.152   9.951 -0.6626  0.1748  0.1587
  220MPD1    H5 3349   3.761   3.056   9.956 -0.7288  0.2092  0.3865
  220MPD1    N1 3350   3.544   3.159   9.544 -0.2126 -0.0753  0.0315
  220MPD1    H6 3351   3.488   3.226   9.492 -1.5633 -1.2880 -0.0925
  220MPD1    H7 3352   3.483   3.105   9.605  2.3292 -0.4538  2.2291
  221MPD1     C 3353   1.786   1.401  17.229  0.1018  0.6571  0.6872
  221MPD1    C1 3354   1.889   1.400  17.135 -0.0076  0.3348 -0.2661
  221MPD1    C2 3355   1.861   1.429  17.003  0.2017  0.1961  0.1140
  221MPD1    C3 3356   1.729   1.449  16.959 -0.2152  0.3776  1.1510
  221MPD1    C4 3357   1.626   1.441  17.050  0.6103 -0.0171 -0.3951
  221MPD1    C5 3358   1.657   1.415  17.180 -0.4372  0.8832  0.1022
  221MPD1     H 3359   1.942   1.427  16.932 -1.6729 -1.0775 -1.9887
  221MPD1    H1 3360   1.520   1.441  17.026  0.2361  0.1937  1.2742
  221MPD1    H2 3361   1.789   1.393  17.337  1.3694 -0.8371  0.5342
  221MPD1    H3 3362   1.577   1.406  17.252 -0.1097 -3.2642 -0.0494
  221MPD1     N 3363   1.702   1.480  16.829 -0.0209 -0.7143 -0.0491
  221MPD1    H5 3364   1.607   1.503  16.803 -0.4751 -1.8849  0.6124
  221MPD1    N1 3365   2.022   1.377  17.178  0.3391  0.1314 -0.2615
  221MPD1    H6 3366   2.014   1.309  17.253 -1.7326 -1.9178 -2.3400
  221MPD1    H7 3367   2.078   1.347  17.098 -1.5197  0.4581 -1.6987
  222MPD1     C 3368   1.050   0.193  17.020  0.4732  0.0187  0.3103
  222MPD1    C1 3369   1.043   0.317  17.080  0.2567 -0.6438 -0.3078
  222MPD1    C2 3370   0.982   0.321  17.211 -0.3766 -0.7985  0.4207
  222MPD1    C3 3371   0.925   0.214  17.270  0.0844  0.3006 -0.2428
  222MPD1    C4 3372   0.936   0.098  17.211 -0.2614 -0.7937  0.4591
  222MPD1    C5 3373   1.003   0.086  17.091 -0.4199 -0.5968  0.0336
  222MPD1     H 3374   0.978   0.416  17.263 -0.5847  0.0450 -1.1369
  222MPD1    H1 3375   0.892   0.010  17.256  0.2405 -0.6237  1.2821
  222MPD1    H2 3376   1.101   0.177  16.925 -3.3778  2.9322 -2.2063
  222MPD1    H3 3377   1.003   4.712  17.045  1.5015 -0.9998  0.8921
  222MPD1     N 3378   0.848   0.219  17.390 -0.0054 -0.3683  0.5750
  222MPD1    H5 3379   0.805   0.131  17.414  0.0126 -0.9049 -1.3406
  222MPD1    N1 3380   1.099   0.434  17.020 -0.2697  0.0980  0.4254
  222MPD1    H6 3381   1.103   0.427  16.919  0.6417  3.3397  0.2352
  222MPD1    H7 3382   1.040   0.517  17.027 -2.2932 -1.3654  0.8176
  223MPD1     C 3383   1.069   4.258   0.061 -0.1081  0.2984 -0.0124
  223MPD1    C1 3384   1.046   4.316  17.642  1.1576 -0.0865  0.3201
  223MPD1    C2 3385   1.002   4.446  17.637 -0.5842  0.3918  0.5354
  223MPD1    C3 3386   0.964   4.514   0.050 -0.0495  0.2080 -0.2555
  223MPD1    C4 3387   0.974   4.449   0.171 -0.2614  0.3591 -0.9885
  223MPD1    C5 3388   1.026   4.326   0.176 -0.3700  0.1078  0.3417
  223MPD1     H 3389   0.992   4.483  17.535  0.4874 -1.4716 -0.2403
  223MPD1    H1 3390   0.952   4.507   0.259  0.4394 -1.0947  0.1459
  223MPD1    H2 3391   1.113   4.160   0.072 -1.2964 -0.0906  1.3540
  223MPD1    H3 3392   1.031   4.274   0.271 -1.3994 -1.2459 -0.3435
  223MPD1     N 3393   0.896   4.637   0.029 -0.6078  0.4388  0.4948
  223MPD1    H5 3394   0.876   4.672  17.637 -1.4732 -2.7117 -0.5086
  223MPD1    N1 3395   1.082   4.251  17.524  0.5623 -0.3028 -0.3785
  223MPD1    H6 3396   1.086   4.150  17.531  1.5812 -0.2912 -0.7762
  223MPD1    H7 3397   1.043   4.279  17.434  0.1596  0.6986  0.0960
  224MPD1     C 3398   1.521   1.605   9.037  0.1305 -0.2245 -0.3498
  224MPD1    C1 3399   1.651   1.585   8.995  0.1155  0.1849  0.0209
  224MPD1    C2 3400   1.755   1.658   9.057 -0.4598 -0.2385  0.6558
  224MPD1    C3 3401   1.727   1.741   9.165  0.1811  0.0140 -0.3997
  224MPD1    C4 3402   1.595   1.763   9.196  0.5490  0.8064 -0.4516
  224MPD1    C5 3403   1.492   1.689   9.141 -0.0275 -1.1774  0.0566
  224MPD1     H 3404   1.859   1.645   9.030 -0.7524  0.8707 -1.0214
  224MPD1    H1 3405   1.574   1.835   9.275  1.2571 -0.9594  1.3567
  224MPD1    H2 3406   1.440   1.548   8.992 -0.5020  1.9112 -1.8946
  224MPD1    H3 3407   1.391   1.709   9.176  0.0493 -2.3815  0.9726
  224MPD1     N 3408   1.828   1.819   9.241  0.4390 -0.6278 -0.1268
  224MPD1    H5 3409   1.793   1.864   9.325  2.8277  0.1684  0.4250
  224MPD1    N1 3410   1.665   1.495   8.882  0.0257  0.5825 -0.2142
  224MPD1    H6 3411   1.597   1.419   8.875 -0.0828  0.6937 -0.3630
  224MPD1    H7 3412   1.759   1.457   8.869  1.2549  3.4075  0.5662
  225MPD1     C 3413   4.154   3.620  12.016  0.6492  0.1563  0.4638
  225MPD1    C1 3414   4.131   3.602  11.880  0.1716 -0.8546 -0.4417
  225MPD1    C2 3415   4.004   3.622  11.847 -0.3121 -0.2828 -0.4811
  225MPD1    C3 3416   3.907   3.673  11.930 -0.7897 -0.7103 -0.3849
  225MPD1    C4 3417   3.937   3.688  12.064 -1.0481  0.3422 -0.8278
  225MPD1    C5 3418   4.062   3.667  12.106 -0.4116 -0.0071 -0.0726
  225MPD1     H 3419   3.977   3.601  11.744 -2.9165 -1.9345  0.5337
  225MPD1    H1 3420   3.863   3.738  12.126 -0.2690 -1.2486  1.4005
  225MPD1    H2 3421   4.250   3.613  12.065  1.2618  0.5893 -0.6676
  225MPD1    H3 3422   4.083   3.697  12.208 -1.1815 -0.9269  0.3494
  225MPD1     N 3423   3.777   3.707  11.889  0.1716  0.0041  0.1195
  225MPD1    H5 3424   3.723   3.756  11.959 -0.0399 -0.5754  0.3600
  225MPD1    N1 3425   4.223   3.548  11.789 -0.1394  0.4715 -0.1788
  225MPD1    H6 3426   4.314   3.548  11.834 -0.0024 -0.3031 -0.4551
  225MPD1    H7 3427   4.242   3.606  11.708 -0.8527  0.4509 -0.3659
  226MPD1     C 3428   1.747   3.861   8.684  0.6333  0.1545 -0.5400
  226MPD1    C1 3429   1.654   3.758   8.667 -0.0904 -0.6926  1.4595
  226MPD1    C2 3430   1.637   3.666   8.773  0.3391  0.4619  0.2558
  226MPD1    C3 3431   1.695   3.690   8.896 -0.2295  0.2228  0.0253
  226MPD1    C4 3432   1.773   3.798   8.915 -0.0074  0.1817 -1.0019
  226MPD1    C5 3433   1.809   3.881   8.808  0.1908 -0.5481  0.8813
  226MPD1     H 3434   1.565   3.586   8.760  1.8370 -0.9584  0.5817
  226MPD1    H1 3435   1.804   3.822   9.017  1.3889  0.2873 -1.4463
  226MPD1    H2 3436   1.778   3.925   8.602 -0.7020  2.1501  0.4947
  226MPD1    H3 3437   1.872   3.968   8.819 -0.5785  0.1528 -0.2410
  226MPD1     N 3438   1.680   3.594   9.000 -0.6796 -0.5681  0.7501
  226MPD1    H5 3439   1.621   3.517   8.971  0.2982 -1.1944  0.4597
  226MPD1    N1 3440   1.599   3.734   8.545  0.1392 -0.2360 -0.0188
  226MPD1    H6 3441   1.519   3.671   8.547  1.7961 -2.1564  3.3800
  226MPD1    H7 3442   1.580   3.826   8.505 -1.2138 -0.8961 -0.9193
  227MPD1     C 3443   0.944   3.168   9.491  0.5181 -0.6681  0.6928
  227MPD1    C1 3444   1.042   3.088   9.543  0.1637  0.5470  0.1671
  227MPD1    C2 3445   1.171   3.104   9.489  0.1845  0.1401 -0.1981
  227MPD1    C3 3446   1.202   3.207   9.401  0.2657 -0.6807  0.0070
  227MPD1    C4 3447   1.095   3.289   9.347 -0.2351  0.3753  0.8580
  227MPD1    C5 3448   0.968   3.264   9.391 -0.0817 -0.0859  0.2283
  227MPD1     H 3449   1.250   3.031   9.506 -0.8623 -1.5951 -2.6361
  227MPD1    H1 3450   1.106   3.375   9.282 -0.1472 -0.2440  0.0599
  227MPD1    H2 3451   0.841   3.156   9.521  0.7749 -2.7107  0.7406
  227MPD1    H3 3452   0.884   3.324   9.358 -0.2782 -0.4769  0.0210
  227MPD1     N 3453   1.341   3.235   9.364 -0.2603 -0.2268  0.2971
  227MPD1    H5 3454   1.414   3.195   9.421 -0.7321 -0.5859  0.6493
  227MPD1    N1 3455   1.017   3.024   9.665  0.4331 -0.2412  0.2437
  227MPD1    H6 3456   0.918   3.009   9.687  1.4023 -1.8136  3.6216
  227MPD1    H7 3457   1.073   2.939   9.674 -0.0562 -0.7138 -1.1498
  228MPD1     C 3458   0.942   1.393  12.757  0.0400 -0.4303 -0.2076
  228MPD1    C1 3459   0.903   1.276  12.819 -0.3991 -0.3718  0.0765
  228MPD1    C2 3460   0.764   1.254  12.830 -0.4945  0.3813  0.3120
  228MPD1    C3 3461   0.666   1.343  12.793 -0.7390  0.2004 -0.8270
  228MPD1    C4 3462   0.711   1.456  12.728 -0.5654  0.0155  0.3883
  228MPD1    C5 3463   0.846   1.475  12.717  0.1912  0.5956  1.0511
  228MPD1     H 3464   0.731   1.162  12.878  1.7198 -0.7832 -0.4210
  228MPD1    H1 3465   0.647   1.537  12.693  0.4274  1.6317  2.3234
  228MPD1    H2 3466   1.045   1.416  12.731  0.4226  1.1006  2.6685
  228MPD1    H3 3467   0.880   1.559  12.659  0.5034  0.3447  0.8725
  228MPD1     N 3468   0.533   1.303  12.797 -0.6368 -0.1452  0.1937
  228MPD1    H5 3469   0.508   1.231  12.864 -0.6285 -0.3303 -0.0049
  228MPD1    N1 3470   0.991   1.169  12.853 -0.0999 -0.4025  0.1811
  228MPD1    H6 3471   0.944   1.105  12.917 -0.2608  0.3358  0.8079
  228MPD1    H7 3472   1.083   1.200  12.885 -0.1708 -0.3958  0.3816
  229MPD1     C 3473   0.151   4.570  15.429  0.1738 -0.4111 -0.5171
  229MPD1    C1 3474   0.211   4.462  15.360  0.2946  0.3031  0.1588
  229MPD1    C2 3475   0.143   4.417  15.249  0.7717 -0.5390 -0.6440
  229MPD1    C3 3476   0.042   4.496  15.198 -0.7797  0.0919  0.4640
  229MPD1    C4 3477   4.709   4.599  15.262 -0.2996  0.3034  0.6614
  229MPD1    C5 3478   0.043   4.644  15.377  0.0251 -0.4512  0.4610
  229MPD1     H 3479   0.168   4.321  15.206  0.7655 -1.2651  0.9707
  229MPD1    H1 3480   4.620   4.649  15.226 -0.5395 -0.0512  0.7589
  229MPD1    H2 3481   0.192   4.600  15.525  0.1493 -0.0439 -0.6226
  229MPD1    H3 3482   0.004   0.001  15.436  1.2060  0.1371  0.4171
  229MPD1     N 3483   4.712   4.474  15.074 -0.5547 -0.3730 -0.0681
  229MPD1    H5 3484   4.622   4.516  15.055  0.1815  1.6536  0.9325
  229MPD1    N1 3485   0.293   4.365  15.422 -0.1861  0.3699  0.1282
  229MPD1    H6 3486   0.362   4.419  15.474  0.6163  0.8344 -1.4187
  229MPD1    H7 3487   0.337   4.301  15.357  2.3331  0.1953  1.9924
  230MPD1     C 3488   3.979   4.108  14.954 -0.0852  0.4709  0.7704
  230MPD1    C1 3489   4.089   4.077  15.032  0.0226  0.0391  0.0801
  230MPD1    C2 3490   4.204   4.147  15.000 -0.1825 -0.0992 -0.3553
  230MPD1    C3 3491   4.220   4.216  14.883 -0.0196 -0.2723  0.3603
  230MPD1    C4 3492   4.112   4.239  14.803  0.6563 -0.3469 -0.5952
  230MPD1    C5 3493   3.988   4.180  14.834  0.5441  0.1725 -0.0150
  230MPD1     H 3494   4.289   4.145  15.067  1.4222 -0.9287 -2.4012
  230MPD1    H1 3495   4.109   4.295  14.710 -1.2466 -0.1629 -0.4261
  230MPD1    H2 3496   3.882   4.074  14.989 -0.3142  1.2087  0.8646
  230MPD1    H3 3497   3.905   4.197  14.766  1.9794  0.5065 -1.6815
  230MPD1     N 3498   4.350   4.266  14.845 -0.4340 -0.4012  0.1762
  230MPD1    H5 3499   4.430   4.250  14.904  0.0860  1.0395 -0.1566
  230MPD1    N1 3500   4.061   4.021  15.155  0.3985  0.3180 -0.2061
  230MPD1    H6 3501   3.986   3.955  15.138  1.7326 -0.6824 -2.2277
  230MPD1    H7 3502   4.144   3.970  15.183  0.0466 -0.2036 -0.1215
  231MPD1     C 3503   2.708   1.633  15.372  0.9709  0.3401 -0.2831
  231MPD1    C1 3504   2.657   1.742  15.308  0.0141  0.0012 -0.0703
  231MPD1    C2 3505   2.720   1.776  15.196 -0.6451 -0.5334 -0.2529
  231MPD1    C3 3506   2.836   1.719  15.148 -0.2186 -0.0058  0.1289
  231MPD1    C4 3507   2.885   1.619  15.219  0.5163 -0.0663  0.7470
  231MPD1    C5 3508   2.818   1.580  15.332  0.7378 -0.9576 -0.1819
  231MPD1     H 3509   2.682   1.857  15.136 -0.6989  1.2849  2.2533
  231MPD1    H1 3510   2.982   1.574  15.201 -0.0944 -1.2461  0.3738
  231MPD1    H2 3511   2.657   1.601  15.461  0.9284 -0.3438 -0.5526
  231MPD1    H3 3512   2.857   1.493  15.384 -2.2067 -2.0432  0.1953
  231MPD1     N 3513   2.899   1.778  15.040  0.3324  0.1581 -0.5960
  231MPD1    H5 3514   2.865   1.864  14.999  3.2973  0.7549 -1.8111
  231MPD1    N1 3515   2.526   1.782  15.337  0.3473  0.0652 -0.4511
  231MPD1    H6 3516   2.510   1.881  15.316  2.3349  0.4603 -0.1170
  231MPD1    H7 3517   2.517   1.775  15.438 -0.7649 -0.2689 -0.5799
  232MPD1     C 3518   0.006   4.042   0.049  0.0340  0.2640  0.1267
  232MPD1    C1 3519   0.026   3.907   0.044  0.2959  0.1145  0.6885
  232MPD1    C2 3520   4.646   3.816   0.064 -0.2110  0.2523  0.7252
  232MPD1    C3 3521   4.521   3.861   0.100 -0.2143  0.5441  0.3651
  232MPD1    C4 3522   4.512   4.002   0.127  0.3728  0.2971  0.0498
  232MPD1    C5 3523   4.607   4.093   0.085  0.2048  0.1110  0.1362
  232MPD1     H 3524   4.658   3.709   0.051  1.4090  0.4698  0.4153
  232MPD1    H1 3525   4.423   4.051   0.164  0.5476  0.8648 -0.2798
  232MPD1    H2 3526   0.077   4.122   0.038  0.2418  0.1027  0.3081
  232MPD1    H3 3527   4.583   4.198   0.074  1.2298  0.2023 -1.3080
  232MPD1     N 3528   4.416   3.772   0.111 -0.1642 -0.7184  0.3653
  232MPD1    H5 3529   4.435   3.673   0.108  4.4782  0.1351  0.2598
  232MPD1    N1 3530   0.148   3.861  17.700 -0.2023 -0.8395 -0.0627
  232MPD1    H6 3531   0.228   3.921   0.018  0.5039 -1.8922  0.2933
  232MPD1    H7 3532   0.172   3.769   0.035 -1.6518 -0.7979  0.9982
  233MPD1     C 3533   0.186   2.171   0.817  0.4002  0.2865 -0.4000
  233MPD1    C1 3534   0.174   2.090   0.927  0.3649 -0.1607  0.2679
  233MPD1    C2 3535   0.288   2.018   0.963  0.2609 -0.4013  0.2037
  233MPD1    C3 3536   0.409   2.042   0.903  0.4487 -0.4599  0.1280
  233MPD1    C4 3537   0.418   2.129   0.797  0.4815  0.7087  0.0921
  233MPD1    C5 3538   0.309   2.196   0.763 -0.5812  0.7011  0.1920
  233MPD1     H 3539   0.279   1.940   1.038 -1.8761 -0.6330 -0.2936
  233MPD1    H1 3540   0.510   2.157   0.748  0.1369  1.2165 -0.2617
  233MPD1    H2 3541   0.102   2.233   0.786 -1.1946 -1.8063 -0.2500
  233MPD1    H3 3542   0.304   2.254   0.672  2.0476  0.2355 -0.2780
  233MPD1     N 3543   0.527   1.973   0.934 -0.2677 -0.1026 -0.2474
  233MPD1    H5 3544   0.608   2.006   0.882  0.0185 -2.0284 -1.0310
  233MPD1    N1 3545   0.049   2.079   0.984 -0.4428  0.5689 -0.0756
  233MPD1    H6 3546   4.698   2.113   0.926  0.4378  3.8808  0.6715
  233MPD1    H7 3547   0.039   1.993   1.038 -3.1582  1.2946  0.5597
  234MPD1     C 3548   3.265   0.600   9.456  0.8507  0.7529  0.1932
  234MPD1    C1 3549   3.191   0.618   9.575  0.0537 -0.4376  0.0178
  234MPD1    C2 3550   3.102   0.717   9.592 -0.7289 -0.1865  0.0341
  234MPD1    C3 3551   3.065   0.784   9.476  0.1388 -0.3101  0.2734
  234MPD1    C4 3552   3.134   0.776   9.358  0.7410 -0.0441 -0.4677
  234MPD1    C5 3553   3.235   0.685   9.355 -0.6242  0.6754 -0.8652
  234MPD1     H 3554   3.050   0.743   9.683  2.2900 -0.8824  1.9667
  234MPD1    H1 3555   3.100   0.828   9.269 -3.0345  0.7320  1.3987
  234MPD1    H2 3556   3.349   0.531   9.458 -1.3418 -1.8573  2.1883
  234MPD1    H3 3557   3.297   0.675   9.266  1.2712 -1.8287  0.7462
  234MPD1     N 3558   2.953   0.867   9.493 -0.2563  0.0805  0.2207
  234MPD1    H5 3559   2.913   0.873   9.586  3.2527  1.2395  1.6469
  234MPD1    N1 3560   3.227   0.542   9.683 -0.1799  0.0181  0.2732
  234MPD1    H6 3561   3.162   0.540   9.762  1.4252 -1.5020  1.5301
  234MPD1    H7 3562   3.256   0.447   9.663  2.0073  0.4988  1.1864
  235MPD1     C 3563   4.425   0.676   8.745 -0.4285 -0.1287 -0.5953
  235MPD1    C1 3564   4.386   0.544   8.757 -0.2551  0.0672  0.7846
  235MPD1    C2 3565   4.477   0.451   8.799  0.2105  0.6314  0.4456
  235MPD1    C3 3566   4.599   0.491   8.847 -0.3730  0.3404 -0.4018
  235MPD1    C4 3567   4.637   0.624   8.850 -0.4153 -0.1101 -0.7929
  235MPD1    C5 3568   4.546   0.716   8.808 -0.4063 -0.1542  0.3882
  235MPD1     H 3569   4.471   0.343   8.795 -0.4480  0.5537  3.2257
  235MPD1    H1 3570   0.012   0.662   8.868 -0.2626 -1.4256  1.1080
  235MPD1    H2 3571   4.362   0.747   8.693 -0.8704 -0.6905 -0.8262
  235MPD1    H3 3572   4.585   0.817   8.813 -0.4448 -0.2030  1.8652
  235MPD1     N 3573   4.691   0.391   8.890  0.5223 -0.1853 -0.2801
  235MPD1    H5 3574   4.661   0.294   8.891  2.2066 -0.7398 -2.8800
  235MPD1    N1 3575   4.266   0.504   8.695 -0.0447  0.2523 -0.1060
  235MPD1    H6 3576   4.271   0.525   8.595 -0.8660 -2.0377 -0.6391
  235MPD1    H7 3577   4.245   0.405   8.710 -0.6864  0.5919  1.2932
  236MPD1     C 3578   3.773   0.428   9.034 -0.2866 -0.1712  0.0045
  236MPD1    C1 3579   3.897   0.372   9.061 -0.7259 -0.5760 -0.0006
  236MPD1    C2 3580   3.918   0.303   9.183  0.5026  0.4029  1.0329
  236MPD1    C3 3581   3.824   0.326   9.284  0.8990 -0.6067  0.2635
  236MPD1    C4 3582   3.710   0.404   9.261 -0.5204  1.5419 -0.1569
  236MPD1    C5 3583   3.687   0.447   9.134  0.0394 -0.1257  0.6376
  236MPD1     H 3584   4.013   0.252   9.199 -0.0339 -0.1360  2.5522
  236MPD1    H1 3585   3.645   0.429   9.345 -2.4005 -3.5119 -0.0908
  236MPD1    H2 3586   3.754   0.479   8.941  2.0691 -0.0304 -0.4058
  236MPD1    H3 3587   3.606   0.513   9.104  0.4813 -0.8249 -2.1239
  236MPD1     N 3588   3.841   0.281   9.413  0.0476  0.4058  0.4349
  236MPD1    H5 3589   3.785   0.324   9.487  2.1013 -0.9487  2.7597
  236MPD1    N1 3590   3.981   0.358   8.955 -0.8377 -0.6646 -0.1061
  236MPD1    H6 3591   4.011   0.445   8.912  0.0997 -1.3521 -0.8375
  236MPD1    H7 3592   4.066   0.319   8.993 -0.7992  0.8354  1.3327
  237MPD1     C 3593   3.366   2.886  14.755 -0.4747 -0.6089  0.0112
  237MPD1    C1 3594   3.305   2.765  14.785 -0.4590  0.0985 -0.1807
  237MPD1    C2 3595   3.181   2.779  14.843  0.0977 -0.2901 -0.5313
  237MPD1    C3 3596   3.126   2.901  14.875  0.5471 -0.0809 -0.1352
  237MPD1    C4 3597   3.197   3.018  14.856  0.3315 -0.1151  0.4126
  237MPD1    C5 3598   3.315   3.009  14.787  0.7728 -0.4287  0.6600
  237MPD1     H 3599   3.128   2.688  14.868 -0.7430  0.7792  1.6641
  237MPD1    H1 3600   3.157   3.116  14.880  0.4213 -0.0486  0.2899
  237MPD1    H2 3601   3.467   2.881  14.716 -0.5830  0.3220 -0.4057
  237MPD1    H3 3602   3.353   3.101  14.744  0.2496  0.4371  2.0805
  237MPD1     N 3603   2.994   2.909  14.934  0.0488 -0.1822  0.0390
  237MPD1    H5 3604   2.958   3.003  14.941  0.9795  0.2456 -0.9362
  237MPD1    N1 3605   3.354   2.642  14.723 -0.0650 -0.1091 -0.5764
  237MPD1    H6 3606   3.337   2.557  14.776 -0.0253  2.3066  3.3524
  237MPD1    H7 3607   3.450   2.636  14.688 -0.9957 -0.5163 -3.0277
  238MPD1     C 3608   4.716   2.083  16.111 -0.4247 -0.3305  0.4284
  238MPD1    C1 3609   0.073   2.119  16.007  0.5339 -0.2073  0.3862
  238MPD1    C2 3610   0.028   2.104  15.876  0.0321 -0.5464  0.2760
  238MPD1    C3 3611   4.636   2.030  15.855 -0.6072  0.9885  0.6585
  238MPD1    C4 3612   4.563   1.981  15.959  0.2206 -0.1565  0.8031
  238MPD1    C5 3613   4.606   2.007  16.085 -0.8359  0.5877 -0.2943
  238MPD1     H 3614   0.097   2.119  15.793  0.1811 -2.8056 -0.0089
  238MPD1    H1 3615   4.474   1.919  15.952 -0.0734  0.2272  1.1649
  238MPD1    H2 3616   0.025   2.090  16.214  0.8466  2.2892 -0.1793
  238MPD1    H3 3617   4.564   1.947  16.165 -0.3531  2.7076  1.5244
  238MPD1     N 3618   4.590   1.999  15.722 -0.0154 -0.1508 -0.1075
  238MPD1    H5 3619   4.522   1.924  15.710  0.3926 -0.8158  1.6917
  238MPD1    N1 3620   0.195   2.187  16.035 -0.8057  0.6491  0.6013
  238MPD1    H6 3621   0.265   2.207  15.963 -1.6785  1.6310  0.0207
  238MPD1    H7 3622   0.249   2.153  16.114  0.6823 -1.0039 -1.1502
  239MPD1     C 3623   0.809   2.582  14.885 -0.3408 -0.2922  0.0220
  239MPD1    C1 3624   0.695   2.646  14.922 -0.0628 -0.1197 -0.3198
  239MPD1    C2 3625   0.603   2.683  14.824 -0.3958  0.4726 -0.0304
  239MPD1    C3 3626   0.615   2.634  14.696 -0.2858  0.5440  0.1754
  239MPD1    C4 3627   0.734   2.585  14.657  0.4818  0.1482 -0.2137
  239MPD1    C5 3628   0.826   2.554  14.752  0.7955  0.0215  1.0824
  239MPD1     H 3629   0.517   2.736  14.861  0.3600  0.7186  1.3954
  239MPD1    H1 3630   0.757   2.549  14.557 -0.8219 -0.3284 -0.3474
  239MPD1    H2 3631   0.876   2.542  14.960  0.0817 -0.3855 -0.4065
  239MPD1    H3 3632   0.907   2.488  14.722  1.9706  2.2423 -0.5873
  239MPD1     N 3633   0.512   2.659  14.609 -0.0261 -0.7997 -0.4016
  239MPD1    H5 3634   0.549   2.660  14.515  0.3125  1.4991 -0.2297
  239MPD1    N1 3635   0.676   2.685  15.056  0.3086  1.1640 -0.6048
  239MPD1    H6 3636   0.575   2.690  15.073 -0.0150  0.4347 -2.3214
  239MPD1    H7 3637   0.704   2.604  15.112 -1.4679  1.5017  0.7866
  240MPD1     C 3638   4.488   2.885  13.586  0.3178  0.0291 -0.2812
  240MPD1    C1 3639   4.522   2.772  13.510  0.1541 -0.3352 -0.4478
  240MPD1    C2 3640   4.526   2.656  13.579  0.5370 -0.2271  0.5170
  240MPD1    C3 3641   4.493   2.644  13.717 -0.0186 -0.4465  0.3204
  240MPD1    C4 3642   4.445   2.754  13.777 -0.4618 -0.6907  0.4703
  240MPD1    C5 3643   4.437   2.879  13.715 -0.0001  0.3915 -0.1669
  240MPD1     H 3644   4.563   2.569  13.526 -0.6370  0.4604 -1.4440
  240MPD1    H1 3645   4.406   2.746  13.878 -0.1701 -0.7792  0.5731
  240MPD1    H2 3646   4.494   2.985  13.545 -0.4859 -0.3661 -1.3475
  240MPD1    H3 3647   4.413   2.966  13.774 -2.4011 -0.6070  0.3556
  240MPD1     N 3648   4.504   2.532  13.794 -0.1073  0.3736 -0.2500
  240MPD1    H5 3649   4.474   2.540  13.890 -1.0909  1.4057 -0.6518
  240MPD1    N1 3650   4.588   2.784  13.390  0.5192  0.4938  0.2431
  240MPD1    H6 3651   4.555   2.869  13.343  0.6940 -0.1614 -1.0803
  240MPD1    H7 3652   4.585   2.698  13.335 -1.6805 -0.6744  2.2159
  241MPD1     C 3653   0.259   1.712  14.341 -0.3177 -1.1046 -1.0960
  241MPD1    C1 3654   0.290   1.755  14.212 -0.0576  0.4601 -0.3855
  241MPD1    C2 3655   0.215   1.863  14.156 -0.2501 -0.2688  0.6556
  241MPD1    C3 3656   0.122   1.928  14.233  0.5423 -0.5906  0.1505
  241MPD1    C4 3657   0.099   1.895  14.365 -0.1557  0.2337  0.6777
  241MPD1    C5 3658   0.177   1.791  14.422  0.2480 -0.5098 -0.1629
  241MPD1     H 3659   0.235   1.900  14.056  4.3347 -1.2323  1.1843
  241MPD1    H1 3660   0.035   1.951  14.432  0.5473  0.4254  1.1964
  241MPD1    H2 3661   0.305   1.623  14.383  1.6077 -0.2853 -1.4982
  241MPD1    H3 3662   0.169   1.771  14.528 -2.4668  0.7665 -0.1371
  241MPD1     N 3663   0.036   2.028  14.181 -0.3242  0.1425  0.0805
  241MPD1    H5 3664   4.683   2.056  14.240 -0.6888  1.1424 -0.8832
  241MPD1    N1 3665   0.363   1.664  14.132  0.3518 -0.2617  0.9989
  241MPD1    H6 3666   0.422   1.601  14.187 -0.6632 -0.7159  1.5605
  241MPD1    H7 3667   0.432   1.713  14.075 -1.2723 -0.0271 -0.7557
  242MPD1     C 3668   4.150   1.359  15.285 -1.1367 -0.2202 -0.1995
  242MPD1    C1 3669   4.108   1.328  15.160  0.3117 -0.3603  0.7145
  242MPD1    C2 3670   4.087   1.192  15.123  0.4421 -0.3961  0.6053
  242MPD1    C3 3671   4.104   1.097  15.219 -0.6174  0.2981  0.6883
  242MPD1    C4 3672   4.138   1.132  15.348  0.0074 -0.4285  0.2015
  242MPD1    C5 3673   4.161   1.264  15.380 -0.5010 -0.0550 -0.7567
  242MPD1     H 3674   4.065   1.170  15.019  0.5060  0.7732  0.3431
  242MPD1    H1 3675   4.151   1.056  15.425  4.1742  1.1873  1.0918
  242MPD1    H2 3676   4.156   1.463  15.314 -0.4640 -0.3021 -0.0445
  242MPD1    H3 3677   4.191   1.289  15.481  1.4207  1.8410 -1.8116
  242MPD1     N 3678   4.111   0.959  15.187 -0.6030 -0.5536 -0.1969
  242MPD1    H5 3679   4.161   0.901  15.254 -3.3167 -1.0336  1.4198
  242MPD1    N1 3680   4.071   1.430  15.075 -0.2969  0.5394 -0.2806
  242MPD1    H6 3681   4.143   1.499  15.093 -0.1617  0.1085  0.8702
  242MPD1    H7 3682   4.088   1.407  14.978  0.1095  0.7301 -0.2505
  243MPD1     C 3683   0.537   3.326   0.219  0.2060  0.3795 -0.4616
  243MPD1    C1 3684   0.551   3.188   0.190  0.4682 -0.2202 -0.1565
  243MPD1    C2 3685   0.595   3.164   0.059  0.6581 -0.7617 -1.0996
  243MPD1    C3 3686   0.622   3.260  17.664 -0.5656 -0.4788  0.2264
  243MPD1    C4 3687   0.610   3.389  17.695 -0.0427  0.0330 -0.9049
  243MPD1    C5 3688   0.565   3.423   0.123 -0.2202  0.2572 -0.1363
  243MPD1     H 3689   0.614   3.062   0.025  2.2018 -0.4021 -1.3236
  243MPD1    H1 3690   0.645   3.472  17.634  1.4542 -1.4208 -2.0376
  243MPD1    H2 3691   0.513   3.364   0.318  0.6843 -1.4766  0.3552
  243MPD1    H3 3692   0.553   3.529   0.144  0.3398  0.3352 -0.1978
  243MPD1     N 3693   0.674   3.213  17.544 -0.2241 -0.2744 -0.2506
  243MPD1    H5 3694   0.675   3.112  17.549  0.6913 -0.2214  0.6424
  243MPD1    N1 3695   0.551   3.090   0.293  0.1137 -0.1308  0.7782
  243MPD1    H6 3696   0.485   3.110   0.369  1.2444 -0.2992  1.8018
  243MPD1    H7 3697   0.507   3.001   0.270 -3.1793  1.5334  0.6611
  244MPD1     C 3698   0.916   2.417  17.326  0.0435  0.0174 -0.3171
  244MPD1    C1 3699   0.892   2.491  17.435 -0.0862  0.0211 -0.5768
  244MPD1    C2 3700   0.848   2.626  17.416  0.0776 -0.6317  0.0725
  244MPD1    C3 3701   0.831   2.681  17.288 -0.4453  0.5116 -0.1035
  244MPD1    C4 3702   0.861   2.595  17.179  1.0764 -0.1157 -0.1023
  244MPD1    C5 3703   0.891   2.468  17.203 -0.5817 -0.1858  0.7247
  244MPD1     H 3704   0.846   2.682  17.509  1.4183 -1.9300  0.8695
  244MPD1    H1 3705   0.876   2.631  17.078  1.1621 -1.0413 -0.4112
  244MPD1    H2 3706   0.964   2.321  17.339  0.0222 -0.3164 -2.6253
  244MPD1    H3 3707   0.921   2.407  17.119 -1.5995  0.0436  0.2002
  244MPD1     N 3708   0.791   2.815  17.274 -0.4248  0.4221 -0.0731
  244MPD1    H5 3709   0.761   2.861  17.359 -0.8307  1.1278 -0.5952
  244MPD1    N1 3710   0.926   2.445  17.562  0.5879  0.0254  0.4154
  244MPD1    H6 3711   0.882   2.487  17.644  0.9018  0.4198  0.3799
  244MPD1    H7 3712   0.929   2.343  17.564 -0.5257  0.0004  0.8522
  245MPD1     C 3713   3.003   4.390  12.996 -0.4528 -0.0707  0.0873
  245MPD1    C1 3714   2.927   4.502  13.003 -0.6227 -0.0066 -0.1954
  245MPD1    C2 3715   2.916   4.569  13.122  0.4400 -0.0713 -0.5887
  245MPD1    C3 3716   2.989   4.528  13.229 -0.5309 -0.4861  0.8125
  245MPD1    C4 3717   3.070   4.420  13.221 -0.5972 -0.7807 -0.3197
  245MPD1    C5 3718   3.075   4.353  13.097 -0.3119 -0.3794  0.0403
  245MPD1     H 3719   2.845   4.650  13.125 -0.8320 -1.2170 -0.0804
  245MPD1    H1 3720   3.130   4.376  13.300  2.7710  3.4786 -0.5147
  245MPD1    H2 3721   3.008   4.320  12.914  4.1349  2.0147 -1.4018
  245MPD1    H3 3722   3.133   4.262  13.081 -0.2187 -0.3087 -0.0204
  245MPD1     N 3723   2.984   4.617  13.341 -0.4083 -0.3742  0.3388
  245MPD1    H5 3724   2.936   4.705  13.330 -1.9811 -1.1675  0.8600
  245MPD1    N1 3725   2.849   4.545  12.896 -0.3938 -0.4459 -0.1323
  245MPD1    H6 3726   2.864   4.645  12.895  0.3203 -0.5361  1.7103
  245MPD1    H7 3727   2.889   4.517  12.806  3.1084 -2.2396  2.0108
  246MPD1     C 3728   0.516   1.533   9.828 -0.1519  0.5519 -0.4075
  246MPD1    C1 3729   0.427   1.631   9.790  0.0073 -0.5074 -0.0532
  246MPD1    C2 3730   0.377   1.633   9.664  0.2862 -0.9408 -0.0290
  246MPD1    C3 3731   0.419   1.546   9.565 -0.5236  0.7307 -0.2375
  246MPD1    C4 3732   0.499   1.445   9.600  0.0524  0.2371  0.9043
  246MPD1    C5 3733   0.548   1.440   9.729 -0.2062 -0.3865  0.1770
  246MPD1     H 3734   0.300   1.699   9.624  1.4024 -0.2078 -0.9656
  246MPD1    H1 3735   0.543   1.373   9.533  0.4551  0.0459  1.3776
  246MPD1    H2 3736   0.569   1.525   9.923 -0.9992  1.7083  0.1607
  246MPD1    H3 3737   0.614   1.359   9.756  3.0022  1.8976 -0.8803
  246MPD1     N 3738   0.354   1.563   9.440 -0.2913 -0.4105 -0.6573
  246MPD1    H5 3739   0.309   1.650   9.412 -1.1163 -0.8752 -0.7965
  246MPD1    N1 3740   0.349   1.703   9.887  0.4376 -1.0936  0.6494
  246MPD1    H6 3741   0.396   1.723   9.975  1.8705 -1.8069  0.0410
  246MPD1    H7 3742   0.314   1.790   9.847  0.3321 -1.7861 -0.7786
  247MPD1     C 3743   2.274   4.152  16.968 -0.3224 -0.4698 -0.2236
  247MPD1    C1 3744   2.308   4.278  16.929 -0.4356  0.3979 -0.6637
  247MPD1    C2 3745   2.367   4.295  16.803  0.0274  0.0998 -0.1159
  247MPD1    C3 3746   2.417   4.184  16.732  0.9605  0.7902 -0.5898
  247MPD1    C4 3747   2.377   4.064  16.776 -0.1651  0.1656  1.0052
  247MPD1    C5 3748   2.309   4.043  16.892 -0.3334  0.6650 -0.4182
  247MPD1     H 3749   2.376   4.394  16.759 -0.5442  0.2918  0.1932
  247MPD1    H1 3750   2.401   3.980  16.712  1.0060 -1.5885  3.7313
  247MPD1    H2 3751   2.213   4.133  17.056 -0.1050 -3.4926 -0.7046
  247MPD1    H3 3752   2.280   3.949  16.937 -3.1936  0.1264 -3.3905
  247MPD1     N 3753   2.473   4.197  16.600 -0.5155  0.5022  0.0794
  247MPD1    H5 3754   2.478   4.110  16.549 -1.4859  1.2670 -1.3472
  247MPD1    N1 3755   2.230   4.384  16.991  0.3840  0.3565  0.1379
  247MPD1    H6 3756   2.221   4.361  17.090 -1.2898 -0.3565 -0.1771
  247MPD1    H7 3757   2.278   4.473  16.987 -1.6711  1.4704  0.2141
  248MPD1     C 3758   1.210   0.902  17.695  1.1313  0.3539 -0.0005
  248MPD1    C1 3759   1.261   0.840   0.106 -0.5956 -0.5357 -0.3028
  248MPD1    C2 3760   1.211   0.881   0.231  0.5755 -0.1129  0.5531
  248MPD1    C3 3761   1.127   0.991   0.240  0.2018  0.7361 -0.7482
  248MPD1    C4 3762   1.090   1.063   0.127 -0.9834  0.6295  0.3324
  248MPD1    C5 3763   1.125   1.010   0.009 -0.5023  0.8575 -0.7100
  248MPD1     H 3764   1.257   0.837   0.318 -0.9514 -0.2464  1.2844
  248MPD1    H1 3765   1.022   1.147   0.129 -1.0154  0.5975  0.6665
  248MPD1    H2 3766   1.245   0.872  17.597 -0.0737  0.9908 -0.6181
  248MPD1    H3 3767   1.090   1.059  17.621 -0.1474 -0.2990 -1.4900
  248MPD1     N 3768   1.097   1.035   0.374 -0.0496 -0.7107  0.4864
  248MPD1    H5 3769   1.140   0.985   0.452  1.3421  1.4786  1.1012
  248MPD1    N1 3770   1.346   0.734   0.097  0.5344 -0.1137 -0.4595
  248MPD1    H6 3771   1.407   0.740   0.015 -0.8986  0.2848 -1.5011
  248MPD1    H7 3772   1.398   0.708   0.181 -1.3278  0.7696  0.9574
  249MPD1     C 3773   0.249   2.478  10.439 -0.0149 -0.4417  0.1454
  249MPD1    C1 3774   0.186   2.597  10.418 -0.2624 -0.0279  0.2718
  249MPD1    C2 3775   0.107   2.607  10.302  0.1834 -0.2794  0.0302
  249MPD1    C3 3776   0.079   2.507  10.216 -0.4703 -0.5212  0.4837
  249MPD1    C4 3777   0.146   2.389  10.236  0.4558  0.3587  0.3979
  249MPD1    C5 3778   0.227   2.377  10.349  0.6407  0.0562 -0.2550
  249MPD1     H 3779   0.063   2.705  10.285 -1.2826 -1.0340 -0.5214
  249MPD1    H1 3780   0.138   2.299  10.175 -0.9281  0.7079  0.0629
  249MPD1    H2 3781   0.331   2.476  10.510  0.2797 -0.9372 -0.2146
  249MPD1    H3 3782   0.288   2.289  10.366 -1.0715 -1.5707 -2.5942
  249MPD1     N 3783   4.713   2.539  10.111 -0.1028 -0.6319  0.1951
  249MPD1    H5 3784   4.663   2.627  10.116 -1.5841 -1.4958  0.3974
  249MPD1    N1 3785   0.227   2.707  10.495 -0.2883 -0.1529  0.4837
  249MPD1    H6 3786   0.248   2.681  10.591  1.9623 -0.4666 -0.0825
  249MPD1    H7 3787   0.154   2.778  10.504  1.5298  1.8995 -0.8441
  250MPD2     C 3788   1.056   3.042  13.572  0.1433 -0.3546  0.4090
  250MPD2    C1 3789   1.076   3.087  13.443 -0.2088 -0.6591  0.4680
  250MPD2    C2 3790   1.020   3.015  13.342 -0.9893 -0.4385  0.0256
  250MPD2    C3 3791   0.943   2.905  13.361 -0.6215 -0.0667  0.2096
  250MPD2    C4 3792   0.918   2.861  13.485  0.2829 -0.2812 -1.1314
  250MPD2    C5 3793   0.981   2.926  13.592 -0.0733 -0.4274 -0.1304
  250MPD2     H 3794   1.038   3.050  13.241  1.4411  2.9083  1.6386
  250MPD2    H1 3795   0.855   2.781  13.520 -0.3536  0.3835 -0.7565
  250MPD2    H2 3796   1.099   3.098  13.654  0.8417 -0.8907  0.4179
  250MPD2    H3 3797   0.957   2.886  13.690 -0.7407  0.9468  0.2575
  250MPD2     N 3798   0.893   2.820  13.253 -0.0071  0.4583 -0.5731
  250MPD2    H5 3799   0.840   2.741  13.287 -0.4137 -0.3119 -2.9891
  250MPD2    N1 3800   1.164   3.198  13.413  0.0024 -0.1824 -0.1878
  250MPD2    H7 3801   1.183   3.222  13.316  0.6418 -0.4944 -0.1420
  251TMC3    C1 3802   1.308   3.378  13.412 -0.0687 -0.2913  0.4669
  251TMC3    C2 3803   1.316   3.507  13.457  0.3659 -0.0672 -0.4995
  251TMC3    C3 3804   1.376   3.603  13.392 -0.1301  0.0435 -0.3989
  251TMC3    C4 3805   1.375   3.340  13.303 -0.1297 -0.0794  0.0910
  251TMC3    C5 3806   1.443   3.441  13.231 -0.2885 -0.4580 -0.6522
  251TMC3    C6 3807   1.438   3.575  13.274  0.1597  0.3784 -0.2337
  251TMC3     C 3808   1.229   3.282  13.495  0.3904  0.4824 -0.4273
  251TMC3     O 3809   1.197   3.303  13.609  0.0028  0.2911  0.1793
  251TMC3     H 3810   1.272   3.537  13.551  0.6691  0.3525 -0.4965
  251TMC3    H1 3811   1.374   3.239  13.264  4.0892  0.2399 -0.8099
  251TMC3    H2 3812   1.505   3.645  13.227 -0.1594  0.4649 -0.5536
  251TMC3    C7 3813   1.518   3.385  13.121 -0.2687 -0.2664 -0.0691
  251TMC3    C8 3814   1.316   3.740  13.417  0.3049 -0.5242 -0.1711
  251TMC3    O1 3815   1.508   3.268  13.088 -0.6047 -0.4339 -0.3861
  251TMC3    O2 3816   1.210   3.742  13.478  0.7941  0.1111 -0.3892
  252TMC3    C1 3817   2.112   4.118   9.365  0.5448 -0.3339  0.0847
  252TMC3    C2 3818   2.141   4.249   9.364 -0.0671  0.0339  0.5122
  252TMC3    C3 3819   2.051   4.332   9.296 -0.6791  0.3655  0.1982
  252TMC3    C4 3820   1.987   4.070   9.331  0.5451  0.4045  1.2216
  252TMC3    C5 3821   1.905   4.152   9.261 -0.4086  0.2188 -0.6779
  252TMC3    C6 3822   1.935   4.283   9.241 -0.7883  0.0370 -0.0439
  252TMC3     C 3823   2.211   4.038   9.434  0.1727  0.6084 -0.5609
  252TMC3     O 3824   2.313   4.100   9.471  0.0134 -0.1194 -0.2126
  252TMC3     H 3825   2.245   4.278   9.354 -0.9371  2.5840 -1.1246
  252TMC3    H1 3826   1.961   3.966   9.339  1.1239  0.1700  0.0076
  252TMC3    H2 3827   1.870   4.348   9.184 -1.0952 -1.1593 -1.0461
  252TMC3    C7 3828   1.774   4.104   9.213 -0.2657 -0.3806  0.5072
  252TMC3    C8 3829   2.090   4.464   9.250  0.2253 -0.0061 -0.1818
  252TMC3    O1 3830   1.723   4.158   9.114  0.5409  0.2410 -0.6763
  252TMC3    O2 3831   2.060   4.491   9.131 -0.0496 -0.4643  0.3571
  253MPD2     C 3832   2.474   3.701  15.895  0.3432 -0.0607  0.4110
  253MPD2    C1 3833   2.397   3.608  15.822 -0.7171  0.4290  0.3883
  253MPD2    C2 3834   2.458   3.506  15.759 -0.8245 -0.4072  0.0049
  253MPD2    C3 3835   2.595   3.486  15.764 -0.3196 -0.2356  0.3170
  253MPD2    C4 3836   2.663   3.566  15.845 -0.1169 -0.4407 -0.0233
  253MPD2    C5 3837   2.609   3.676  15.909  0.2555  0.0889  0.5153
  253MPD2     H 3838   2.396   3.443  15.696 -0.9165 -0.7293  0.4164
  253MPD2    H1 3839   2.767   3.545  15.867  0.0470  0.6201  0.2048
  253MPD2    H2 3840   2.426   3.776  15.957 -2.5483 -0.6175 -1.1624
  253MPD2    H3 3841   2.675   3.750  15.951 -0.7370  0.9147  0.6014
  253MPD2     N 3842   2.652   3.391  15.684  0.1508  0.5677  0.0097
  253MPD2    H5 3843   2.729   3.345  15.731  1.1503  1.5885 -0.6487
  253MPD2    N1 3844   2.258   3.621  15.809 -0.0648 -0.3438  0.5032
  253MPD2    H7 3845   2.213   3.546  15.757 -0.1797 -1.1917  1.8273
  254TMC3    C1 3846   2.621   3.182  15.558 -0.0232  0.5525  0.6897
  254TMC3    C2 3847   2.513   3.100  15.541  0.4349 -0.2893  0.1463
  254TMC3    C3 3848   2.518   2.972  15.592  0.1583  0.3153  0.4013
  254TMC3    C4 3849   2.734   3.136  15.608 -0.1064 -0.4351 -0.2137
  254TMC3    C5 3850   2.747   3.005  15.635  0.2168 -0.0522 -0.4221
  254TMC3    C6 3851   2.636   2.923  15.635  0.1131  0.5070 -0.1815
  254TMC3     C 3852   2.586   3.325  15.577  0.4117 -0.2358 -0.3777
  254TMC3     O 3853   2.485   3.361  15.519 -0.0529  0.0619  0.2947
  254TMC3     H 3854   2.419   3.148  15.519  0.2049  0.0579  1.8534
  254TMC3    H1 3855   2.809   3.211  15.630 -0.4165 -0.3323  0.5020
  254TMC3    H2 3856   2.637   2.824  15.678  0.5679  0.9850  0.8922
  254TMC3    C7 3857   2.822   2.977  15.751 -0.4228 -0.3577  0.2592
  254TMC3    C8 3858   2.414   2.929  15.677 -0.0557 -0.3303  0.4138
  254TMC3    O1 3859   2.760   2.938  15.849 -0.2785  0.0691  0.0269
  254TMC3    O2 3860   2.456   2.897  15.787 -0.8356 -0.0979  0.2774
  255MPD2     C 3861   1.401   1.017  10.902 -0.4755  0.3150 -1.2000
  255MPD2    C1 3862   1.423   1.067  10.774 -0.1624  0.0959  0.3628
  255MPD2    C2 3863   1.485   0.992  10.673  0.2825  0.0462  0.0091
  255MPD2    C3 3864   1.509   0.857  10.695  0.4849  0.8530  0.1053
  255MPD2    C4 3865   1.467   0.799  10.814  0.0356 -0.0427  0.0279
  255MPD2    C5 3866   1.424   0.878  10.921  0.5049  0.3511 -0.5549
  255MPD2     H 3867   1.532   1.030  10.583 -0.9741  2.5274  0.4019
  255MPD2    H1 3868   1.476   0.694  10.842 -1.6446  0.1298  1.2545
  255MPD2    H2 3869   1.364   1.075  10.986  0.5613 -0.7420 -0.0048
  255MPD2    H3 3870   1.396   0.825  11.012  0.0872  1.4677 -0.0372
  255MPD2     N 3871   1.568   0.790  10.579 -0.5316  0.1762 -0.1907
  255MPD2    H5 3872   1.610   0.847  10.507 -2.5785  0.8914 -0.8019
  255MPD2    N1 3873   1.384   1.195  10.725 -0.3155 -0.3280  0.0096
  255MPD2    H7 3874   1.386   1.219  10.626 -0.6346 -2.4969 -0.5251
  256TMC3    C1 3875   1.252   1.391  10.738  0.2096 -0.5797  0.1323
  256TMC3    C2 3876   1.222   1.508  10.803  0.0123 -0.3702  0.7684
  256TMC3    C3 3877   1.107   1.572  10.766 -0.5051 -0.8256 -0.0831
  256TMC3    C4 3878   1.161   1.341  10.655  0.0248 -0.8874  0.1756
  256TMC3    C5 3879   1.038   1.396  10.645 -0.5129  0.9188 -0.0151
  256TMC3    C6 3880   1.011   1.517  10.691 -0.1863 -0.5262  0.0663
  256TMC3     C 3881   1.334   1.295  10.807 -0.1236  0.2652 -0.7597
  256TMC3     O 3882   1.358   1.322  10.924 -0.6623 -0.3801 -1.0813
  256TMC3     H 3883   1.296   1.555  10.867 -1.8128  0.6990  2.1017
  256TMC3    H1 3884   1.174   1.242  10.613  1.7161  0.1905 -1.8525
  256TMC3    H2 3885   0.926   1.582  10.674 -1.3000 -1.2593  2.8685
  256TMC3    C7 3886   0.934   1.314  10.588  0.0888 -0.1395 -0.8160
  256TMC3    C8 3887   1.099   1.714  10.749 -0.0435 -0.6036  0.1097
  256TMC3    O1 3888   0.968   1.212  10.532  0.2202  0.5548  0.3881
  256TMC3    O2 3889   1.026   1.769  10.826  0.1870 -0.2008  0.2872
  257MPD2     C 3890   0.554   3.628  13.371  0.8158 -0.0116  0.1118
  257MPD2    C1 3891   0.496   3.560  13.273  0.8891 -0.6801 -0.3587
  257MPD2    C2 3892   0.441   3.443  13.310  0.5355 -0.7576 -0.4481
  257MPD2    C3 3893   0.419   3.407  13.442 -0.0905  0.2961 -0.2819
  257MPD2    C4 3894   0.469   3.489  13.546 -0.4429  0.4701  0.2932
  257MPD2    C5 3895   0.538   3.597  13.502  0.5652 -0.8259  1.1918
  257MPD2     H 3896   0.399   3.374  13.237 -1.7374  1.2513 -1.0683
  257MPD2    H1 3897   0.458   3.466  13.651  3.3299 -1.0108  0.3908
  257MPD2    H2 3898   0.613   3.717  13.356 -1.2508  1.5483  1.2570
  257MPD2    H3 3899   0.572   3.668  13.576  2.3939  1.0617 -1.4580
  257MPD2     N 3900   0.341   3.296  13.466 -0.1682 -0.5355  0.1758
  257MPD2    H5 3901   0.320   3.234  13.388 -2.0052  2.1452 -1.4685
  257MPD2    N1 3902   0.502   3.598  13.137  0.1433  0.8708  0.2497
  257MPD2    H7 3903   0.574   3.665  13.111  0.8275  0.9072  2.2986
  258TMC3    C1 3904   0.240   3.117  13.583  0.7051 -0.0769  0.1776
  258TMC3    C2 3905   0.269   3.034  13.470  0.4309 -0.0342  0.3267
  258TMC3    C3 3906   0.204   2.917  13.473  0.2428 -0.3569 -0.3322
  258TMC3    C4 3907   0.167   3.075  13.693  0.1994  0.5036  0.0066
  258TMC3    C5 3908   0.110   2.952  13.686  0.3397  0.1140 -0.6045
  258TMC3    C6 3909   0.139   2.871  13.587  0.2087 -1.4769 -0.2390
  258TMC3     C 3910   0.301   3.254  13.588 -0.3258  0.3961 -0.6562
  258TMC3     O 3911   0.276   3.317  13.690 -0.3126  0.2924 -0.3504
  258TMC3     H 3912   0.310   3.078  13.380 -1.5322 -0.2418 -0.6797
  258TMC3    H1 3913   0.155   3.140  13.779  2.5131  0.1297  0.6142
  258TMC3    H2 3914   0.079   2.781  13.574 -2.4868  0.2454  0.3361
  258TMC3    C7 3915   0.045   2.908  13.810  0.2253  0.1366  0.1225
  258TMC3    C8 3916   0.215   2.832  13.355  0.5402 -0.2580  0.3394
  258TMC3    O1 3917   0.026   2.991  13.899  0.2128 -0.3580 -0.6885
  258TMC3    O2 3918   0.253   2.891  13.255  0.0406 -0.5386 -0.4084
  259MPD2     C 3919   2.799   4.200   1.058  0.3234 -0.4890 -0.0857
  259MPD2    C1 3920   2.890   4.167   1.153 -0.0472 -0.2651  0.1536
  259MPD2    C2 3921   3.019   4.151   1.121 -0.2207  0.3910 -0.9388
  259MPD2    C3 3922   3.061   4.179   0.995 -0.6755 -0.4607  0.5142
  259MPD2    C4 3923   2.970   4.228   0.903  0.0035  0.7532 -0.0987
  259MPD2    C5 3924   2.837   4.236   0.929  0.1708 -0.0651  0.6087
  259MPD2     H 3925   3.092   4.114   1.192  0.8807  1.3092 -1.5892
  259MPD2    H1 3926   3.002   4.266   0.806  0.4118  0.9860  0.1263
  259MPD2    H2 3927   2.696   4.213   1.092 -0.1097 -2.8462 -0.5029
  259MPD2    H3 3928   2.767   4.273   0.854 -0.4372  1.4483  1.9028
  259MPD2     N 3929   3.199   4.161   0.969 -0.0600 -0.0587  0.0716
  259MPD2    H5 3930   3.256   4.120   1.042  0.5276  3.0658  1.3929
  259MPD2    N1 3931   2.837   4.147   1.287  0.2918  0.1852 -0.7787
  259MPD2    H7 3932   2.737   4.151   1.303  1.1197  0.4708  4.1649
  260TMC3    C1 3933   3.402   4.153   0.847  0.1874 -0.3463 -0.5448
  260TMC3    C2 3934   3.441   4.029   0.891 -0.3729 -0.5394 -0.1034
  260TMC3    C3 3935   3.559   3.982   0.853 -0.2558 -0.4354 -0.0388
  260TMC3    C4 3936   3.485   4.235   0.773  0.7630  0.7359 -0.2412
  260TMC3    C5 3937   3.607   4.177   0.737  0.3522  0.1855  0.3091
  260TMC3    C6 3938   3.648   4.051   0.779  0.3292  0.3578  0.2350
  260TMC3     C 3939   3.260   4.192   0.854 -0.6595 -0.4790  0.3916
  260TMC3     O 3940   3.217   4.254   0.758 -0.0748 -0.2657  0.3247
  260TMC3     H 3941   3.374   3.961   0.942 -0.0321 -0.4960  0.3910
  260TMC3    H1 3942   3.456   4.329   0.728 -1.5352 -0.3763 -1.1018
  260TMC3    H2 3943   3.747   4.014   0.755 -0.5357 -1.4835 -0.4647
  260TMC3    C7 3944   3.667   4.217   0.605 -0.9784  0.3540 -0.6593
  260TMC3    C8 3945   3.560   3.835   0.832  0.0320 -0.2314 -0.2018
  260TMC3    O1 3946   3.726   4.123   0.549 -0.5536  0.2231  0.3662
  260TMC3    O2 3947   3.522   3.753   0.916 -0.4472  0.1863  0.5185
  261MPD2     C 3948   0.601   2.856  12.462 -0.3480 -0.5701 -0.4339
  261MPD2    C1 3949   0.703   2.898  12.550 -0.1729  0.0290 -0.6172
  261MPD2    C2 3950   0.741   3.028  12.533  0.2943 -0.3025 -0.2037
  261MPD2    C3 3951   0.705   3.104  12.424 -0.6512 -0.7648 -0.7587
  261MPD2    C4 3952   0.644   3.036  12.318  0.0913 -0.8138  0.1596
  261MPD2    C5 3953   0.594   2.908  12.341  0.2068 -0.1218 -0.0532
  261MPD2     H 3954   0.804   3.072  12.609 -0.2699 -0.6434  0.4521
  261MPD2    H1 3955   0.653   3.062  12.213 -2.0225  1.0732  0.4345
  261MPD2    H2 3956   0.551   2.760  12.462 -0.4302 -0.5187  2.0190
  261MPD2    H3 3957   0.542   2.851  12.264  0.1784  0.3812 -0.4077
  261MPD2     N 3958   0.761   3.227  12.410 -0.2101 -0.0584 -0.0441
  261MPD2    H5 3959   0.826   3.252  12.484  0.6592 -2.1759 -0.1070
  261MPD2    N1 3960   0.740   2.835  12.669 -0.6651 -0.1286  0.2228
  261MPD2    H7 3961   0.820   2.880  12.711  1.0139 -0.8400 -2.2227
  262TMC3    C1 3962   0.812   3.432  12.314 -0.5866  0.9841  0.6378
  262TMC3    C2 3963   0.773   3.546  12.240  0.0624 -0.2440 -0.1786
  262TMC3    C3 3964   0.861   3.651  12.231  0.6030  0.4428 -0.6285
  262TMC3    C4 3965   0.940   3.418  12.358  0.3080 -0.4985 -0.1726
  262TMC3    C5 3966   1.016   3.528  12.369 -0.0865 -0.5716 -0.3147
  262TMC3    C6 3967   0.980   3.641  12.301  0.3575 -0.3250 -0.1011
  262TMC3     C 3968   0.730   3.316  12.303 -0.0086 -0.1227  0.5078
  262TMC3     O 3969   0.643   3.308  12.216  0.0180  0.1712 -0.0870
  262TMC3     H 3970   0.678   3.550  12.189 -1.5658  0.0810  2.8590
  262TMC3    H1 3971   0.985   3.326  12.392  0.9702 -0.1091  0.0108
  262TMC3    H2 3972   1.049   3.723  12.284 -0.2867  0.4909  1.1816
  262TMC3    C7 3973   1.153   3.494  12.348 -0.4378 -0.5562  0.4433
  262TMC3    C8 3974   0.887   3.689  12.095 -0.3223 -0.5533 -0.4443
  262TMC3    O1 3975   1.234   3.563  12.407  0.2288 -0.3361 -0.5351
  262TMC3    O2 3976   1.006   3.697  12.058  0.0686 -0.7809 -0.4995
  263MPD2     C 3977   2.012   2.375  11.097 -0.8240  0.7499  0.1873
  263MPD2    C1 3978   2.075   2.496  11.118  0.2532 -0.5010 -0.3405
  263MPD2    C2 3979   2.083   2.586  11.015 -0.2199 -0.6604 -0.3826
  263MPD2    C3 3980   2.076   2.549  10.884 -0.3320 -0.1420 -0.9156
  263MPD2    C4 3981   2.023   2.427  10.859 -0.5604 -0.3248 -0.0701
  263MPD2    C5 3982   1.997   2.340  10.965  0.4750  0.7825  0.1189
  263MPD2     H 3983   2.130   2.682  11.035 -0.4377 -0.8251  0.9213
  263MPD2    H1 3984   2.017   2.387  10.758 -0.5357  1.8725 -0.9244
  263MPD2    H2 3985   1.994   2.302  11.175  0.6283 -0.5908 -0.7227
  263MPD2    H3 3986   1.965   2.237  10.951  0.8648  0.3426  2.4596
  263MPD2     N 3987   2.134   2.630  10.789 -0.6146  0.0615 -0.4449
  263MPD2    H5 3988   2.171   2.721  10.812 -2.6325  0.8489 -0.2732
  263MPD2    N1 3989   2.095   2.536  11.251  0.4589  0.7581 -0.6301
  263MPD2    H7 3990   2.069   2.483  11.333 -0.5720 -1.0206 -2.1016
  264TMC3    C1 3991   2.217   2.702  10.581 -0.6405  0.7791  0.5825
  264TMC3    C2 3992   2.198   2.828  10.626 -0.3538 -0.2678 -0.3291
  264TMC3    C3 3993   2.268   2.925  10.553 -0.9550  0.2217  0.4410
  264TMC3    C4 3994   2.286   2.674  10.464 -0.6498 -0.3588  0.9506
  264TMC3    C5 3995   2.346   2.774  10.399  0.6293  0.0950 -0.3840
  264TMC3    C6 3996   2.348   2.912  10.442 -0.3999 -0.1853  0.1862
  264TMC3     C 3997   2.151   2.597  10.651 -0.0873 -0.9399  0.7346
  264TMC3     O 3998   2.114   2.497  10.593  0.1185 -0.1925  0.2387
  264TMC3     H 3999   2.130   2.856  10.706  1.1713  1.1815  0.4679
  264TMC3    H1 4000   2.296   2.570  10.433  0.9073 -0.7396  2.7368
  264TMC3    H2 4001   2.380   2.994  10.379 -0.5926 -1.7540 -1.9439
  264TMC3    C7 4002   2.469   2.728  10.339 -0.4493  0.2958 -0.3542
  264TMC3    C8 4003   2.295   3.054  10.614  0.0302 -0.2358  1.3054
  264TMC3    O1 4004   2.508   2.625  10.394  0.2743 -0.3525  0.1181
  264TMC3    O2 4005   2.391   3.111  10.566 -0.2854  0.3244 -0.4431
  265MPD2     C 4006   4.210   2.802  15.735 -0.1905  0.4885  0.2086
  265MPD2    C1 4007   4.096   2.844  15.661  0.2060  0.2740 -0.4701
  265MPD2    C2 4008   4.081   2.809  15.534  0.6456 -0.4501 -0.2215
  265MPD2    C3 4009   4.179   2.751  15.463 -0.4812 -0.7047 -0.2538
  265MPD2    C4 4010   4.291   2.705  15.523 -0.1780 -0.3170 -0.2014
  265MPD2    C5 4011   4.310   2.731  15.662 -0.0490 -0.2509  0.8250
  265MPD2     H 4012   3.984   2.829  15.490  0.4707  1.9517  1.2540
  265MPD2    H1 4013   4.372   2.654  15.472  0.2990  1.2046 -0.9600
  265MPD2    H2 4014   4.238   2.827  15.836 -0.0816 -1.2449  0.6164
  265MPD2    H3 4015   4.402   2.688  15.701  0.5520  0.9780  0.7503
  265MPD2     N 4016   4.172   2.720  15.323 -0.8318  0.2691 -0.2434
  265MPD2    H5 4017   4.258   2.680  15.286 -0.9343 -0.1428 -0.0350
  265MPD2    N1 4018   4.001   2.928  15.720  0.3382  0.3391  0.0153
  265MPD2    H7 4019   3.920   2.961  15.667  0.2337 -0.9561 -0.6312
  266TMC3    C1 4020   3.889   3.065  15.875  0.3530  0.7276  0.2998
  266TMC3    C2 4021   3.860   3.094  16.008 -0.5068 -0.9743  0.3142
  266TMC3    C3 4022   3.808   3.218  16.040 -0.1297  0.8085 -0.0648
  266TMC3    C4 4023   3.867   3.165  15.783  0.5052  0.9869  0.0068
  266TMC3    C5 4024   3.799   3.281  15.811 -0.0994  0.0916 -0.2761
  266TMC3    C6 4025   3.777   3.313  15.943 -0.1111 -0.3674  0.0417
  266TMC3     C 4026   3.994   2.962  15.851  0.0884 -0.7393 -0.2306
  266TMC3     O 4027   4.054   2.922  15.952 -0.1285  1.2320  0.3036
  266TMC3     H 4028   3.903   3.035  16.088  1.4007  1.8226  1.3573
  266TMC3    H1 4029   3.910   3.157  15.684 -2.8202  0.7885 -1.4435
  266TMC3    H2 4030   3.711   3.393  15.974  1.7025  1.3285 -0.4959
  266TMC3    C7 4031   3.735   3.368  15.712  0.1131  0.0531  0.7337
  266TMC3    C8 4032   3.774   3.232  16.183  0.2177 -0.0297  0.4313
  266TMC3    O1 4033   3.669   3.464  15.753  0.3551 -0.0767 -0.0243
  266TMC3    O2 4034   3.756   3.131  16.243  0.6033 -0.4715 -0.4035
  267MPD2     C 4035   1.536   3.819  16.998 -0.3986 -0.0779  0.6522
  267MPD2    C1 4036   1.426   3.816  17.074 -0.4679 -0.8253 -0.2095
  267MPD2    C2 4037   1.301   3.830  17.014 -0.2246 -0.1706 -0.0294
  267MPD2    C3 4038   1.287   3.822  16.878 -0.1549 -0.7237  0.4735
  267MPD2    C4 4039   1.406   3.814  16.807 -0.1174 -0.6970 -0.6784
  267MPD2    C5 4040   1.530   3.810  16.862  0.3782  0.8182  0.4074
  267MPD2     H 4041   1.216   3.852  17.077  0.6219 -1.0120  1.3921
  267MPD2    H1 4042   1.399   3.818  16.698 -0.3532  1.5900 -0.5866
  267MPD2    H2 4043   1.628   3.824  17.055  0.6057 -0.5010 -0.9235
  267MPD2    H3 4044   1.617   3.805  16.797 -0.3066 -1.2885 -0.3773
  267MPD2     N 4045   1.168   3.846  16.799  0.2890  0.5149  0.9965
  267MPD2    H5 4046   1.176   3.847  16.698  1.6293 -2.1972  1.0589
  267MPD2    N1 4047   1.444   3.825  17.217 -0.2241 -0.7123  0.4031
  267MPD2    H7 4048   1.536   3.858  17.246 -1.6862  1.6697  2.2896
  268TMC3    C1 4049   1.373   3.863  17.440  0.2948  0.2196 -0.3213
  268TMC3    C2 4050   1.456   3.970  17.447  0.6787 -0.5736  0.4703
  268TMC3    C3 4051   1.447   4.047  17.557 -0.4959  0.0958  0.1371
  268TMC3    C4 4052   1.281   3.835  17.533  1.0795 -0.8520 -0.9411
  268TMC3    C5 4053   1.291   3.902  17.652  0.6129  0.1447 -0.5273
  268TMC3    C6 4054   1.372   4.011  17.670  0.0598  0.5634  0.3988
  268TMC3     C 4055   1.346   3.802  17.308  0.0650  0.4306 -0.5299
  268TMC3     O 4056   1.248   3.726  17.297 -0.1042 -0.0958 -0.4066
  268TMC3     H 4057   1.525   3.993  17.366  2.0533  0.3506  1.9141
  268TMC3    H1 4058   1.217   3.748  17.524  1.3068 -0.7625 -3.4823
  268TMC3    H2 4059   1.342   4.065   0.057 -0.2135 -0.3466  0.8574
  268TMC3    C7 4060   1.193   3.870   0.052  0.4786  0.1693 -1.0610
  268TMC3    C8 4061   1.498   4.182  17.560 -0.2642  0.9094  0.3298
  268TMC3    O1 4062   1.237   3.888   0.164 -0.4308  0.2516  0.5491
  268TMC3    O2 4063   1.518   4.245  17.664 -0.1412  0.5358 -0.4983
  269MPD2     C 4064   1.519   3.331  16.041  1.2096  0.8614 -0.5442
  269MPD2    C1 4065   1.383   3.355  16.027  0.6428 -0.2351  0.2188
  269MPD2    C2 4066   1.334   3.485  16.031 -0.0854 -0.3370 -0.3333
  269MPD2    C3 4067   1.417   3.594  16.032 -0.0006 -0.5577 -0.3317
  269MPD2    C4 4068   1.556   3.570  16.049  0.6316 -0.0745  0.5069
  269MPD2    C5 4069   1.599   3.441  16.064  0.1504 -0.2606  0.6624
  269MPD2     H 4070   1.229   3.508  16.021  0.2074  2.0598  1.9458
  269MPD2    H1 4071   1.629   3.648  16.067 -0.0781  0.3273  1.6100
  269MPD2    H2 4072   1.561   3.231  16.045 -0.3115  0.2877  1.3573
  269MPD2    H3 4073   1.704   3.426  16.088  0.6110 -0.0746 -1.2642
  269MPD2     N 4074   1.369   3.722  16.044  0.1676 -0.8189 -0.0257
  269MPD2    H5 4075   1.268   3.724  16.037  0.1047 -2.7159  0.2137
  269MPD2    N1 4076   1.291   3.245  16.027  0.0229 -0.3670 -0.0761
  269MPD2    H7 4077   1.337   3.155  16.040  1.0709  0.4217  1.7814
  270TMC3    C1 4078   1.101   3.107  16.014  0.3958 -0.1265  0.4176
  270TMC3    C2 4079   0.972   3.097  15.960  0.1832 -0.5640  0.1475
  270TMC3    C3 4080   0.931   2.970  15.925  0.5647  0.4126  0.1831
  270TMC3    C4 4081   1.174   2.995  16.051  0.7184  0.3455  0.1983
  270TMC3    C5 4082   1.124   2.876  16.022 -0.2372  0.5345 -0.6777
  270TMC3    C6 4083   0.998   2.857  15.966 -1.1250  0.1575 -0.2563
  270TMC3     C 4084   1.158   3.243  15.994 -0.2278 -0.8309 -0.6670
  270TMC3     O 4085   1.085   3.333  15.962  0.1116  0.3226 -0.2779
  270TMC3     H 4086   0.917   3.184  15.927  0.7973 -1.2816 -2.8080
  270TMC3    H1 4087   1.250   3.010  16.127  1.1797  0.3473 -0.2662
  270TMC3    H2 4088   0.951   2.762  15.947 -2.3640  1.0282 -1.5298
  270TMC3    C7 4089   1.216   2.773  16.011  0.3571  0.7234  0.2018
  270TMC3    C8 4090   0.818   2.958  15.843  0.0089  0.3602 -0.0835
  270TMC3    O1 4091   1.334   2.799  15.988  0.2007 -0.6304  0.6406
  270TMC3    O2 4092   0.721   3.027  15.859 -0.1151  0.0893 -0.1436
  271MPD2     C 4093   0.643   3.513  14.138 -0.0181  0.3116  0.7158
  271MPD2    C1 4094   0.557   3.408  14.179  0.4204 -0.1673 -0.3915
  271MPD2    C2 4095   0.425   3.415  14.135  0.3554 -0.1287  0.0673
  271MPD2    C3 4096   0.376   3.524  14.061 -0.8029 -0.2138  0.0198
  271MPD2    C4 4097   0.465   3.632  14.040 -0.9014 -0.0813 -0.7368
  271MPD2    C5 4098   0.595   3.626  14.081  0.0611 -0.3129  0.3104
  271MPD2     H 4099   0.372   3.323  14.155  0.4312  0.4532  2.9170
  271MPD2    H1 4100   0.435   3.715  13.977 -0.0407  0.6489 -0.1770
  271MPD2    H2 4101   0.749   3.518  14.161  0.0944  0.1718  0.2260
  271MPD2    H3 4102   0.656   3.714  14.068 -0.7772  0.3241  0.7343
  271MPD2     N 4103   0.243   3.527  14.014  0.3460 -0.7636 -0.6068
  271MPD2    H5 4104   0.212   3.618  13.982 -1.7871 -1.2363  0.1687
  271MPD2    N1 4105   0.602   3.296  14.254  0.5602  0.1586 -0.2498
  271MPD2    H7 4106   0.536   3.219  14.266  0.2469  0.3865 -0.5035
  272TMC3    C1 4107   0.740   3.163  14.384 -0.5530 -0.0158 -0.0544
  272TMC3    C2 4108   0.849   3.083  14.365  0.1047  0.0671 -0.0336
  272TMC3    C3 4109   0.872   2.974  14.445  0.9188 -0.2035 -0.0507
  272TMC3    C4 4110   0.656   3.137  14.482 -0.3378 -0.0455  0.0306
  272TMC3    C5 4111   0.687   3.033  14.565  0.1454  0.8355  0.2761
  272TMC3    C6 4112   0.791   2.942  14.549  0.1033 -0.1509  0.1870
  272TMC3     C 4113   0.726   3.278  14.302  0.4566 -0.0026 -0.1129
  272TMC3     O 4114   0.835   3.339  14.280 -0.4871  0.2142  0.1067
  272TMC3     H 4115   0.916   3.101  14.282  1.7223 -0.5694  1.1264
  272TMC3    H1 4116   0.566   3.193  14.506 -1.2638 -0.7412 -1.8374
  272TMC3    H2 4117   0.807   2.858  14.615  1.9992  0.9121  1.0694
  272TMC3    C7 4118   0.588   3.016  14.675 -0.8086 -0.5296  0.2498
  272TMC3    C8 4119   0.966   2.879  14.392 -0.2704 -0.0158 -0.9145
  272TMC3    O1 4120   0.471   3.033  14.641  0.1084  0.2089  0.0400
  272TMC3    O2 4121   1.036   2.916  14.299  0.0193 -0.1890  0.0488
  273MPD2     C 4122   2.546   1.097  11.932 -0.2224 -0.2937 -0.1773
  273MPD2    C1 4123   2.626   1.206  11.925  0.0144  0.7460 -0.1685
  273MPD2    C2 4124   2.622   1.279  11.810 -0.1816  0.0108  0.2511
  273MPD2    C3 4125   2.540   1.239  11.704 -0.7632  0.3513  0.6142
  273MPD2    C4 4126   2.457   1.128  11.721  0.8692  0.2542  0.0864
  273MPD2    C5 4127   2.450   1.061  11.839  0.3662  0.0719  0.6063
  273MPD2     H 4128   2.691   1.362  11.798 -1.6216  0.8941 -1.9047
  273MPD2    H1 4129   2.385   1.092  11.649 -1.2931  5.0886 -0.1451
  273MPD2    H2 4130   2.549   1.046  12.027  0.5571 -1.9185 -1.0725
  273MPD2    H3 4131   2.388   0.973  11.855  2.2443 -1.6964 -1.9234
  273MPD2     N 4132   2.522   1.319  11.588 -0.1757  0.5033  0.5268
  273MPD2    H5 4133   2.445   1.292  11.529 -0.6281  1.8134  0.5290
  273MPD2    N1 4134   2.702   1.239  12.036 -0.5740  0.8880  0.3576
  273MPD2    H7 4135   2.697   1.171  12.111 -1.4171  0.6232  0.0661
  274TMC3    C1 4136   2.521   1.526  11.470  0.4340  0.6691 -0.1516
  274TMC3    C2 4137   2.475   1.476  11.351 -0.1329 -0.2864 -0.9383
  274TMC3    C3 4138   2.470   1.553  11.240  0.7609 -0.6470  0.4548
  274TMC3    C4 4139   2.566   1.658  11.474 -0.5609  0.2580  0.6016
  274TMC3    C5 4140   2.571   1.722  11.355 -1.0133 -0.5134  0.0179
  274TMC3    C6 4141   2.535   1.671  11.236  0.2728 -0.1980  0.1677
  274TMC3     C 4142   2.578   1.447  11.568 -0.6992 -0.5344  0.6056
  274TMC3     O 4143   2.667   1.502  11.627 -0.3530 -0.7587 -0.0287
  274TMC3     H 4144   2.426   1.380  11.346 -2.6475  0.8794  1.3468
  274TMC3    H1 4145   2.604   1.704  11.565 -0.9447  0.3954  0.6918
  274TMC3    H2 4146   2.521   1.742  11.155  1.0196 -1.8892 -1.4594
  274TMC3    C7 4147   2.601   1.862  11.375  0.4881  0.2175  0.3410
  274TMC3    C8 4148   2.382   1.509  11.137  0.1052 -0.9064 -0.4216
  274TMC3    O1 4149   2.544   1.913  11.468  0.1881 -0.1241 -0.7230
  274TMC3    O2 4150   2.286   1.445  11.173  0.7677  0.2021  0.4869
  275MPD2     C 4151   2.234   3.880  14.806 -0.4307  0.3768  0.3421
  275MPD2    C1 4152   2.164   3.924  14.919  0.0617  0.2171  0.3958
  275MPD2    C2 4153   2.047   3.857  14.943  0.2969 -0.0929 -0.0369
  275MPD2    C3 4154   1.997   3.756  14.859 -0.0831 -0.5491  0.6401
  275MPD2    C4 4155   2.069   3.721  14.747  0.0824 -0.2491 -0.2639
  275MPD2    C5 4156   2.184   3.790  14.719  0.4578  0.3808 -0.6251
  275MPD2     H 4157   2.001   3.884  15.038  0.3173  0.0152 -0.0579
  275MPD2    H1 4158   2.049   3.632  14.689  0.2264  0.1150 -0.8711
  275MPD2    H2 4159   2.322   3.937  14.779  1.5489 -2.0165  1.5852
  275MPD2    H3 4160   2.242   3.757  14.633  0.0558  0.0146 -0.7590
  275MPD2     N 4161   1.881   3.676  14.890  0.6966  0.6911 -0.1359
  275MPD2    H5 4162   1.852   3.613  14.816 -2.9626  3.2180 -0.8441
  275MPD2    N1 4163   2.200   4.031  15.003  0.3873 -0.6616  0.6471
  275MPD2    H7 4164   2.141   4.051  15.082 -1.7438 -1.9191 -0.6303
  276TMC3    C1 4165   2.291   4.236  15.080  0.0789 -0.0226 -0.7029
  276TMC3    C2 4166   2.173   4.266  15.138  0.5406  0.5993 -0.4846
  276TMC3    C3 4167   2.152   4.388  15.188 -0.5938 -0.2457 -0.3916
  276TMC3    C4 4168   2.390   4.333  15.059  0.3135 -0.5204 -0.1200
  276TMC3    C5 4169   2.368   4.453  15.123 -0.0334  0.1983  0.1246
  276TMC3    C6 4170   2.250   4.486  15.187 -0.2441  0.3801  0.3475
  276TMC3     C 4171   2.297   4.125  14.984 -0.3926 -0.5004  0.3346
  276TMC3     O 4172   2.393   4.116  14.909  0.0356 -0.0183 -0.3754
  276TMC3     H 4173   2.092   4.196  15.153 -0.2806  1.3811 -1.2819
  276TMC3    H1 4174   2.484   4.306  15.012  0.6665 -0.5052  0.5754
  276TMC3    H2 4175   2.241   4.574  15.249 -1.5458  0.7745 -0.4048
  276TMC3    C7 4176   2.484   4.537  15.149 -0.3339  0.2470 -0.1082
  276TMC3    C8 4177   2.050   4.410  15.289  0.2157  1.0444  0.5057
  276TMC3    O1 4178   2.469   4.627  15.228  0.1169  0.4741  0.4923
  276TMC3    O2 4179   2.018   4.528  15.318  0.6400 -0.0825  0.2741
  277MPD2     C 4180   3.961   3.101  13.266 -0.4936  0.5344 -0.2098
  277MPD2    C1 4181   3.837   3.083  13.209 -0.0041  0.5819 -0.3555
  277MPD2    C2 4182   3.737   3.008  13.278 -0.0845  0.2438 -0.4739
  277MPD2    C3 4183   3.768   2.953  13.399  0.4200 -0.2571  0.6665
  277MPD2    C4 4184   3.902   2.962  13.450 -0.1796  0.2894  0.1955
  277MPD2    C5 4185   3.994   3.031  13.380 -0.2064 -0.0770 -0.4018
  277MPD2     H 4186   3.635   3.000  13.242 -0.2271 -1.2390  0.2782
  277MPD2    H1 4187   3.936   2.915  13.541 -2.1850 -0.2031  0.6974
  277MPD2    H2 4188   4.038   3.165  13.223 -0.7926  1.0951  0.0853
  277MPD2    H3 4189   4.093   3.042  13.421 -0.4324 -0.5878  0.2889
  277MPD2     N 4190   3.662   2.884  13.462 -0.3876  0.3156  1.0196
  277MPD2    H5 4191   3.574   2.874  13.411 -0.4359  1.0557  0.9601
  277MPD2    N1 4192   3.813   3.161  13.092  0.4480  0.6083  0.3382
  277MPD2    H7 4193   3.893   3.220  13.072 -0.4346  1.3850 -0.8866
  278TMC3    C1 4194   3.537   2.790  13.645 -0.3812 -0.8317  0.1669
  278TMC3    C2 4195   3.464   2.719  13.558 -0.1833 -0.1710  0.2430
  278TMC3    C3 4196   3.344   2.673  13.608  0.2523  0.8240  0.2956
  278TMC3    C4 4197   3.493   2.851  13.759  0.2999 -0.4545  0.2228
  278TMC3    C5 4198   3.358   2.825  13.779 -0.1171 -0.6044  0.9110
  278TMC3    C6 4199   3.281   2.734  13.707  0.1151  0.7863  0.0132
  278TMC3     C 4200   3.657   2.856  13.599  0.4475  0.5241  0.2685
  278TMC3     O 4201   3.736   2.884  13.691  1.0036 -0.0035  0.5715
  278TMC3     H 4202   3.501   2.690  13.460 -2.0246  1.4457 -0.9154
  278TMC3    H1 4203   3.540   2.938  13.802  1.4626 -0.0006 -2.0108
  278TMC3    H2 4204   3.187   2.691  13.740  0.2768  0.7811  0.4588
  278TMC3    C7 4205   3.291   2.866  13.906 -0.3654 -0.5176  0.8283
  278TMC3    C8 4206   3.286   2.549  13.549  0.5202 -0.0346  0.1641
  278TMC3    O1 4207   3.368   2.910  13.991 -0.2432 -0.1153  0.4911
  278TMC3    O2 4208   3.162   2.531  13.572  0.5400 -0.0812 -0.2007
  279MPD2     C 4209   2.946   2.735   0.145  0.1090 -0.2616 -0.2948
  279MPD2    C1 4210   2.909   2.862   0.176  0.4354 -0.3501  0.3159
  279MPD2    C2 4211   2.928   2.965   0.078  0.3850 -0.7790  0.0412
  279MPD2    C3 4212   3.007   2.942  17.668  0.6560  0.7888 -0.0845
  279MPD2    C4 4213   3.065   2.819  17.652  0.3872 -0.1050  0.4255
  279MPD2    C5 4214   3.030   2.719   0.035  1.0050  1.2057 -0.2947
  279MPD2     H 4215   2.878   3.060   0.095 -0.3646 -1.3328  0.9088
  279MPD2    H1 4216   3.141   2.800  17.577  0.0812  0.6198 -0.0659
  279MPD2    H2 4217   2.918   2.643   0.195 -0.1882  0.1514  0.2955
  279MPD2    H3 4218   3.064   2.621   0.003 -2.8550 -0.9750  2.2991
  279MPD2     N 4219   3.030   3.043  17.569 -0.3476  0.0765  0.2320
  279MPD2    H5 4220   3.087   3.017  17.490 -0.4585 -2.6545  1.0268
  279MPD2    N1 4221   2.817   2.871   0.281  0.3320 -0.0600 -0.3155
  279MPD2    H7 4222   2.790   2.780   0.316 -2.0742  0.7187 -0.1756
  280TMC3    C1 4223   2.659   2.987   0.425  0.0504  0.0121 -0.3642
  280TMC3    C2 4224   2.604   2.869   0.467  0.5055 -0.1727 -0.2592
  280TMC3    C3 4225   2.501   2.865   0.558  0.2477 -0.8682  0.5769
  280TMC3    C4 4226   2.608   3.111   0.460 -0.4627 -0.1467  0.2371
  280TMC3    C5 4227   2.507   3.106   0.549  0.4090 -0.1180  0.4049
  280TMC3    C6 4228   2.445   2.992   0.591 -0.0861 -0.4075 -0.9188
  280TMC3     C 4229   2.769   2.992   0.329  0.7185  0.0547 -0.0360
  280TMC3     O 4230   2.824   3.102   0.320 -0.3820  0.3544  0.0311
  280TMC3     H 4231   2.643   2.772   0.440 -3.0502 -1.7842  0.4421
  280TMC3    H1 4232   2.649   3.205   0.425 -0.0258  0.3653  2.1653
  280TMC3    H2 4233   2.357   2.989   0.654  1.0610 -0.9596  0.6512
  280TMC3    C7 4234   2.421   3.228   0.555  0.3019 -1.2123 -0.2486
  280TMC3    C8 4235   2.414   2.747   0.570 -0.2854 -0.1581  0.5362
  280TMC3    O1 4236   2.363   3.249   0.657  0.1771  0.2932 -0.1572
  280TMC3    O2 4237   2.291   2.765   0.594  0.2905  0.3439  0.0058
  281TMC3    C1 4238   1.767   3.027  13.128 -0.2306  0.5247  0.0940
  281TMC3    C2 4239   1.826   3.079  13.017  0.1204 -0.2591 -0.3252
  281TMC3    C3 4240   1.771   3.038  12.898 -0.0605  0.4739 -0.0026
  281TMC3    C4 4241   1.666   2.940  13.126  0.6734  0.0821 -0.1344
  281TMC3    C5 4242   1.616   2.905  13.003  0.2272 -0.1324 -0.4766
  281TMC3    C6 4243   1.670   2.944  12.887  0.2826  0.3071 -0.4381
  281TMC3     C 4244   1.782   3.089  13.256  0.2115 -0.1070 -0.2045
  281TMC3     O 4245   1.772   3.009  13.348  0.1282 -0.1399 -0.3182
  281TMC3     H 4246   1.898   3.159  13.029  0.3198 -0.4072 -0.5307
  281TMC3    H1 4247   1.636   2.899  13.222 -0.9187 -1.9216 -1.4950
  281TMC3    H2 4248   1.634   2.909  12.791  2.5841 -2.8295 -0.1496
  281TMC3    C7 4249   1.542   2.784  12.989 -0.2900 -0.3711 -0.1475
  281TMC3    C8 4250   1.820   3.083  12.766 -0.2783  0.1218  0.6500
  281TMC3    O1 4251   1.503   2.748  12.879 -0.6496  0.3686 -0.6659
  281TMC3    O2 4252   1.807   2.999  12.678 -0.7709 -0.0827  0.3883
  282MPD2     C 4253   3.788   0.248  15.041 -0.0731 -0.2905  0.0833
  282MPD2    C1 4254   3.669   0.265  15.109  0.1519 -0.0933  0.1027
  282MPD2    C2 4255   3.550   0.257  15.036 -0.4132 -0.2101  0.2600
  282MPD2    C3 4256   3.553   0.226  14.898 -0.3536  0.2577  1.4221
  282MPD2    C4 4257   3.674   0.201  14.840  0.1654  0.2736  0.2606
  282MPD2    C5 4258   3.788   0.204  14.913  0.3851  0.0832  0.3414
  282MPD2     H 4259   3.456   0.265  15.090 -0.1252  1.9747  0.4596
  282MPD2    H1 4260   3.686   0.173  14.736  1.0586  1.1988  0.1203
  282MPD2    H2 4261   3.884   0.243  15.093 -0.0468 -0.4375  0.0215
  282MPD2    H3 4262   3.880   0.168  14.869 -0.4194 -0.6258 -0.7487
  282MPD2     N 4263   3.426   0.214  14.836  0.3702 -0.1055  0.4358
  282MPD2    H5 4264   3.349   0.235  14.899 -0.8504  0.9495 -1.4113
  282MPD2    N1 4265   3.655   0.282  15.252  0.6533 -0.2012 -0.0632
  282MPD2    H7 4266   3.564   0.280  15.298  1.1701  0.5357  0.9835
  283TMC3    C1 4267   3.712   0.308  15.474 -0.0493 -0.1395 -0.7163
  283TMC3    C2 4268   3.774   0.405  15.546 -0.0269  0.5692  0.6577
  283TMC3    C3 4269   3.715   0.442  15.663 -0.7095  0.9621 -0.0614
  283TMC3    C4 4270   3.596   0.239  15.513  0.0701 -0.3601  0.7634
  283TMC3    C5 4271   3.537   0.287  15.628 -0.6732  0.4136  0.0247
  283TMC3    C6 4272   3.596   0.388  15.712 -0.6429 -0.0924 -0.3932
  283TMC3     C 4273   3.755   0.307  15.337 -0.4898  0.0853  0.4237
  283TMC3     O 4274   3.872   0.341  15.308 -0.0603  0.1648  0.1803
  283TMC3     H 4275   3.872   0.442  15.516 -0.8507  1.2222 -1.2108
  283TMC3    H1 4276   3.540   0.174  15.446 -1.3131  1.8561 -0.2005
  283TMC3    H2 4277   3.567   0.408  15.815 -2.2233  1.6550 -1.1635
  283TMC3    C7 4278   3.427   0.216  15.694 -0.9179 -0.6915  0.2327
  283TMC3    C8 4279   3.739   0.575  15.709  0.8827  0.1185 -0.3947
  283TMC3    O1 4280   3.425   0.224  15.816  0.0894  0.4973  0.0980
  283TMC3    O2 4281   3.727   0.598  15.829  0.0565  0.2295  0.3657
  284MPD2     C 4282   2.083   4.478  11.104 -0.4667  0.8399  0.2143
  284MPD2    C1 4283   2.212   4.455  11.155 -0.3409 -0.8321  0.5299
  284MPD2    C2 4284   2.236   4.376  11.268  0.5193 -0.1640 -0.2617
  284MPD2    C3 4285   2.136   4.309  11.330  0.0894  0.0563 -0.4661
  284MPD2    C4 4286   2.006   4.339  11.288  0.0844 -0.2833  0.2716
  284MPD2    C5 4287   1.981   4.413  11.175 -0.7166  0.2042  0.1742
  284MPD2     H 4288   2.341   4.355  11.282  0.8340  1.4071 -0.2173
  284MPD2    H1 4289   1.924   4.294  11.344  1.0053 -2.2220  0.0741
  284MPD2    H2 4290   2.053   4.543  11.022  0.6320  0.1482 -0.7445
  284MPD2    H3 4291   1.877   4.429  11.150 -0.3759  0.9833 -0.7357
  284MPD2     N 4292   2.163   4.223  11.439  0.3815 -0.4905  0.2142
  284MPD2    H5 4293   2.260   4.214  11.464  0.8274 -0.5804 -1.5463
  284MPD2    N1 4294   2.328   4.502  11.084 -0.4825  0.6303 -0.2356
  284MPD2    H7 4295   2.418   4.470  11.117 -0.9818  1.4663  1.8902
  285TMC3    C1 4296   2.452   4.593  10.924 -0.4034 -0.0227  0.1042
  285TMC3    C2 4297   2.513   4.474  10.895 -0.6768 -0.2597  0.7702
  285TMC3    C3 4298   2.651   4.466  10.890 -0.2158 -0.5708  0.2207
  285TMC3    C4 4299   2.523   4.707  10.932 -0.0785  0.4903 -0.7504
  285TMC3    C5 4300   2.654   4.691  10.942 -0.2700  0.4243  0.4760
  285TMC3    C6 4301   2.724   4.579  10.931  0.4381 -0.1304 -0.4618
  285TMC3     C 4302   2.324   4.599  10.992 -0.0995 -0.1266 -0.1008
  285TMC3     O 4303   2.250   4.693  10.970  0.1115  0.0302 -0.1547
  285TMC3     H 4304   2.457   4.382  10.883 -2.0897  0.6776  0.2947
  285TMC3    H1 4305   2.474   0.077  10.951  0.0527  0.4909 -0.4173
  285TMC3    H2 4306   2.831   4.598  10.940  0.4816 -0.6850  0.1625
  285TMC3    C7 4307   2.717   0.081  10.992 -0.0139  0.2789  0.4460
  285TMC3    C8 4308   2.715   4.337  10.920  0.5069  0.0819  0.6227
  285TMC3    O1 4309   2.689   0.186  10.932 -0.1967  0.5244 -0.6976
  285TMC3    O2 4310   2.644   4.240  10.900  0.4339 -0.1409  0.1608
  286MPD2     C 4311   1.478   2.518   1.274 -0.1104  0.0037  0.4718
  286MPD2    C1 4312   1.529   2.555   1.152 -0.3367 -0.3906 -0.3466
  286MPD2    C2 4313   1.665   2.514   1.124  0.9496  0.0911 -0.0451
  286MPD2    C3 4314   1.744   2.459   1.217 -0.0761  0.1713  0.1149
  286MPD2    C4 4315   1.686   2.425   1.337  0.1173 -0.3479 -0.0164
  286MPD2    C5 4316   1.560   2.453   1.363  0.4343 -0.3179 -0.3073
  286MPD2     H 4317   1.700   2.530   1.023  0.8981 -0.9586 -0.2251
  286MPD2    H1 4318   1.749   2.386   1.417 -2.5392 -4.7034 -0.0305
  286MPD2    H2 4319   1.376   2.543   1.302 -0.4569 -1.6579  0.6617
  286MPD2    H3 4320   1.524   2.429   1.463 -0.2284  1.1783 -0.1822
  286MPD2     N 4321   1.873   2.410   1.198 -0.7361  0.4595  0.4300
  286MPD2    H5 4322   1.927   2.359   1.268 -1.2550 -2.2131 -1.1106
  286MPD2    N1 4323   1.457   2.617   1.047 -0.9751  0.7018 -0.1951
  286MPD2    H7 4324   1.498   2.622   0.954  1.2501 -0.3356  0.7397
  287TMC3    C1 4325   2.060   2.318   1.088 -0.1678  0.2628  0.1191
  287TMC3    C2 4326   2.089   2.226   0.994  0.0602 -0.0758  0.6801
  287TMC3    C3 4327   2.200   2.145   1.008 -0.1160  0.5159 -0.4486
  287TMC3    C4 4328   2.135   2.319   1.203 -0.0340  0.1653  0.3520
  287TMC3    C5 4329   2.249   2.236   1.208 -0.4931 -0.4783 -0.4586
  287TMC3    C6 4330   2.280   2.138   1.117  0.1356 -0.0988  0.4782
  287TMC3     C 4331   1.936   2.398   1.072  0.5928 -0.1710  0.9072
  287TMC3     O 4332   1.891   2.420   0.960  0.1842  0.2565  0.2317
  287TMC3     H 4333   2.045   2.221   0.895  0.5868 -2.8209  0.5843
  287TMC3    H1 4334   2.123   2.384   1.289  0.7588  1.7431 -0.7207
  287TMC3    H2 4335   2.358   2.064   1.130 -1.3207 -1.7814 -0.4991
  287TMC3    C7 4336   2.335   2.246   1.320  0.6775 -0.0418  0.0215
  287TMC3    C8 4337   2.210   2.042   0.912  0.0203  0.7009 -0.4011
  287TMC3    O1 4338   2.296   2.247   1.434 -0.2935 -0.3296  0.4807
  287TMC3    O2 4339   2.114   2.006   0.850  0.0886  0.2895  0.3716
  288TMC3    C1 4340   4.152   2.405  14.381 -0.1088 -0.3237  0.6965
  288TMC3    C2 4341   4.068   2.373  14.478 -0.1807  0.4729 -0.5474
  288TMC3    C3 4342   3.935   2.356  14.454 -0.1707 -0.3469  0.0620
  288TMC3    C4 4343   4.115   2.408  14.248  0.0485 -0.1476 -0.5685
  288TMC3    C5 4344   3.977   2.394  14.226  0.6459  0.4452  0.0383
  288TMC3    C6 4345   3.888   2.366  14.328 -0.6391 -0.3710 -0.5350
  288TMC3     C 4346   4.291   2.436  14.412  0.1650 -0.0439  0.2960
  288TMC3     O 4347   4.354   2.491  14.320  0.1506  0.5593 -0.0356
  288TMC3     H 4348   4.088   2.375  14.584 -0.7782 -2.3055 -0.3659
  288TMC3    H1 4349   4.181   2.433  14.166  0.6482  0.0566 -0.0257
  288TMC3    H2 4350   3.781   2.369  14.310 -0.5281 -1.8587 -1.4257
  288TMC3    C7 4351   3.921   2.412  14.099  0.2427  0.6257  0.2361
  288TMC3    C8 4352   3.849   2.406  14.555  0.4641  0.0316  0.2578
  288TMC3    O1 4353   3.819   2.340  14.085  0.0411  0.0342  0.1105
  288TMC3    O2 4354   3.883   2.511  14.617 -0.4933  0.9613 -0.5297
  289MPD2     C 4355   4.180   2.074  14.432  0.2899 -0.0057  0.0797
  289MPD2    C1 4356   4.180   2.089  14.295 -0.6534  0.4894  0.6868
  289MPD2    C2 4357   4.066   2.055  14.224  0.1832 -0.2844 -0.3774
  289MPD2    C3 4358   3.956   2.002  14.288 -1.3306 -0.1873  0.6816
  289MPD2    C4 4359   3.957   1.993  14.425  0.1865 -0.1209  0.6008
  289MPD2    C5 4360   4.071   2.025  14.498  0.6499 -0.9858  0.7082
  289MPD2     H 4361   4.064   2.068  14.116  1.4228  0.1805 -0.3438
  289MPD2    H1 4362   3.869   1.963  14.482 -1.2409  0.5009 -1.2773
  289MPD2    H2 4363   4.262   2.097  14.498  0.7707 -1.4875 -0.0201
  289MPD2    H3 4364   4.078   2.018  14.606 -0.8918  1.3278  0.9651
  289MPD2     N 4365   3.837   1.975  14.215 -0.6239 -0.1139 -0.4816
  289MPD2    H5 4366   3.749   1.954  14.262  0.2982  0.9094  1.6957
  289MPD2    N1 4367   4.297   2.132  14.227 -0.7094 -0.0729 -0.2523
  289MPD2    H7 4368   4.389   2.134  14.269 -0.2136 -1.5118 -1.2817
  290TMC3    C1 4369   3.708   1.945  14.021  0.2069  0.6027 -0.3462
  290TMC3    C2 4370   3.650   2.068  14.018  0.5861 -0.1968  0.1275
  290TMC3    C3 4371   3.561   2.086  13.919 -0.1002 -0.2159  0.0889
  290TMC3    C4 4372   3.678   1.833  13.941  0.3039  0.4649  0.5655
  290TMC3    C5 4373   3.589   1.867  13.839 -0.4365  0.8026 -0.3648
  290TMC3    C6 4374   3.529   1.993  13.831 -0.4801 -0.3321 -0.1114
  290TMC3     C 4375   3.841   1.937  14.082  0.2022 -0.9092  0.2113
  290TMC3     O 4376   3.931   1.901  14.007 -0.1824 -0.2561  0.6044
  290TMC3     H 4377   3.678   2.150  14.083 -1.2194 -0.0028  0.6625
  290TMC3    H1 4378   3.727   1.737  13.955 -0.4391  0.1533  1.0447
  290TMC3    H2 4379   3.451   2.017  13.760 -0.2767  0.0969 -0.1885
  290TMC3    C7 4380   3.521   1.764  13.766  0.1329  0.4542  0.0234
  290TMC3    C8 4381   3.475   2.204  13.925  0.3345 -0.3439  0.3211
  290TMC3    O1 4382   3.447   1.801  13.676 -0.1782  0.7383  0.2679
  290TMC3    O2 4383   3.371   2.205  13.861  0.3986  0.2369  0.8770
  291MPD2     C 4384   2.820   1.970   0.476  0.0477  1.0446  0.0956
  291MPD2    C1 4385   2.946   1.929   0.518 -0.2540 -0.4979 -0.5217
  291MPD2    C2 4386   3.063   2.005   0.500  0.3416  0.4427  0.1353
  291MPD2    C3 4387   3.058   2.124   0.439 -0.1780  0.0036  0.2588
  291MPD2    C4 4388   2.936   2.172   0.401  0.1338 -0.2478  0.3571
  291MPD2    C5 4389   2.820   2.092   0.415  0.6274 -0.2370 -0.0401
  291MPD2     H 4390   3.155   1.957   0.531  0.6200  0.4966 -0.5983
  291MPD2    H1 4391   2.931   2.270   0.355 -1.0993 -0.9708 -1.0493
  291MPD2    H2 4392   2.724   1.923   0.494  1.2080 -1.1028  0.6254
  291MPD2    H3 4393   2.731   2.144   0.385 -0.1321 -0.8205  1.1921
  291MPD2     N 4394   3.164   2.213   0.413 -0.3200 -0.4621 -0.7376
  291MPD2    H5 4395   3.143   2.312   0.403  2.4274  0.2649  0.7663
  291MPD2    N1 4396   2.950   1.803   0.579  1.0476  0.2896  0.5795
  291MPD2    H7 4397   3.031   1.779   0.635  0.6205  0.4342  1.2600
  292TMC3    C1 4398   2.887   1.583   0.634 -0.1751 -0.9067 -0.4420
  292TMC3    C2 4399   2.959   1.578   0.750  0.3362 -0.6571 -0.0613
  292TMC3    C3 4400   2.979   1.458   0.811 -0.3730 -0.2964 -0.2328
  292TMC3    C4 4401   2.841   1.470   0.565  0.8436 -0.1278  0.0479
  292TMC3    C5 4402   2.877   1.354   0.623 -0.0664  0.4631 -0.0020
  292TMC3    C6 4403   2.947   1.340   0.743  0.4658 -0.1144  0.4264
  292TMC3     C 4404   2.855   1.708   0.567 -0.9879  0.4842  0.0947
  292TMC3     O 4405   2.759   1.696   0.492  0.2799 -0.3390 -0.0052
  292TMC3     H 4406   2.966   1.667   0.812 -1.0632  0.3547 -1.3611
  292TMC3    H1 4407   2.798   1.477   0.466 -0.9729 -0.2587  0.8266
  292TMC3    H2 4408   2.968   1.244   0.786  1.0012 -1.6541 -3.2353
  292TMC3    C7 4409   2.850   1.226   0.560 -0.0872  0.2492  0.8749
  292TMC3    C8 4410   2.989   1.460   0.956 -0.3934 -0.7611 -0.2622
  292TMC3    O1 4411   2.924   1.134   0.583  0.3734  0.1946  0.2997
  292TMC3    O2 4412   3.024   1.565   1.010 -0.0969  0.0021 -0.0221
  293MPD2     C 4413   0.642   3.370  12.754  0.2077  0.4347 -0.2398
  293MPD2    C1 4414   0.562   3.270  12.810  0.2336  0.4856 -0.8301
  293MPD2    C2 4415   0.580   3.235  12.951 -0.1856 -1.3320  0.2112
  293MPD2    C3 4416   0.681   3.298  13.022 -0.5781  0.5941 -0.1533
  293MPD2    C4 4417   0.765   3.390  12.957 -0.2776 -0.3265  0.1157
  293MPD2    C5 4418   0.752   3.412  12.820  0.7820  0.2270  0.1776
  293MPD2     H 4419   0.511   3.165  12.995  0.4925 -1.5605  0.9177
  293MPD2    H1 4420   0.842   3.438  13.015  1.4907 -0.0661 -2.4433
  293MPD2    H2 4421   0.637   3.389  12.647  0.3786  1.6614 -0.0208
  293MPD2    H3 4422   0.822   3.470  12.761  2.4955 -0.9100  1.0666
  293MPD2     N 4423   0.686   3.281  13.163 -0.7186 -0.0819 -0.7313
  293MPD2    H5 4424   0.626   3.209  13.203 -1.5464  0.4638 -1.0003
  293MPD2    N1 4425   0.468   3.206  12.723  0.1689 -0.8183 -0.2594
  293MPD2    H7 4426   0.455   3.251  12.633  1.1240 -2.9205 -1.4307
  294TMC3    C1 4427   0.298   3.060  12.645 -0.3084 -0.5098  0.0585
  294TMC3    C2 4428   0.281   2.925  12.627 -0.2720 -0.2670 -0.2844
  294TMC3    C3 4429   0.262   2.871  12.502  0.6324  0.7585 -0.5070
  294TMC3    C4 4430   0.279   3.141  12.538 -0.0021 -0.2530  0.2428
  294TMC3    C5 4431   0.270   3.087  12.411 -0.1844 -0.1927  0.2803
  294TMC3    C6 4432   0.266   2.954  12.389  0.0415 -0.5174 -0.6531
  294TMC3     C 4433   0.380   3.107  12.753 -0.0515  0.0071  0.2123
  294TMC3     O 4434   0.370   3.044  12.856  0.6281 -0.3970  0.0538
  294TMC3     H 4435   0.286   2.860  12.714 -4.1080  0.6123  0.5723
  294TMC3    H1 4436   0.300   3.247  12.546 -1.3342  0.0274 -0.0076
  294TMC3    H2 4437   0.238   2.900  12.300 -0.3054  0.3143 -1.0494
  294TMC3    C7 4438   0.254   3.181  12.299  0.7130 -0.1786 -0.3320
  294TMC3    C8 4439   0.220   2.734  12.487  0.4865  0.9728  0.0730
  294TMC3    O1 4440   0.233   3.297  12.335  0.2136 -0.4820  0.0950
  294TMC3    O2 4441   0.273   2.678  12.396 -0.2296  0.4076 -0.1218
  295MPD2     C 4442   0.273   1.345   0.859 -0.2523  0.3513 -0.6071
  295MPD2    C1 4443   0.366   1.240   0.849 -0.0078 -0.7233  0.4166
  295MPD2    C2 4444   0.369   1.146   0.951  0.0767 -0.9956 -0.2119
  295MPD2    C3 4445   0.287   1.149   1.065  0.4478 -0.5288 -0.0405
  295MPD2    C4 4446   0.201   1.252   1.070  0.4244 -0.6201  0.3322
  295MPD2    C5 4447   0.197   1.352   0.975 -0.6582 -0.0375  0.4594
  295MPD2     H 4448   0.432   1.058   0.940  0.0125 -1.1170  0.4312
  295MPD2    H1 4449   0.141   1.266   1.159  0.5127 -1.0017  0.4533
  295MPD2    H2 4450   0.258   1.425   0.787  0.4341 -0.2884 -1.4652
  295MPD2    H3 4451   0.129   1.436   0.983 -0.1422  0.3895  0.3338
  295MPD2     N 4452   0.280   1.051   1.161  0.1344 -0.1826  0.0107
  295MPD2    H5 4453   0.207   1.062   1.231 -1.3220 -1.6057 -1.2632
  295MPD2    N1 4454   0.460   1.228   0.741 -0.1760  0.2309 -0.1063
  295MPD2    H7 4455   0.529   1.153   0.751 -0.7162 -0.5277 -2.1723
  296TMC3    C1 4456   0.315   0.855   1.277 -0.3411 -0.2061  0.4954
  296TMC3    C2 4457   0.407   0.777   1.346 -0.3703  0.3716 -0.0034
  296TMC3    C3 4458   0.352   0.683   1.429 -0.4475  0.4558 -0.2836
  296TMC3    C4 4459   0.176   0.833   1.289 -0.8710 -0.1183 -0.2787
  296TMC3    C5 4460   0.135   0.743   1.382  0.7636 -0.3106 -0.2040
  296TMC3    C6 4461   0.224   0.658   1.451 -0.8223  0.8433 -0.3054
  296TMC3     C 4462   0.373   0.951   1.184  0.3067  0.2430  0.1260
  296TMC3     O 4463   0.493   0.944   1.152 -0.3851  0.4028  0.8259
  296TMC3     H 4464   0.513   0.795   1.339 -0.7895  2.7593 -0.0513
  296TMC3    H1 4465   0.103   0.883   1.227  0.3211  1.9905  0.0113
  296TMC3    H2 4466   0.192   0.578   1.516 -0.4030  0.8262 -0.1197
  296TMC3    C7 4467   4.713   0.726   1.402  0.1596 -0.4638  0.3116
  296TMC3    C8 4468   0.436   0.626   1.533  0.3888 -0.2954  0.2542
  296TMC3    O1 4469   4.637   0.791   1.327  0.5255  0.4433 -0.4327
  296TMC3    O2 4470   0.388   0.538   1.600 -0.0539 -0.4203 -0.3601
  297MPD2     C 4471   3.148   3.557  16.625  0.0202  0.1875 -0.4849
  297MPD2    C1 4472   3.130   3.594  16.491 -0.2994 -0.3047  0.3253
  297MPD2    C2 4473   3.172   3.716  16.444 -0.6920 -0.9594 -0.2217
  297MPD2    C3 4474   3.209   3.811  16.537 -0.1502 -0.1053 -0.3020
  297MPD2    C4 4475   3.230   3.777  16.667 -0.7369 -0.6122 -0.5823
  297MPD2    C5 4476   3.209   3.652  16.705  0.4117  0.1029  0.0552
  297MPD2     H 4477   3.140   3.752  16.347  0.8351  1.9048  0.3278
  297MPD2    H1 4478   3.284   3.848  16.729 -0.6118 -1.0029 -0.2505
  297MPD2    H2 4479   3.112   3.461  16.659  2.0879  0.6096  2.8698
  297MPD2    H3 4480   3.226   3.623  16.808 -0.4446  0.9092  0.4260
  297MPD2     N 4481   3.249   3.938  16.480  0.4028  0.0688  0.0125
  297MPD2    H5 4482   3.223   3.944  16.382 -3.4385  2.3472  1.1735
  297MPD2    N1 4483   3.064   3.519  16.390 -0.2372 -0.7621  0.4473
  297MPD2    H7 4484   3.067   3.555  16.296 -1.8054 -1.2816  0.1892
  298TMC3    C1 4485   2.895   3.376  16.310 -0.2480 -0.3883  0.6593
  298TMC3    C2 4486   2.950   3.374  16.186  0.1690 -0.1307  0.4512
  298TMC3    C3 4487   2.871   3.333  16.080 -0.1420 -0.5829  0.3854
  298TMC3    C4 4488   2.764   3.327  16.332 -0.1906  0.4629  0.4062
  298TMC3    C5 4489   2.688   3.296  16.225  0.2711  0.3371  0.6335
  298TMC3    C6 4490   2.744   3.285  16.101 -0.2529  0.3159 -0.1583
  298TMC3     C 4491   2.979   3.422  16.420 -0.1370 -0.1808  0.9755
  298TMC3     O 4492   2.945   3.376  16.527 -0.2656  0.4964  0.3220
  298TMC3     H 4493   3.056   3.396  16.176  0.0659 -0.4499 -1.3857
  298TMC3    H1 4494   2.713   3.322  16.427  0.9108 -1.5503  0.9092
  298TMC3    H2 4495   2.682   3.255  16.017 -1.6931 -1.7228  1.6234
  298TMC3    C7 4496   2.547   3.329  16.242  0.0590 -0.5351 -0.3352
  298TMC3    C8 4497   2.934   3.327  15.944  0.4034 -0.0014 -0.1193
  298TMC3    O1 4498   2.515   3.388  16.343  0.3753  0.7192 -0.1997
  298TMC3    O2 4499   2.853   3.295  15.853 -0.0961 -0.1805  0.4977
  299MPD2     C 4500   3.777   2.984  10.647  0.2784 -0.1555 -0.7239
  299MPD2    C1 4501   3.802   3.095  10.575  0.3221  0.5721  0.1606
  299MPD2    C2 4502   3.724   3.123  10.468 -0.1427 -0.7896 -0.7952
  299MPD2    C3 4503   3.634   3.029  10.420  0.4144 -0.5727  0.7355
  299MPD2    C4 4504   3.607   2.922  10.494  0.2640 -0.5082 -0.7069
  299MPD2    C5 4505   3.682   2.898  10.606  0.1760 -0.1034 -0.3552
  299MPD2     H 4506   3.758   3.203  10.402 -2.3839  1.7502  1.1553
  299MPD2    H1 4507   3.525   2.857  10.463  0.0582  0.2186 -1.6947
  299MPD2    H2 4508   3.828   2.962  10.740  1.5001  1.0661 -1.1028
  299MPD2    H3 4509   3.660   2.811  10.667 -0.8194  0.4868  0.1173
  299MPD2     N 4510   3.553   3.049  10.303  0.0308  0.0542  0.6176
  299MPD2    H5 4511   3.504   2.968  10.266  0.5088 -0.0424  0.1976
  299MPD2    N1 4512   3.905   3.184  10.618 -0.0883 -0.3530  0.1857
  299MPD2    H7 4513   3.956   3.165  10.704 -1.0945  0.6141  1.0113
  300TMC3    C1 4514   3.440   3.163  10.126  0.7054 -0.3309  0.8916
  300TMC3    C2 4515   3.446   3.261  10.034 -0.1636  0.0232  0.3254
  300TMC3    C3 4516   3.337   3.326   9.993  0.0047 -0.3859 -0.4140
  300TMC3    C4 4517   3.316   3.116  10.165  0.1589  0.4428  0.5927
  300TMC3    C5 4518   3.213   3.164  10.097  0.0908  0.1599  0.1570
  300TMC3    C6 4519   3.217   3.266  10.010 -0.7138  0.5831 -0.3989
  300TMC3     C 4520   3.554   3.158  10.215  0.1493  0.3996 -0.6935
  300TMC3     O 4521   3.626   3.258  10.210 -0.1272 -0.8270  0.0465
  300TMC3     H 4522   3.541   3.309  10.011 -0.1759 -0.0416  0.1457
  300TMC3    H1 4523   3.308   3.044  10.246 -1.6186  1.3872  1.2529
  300TMC3    H2 4524   3.123   3.302   9.970 -0.2228  2.4468  0.1170
  300TMC3    C7 4525   3.087   3.135  10.146 -0.3969  0.0261 -0.1364
  300TMC3    C8 4526   3.324   3.465  10.044  0.3932  0.5144  0.5608
  300TMC3    O1 4527   2.994   3.125  10.069 -0.4097 -0.4005  0.3035
  300TMC3    O2 4528   3.418   3.490  10.119  0.8695  0.5435 -0.3840
  301MPD2     C 4529   0.379   4.389   1.617 -0.1434 -0.0757 -0.2653
  301MPD2    C1 4530   0.343   4.367   1.485 -0.3771 -0.9502 -0.8573
  301MPD2    C2 4531   0.392   4.265   1.418  0.0114  0.4790  0.5802
  301MPD2    C3 4532   0.462   4.159   1.475 -0.3725 -0.1956  0.3565
  301MPD2    C4 4533   0.498   4.176   1.606 -1.1448  0.2788  0.1365
  301MPD2    C5 4534   0.455   4.292   1.671  0.4149  0.4458  0.3748
  301MPD2     H 4535   0.373   4.270   1.311  3.3177 -0.4186 -0.0782
  301MPD2    H1 4536   0.564   4.103   1.650 -0.1748  0.5156 -0.9331
  301MPD2    H2 4537   0.377   4.480   1.676  0.1771 -0.2826  0.0652
  301MPD2    H3 4538   0.490   4.308   1.772 -1.1455  0.6100  0.8859
  301MPD2     N 4539   0.509   4.043   1.399 -0.1681  0.4910  0.5665
  301MPD2    H5 4540   0.562   3.973   1.449  0.0705  0.1672 -0.1291
  301MPD2    N1 4541   0.265   4.460   1.408  0.2692 -0.1331  0.1653
  301MPD2    H7 4542   0.248   4.432   1.312 -0.9735 -2.6462  1.1216
  302TMC3    C1 4543   0.548   3.891   1.223 -0.2038 -0.0432  0.6591
  302TMC3    C2 4544   0.621   3.815   1.313 -0.1993 -0.1707  0.0458
  302TMC3    C3 4545   0.686   3.706   1.266 -0.1883 -0.3624 -0.2688
  302TMC3    C4 4546   0.542   3.865   1.094  0.3668 -0.4407  0.0114
  302TMC3    C5 4547   0.607   3.747   1.054 -0.1505  0.2009 -0.6695
  302TMC3    C6 4548   0.678   3.669   1.139 -0.9189 -0.4981  0.0259
  302TMC3     C 4549   0.481   4.013   1.271 -0.3928  0.4467  0.1484
  302TMC3     O 4550   0.411   4.080   1.195 -0.3644  0.0191  1.0909
  302TMC3     H 4551   0.614   3.815   1.421  0.0354  0.3205  0.0578
  302TMC3    H1 4552   0.503   3.937   1.023  2.2904  0.5392 -0.0608
  302TMC3    H2 4553   0.727   3.580   1.100 -1.3174 -1.4267  1.6341
  302TMC3    C7 4554   0.550   3.674   0.949 -0.0502 -0.4569  0.9862
  302TMC3    C8 4555   0.715   3.601   1.358  0.3893  0.0488 -0.2219
  302TMC3    O1 4556   0.560   3.553   0.947  0.0475 -0.0346 -0.6666
  302TMC3    O2 4557   0.667   3.490   1.338 -0.4995  0.4481  0.7611
  303MPD2     C 4558   0.522   3.267  10.698 -0.1271  0.5091  0.0745
  303MPD2    C1 4559   0.491   3.139  10.668  0.1484 -0.7148  0.4078
  303MPD2    C2 4560   0.435   3.108  10.543 -0.2694 -0.3568  0.4622
  303MPD2    C3 4561   0.416   3.207  10.441  0.8500  1.1105 -0.2571
  303MPD2    C4 4562   0.452   3.332  10.477  1.2575 -0.4862 -0.2295
  303MPD2    C5 4563   0.509   3.364  10.602  0.5728 -0.1144  0.4043
  303MPD2     H 4564   0.420   3.003  10.520  2.1734 -0.2648 -1.6381
  303MPD2    H1 4565   0.435   3.416  10.411 -2.0036 -0.4638  0.6595
  303MPD2    H2 4566   0.567   3.296  10.793 -0.4499  1.8647 -0.1802
  303MPD2    H3 4567   0.539   3.466  10.622 -1.3255  0.3596  0.8531
  303MPD2     N 4568   0.358   3.190  10.311  0.3149 -0.7701 -0.2991
  303MPD2    H5 4569   0.378   3.271  10.253 -1.1340 -1.4050 -1.7059
  303MPD2    N1 4570   0.512   3.048  10.766  0.4191  0.5244  0.0235
  303MPD2    H7 4571   0.568   3.084  10.842  1.1712  0.7264 -0.6315
  304TMC3    C1 4572   0.572   2.839  10.844  0.0860  0.0269 -0.0965
  304TMC3    C2 4573   0.541   2.705  10.857 -0.5012 -0.3286  0.6076
  304TMC3    C3 4574   0.641   2.617  10.897  0.1117  0.2296  0.5570
  304TMC3    C4 4575   0.700   2.885  10.857  0.0330 -0.7384 -0.3991
  304TMC3    C5 4576   0.799   2.792  10.878  0.9849  0.2608  0.0931
  304TMC3    C6 4577   0.766   2.662  10.909 -0.4145  0.0595 -0.3524
  304TMC3     C 4578   0.478   2.913  10.760 -0.1897  0.8458  0.7441
  304TMC3     O 4579   0.398   2.852  10.692 -0.2570  0.3331  0.4736
  304TMC3     H 4580   0.440   2.670  10.839 -0.6636  1.2186 -1.4668
  304TMC3    H1 4581   0.725   2.982  10.816  0.0935  0.5239  2.5800
  304TMC3    H2 4582   0.848   2.599  10.938  1.0551  1.2333 -1.9848
  304TMC3    C7 4583   0.912   2.802  10.788  0.1966  0.4587 -0.3427
  304TMC3    C8 4584   0.635   2.483  10.840  0.4152 -0.1876 -0.1790
  304TMC3    O1 4585   0.967   2.913  10.766  0.0018  0.6316 -0.0385
  304TMC3    O2 4586   0.745   2.433  10.814  0.4737 -0.3500 -0.0088
  305MPD2     C 4587   3.560   0.321  13.644  0.8450 -0.0678 -0.4672
  305MPD2    C1 4588   3.686   0.267  13.652 -0.1167 -0.7592  0.4785
  305MPD2    C2 4589   3.742   0.209  13.538 -0.3559  0.2942  0.6308
  305MPD2    C3 4590   3.673   0.207  13.416 -0.0440  0.7623  0.2743
  305MPD2    C4 4591   3.540   0.257  13.411 -0.2668 -0.0103  0.5183
  305MPD2    C5 4592   3.489   0.320  13.526  0.6007  0.4724  0.7138
  305MPD2     H 4593   3.843   0.170  13.543 -1.5232 -2.6254  1.0556
  305MPD2    H1 4594   3.485   0.256  13.317  1.9726 -0.5063 -0.7716
  305MPD2    H2 4595   3.527   0.379  13.729  0.3175  0.1445 -0.8162
  305MPD2    H3 4596   3.402   0.381  13.505 -0.1195 -0.3041  1.4653
  305MPD2     N 4597   3.732   0.161  13.292  0.0323  0.2893  0.3652
  305MPD2    H5 4598   3.666   0.146  13.216  0.4714 -0.4502  0.1342
  305MPD2    N1 4599   3.750   0.269  13.781 -0.3706 -0.5843  0.7838
  305MPD2    H7 4600   3.682   0.289  13.853 -0.5199  1.9118 -0.0351
  306TMC3    C1 4601   3.924   0.232  13.949  0.6119  0.4471 -0.2206
  306TMC3    C2 4602   4.027   0.153  13.995  0.4625  0.6984  0.1638
  306TMC3    C3 4603   4.039   0.142  14.129 -0.5803  0.6754  0.8164
  306TMC3    C4 4604   3.843   0.304  14.038  0.7572 -0.0833  0.0659
  306TMC3    C5 4605   3.865   0.295  14.173 -0.2945 -0.0240  0.3290
  306TMC3    C6 4606   3.961   0.207  14.225 -0.2174  0.0034 -0.2112
  306TMC3     C 4607   3.884   0.225  13.803  0.4610 -0.1720  0.3793
  306TMC3     O 4608   3.970   0.194  13.723  0.6648 -0.7389 -0.4676
  306TMC3     H 4609   4.089   0.098  13.925  0.0460  0.2075  0.1778
  306TMC3    H1 4610   3.780   0.384  14.002  2.1196  1.7610  1.7549
  306TMC3    H2 4611   3.974   0.206  14.333  1.5731 -1.1485 -0.4416
  306TMC3    C7 4612   3.777   0.366  14.264  0.4205 -0.2740 -0.2466
  306TMC3    C8 4613   4.157   0.074  14.163 -0.1437 -0.4117 -0.4604
  306TMC3    O1 4614   3.679   0.409  14.213  0.2825 -0.5673  0.3683
  306TMC3    O2 4615   4.244   0.084  14.074  0.2772  0.3591  0.2029
  307MPD2     C 4616   1.774   2.020   0.039 -0.5804 -0.1366 -0.3997
  307MPD2    C1 4617   1.683   2.115   0.052  0.4967 -0.5018  0.1871
  307MPD2    C2 4618   1.604   2.118   0.163  0.0246  0.3273  0.1406
  307MPD2    C3 4619   1.617   2.029   0.263 -0.0632  0.7347  0.1053
  307MPD2    C4 4620   1.711   1.936   0.253  0.1047  0.1092  0.2046
  307MPD2    C5 4621   1.782   1.923   0.136  0.3884  0.5959  0.4858
  307MPD2     H 4622   1.528   2.195   0.169 -0.3997 -0.1622  0.9205
  307MPD2    H1 4623   1.719   1.867   0.336  0.7531 -0.2217 -0.1305
  307MPD2    H2 4624   1.829   2.007  17.649  0.8082 -1.7501  0.6597
  307MPD2    H3 4625   1.852   1.840   0.130 -0.1714  0.1414  0.1824
  307MPD2     N 4626   1.538   2.059   0.378  0.1020 -0.4580  0.0110
  307MPD2    H5 4627   1.476   2.139   0.374  0.9770  0.2574  0.9328
  307MPD2    N1 4628   1.668   2.223  17.664 -0.5795 -1.1507 -0.3756
  307MPD2    H7 4629   1.601   2.298  17.680 -1.3249 -2.0434  0.6203
  308TMC3    C1 4630   1.202   2.063   0.666 -0.5580 -0.3982 -0.8839
  308TMC3    C2 4631   1.232   2.183   0.722 -0.1637 -0.3677 -0.5633
  308TMC3    C3 4632   1.363   2.225   0.709 -0.1058 -0.2759  0.0319
  308TMC3    C4 4633   1.298   1.991   0.606  0.3466  0.0933 -0.3633
  308TMC3    C5 4634   1.418   2.045   0.575 -0.4807 -0.4059  0.2248
  308TMC3    C6 4635   1.459   2.161   0.633 -0.1652 -0.7756  0.3226
  308TMC3     C 4636   1.072   2.042   0.614  0.1549  0.3954  0.5340
  308TMC3     O 4637   1.041   1.935   0.561 -0.0476  0.1482  0.3639
  308TMC3     H 4638   1.167   2.239   0.788 -0.9301 -0.0839 -1.5595
  308TMC3    H1 4639   1.275   1.897   0.557 -0.6382  0.7803 -1.2336
  308TMC3    H2 4640   1.556   2.206   0.611 -1.2301  1.0623 -0.5824
  308TMC3    C7 4641   1.508   1.978   0.484 -0.6109  0.6057 -0.0093
  308TMC3    C8 4642   1.353   2.364   0.686 -0.2419  0.2150 -0.5714
  308TMC3    O1 4643   1.544   1.862   0.500  0.3537 -0.4079  1.0378
  308TMC3    O2 4644   1.248   2.405   0.640 -0.0423  0.0053 -0.1250
  309MPD2     C 4645   0.483   2.910  17.026 -0.5462  0.7284 -0.1814
  309MPD2    C1 4646   0.495   3.038  16.972 -0.4787 -0.5619  0.2268
  309MPD2    C2 4647   0.470   3.145  17.052 -0.0132 -0.0204 -0.4213
  309MPD2    C3 4648   0.450   3.137  17.184 -0.9150 -0.4326  0.1161
  309MPD2    C4 4649   0.455   3.015  17.238 -0.5761  0.7828 -0.3240
  309MPD2    C5 4650   0.467   2.902  17.163  0.6711  0.1130 -0.4009
  309MPD2     H 4651   0.481   3.240  17.002 -1.0955 -0.6982 -1.9364
  309MPD2    H1 4652   0.431   3.009  17.343 -2.7434 -2.5626 -0.9985
  309MPD2    H2 4653   0.501   2.818  16.972 -0.0450  0.0358  1.1644
  309MPD2    H3 4654   0.473   2.806  17.213  1.4898 -0.5604 -1.7988
  309MPD2     N 4655   0.431   3.244  17.273  0.0195 -0.2263 -0.0425
  309MPD2    H5 4656   0.392   3.213  17.361  2.3253  0.5134  1.2468
  309MPD2    N1 4657   0.523   3.065  16.839  0.2693 -0.0833 -0.6931
  309MPD2    H7 4658   0.537   3.162  16.811 -1.0522  0.3614  0.2446
  310TMC3    C1 4659   0.627   3.046  16.624  0.0447 -0.2271  0.9467
  310TMC3    C2 4660   0.594   3.180  16.615 -0.0192  0.2857  0.7999
  310TMC3    C3 4661   0.683   3.257  16.540 -0.1445  0.2452  0.0324
  310TMC3    C4 4662   0.751   2.990  16.584  0.5508  0.7196  0.0333
  310TMC3    C5 4663   0.831   3.076  16.521  0.0653  0.5166  0.7937
  310TMC3    C6 4664   0.805   3.211  16.498 -0.3840 -0.2144  0.3438
  310TMC3     C 4665   0.573   2.977  16.742 -0.0250 -0.2857 -0.3458
  310TMC3     O 4666   0.593   2.859  16.752  0.0159  0.4583 -0.0427
  310TMC3     H 4667   0.491   3.212  16.628  0.1237  2.0228 -2.2756
  310TMC3    H1 4668   0.782   2.888  16.601 -0.4583  0.0880 -1.9226
  310TMC3    H2 4669   0.858   3.264  16.419 -1.9385  1.5551  0.5122
  310TMC3    C7 4670   0.947   3.010  16.468  0.5007 -0.1207  0.5012
  310TMC3    C8 4671   0.638   3.371  16.461  0.1743  0.1655 -0.2155
  310TMC3    O1 4672   0.948   2.891  16.455 -0.4551 -0.0060 -0.2811
  310TMC3    O2 4673   0.696   3.404  16.358 -0.0477 -0.1314 -0.0779
  311MPD2     C 4674   3.103   4.700  12.302  0.8428  0.1662  0.5959
  311MPD2    C1 4675   3.128   0.000  12.441 -0.1807 -0.4790  1.2218
  311MPD2    C2 4676   3.024   0.004  12.531 -0.4582  0.2841 -0.3425
  311MPD2    C3 4677   2.890   0.008  12.487 -0.1949 -0.0080 -0.0945
  311MPD2    C4 4678   2.866   4.724  12.355 -0.3217 -0.2704 -0.0220
  311MPD2    C5 4679   2.973   4.707  12.265 -0.4231 -0.1272 -0.2333
  311MPD2     H 4680   3.047   0.026  12.635 -0.5565 -2.4123  0.2511
  311MPD2    H1 4681   2.768   0.003  12.310  0.0340  1.3978 -0.6442
  311MPD2    H2 4682   3.178   4.680  12.227  0.7873  0.0899  0.5605
  311MPD2    H3 4683   2.947   4.702  12.160 -0.6570  0.1608 -0.1895
  311MPD2     N 4684   2.785   0.011  12.582  0.3647 -0.1366 -0.1983
  311MPD2    H5 4685   2.813   4.719  12.679 -4.6700  0.7192  1.3808
  311MPD2    N1 4686   3.253   0.029  12.491  0.2017  0.3004 -0.0981
  311MPD2    H7 4687   3.264   0.090  12.572  1.0415 -0.5074  0.3972
  312TMC3    C1 4688   2.591   4.696  12.685  0.1629 -0.2853 -0.4927
  312TMC3    C2 4689   2.487   4.607  12.691  0.6570 -0.0368  0.1116
  312TMC3    C3 4690   2.401   4.607  12.796  0.0658  0.0151 -0.1167
  312TMC3    C4 4691   2.622   0.045  12.785 -0.2654 -0.2029 -0.3015
  312TMC3    C5 4692   2.538   0.036  12.894  0.5733  0.3726  0.2547
  312TMC3    C6 4693   2.424   4.690  12.901 -0.4450  0.0187 -0.2853
  312TMC3     C 4694   2.650   4.721  12.557  0.5672 -0.2827  0.5653
  312TMC3     O 4695   2.590   4.713  12.454 -0.1579  0.8618 -0.6599
  312TMC3     H 4696   2.479   4.548  12.601 -0.8747  1.2855 -0.6206
  312TMC3    H1 4697   2.692   0.128  12.780 -1.2388  0.7178  1.2136
  312TMC3    H2 4698   2.359   4.672  12.986  0.4413 -0.8115  0.2193
  312TMC3    C7 4699   2.552   0.129  12.996  0.3053  0.3812  0.3153
  312TMC3    C8 4700   2.273   4.536  12.789 -0.4192  0.1956 -0.2794
  312TMC3    O1 4701   2.630   0.219  12.974 -0.0902  0.1078 -0.0057
  312TMC3    O2 4702   2.188   4.560  12.872 -0.1833 -0.1753  0.3300
  313MPD2     C 4703   3.072   3.660  10.433  0.7770  0.5550  0.1495
  313MPD2    C1 4704   2.960   3.722  10.492  0.1743  0.5125 -0.8271
  313MPD2    C2 4705   2.838   3.664  10.468  1.1390  0.6003 -0.0351
  313MPD2    C3 4706   2.806   3.557  10.390 -0.2248 -0.1982 -0.1296
  313MPD2    C4 4707   2.915   3.504  10.328  0.5939 -0.2650 -0.4870
  313MPD2    C5 4708   3.042   3.543  10.357 -0.3348 -0.3157  0.0333
  313MPD2     H 4709   2.758   3.712  10.522  0.5820  0.3087 -0.6114
  313MPD2    H1 4710   2.906   3.420  10.259 -2.0553  0.7677 -1.4367
  313MPD2    H2 4711   3.174   3.697  10.440 -0.1755  3.2606 -0.3732
  313MPD2    H3 4712   3.123   3.500  10.298 -1.0763 -0.1225 -1.1366
  313MPD2     N 4713   2.675   3.520  10.370 -0.3742 -0.1570  0.6187
  313MPD2    H5 4714   2.607   3.565  10.431 -0.5677 -0.3107  0.5183
  313MPD2    N1 4715   2.962   3.840  10.565  0.3562  0.4460  0.1677
  313MPD2    H7 4716   2.877   3.865  10.615  1.8468 -0.0638  3.0017
  314TMC3    C1 4717   3.028   4.038  10.653 -0.7833 -0.3845  0.7370
  314TMC3    C2 4718   3.134   4.129  10.658  0.3658  0.3520  0.0413
  314TMC3    C3 4719   3.122   4.261  10.620  0.0923 -0.2916 -0.2074
  314TMC3    C4 4720   2.903   4.081  10.606  0.4900  0.3617  0.0420
  314TMC3    C5 4721   2.902   4.209  10.557 -0.0773 -0.7329  0.3445
  314TMC3    C6 4722   3.006   4.307  10.558  0.0253 -0.8838  0.5266
  314TMC3     C 4723   3.073   3.911  10.603  0.7161  0.4232 -0.1432
  314TMC3     O 4724   3.195   3.883  10.594 -0.1431  0.5126 -0.0807
  314TMC3     H 4725   3.224   4.095  10.709  0.1459 -0.4559 -0.1042
  314TMC3    H1 4726   2.817   4.016  10.595  1.8447 -1.6899  1.5927
  314TMC3    H2 4727   2.993   4.412  10.535  0.2193 -0.7316  1.1161
  314TMC3    C7 4728   2.779   4.247  10.508 -0.5614 -0.0150  0.1922
  314TMC3    C8 4729   3.215   4.361  10.675  0.0870  0.0278  0.3648
  314TMC3    O1 4730   2.683   4.200  10.566  0.1367 -0.0108  0.2227
  314TMC3    O2 4731   3.194   4.473  10.626  0.3659 -0.6397 -0.2808
  315MPD2     C 4732   1.907   2.811  17.440  0.2466 -0.1567  0.1614
  315MPD2    C1 4733   1.919   2.875  17.563  0.1850  0.0671  0.1344
  315MPD2    C2 4734   1.910   3.010  17.568 -0.1280  0.4705  0.0569
  315MPD2    C3 4735   1.902   3.088  17.454 -0.1095 -0.1778 -0.5851
  315MPD2    C4 4736   1.888   3.024  17.338  0.2046 -0.0581 -0.4420
  315MPD2    C5 4737   1.894   2.890  17.328  0.0802  0.2631  0.3257
  315MPD2     H 4738   1.923   3.068  17.659  1.5301 -0.9586  0.7337
  315MPD2    H1 4739   1.866   3.084  17.251 -0.0915 -1.2673 -1.2120
  315MPD2    H2 4740   1.925   2.704  17.433  2.5127  0.1049  1.6985
  315MPD2    H3 4741   1.887   2.842  17.232  2.5344  1.1649 -0.3178
  315MPD2     N 4742   1.901   3.224  17.477  0.3760  0.0779 -0.5325
  315MPD2    H5 4743   1.875   3.264  17.567  3.3751 -0.6086  0.6173
  315MPD2    N1 4744   1.929   2.812  17.690 -0.3028 -0.4858 -0.3949
  315MPD2    H7 4745   1.925   2.877   0.067  0.9853 -0.0396 -0.6961
  316TMC3    C1 4746   1.972   3.448  17.435 -0.4321  0.3286 -0.2760
  316TMC3    C2 4747   2.010   3.464  17.567  0.0758  0.1661  0.0126
  316TMC3    C3 4748   2.069   3.582  17.600  0.2092 -0.3352 -0.2643
  316TMC3    C4 4749   1.997   3.545  17.345 -0.1000 -0.3918  0.4336
  316TMC3    C5 4750   2.045   3.663  17.388  0.1148 -0.3432 -0.4862
  316TMC3    C6 4751   2.072   3.694  17.519 -0.0579  0.0550 -0.2723
  316TMC3     C 4752   1.946   3.313  17.381 -1.2537  0.5276 -0.1829
  316TMC3     O 4753   1.963   3.314  17.260 -0.6331 -0.0875  0.3818
  316TMC3     H 4754   1.992   3.389  17.643  0.8447 -0.7750 -0.7355
  316TMC3    H1 4755   1.964   3.527  17.244 -2.7879 -2.0940  1.6305
  316TMC3    H2 4756   2.105   3.791  17.553  1.7503 -0.7440  0.2568
  316TMC3    C7 4757   2.059   3.784  17.301 -0.0984  0.3690  0.1481
  316TMC3    C8 4758   2.061   3.604   0.042  0.5093  0.4004  0.2471
  316TMC3    O1 4759   2.092   3.891  17.356  0.3919  0.3229 -0.4756
  316TMC3    O2 4760   2.015   3.714   0.073 -0.1742 -0.5542 -0.2457
  317MPD2     C 4761   3.904   1.721  12.977 -0.1282  0.1420 -0.9368
  317MPD2    C1 4762   4.025   1.708  12.903  0.7828 -0.4412  0.2819
  317MPD2    C2 4763   4.126   1.627  12.957  0.0967 -0.2893  0.5083
  317MPD2    C3 4764   4.104   1.561  13.083  0.0888 -0.4053  0.1419
  317MPD2    C4 4765   3.989   1.582  13.155  0.2187 -0.0236 -0.4270
  317MPD2    C5 4766   3.893   1.670  13.102  0.6609 -0.4515 -0.0953
  317MPD2     H 4767   4.217   1.614  12.900 -1.0474 -1.2426 -1.1140
  317MPD2    H1 4768   3.970   1.544  13.255  2.8165 -1.2360 -0.3913
  317MPD2    H2 4769   3.814   1.778  12.957 -0.8599 -0.0376  1.8366
  317MPD2    H3 4770   3.807   1.698  13.162  0.6905 -1.0274  0.2159
  317MPD2     N 4771   4.198   1.468  13.126  0.1484 -0.2477 -0.0401
  317MPD2    H5 4772   4.282   1.457  13.069  1.4827  2.5281  1.3805
  317MPD2    N1 4773   4.040   1.783  12.783  0.3756  0.3018  0.2308
  317MPD2    H7 4774   4.134   1.775  12.746  0.2794 -1.1359  0.3034
  318TMC3    C1 4775   4.298   1.294  13.251 -0.3299 -0.6556 -0.3256
  318TMC3    C2 4776   4.277   1.165  13.272 -0.5982 -0.0777 -0.0968
  318TMC3    C3 4777   4.392   1.085  13.269  0.2719  0.2917  0.1461
  318TMC3    C4 4778   4.424   1.344  13.235  0.0682 -0.5967 -0.0709
  318TMC3    C5 4779   4.533   1.266  13.228 -0.1384 -0.3270  0.3896
  318TMC3    C6 4780   4.521   1.133  13.254  0.8294  0.0187 -0.2921
  318TMC3     C 4781   4.192   1.384  13.235  0.0795  0.2883 -0.2194
  318TMC3     O 4782   4.110   1.375  13.329  0.3568 -0.0146  0.1009
  318TMC3     H 4783   4.180   1.119  13.286 -0.6142 -0.9664 -3.2718
  318TMC3    H1 4784   4.434   1.451  13.222  0.9257 -0.7491 -0.6934
  318TMC3    H2 4785   4.603   1.062  13.243  0.2978 -0.3103 -2.0117
  318TMC3    C7 4786   4.664   1.328  13.227  0.2516 -0.4948 -0.4530
  318TMC3    C8 4787   4.386   0.949  13.328 -0.3104  0.1237 -0.3643
  318TMC3    O1 4788   4.673   1.447  13.197  0.0979 -0.3813  0.0465
  318TMC3    O2 4789   4.492   0.890  13.355  0.0169 -0.0603 -0.3445
  319MPD2     C 4790   4.578   3.216  17.016  0.1585  0.2024 -0.5607
  319MPD2    C1 4791   4.627   3.099  16.960  0.1404  0.9686  0.8383
  319MPD2    C2 4792   4.587   3.068  16.830 -0.4440 -0.2268  0.0455
  319MPD2    C3 4793   4.487   3.148  16.769 -0.4197 -0.3352  0.8246
  319MPD2    C4 4794   4.443   3.262  16.826  0.3792 -0.3302 -1.1903
  319MPD2    C5 4795   4.483   3.291  16.952  0.2320  0.4218  0.1566
  319MPD2     H 4796   4.621   2.971  16.795 -0.2094 -0.5876  1.2772
  319MPD2    H1 4797   4.370   3.323  16.775  1.1524  1.8812  0.3317
  319MPD2    H2 4798   4.606   3.258  17.112 -0.5985  0.1679 -0.3218
  319MPD2    H3 4799   4.444   3.382  16.998 -3.7118 -1.7616  1.0875
  319MPD2     N 4800   4.436   3.114  16.641 -0.6713 -0.9381  0.0709
  319MPD2    H5 4801   4.392   3.187  16.587  0.0280 -1.2494 -0.9084
  319MPD2    N1 4802   4.717   3.008  17.023 -0.8434  0.5960 -0.6457
  319MPD2    H7 4803   0.012   2.919  16.978 -1.4947  0.0901  0.0617
  320TMC3    C1 4804   4.376   2.979  16.456 -0.3967 -0.2432  0.0639
  320TMC3    C2 4805   4.367   3.084  16.375 -0.5437  0.5091 -0.1228
  320TMC3    C3 4806   4.299   3.072  16.256  0.1362 -0.0989  0.1521
  320TMC3    C4 4807   4.314   2.859  16.436 -1.1582  0.2675 -0.0512
  320TMC3    C5 4808   4.251   2.854  16.314 -0.3943 -0.2364 -0.1903
  320TMC3    C6 4809   4.240   2.956  16.225  0.0590  0.3483  0.3244
  320TMC3     C 4810   4.439   2.986  16.589  0.2483  0.0955  0.3959
  320TMC3     O 4811   4.473   2.884  16.643 -0.5269 -0.0225 -0.2762
  320TMC3     H 4812   4.410   3.181  16.399 -4.2113  1.4423  2.7804
  320TMC3    H1 4813   4.324   2.782  16.511 -3.3868 -0.0220 -0.0691
  320TMC3    H2 4814   4.183   2.941  16.134  0.5026 -2.1393  0.4301
  320TMC3    C7 4815   4.188   2.723  16.294 -0.4340 -0.3135  0.2417
  320TMC3    C8 4816   4.284   3.188  16.168  0.1365 -0.1809  0.2325
  320TMC3    O1 4817   4.183   2.660  16.396  0.2743 -0.5875  0.4326
  320TMC3    O2 4818   4.313   3.291  16.225  0.5436 -0.3813 -0.3060
  321TMC3    C1 4819   0.123   2.918  17.194  0.0498 -0.0704  0.3205
  321TMC3    C2 4820   0.128   2.805  17.102 -0.0743 -0.3162  0.0758
  321TMC3    C3 4821   0.099   2.678  17.148 -0.3123  0.6361  0.3516
  321TMC3    C4 4822   0.082   2.893  17.323 -0.1574 -0.0291 -0.0768
  321TMC3    C5 4823   0.047   2.763  17.361  0.9138 -0.0431  0.1878
  321TMC3    C6 4824   0.040   2.662  17.268  0.2724 -0.1652 -0.2954
  321TMC3     C 4825   0.061   3.036  17.136 -0.7995  0.1196 -0.1769
  321TMC3     O 4826   0.063   3.137  17.205 -0.1469  0.3940 -0.2804
  321TMC3     H 4827   0.189   2.831  17.016  0.0849  1.9496  0.8688
  321TMC3    H1 4828   0.095   2.971  17.396 -1.5070 -0.8119  1.0246
  321TMC3    H2 4829   4.712   2.571  17.292  1.7494 -0.8348  0.4033
  321TMC3    C7 4830   0.088   2.724  17.497 -0.4257  0.2165  0.0264
  321TMC3    C8 4831   0.197   2.580  17.132  0.8566  0.3707  0.0288
  321TMC3    O1 4832   0.105   2.808  17.585  0.1143 -0.4204 -0.1316
  321TMC3    O2 4833   0.205   2.508  17.228  0.1043 -0.3376 -0.0484
  322MPD2     C 4834   3.425   4.269  13.096  0.0380  0.2582 -0.5040
  322MPD2    C1 4835   3.441   4.238  13.226  0.3378 -0.4148 -0.5692
  322MPD2    C2 4836   3.473   4.117  13.268  0.6253  0.2932  0.5175
  322MPD2    C3 4837   3.499   4.014  13.179 -0.6121 -0.8342 -0.0808
  322MPD2    C4 4838   3.487   4.050  13.043 -0.3546 -0.5199  0.2905
  322MPD2    C5 4839   3.447   4.173  13.004  0.1638  0.0593 -0.0115
  322MPD2     H 4840   3.493   4.097  13.373  1.3658  1.2913  0.5628
  322MPD2    H1 4841   3.508   3.979  12.964  1.6955  2.4055 -1.7948
  322MPD2    H2 4842   3.404   4.369  13.059 -0.6753  0.6930  1.0715
  322MPD2    H3 4843   3.443   4.191  12.897 -0.7082  0.9892  0.1791
  322MPD2     N 4844   3.532   3.880  13.223 -0.2625  0.5096 -0.0529
  322MPD2    H5 4845   3.542   3.863  13.322 -1.3079 -0.7246 -0.1547
  322MPD2    N1 4846   3.440   4.344  13.319 -0.2262  0.3259 -0.3163
  322MPD2    H7 4847   3.426   4.438  13.281 -0.8218  0.6380  0.6579
  323TMC3    C1 4848   3.428   4.472  13.516 -0.4026  0.0132  1.5384
  323TMC3    C2 4849   3.542   4.542  13.490  0.4025  0.3127  0.4128
  323TMC3    C3 4850   3.577   4.636  13.584  0.6715 -0.1634  0.2075
  323TMC3    C4 4851   3.355   4.503  13.625  0.0250 -0.1267 -0.7903
  323TMC3    C5 4852   3.372   4.620  13.701 -0.3432 -0.6334 -0.6908
  323TMC3    C6 4853   3.488   4.690  13.668 -0.6564  0.3286 -0.5398
  323TMC3     C 4854   3.414   4.341  13.455  0.3855 -1.0060  0.4210
  323TMC3     O 4855   3.388   4.242  13.518 -0.1605  0.0466  0.2531
  323TMC3     H 4856   3.608   4.503  13.413  0.7162  0.4019  0.6363
  323TMC3    H1 4857   3.273   4.442  13.660  0.0974 -0.0577 -0.5058
  323TMC3    H2 4858   3.517   0.052  13.727  0.7947 -0.4240 -0.1540
  323TMC3    C7 4859   3.382   4.581  13.838 -0.0294 -0.1522  0.4375
  323TMC3    C8 4860   3.701   4.609  13.642 -0.0046  0.4975 -0.1856
  323TMC3    O1 4861   3.409   4.464  13.849 -0.5457  0.3242 -0.5104
  323TMC3    O2 4862   3.790   4.577  13.561 -0.0867  0.3773  0.4803
  324MPD2     C 4863   0.622   0.970  14.641 -0.5373  0.2984 -0.2508
  324MPD2    C1 4864   0.692   0.851  14.654  0.3691 -0.1715 -0.2279
  324MPD2    C2 4865   0.625   0.742  14.707 -0.4768 -0.5169  0.6675
  324MPD2    C3 4866   0.495   0.751  14.743  0.2084 -0.6792 -1.2619
  324MPD2    C4 4867   0.429   0.871  14.734 -0.4537  0.1631  0.2736
  324MPD2    C5 4868   0.489   0.978  14.681  0.4600  0.8576 -0.0157
  324MPD2     H 4869   0.692   0.658  14.713  3.0085  2.0603 -2.3451
  324MPD2    H1 4870   0.329   0.872  14.775  0.0660 -0.7810  1.5958
  324MPD2    H2 4871   0.658   1.061  14.593  0.4256  0.3334  0.5382
  324MPD2    H3 4872   0.431   1.066  14.656 -2.7172 -0.8109  1.5343
  324MPD2     N 4873   0.421   0.647  14.803 -0.3691  0.2157 -0.1020
  324MPD2    H5 4874   0.326   0.674  14.827 -0.4798 -0.8573  0.6585
  324MPD2    N1 4875   0.828   0.841  14.617  0.2171 -0.1426 -0.1877
  324MPD2    H7 4876   0.874   0.751  14.625 -2.7344 -2.0365 -4.7323
  325TMC3    C1 4877   0.325   0.452  14.849  0.0495  0.1230  1.1022
  325TMC3    C2 4878   0.278   0.365  14.754  0.3394  0.8282  0.3239
  325TMC3    C3 4879   0.145   0.356  14.732  0.1709  1.2464  0.0326
  325TMC3    C4 4880   0.243   0.528  14.927 -0.5239 -0.2930  0.4232
  325TMC3    C5 4881   0.115   0.527  14.890 -0.3493  0.2607  0.0841
  325TMC3    C6 4882   0.062   0.436  14.801  0.5928 -0.0440 -1.2992
  325TMC3     C 4883   0.451   0.517  14.818 -0.2949 -0.2041 -0.6793
  325TMC3     O 4884   0.539   0.452  14.760 -0.2198 -0.5560  1.1188
  325TMC3     H 4885   0.352   0.318  14.691 -0.6717  0.4171 -0.5618
  325TMC3    H1 4886   0.276   0.590  15.009  0.3570 -0.3212  0.0936
  325TMC3    H2 4887   4.687   0.451  14.762  0.7669 -0.7636 -2.0139
  325TMC3    C7 4888   0.029   0.625  14.952  0.2279 -0.1028  0.4395
  325TMC3    C8 4889   0.109   0.308  14.596  0.1126 -0.0951  0.8242
  325TMC3    O1 4890   0.077   0.680  15.051  0.0955  0.0807  0.1189
  325TMC3    O2 4891   0.199   0.305  14.516  0.1631  0.6922 -0.6538
  326MPD2     C 4892   1.701   1.878  11.299 -0.2989 -0.0665  0.0482
  326MPD2    C1 4893   1.764   1.795  11.212  0.3224  0.4832 -0.0833
  326MPD2    C2 4894   1.891   1.817  11.178 -0.2256  0.4012  0.1811
  326MPD2    C3 4895   1.955   1.929  11.242  0.2744 -0.1131 -0.9392
  326MPD2    C4 4896   1.896   1.998  11.343  0.1582 -0.3832  0.3480
  326MPD2    C5 4897   1.765   1.967  11.378  0.0221  0.3129 -0.0017
  326MPD2     H 4898   1.933   1.775  11.087  0.1557 -1.2169  1.1207
  326MPD2    H1 4899   1.954   2.063  11.406 -1.9322  0.0050  1.8895
  326MPD2    H2 4900   1.597   1.863  11.327 -0.3527  0.4963  0.1491
  326MPD2    H3 4901   1.716   2.029  11.453  0.2212  2.7660 -1.8954
  326MPD2     N 4902   2.084   1.980  11.203  0.6477  0.1013 -0.2470
  326MPD2    H5 4903   2.112   2.072  11.236 -0.1098 -0.4292  1.8478
  326MPD2    N1 4904   1.684   1.690  11.153  0.2420  0.2285  0.3134
  326MPD2    H7 4905   1.586   1.683  11.176  0.3018  2.9213  1.3721
  327TMC3    C1 4906   1.659   1.542  10.968 -0.3517 -0.7950  0.0689
  327TMC3    C2 4907   1.580   1.641  10.912 -0.7561 -0.1460 -0.0546
  327TMC3    C3 4908   1.588   1.654  10.772  0.2342  0.6099 -0.7431
  327TMC3    C4 4909   1.730   1.455  10.889 -0.8365  0.4636  0.9113
  327TMC3    C5 4910   1.745   1.481  10.754 -0.0566 -0.7124  1.0577
  327TMC3    C6 4911   1.674   1.580  10.688 -0.3045  0.4373 -0.0497
  327TMC3     C 4912   1.743   1.595  11.071 -0.6203  0.0057 -0.3589
  327TMC3     O 4913   1.856   1.549  11.082  0.2490  0.0698  0.6529
  327TMC3     H 4914   1.520   1.706  10.974  0.1005  0.4438  0.1605
  327TMC3    H1 4915   1.793   1.382  10.939 -2.6038 -0.9567  1.0635
  327TMC3    H2 4916   1.682   1.592  10.581 -1.0932  1.4405  0.0058
  327TMC3    C7 4917   1.885   1.467  10.708 -0.0201  0.0122 -0.5092
  327TMC3    C8 4918   1.613   1.790  10.733  0.0717 -0.2214  0.9490
  327TMC3    O1 4919   1.904   1.453  10.590  0.1157 -0.1425 -0.5453
  327TMC3    O2 4920   1.709   1.808  10.660 -0.1925 -0.2735  0.2496
  328MPD2     C 4921   4.614   1.607   0.025  0.3730 -0.1252  0.2843
  328MPD2    C1 4922   4.489   1.602  17.661 -0.3363 -0.1099  0.1400
  328MPD2    C2 4923   4.476   1.672  17.539 -0.5229 -0.0759  0.1220
  328MPD2    C3 4924   4.562   1.775  17.504  0.3489 -0.0260  0.3220
  328MPD2    C4 4925   4.672   1.798  17.585  0.4400  0.0079 -0.2474
  328MPD2    C5 4926   4.708   1.700  17.678 -0.5223  0.3062  1.2550
  328MPD2     H 4927   4.384   1.658  17.483 -1.1320 -1.8549  1.5390
  328MPD2    H1 4928   0.022   1.871  17.557 -0.9676  1.4085 -0.3767
  328MPD2    H2 4929   4.649   1.543   0.105  2.1853 -0.0401 -0.4556
  328MPD2    H3 4930   0.077   1.696   0.031  0.1925 -2.2389 -0.1713
  328MPD2     N 4931   4.540   1.864  17.393  0.5185 -0.1710 -0.3317
  328MPD2    H5 4932   4.621   1.924  17.381 -0.9441  1.8015 -0.1681
  328MPD2    N1 4933   4.380   1.527   0.017  0.1724 -0.0995 -0.2771
  328MPD2    H7 4934   4.394   1.478   0.104 -2.1437 -1.4297 -0.6697
  329TMC3    C1 4935   4.157   1.450   0.033 -0.0945 -0.4198  0.0386
  329TMC3    C2 4936   4.038   1.524   0.042  0.5576 -0.3894  0.3870
  329TMC3    C3 4937   3.930   1.469  17.682  0.3019  0.2806 -0.5088
  329TMC3    C4 4938   4.156   1.325  17.675  0.6233 -0.7628  0.2181
  329TMC3    C5 4939   4.036   1.269  17.641  0.0841  0.7029 -0.3156
  329TMC3    C6 4940   3.920   1.343  17.630  0.0549 -0.3081 -0.1619
  329TMC3     C 4941   4.249   1.534  17.672 -0.7014  0.4023 -0.2068
  329TMC3     O 4942   4.207   1.628  17.606 -0.1337 -0.2989 -0.1614
  329TMC3     H 4943   4.041   1.624   0.083  2.1731 -0.4942  0.5156
  329TMC3    H1 4944   4.250   1.271  17.672  1.1782  0.3422 -2.6899
  329TMC3    H2 4945   3.824   1.299  17.608  0.7092 -1.6538 -0.3216
  329TMC3    C7 4946   4.035   1.133  17.678  0.2660  0.0652  0.5196
  329TMC3    C8 4947   3.839   1.556  17.615 -0.0385  0.3825 -0.9122
  329TMC3    O1 4948   4.140   1.078  17.697 -0.2834 -0.3218  0.0483
  329TMC3    O2 4949   3.758   1.506  17.536  0.7260  0.5079  1.0564
  330TMC3    C1 4950   2.226   0.717   9.529  0.2414  0.5500 -0.9656
  330TMC3    C2 4951   2.157   0.644   9.434  0.8559  0.1778 -0.3398
  330TMC3    C3 4952   2.175   0.511   9.434 -0.1936  0.3233 -0.7035
  330TMC3    C4 4953   2.302   0.663   9.629 -0.0044 -0.3414 -0.7823
  330TMC3    C5 4954   2.320   0.527   9.619 -0.2027  0.5230  0.1668
  330TMC3    C6 4955   2.247   0.451   9.530  0.0794  0.8391 -0.5346
  330TMC3     C 4956   2.171   0.849   9.550 -0.8766 -0.2019 -0.3282
  330TMC3     O 4957   2.243   0.931   9.595 -0.1140 -0.3016  0.2185
  330TMC3     H 4958   2.095   0.686   9.356  0.2624  3.6754  2.0325
  330TMC3    H1 4959   2.370   0.722   9.689 -2.2689  2.4660 -0.9755
  330TMC3    H2 4960   2.267   0.345   9.521 -1.2772  0.3327  2.5670
  330TMC3    C7 4961   2.384   0.459   9.728 -0.4218 -0.6376  0.1839
  330TMC3    C8 4962   2.084   0.432   9.351 -0.1087 -0.2042  0.1452
  330TMC3    O1 4963   2.321   0.363   9.767  0.2128  0.0255  0.3933
  330TMC3    O2 4964   2.075   0.470   9.236 -0.8580  0.4769  0.0877
  331MPD2     C 4965   0.131   0.334  12.586  0.0131 -0.4674  0.8877
  331MPD2    C1 4966   0.246   0.318  12.516 -0.1449  0.2837 -0.2839
  331MPD2    C2 4967   0.299   0.191  12.514  1.2019 -2.2835 -0.0957
  331MPD2    C3 4968   0.235   0.090  12.577  0.0495 -0.0813 -0.0094
  331MPD2    C4 4969   0.122   0.105  12.652 -0.1988  0.1186 -0.0402
  331MPD2    C5 4970   0.066   0.227  12.654  0.7210 -0.0369 -0.0079
  331MPD2     H 4971   0.379   0.170  12.444  1.5518 -4.2223  0.8746
  331MPD2    H1 4972   0.081   0.026  12.715 -0.7968  1.2624  0.9921
  331MPD2    H2 4973   0.083   0.431  12.586 -4.2402 -2.5757  0.4490
  331MPD2    H3 4974   4.697   0.237  12.708  1.3475 -0.1056  1.0981
  331MPD2     N 4975   0.305   4.695  12.568  0.4801 -0.3595  0.3350
  331MPD2    H5 4976   0.390   4.697  12.513  0.4328  0.4803  0.2943
  331MPD2    N1 4977   0.294   0.429  12.447 -0.5216  0.0448 -0.4373
  331MPD2    H7 4978   0.233   0.510  12.441 -1.3792 -0.6005 -0.2600
  332TMC3    C1 4979   0.381   4.489  12.577  0.3183 -0.2824  0.6951
  332TMC3    C2 4980   0.422   4.491  12.449  0.3741 -0.4061  0.8942
  332TMC3    C3 4981   0.533   4.414  12.408 -0.2439  0.6350  0.2649
  332TMC3    C4 4982   0.445   4.398  12.664  0.0577 -0.3582  0.0129
  332TMC3    C5 4983   0.562   4.338  12.626  0.0841  1.1540  0.5621
  332TMC3    C6 4984   0.615   4.351  12.500 -0.0095 -0.1950 -0.0670
  332TMC3     C 4985   0.286   4.582  12.635  0.4460 -0.1376 -0.7130
  332TMC3     O 4986   0.236   4.556  12.746  0.6633 -0.5376 -0.0230
  332TMC3     H 4987   0.371   4.549  12.373  1.2594 -1.1084 -0.2278
  332TMC3    H1 4988   0.416   4.387  12.768 -0.7800 -2.4534 -0.4360
  332TMC3    H2 4989   0.692   4.286  12.462  0.2035 -0.1184  0.2378
  332TMC3    C7 4990   0.615   4.250  12.728  0.2207  0.0578  0.5516
  332TMC3    C8 4991   0.579   4.437  12.274  0.4595  0.6261  0.2647
  332TMC3    O1 4992   0.541   4.227  12.825 -0.1746  0.0551 -0.5048
  332TMC3    O2 4993   0.688   4.380  12.256 -0.0696 -0.4310 -0.1493
  333MPD2     C 4994   1.157   4.239  11.541  0.6461 -0.6155  0.0274
  333MPD2    C1 4995   1.055   4.201  11.453  0.2361  0.2652  0.0763
  333MPD2    C2 4996   0.931   4.163  11.506 -0.5847 -0.4954  0.3007
  333MPD2    C3 4997   0.914   4.170  11.642  0.0319 -0.0793  0.5049
  333MPD2    C4 4998   1.021   4.199  11.727  0.2895 -0.3757 -0.4878
  333MPD2    C5 4999   1.140   4.228  11.671 -0.1947 -0.4079  0.4379
  333MPD2     H 5000   0.851   4.128  11.441 -0.1952 -0.2208 -0.3358
  333MPD2    H1 5001   1.010   4.199  11.834  1.2848  1.0380 -0.3717
  333MPD2    H2 5002   1.254   4.272  11.506 -0.0365  1.6758  0.2934
  333MPD2    H3 5003   1.224   4.251  11.736 -0.9742  1.0512  0.9514
  333MPD2     N 5004   0.780   4.155  11.693 -0.1719 -0.1254  0.5871
  333MPD2    H5 5005   0.708   4.150  11.623  1.0807  1.8837 -0.8398
  333MPD2    N1 5006   1.085   4.202  11.319 -0.4120  0.5661  0.1952
  333MPD2    H7 5007   1.170   4.254  11.295  1.2274 -2.1164  0.2389
  334TMC3    C1 5008   1.081   4.187  11.084 -0.7766  0.5707  0.0459
  334TMC3    C2 5009   1.220   4.180  11.103  0.5894 -0.1655 -0.0701
  334TMC3    C3 5010   1.295   4.203  10.985 -0.0577  0.0163 -0.5578
  334TMC3    C4 5011   1.024   4.216  10.963  0.1469  0.5154 -0.6172
  334TMC3    C5 5012   1.107   4.252  10.856 -0.0435  0.3181  0.3433
  334TMC3    C6 5013   1.242   4.244  10.867 -0.0595  0.6808 -0.2883
  334TMC3     C 5014   1.008   4.167  11.211  0.5560  0.2936  0.2309
  334TMC3     O 5015   0.895   4.115  11.218  0.7183 -0.3930  0.2741
  334TMC3     H 5016   1.276   4.149  11.191  0.2281  2.1629  0.9734
  334TMC3    H1 5017   0.916   4.221  10.959  0.2665  0.5740 -3.1615
  334TMC3    H2 5018   1.303   4.253  10.778 -0.5819 -1.3086 -0.8563
  334TMC3    C7 5019   1.054   4.350  10.760 -0.4043 -0.0447 -0.7559
  334TMC3    C8 5020   1.439   4.180  10.999  0.5190 -0.4282  0.1268
  334TMC3    O1 5021   1.134   4.424  10.708  0.6026  0.4382 -0.6300
  334TMC3    O2 5022   1.487   4.116  11.093 -0.1873  0.0656  0.8272
  335TMC3    C1 5023   0.327   1.169   0.224  0.2956 -0.4338  0.2587
  335TMC3    C2 5024   0.273   1.284   0.174 -0.1001 -0.6890  0.1540
  335TMC3    C3 5025   0.326   1.356   0.075  0.0915  1.1898  0.4183
  335TMC3    C4 5026   0.441   1.119   0.167  0.3074  0.3623 -0.0524
  335TMC3    C5 5027   0.495   1.188   0.064  0.2123  0.1882 -0.3529
  335TMC3    C6 5028   0.436   1.296   0.019 -0.5476 -0.4929 -1.0718
  335TMC3     C 5029   0.264   1.111   0.342 -0.5400  0.0017 -0.3484
  335TMC3     O 5030   0.197   1.188   0.414 -0.4609  0.1491 -0.5393
  335TMC3     H 5031   0.188   1.315   0.233 -0.5915 -0.5818 -0.6029
  335TMC3    H1 5032   0.475   1.021   0.201 -0.6967 -0.6487 -1.9583
  335TMC3    H2 5033   0.466   1.347  17.630 -0.5962  2.1483  0.4010
  335TMC3    C7 5034   0.593   1.134  17.671  0.2676 -0.1771  0.5503
  335TMC3    C8 5035   0.228   1.413  17.686 -0.1156  0.1388 -0.4024
  335TMC3    O1 5036   0.632   1.221  17.592 -0.3014 -0.7870  0.1700
  335TMC3    O2 5037   0.259   1.507  17.608  0.5878  0.4679 -0.2599
  336MPD2     C 5038   4.283   0.101  16.141 -0.1163 -0.4914  0.3232
  336MPD2    C1 5039   4.255   0.005  16.047 -0.0754  0.0012  0.4974
  336MPD2    C2 5040   4.349   4.631  16.018 -0.7970  0.0062  1.0172
  336MPD2    C3 5041   4.459   4.605  16.092  0.0121 -0.4027 -0.2786
  336MPD2    C4 5042   4.497   4.705  16.183 -0.2716 -0.6937  0.3456
  336MPD2    C5 5043   4.407   0.084  16.203  0.1962 -0.5685 -0.4088
  336MPD2     H 5044   4.334   4.567  15.932  0.9674  1.0605 -0.0663
  336MPD2    H1 5045   4.591   4.694  16.237  0.0534 -1.1166 -0.3013
  336MPD2    H2 5046   4.230   0.194  16.157  2.9717  1.0174  2.0257
  336MPD2    H3 5047   4.440   0.156  16.277 -2.5172  0.5096 -0.2303
  336MPD2     N 5048   4.548   4.494  16.075  0.2120  0.4047 -0.2348
  336MPD2    H5 5049   4.641   4.494  16.114 -0.3421  1.5728  1.0718
  336MPD2    N1 5050   4.129   0.007  15.980  0.4123  0.2513  0.2955
  336MPD2    H7 5051   4.121   4.654  15.916  0.3157 -1.2789  2.1852
  337TMC3    C1 5052   3.896   0.069  15.940 -0.6696 -0.2694 -0.2896
  337TMC3    C2 5053   3.857   4.659  15.927 -0.3389  0.4399 -0.0007
  337TMC3    C3 5054   3.724   4.637  15.929  0.3830  0.1087 -0.1293
  337TMC3    C4 5055   3.804   0.169  15.959 -0.4537  0.2135  0.0248
  337TMC3    C5 5056   3.672   0.136  15.971 -0.0357 -0.4476  0.1658
  337TMC3    C6 5057   3.628   0.009  15.947  0.3416 -0.0712  0.3104
  337TMC3     C 5058   4.032   0.104  15.987  0.3276 -0.1763  0.2674
  337TMC3     O 5059   4.055   0.220  16.022 -0.7590  0.2227  0.5690
  337TMC3     H 5060   3.923   4.574  15.913  0.1900  0.5011  2.2460
  337TMC3    H1 5061   3.842   0.269  15.981  1.1156 -0.6423  1.2110
  337TMC3    H2 5062   3.524   4.709  15.928 -0.2691  2.0427  0.9063
  337TMC3    C7 5063   3.606   0.213  16.073  0.3878 -0.0523  0.0277
  337TMC3    C8 5064   3.677   4.512  15.858 -0.3434  0.0747 -0.1931
  337TMC3    O1 5065   3.663   0.314  16.119 -0.3311 -0.0242 -0.3789
  337TMC3    O2 5066   3.633   4.426  15.932  0.1854 -0.4919  0.6657
  338MPD2     C 5067   0.059   2.570   0.916  0.2136  0.0294 -1.0263
  338MPD2    C1 5068   0.023   2.663   0.823 -0.0254  0.3079 -0.0899
  338MPD2    C2 5069   4.617   2.695   0.810  0.4563 -0.2348 -0.1791
  338MPD2    C3 5070   4.520   2.617   0.871  0.1467 -0.2228  0.2021
  338MPD2    C4 5071   4.552   2.520   0.965  0.7739  0.0762  0.4320
  338MPD2    C5 5072   4.689   2.503   0.984 -0.3942 -0.4811 -0.4539
  338MPD2     H 5073   4.581   2.775   0.746 -1.7888 -1.1899 -0.0932
  338MPD2    H1 5074   4.479   2.458   1.015 -0.7961 -0.6707 -2.7413
  338MPD2    H2 5075   0.162   2.540   0.930  0.4451  0.3283 -2.0950
  338MPD2    H3 5076   0.005   2.428   1.050 -0.0964 -0.3097 -0.4427
  338MPD2     N 5077   4.388   2.641   0.831 -0.9379 -0.0899 -0.1602
  338MPD2    H5 5078   4.368   2.715   0.765  0.9871 -0.9591 -1.7001
  338MPD2    N1 5079   0.126   2.726   0.742  0.7141  0.4038 -0.6005
  338MPD2    H7 5080   0.089   2.779   0.663 -0.5351  0.4298  0.0007
  339TMC3    C1 5081   4.164   2.601   0.794  0.0859 -0.2045 -0.7434
  339TMC3    C2 5082   4.047   2.567   0.855 -0.8225  0.5397 -0.1297
  339TMC3    C3 5083   3.930   2.616   0.814  0.3999  0.3894  0.3452
  339TMC3    C4 5084   4.160   2.686   0.684 -0.1149  0.4097 -0.1816
  339TMC3    C5 5085   4.040   2.733   0.639 -0.1904  0.0603  0.6408
  339TMC3    C6 5086   3.924   2.696   0.700  0.1110 -0.3483  0.0213
  339TMC3     C 5087   4.281   2.558   0.861  0.0058 -0.2640  0.3702
  339TMC3     O 5088   4.276   2.457   0.930 -0.3636 -0.3042 -0.7546
  339TMC3     H 5089   4.052   2.505   0.944  1.4114 -0.5693 -1.0197
  339TMC3    H1 5090   4.247   2.706   0.622  1.6048 -4.9743  0.5784
  339TMC3    H2 5091   3.829   2.735   0.665 -0.8226 -1.3394  1.4435
  339TMC3    C7 5092   4.036   2.834   0.532  0.1355  0.3580 -0.8591
  339TMC3    C8 5093   3.816   2.615   0.910  0.1560 -0.2750 -0.4924
  339TMC3    O1 5094   3.974   2.938   0.551  0.2969 -0.1154  0.5503
  339TMC3    O2 5095   3.724   2.694   0.879  0.1429  0.4553  0.1808
  340MPD2     C 5096   0.444   1.158  10.568 -0.1506 -0.3100  0.2533
  340MPD2    C1 5097   0.554   1.129  10.491 -0.1601  0.0821  0.1493
  340MPD2    C2 5098   0.676   1.194  10.507 -0.1598 -0.3491  0.3953
  340MPD2    C3 5099   0.689   1.289  10.609  0.2943  0.3940 -0.2592
  340MPD2    C4 5100   0.576   1.320  10.681 -0.2636 -0.4035 -0.5265
  340MPD2    C5 5101   0.454   1.260  10.658 -0.6346 -0.2861 -0.0616
  340MPD2     H 5102   0.761   1.158  10.451 -0.3194  0.2853 -0.2538
  340MPD2    H1 5103   0.579   1.387  10.766  1.1946 -2.0987  0.7765
  340MPD2    H2 5104   0.347   1.112  10.556  0.4887 -1.3701 -0.9242
  340MPD2    H3 5105   0.370   1.288  10.720 -1.9307 -1.7168 -1.1822
  340MPD2     N 5106   0.814   1.339  10.651 -0.0298  0.2108  0.3907
  340MPD2    H5 5107   0.821   1.392  10.737 -0.6453  0.0330  0.5504
  340MPD2    N1 5108   0.528   1.032  10.392  0.2198 -0.2255  0.2778
  340MPD2    H7 5109   0.445   0.974  10.402 -0.0292 -0.4652 -3.1823
  341TMC3    C1 5110   0.594   0.867  10.242 -0.7835  0.0252  0.3866
  341TMC3    C2 5111   0.543   0.763  10.318 -0.5202  0.0322 -0.0780
  341TMC3    C3 5112   0.557   0.637  10.269 -0.9040  0.4060  0.3484
  341TMC3    C4 5113   0.652   0.851  10.122 -0.5998 -0.1529 -0.1947
  341TMC3    C5 5114   0.666   0.723  10.076  0.4531 -0.0935  0.1391
  341TMC3    C6 5115   0.612   0.614  10.142  0.1118  0.8813 -0.5925
  341TMC3     C 5116   0.620   0.993  10.303 -0.0999  0.4821  0.1128
  341TMC3     O 5117   0.729   1.044  10.277 -0.2493  0.2132 -0.3528
  341TMC3     H 5118   0.513   0.782  10.421 -0.2891 -2.1645  0.3993
  341TMC3    H1 5119   0.677   0.934  10.057 -1.4891  0.6198  0.4429
  341TMC3    H2 5120   0.623   0.512  10.105 -0.8874  0.2245  0.9031
  341TMC3    C7 5121   0.730   0.690   9.950 -0.8449  0.4373 -0.8156
  341TMC3    C8 5122   0.516   0.523  10.344 -0.4118  0.1808 -0.8479
  341TMC3    O1 5123   0.758   0.576   9.931  0.6508 -0.0904 -0.1913
  341TMC3    O2 5124   0.521   0.535  10.463 -0.4563 -0.2724  0.5518
  342MPD2     C 5125   2.751   4.469  17.666 -0.0021 -0.5474  0.4473
  342MPD2    C1 5126   2.856   4.525  17.598  0.4739 -0.1805  0.0107
  342MPD2    C2 5127   2.887   4.657  17.616 -0.6328 -0.7539 -0.1313
  342MPD2    C3 5128   2.817   0.020   0.001 -0.0170  0.4149 -0.2962
  342MPD2    C4 5129   2.708   4.689   0.062  0.0634  0.2362 -0.3561
  342MPD2    C5 5130   2.673   4.554   0.036 -0.3533  0.3347 -0.1827
  342MPD2     H 5131   2.968   4.694  17.553 -1.3203 -0.1704 -0.6826
  342MPD2    H1 5132   2.635   0.024   0.115  0.5786 -0.6327  1.3196
  342MPD2    H2 5133   2.730   4.363  17.658  2.6301 -0.9525 -0.9574
  342MPD2    H3 5134   2.585   4.522   0.091 -0.0685  1.4207  0.9011
  342MPD2     N 5135   2.849   0.162   0.006  0.6385 -0.0037 -0.3981
  342MPD2    H5 5136   2.940   0.185  17.671  1.2618  0.3411  1.3938
  342MPD2    N1 5137   2.941   4.457  17.506  0.0591  0.1878 -0.1856
  342MPD2    H7 5138   3.016   4.509  17.461 -1.2874 -0.1319 -2.7625
  343TMC3    C1 5139   3.017   4.307  17.361 -0.7919  0.5551  0.7456
  343TMC3    C2 5140   3.148   4.305  17.392  0.2479 -0.1822 -0.4974
  343TMC3    C3 5141   3.227   4.209  17.338  0.3543 -0.1981 -0.3529
  343TMC3    C4 5142   2.968   4.204  17.280  0.5089 -0.1450 -0.1932
  343TMC3    C5 5143   3.039   4.104  17.238  0.6192  0.0906 -0.2290
  343TMC3    C6 5144   3.171   4.103  17.261 -0.1325  0.5218 -0.5548
  343TMC3     C 5145   2.926   4.333  17.465 -0.2042 -0.0582 -0.2403
  343TMC3     O 5146   2.840   4.247  17.484 -0.3721  0.4203  0.0486
  343TMC3     H 5147   3.206   4.385  17.437 -0.2301 -0.5936  0.8405
  343TMC3    H1 5148   2.861   4.195  17.264  0.7480 -2.5666 -0.3126
  343TMC3    H2 5149   3.231   4.027  17.211 -0.4931  0.1840 -0.4734
  343TMC3    C7 5150   2.982   3.971  17.278  0.0235  0.2716  0.0978
  343TMC3    C8 5151   3.369   4.227  17.336  0.1298 -0.5930 -0.0122
  343TMC3    O1 5152   3.028   3.868  17.239  0.3109  0.8258 -0.4619
  343TMC3    O2 5153   3.409   4.289  17.436 -0.4153 -0.5759 -0.3048
  344MPD2     C 5154   4.232   3.757  10.300  0.2902  0.5728  0.6551
  344MPD2    C1 5155   4.228   3.806  10.427  0.9979 -0.0875  0.6147
  344MPD2    C2 5156   4.275   3.934  10.458  0.2151  0.0582 -0.4033
  344MPD2    C3 5157   4.322   4.014  10.357  0.6561  0.1413 -0.1517
  344MPD2    C4 5158   4.322   3.962  10.232  0.4103  0.3803 -0.3768
  344MPD2    C5 5159   4.287   3.834  10.211  0.4911 -0.7013 -0.4539
  344MPD2     H 5160   4.287   3.955  10.564  1.0159 -2.2569 -0.0489
  344MPD2    H1 5161   4.366   4.006  10.143  0.1766  1.3696 -0.0038
  344MPD2    H2 5162   4.203   3.656  10.273 -1.7926  1.5200 -0.6866
  344MPD2    H3 5163   4.295   3.790  10.112 -0.9863 -2.3397  0.1483
  344MPD2     N 5164   4.359   4.149  10.373  0.9245  0.4698  0.6987
  344MPD2    H5 5165   4.380   4.195  10.285 -0.8505 -0.7047 -0.3451
  344MPD2    N1 5166   4.196   3.705  10.515 -0.1768  0.1557 -0.2934
  344MPD2    H7 5167   4.166   3.620  10.468 -3.6509 -0.5516  3.2701
  345TMC3    C1 5168   4.367   4.356  10.473  0.3772 -0.3298 -0.5887
  345TMC3    C2 5169   4.433   4.428  10.564  0.7712 -0.7635  0.0893
  345TMC3    C3 5170   4.420   4.567  10.563  0.6118  0.4746  0.1896
  345TMC3    C4 5171   4.310   4.408  10.357  0.1699  0.6134  0.1632
  345TMC3    C5 5172   4.311   4.545  10.353 -0.3078 -0.3352  0.1519
  345TMC3    C6 5173   4.348   4.630  10.458 -0.5268  0.1616  0.1848
  345TMC3     C 5174   4.365   4.214  10.493  0.1681  0.0339  0.7182
  345TMC3     O 5175   4.360   4.179  10.609  0.0235 -0.0318  0.5752
  345TMC3     H 5176   4.492   4.385  10.644  0.7673  0.4494  0.7573
  345TMC3    H1 5177   4.245   4.351  10.292  0.6602  0.8071 -0.4974
  345TMC3    H2 5178   4.329   0.011  10.449  1.8585  0.5381 -0.3317
  345TMC3    C7 5179   4.285   4.606  10.221  0.0920 -0.5055 -0.0074
  345TMC3    C8 5180   4.518   4.644  10.634 -0.7239  0.8754 -0.2190
  345TMC3    O1 5181   4.272   0.004  10.225 -0.4272 -0.6860 -0.4171
  345TMC3    O2 5182   4.597   4.579  10.701  0.4178  0.1122  0.3458
  346MPD2     C 5183   4.191   0.997  13.806  0.1814 -0.2024  0.0679
  346MPD2    C1 5184   4.272   0.930  13.898  0.6293 -0.3921 -0.5466
  346MPD2    C2 5185   4.241   0.925  14.033 -0.0574  0.5145  0.0037
  346MPD2    C3 5186   4.133   0.993  14.077  0.5387  0.1336  0.0878
  346MPD2    C4 5187   4.058   1.065  13.988 -0.2490  0.0540 -0.3671
  346MPD2    C5 5188   4.089   1.073  13.854  1.1774  0.4318 -0.4715
  346MPD2     H 5189   4.301   0.869  14.104  0.8998  2.6699  0.9105
  346MPD2    H1 5190   3.972   1.123  14.020 -1.5669 -2.4441  0.6433
  346MPD2    H2 5191   4.212   0.996  13.700 -0.4026 -1.9702 -0.0395
  346MPD2    H3 5192   4.025   1.136  13.793 -0.6047  0.0936  1.0458
  346MPD2     N 5193   4.118   1.011  14.217 -0.1938 -0.2137  0.0044
  346MPD2    H5 5194   4.189   0.975  14.279 -0.1819 -3.0646 -1.6758
  346MPD2    N1 5195   4.393   0.866  13.869  0.8692  0.3410 -0.3345
  346MPD2    H7 5196   4.427   0.807  13.944  0.4883  0.0230 -0.4130
  347TMC3    C1 5197   4.023   1.070  14.426  0.0798 -0.4104  0.9393
  347TMC3    C2 5198   4.109   0.990  14.494  0.4328  0.2176  1.1557
  347TMC3    C3 5199   4.138   1.020  14.623  0.1548  0.8860 -0.5679
  347TMC3    C4 5200   3.947   1.169  14.483 -0.4408 -0.3913 -0.2076
  347TMC3    C5 5201   3.993   1.209  14.606 -0.3531 -0.5897  0.0675
  347TMC3    C6 5202   4.097   1.138  14.677 -0.2005  0.0028 -0.6277
  347TMC3     C 5203   4.000   1.051  14.283  0.5388  0.5008 -0.2728
  347TMC3     O 5204   3.887   1.064  14.238  0.1571  0.2523 -0.5648
  347TMC3     H 5205   4.149   0.900  14.450 -0.5324  1.0225 -1.3291
  347TMC3    H1 5206   3.870   1.227  14.431 -0.7913  0.2367  0.9954
  347TMC3    H2 5207   4.126   1.165  14.778  1.2071  1.1333 -1.3220
  347TMC3    C7 5208   3.948   1.340  14.658  0.2142  0.0282  0.3751
  347TMC3    C8 5209   4.237   0.941  14.690 -0.3996 -0.1366  0.3505
  347TMC3    O1 5210   3.830   1.370  14.637  0.0135 -0.6492 -0.0329
  347TMC3    O2 5211   4.255   0.833  14.640  0.1185  0.2343  0.0698
  348MPD2     C 5212   2.849   0.639  12.067 -0.0549  0.8164 -1.1306
  348MPD2    C1 5213   2.957   0.680  11.987 -0.5720  0.3818  0.3012
  348MPD2    C2 5214   2.919   0.763  11.877  0.5667  0.2485  0.1534
  348MPD2    C3 5215   2.792   0.797  11.849  0.0481  1.0690  0.5513
  348MPD2    C4 5216   2.685   0.745  11.923 -0.0285 -0.4356  0.8514
  348MPD2    C5 5217   2.719   0.671  12.034  0.2101 -0.7434  0.0426
  348MPD2     H 5218   3.005   0.805  11.825  0.4041  1.2675  0.7043
  348MPD2    H1 5219   2.578   0.750  11.904 -0.1505  0.9882  1.9136
  348MPD2    H2 5220   2.868   0.576  12.153 -2.4791  0.2688 -0.9980
  348MPD2    H3 5221   2.645   0.632  12.103 -0.5911  0.7500  0.0320
  348MPD2     N 5222   2.767   0.887  11.746 -0.9359 -0.1662 -0.1154
  348MPD2    H5 5223   2.669   0.899  11.721 -1.1369  0.9510  1.1762
  348MPD2    N1 5224   3.092   0.643  12.014  0.1533  0.2026 -0.1632
  348MPD2    H7 5225   3.161   0.662  11.942 -0.1115  1.5759 -0.0448
  349TMC3    C1 5226   3.280   0.547  12.114 -0.5952 -0.1382 -0.2925
  349TMC3    C2 5227   3.298   0.420  12.129  0.3755  0.3333  0.0868
  349TMC3    C3 5228   3.378   0.359  12.040 -0.0756  0.3710 -0.0741
  349TMC3    C4 5229   3.345   0.624  12.022 -0.0983 -0.5375 -0.8150
  349TMC3    C5 5230   3.411   0.556  11.928  0.1640  0.2547 -0.0848
  349TMC3    C6 5231   3.431   0.422  11.931 -0.1560 -0.1358  0.0325
  349TMC3     C 5232   3.141   0.576  12.121  0.6376 -0.7917 -0.4233
  349TMC3     O 5233   3.084   0.517  12.211  0.0618  0.6084  0.4885
  349TMC3     H 5234   3.252   0.376  12.217  0.3724 -0.6630 -0.4096
  349TMC3    H1 5235   3.341   0.733  12.030 -0.3502 -0.5650 -0.5794
  349TMC3    H2 5236   3.493   0.369  11.859 -0.3312  0.3512 -0.4710
  349TMC3    C7 5237   3.392   0.612  11.799  0.1580 -0.4446  0.0038
  349TMC3    C8 5238   3.386   0.220  12.052 -0.5645 -0.0358 -0.9514
  349TMC3    O1 5239   3.311   0.554  11.729  0.1714  0.0307 -0.3423
  349TMC3    O2 5240   3.346   0.171  12.158  0.0334 -0.0135  0.3032
  350MPD2     C 5241   1.771   3.357   9.801  0.1683  0.4910 -1.0115
  350MPD2    C1 5242   1.794   3.238   9.871  1.0090 -0.5686  0.0319
  350MPD2    C2 5243   1.904   3.236   9.956 -0.0882 -0.0054  0.7709
  350MPD2    C3 5244   1.992   3.344   9.959 -0.5037  0.1261 -0.4726
  350MPD2    C4 5245   1.966   3.467   9.896  0.2637  0.6780  0.0838
  350MPD2    C5 5246   1.848   3.475   9.819  0.7042 -0.9557  0.1199
  350MPD2     H 5247   1.918   3.152  10.024  3.8757 -0.6063 -0.8032
  350MPD2    H1 5248   2.035   3.549   9.910  0.5241  0.5108 -0.2093
  350MPD2    H2 5249   1.691   3.358   9.727  0.4612 -1.5235 -1.3498
  350MPD2    H3 5250   1.809   3.558   9.761  2.5413 -0.3747 -0.2879
  350MPD2     N 5251   2.106   3.324  10.041  0.5716 -0.2197  0.1858
  350MPD2    H5 5252   2.108   3.236  10.091  1.5589 -0.1295  0.2974
  350MPD2    N1 5253   1.721   3.119   9.843  0.1933 -0.1545  0.1657
  350MPD2    H7 5254   1.644   3.144   9.782  0.5619 -0.1323 -0.2883
  351TMC3    C1 5255   1.684   2.895   9.781 -0.3700  0.5860 -0.3371
  351TMC3    C2 5256   1.701   2.764   9.804  0.4930  0.7030  0.4512
  351TMC3    C3 5257   1.649   2.677   9.712  0.4103  0.4827 -0.0010
  351TMC3    C4 5258   1.619   2.948   9.669  0.8036  1.2608 -0.0121
  351TMC3    C5 5259   1.591   2.853   9.571 -0.4929 -0.9599 -0.1101
  351TMC3    C6 5260   1.605   2.718   9.590 -0.0172  0.8654 -0.8491
  351TMC3     C 5261   1.756   2.988   9.871  0.4306  0.0189  0.2996
  351TMC3     O 5262   1.824   2.948   9.965  0.3092  0.1551  0.2379
  351TMC3     H 5263   1.739   2.735   9.901  1.0508  1.3795  0.4361
  351TMC3    H1 5264   1.590   3.049   9.645  0.9084  1.1817 -0.4768
  351TMC3    H2 5265   1.575   2.648   9.513 -2.5137  0.5060  0.4446
  351TMC3    C7 5266   1.514   2.898   9.463 -0.1861 -0.4153 -0.1282
  351TMC3    C8 5267   1.715   2.544   9.712  0.3685 -0.0460  0.4466
  351TMC3    O1 5268   1.503   3.020   9.449  0.3192  1.1556 -0.1317
  351TMC3    O2 5269   1.735   2.491   9.603 -0.1683  0.2365 -0.1740
  352MPD2     C 5270   4.205   0.363   1.678  0.3540  0.2144  0.3001
  352MPD2    C1 5271   4.257   0.412   1.558  0.1968  0.6106 -0.3774
  352MPD2    C2 5272   4.362   0.337   1.500 -0.4883 -0.0332  0.5957
  352MPD2    C3 5273   4.418   0.228   1.564 -0.5080 -0.7453  0.0505
  352MPD2    C4 5274   4.380   0.205   1.693 -0.0051 -0.0394  0.9065
  352MPD2    C5 5275   4.266   0.265   1.747  0.3720 -0.0661  0.0084
  352MPD2     H 5276   4.402   0.361   1.402 -0.0034  1.8850  1.2658
  352MPD2    H1 5277   4.426   0.120   1.742  1.3279 -0.5522 -1.2218
  352MPD2    H2 5278   4.123   0.421   1.718 -0.3877  0.4573 -1.5431
  352MPD2    H3 5279   4.236   0.247   1.849 -1.8335 -0.4249 -0.7133
  352MPD2     N 5280   4.513   0.144   1.502 -0.1697  0.1877  0.8666
  352MPD2    H5 5281   4.549   0.065   1.555 -0.0499 -0.0640  0.4049
  352MPD2    N1 5282   4.198   0.525   1.501 -0.3265 -0.0913 -0.9559
  352MPD2    H7 5283   4.130   0.576   1.557  0.1761 -0.1663 -0.2763
  353TMC3    C1 5284   4.668   0.053   1.337 -0.6277 -0.0491 -0.9667
  353TMC3    C2 5285   0.039   0.005   1.426  0.3232  0.0401 -0.1205
  353TMC3    C3 5286   0.141   4.652   1.374  0.5650 -0.0373  0.9411
  353TMC3    C4 5287   4.689   0.037   1.202 -0.4529  0.0099 -0.2392
  353TMC3    C5 5288   0.079   4.709   1.160 -0.0403 -0.3734 -0.2650
  353TMC3    C6 5289   0.168   4.653   1.244 -0.9696 -0.3773 -0.7849
  353TMC3     C 5290   4.557   0.143   1.369 -0.6855 -0.2419 -0.2225
  353TMC3     O 5291   4.511   0.202   1.275 -0.0123 -0.1459  0.1416
  353TMC3     H 5292   0.029   0.019   1.533  0.8213 -1.0673  0.0684
  353TMC3    H1 5293   4.605   0.059   1.137 -0.7412  2.8253  1.1116
  353TMC3    H2 5294   0.262   4.607   1.215 -0.3874  1.8759 -2.5304
  353TMC3    C7 5295   0.084   4.662   1.022 -0.5033 -0.3913  0.0776
  353TMC3    C8 5296   0.201   4.560   1.469  0.5593  1.2222  0.1589
  353TMC3    O1 5297   4.708   4.631   0.961 -0.0653  0.0320  0.7496
  353TMC3    O2 5298   0.177   4.584   1.587  0.0086  0.6643  0.1689
  354TMC3    C1 5299   1.626   2.231  13.194 -0.1872 -0.4373 -0.3622
  354TMC3    C2 5300   1.682   2.347  13.168  0.4612  0.5627 -0.4238
  354TMC3    C3 5301   1.666   2.405  13.043 -0.2448 -0.7149 -0.1184
  354TMC3    C4 5302   1.547   2.169  13.104  0.3011  0.8525  0.1854
  354TMC3    C5 5303   1.537   2.219  12.979 -0.0297  0.3756 -0.1853
  354TMC3    C6 5304   1.591   2.339  12.947  0.4165 -1.4734 -0.9603
  354TMC3     C 5305   1.679   2.151  13.304  0.7765  0.0463 -0.3595
  354TMC3     O 5306   1.631   2.036  13.312 -0.1726 -0.2287  0.5800
  354TMC3     H 5307   1.723   2.410  13.246 -2.5057  3.1916 -0.9881
  354TMC3    H1 5308   1.511   2.068  13.124  0.5691  0.3229 -2.0133
  354TMC3    H2 5309   1.560   2.385  12.854 -1.4106  1.7060  1.2213
  354TMC3    C7 5310   1.554   2.121  12.875 -0.5735 -0.4625 -0.1034
  354TMC3    C8 5311   1.751   2.521  13.001 -0.0208  0.6522 -0.9065
  354TMC3    O1 5312   1.509   2.008  12.896 -0.0929  0.5625 -0.3350
  354TMC3    O2 5313   1.750   2.522  12.878 -0.1859 -0.4302  0.1383
  355MPD2     C 5314   2.099   2.972  11.636 -0.7005 -0.5950  0.2383
  355MPD2    C1 5315   2.144   2.982  11.509  0.0102  0.1162 -0.1606
  355MPD2    C2 5316   2.279   2.954  11.495 -0.4091  0.6576 -0.3018
  355MPD2    C3 5317   2.366   2.939  11.601 -0.5980  0.1610 -0.1359
  355MPD2    C4 5318   2.317   2.948  11.734 -0.1509 -0.2048  0.1649
  355MPD2    C5 5319   2.183   2.965  11.743  0.2401  0.5777 -0.5221
  355MPD2     H 5320   2.331   2.959  11.400  0.4582 -1.0977  0.0871
  355MPD2    H1 5321   2.376   2.951  11.824  1.3751 -2.6319 -0.7679
  355MPD2    H2 5322   1.992   2.984  11.647 -0.8918 -2.9052  1.0116
  355MPD2    H3 5323   2.141   2.978  11.842  0.8621  0.5295 -0.2496
  355MPD2     N 5324   2.505   2.933  11.589  0.0630 -0.6986  0.2882
  355MPD2    H5 5325   2.558   2.951  11.674  0.5581  3.2124 -0.8588
  355MPD2    N1 5326   2.045   2.999  11.405  0.8165  0.2136  0.0894
  355MPD2    H7 5327   1.948   2.995  11.432  0.7616  1.6521  0.1559
  356TMC3    C1 5328   2.714   2.927  11.485 -0.0201  0.7242 -0.1281
  356TMC3    C2 5329   2.770   2.982  11.370  0.1498  0.4299 -0.1745
  356TMC3    C3 5330   2.893   3.039  11.375 -0.2331  0.7665 -0.8157
  356TMC3    C4 5331   2.787   2.913  11.599  0.0569  0.0218  0.3746
  356TMC3    C5 5332   2.918   2.957  11.596 -0.5694  0.1396  0.1877
  356TMC3    C6 5333   2.971   3.021  11.490 -0.1743  0.8472 -0.9514
  356TMC3     C 5334   2.567   2.899  11.471  0.3128  0.2210 -0.5436
  356TMC3     O 5335   2.527   2.852  11.367 -0.3324 -0.3449  0.3621
  356TMC3     H 5336   2.717   2.976  11.276  0.2680 -1.4834 -0.1098
  356TMC3    H1 5337   2.754   2.881  11.698 -2.0465 -0.1214 -0.3690
  356TMC3    H2 5338   3.074   3.053  11.495 -0.1233  0.4873  0.3840
  356TMC3    C7 5339   2.975   2.986  11.726  0.3642 -0.3350 -0.1671
  356TMC3    C8 5340   2.940   3.096  11.254  0.1241 -0.5694  0.3343
  356TMC3    O1 5341   2.952   2.913  11.821  0.0627  0.4437  0.1178
  356TMC3    O2 5342   2.870   3.098  11.153  0.2299  0.1038  0.7168
  357MPD2     C 5343   1.418   2.185   1.026  0.3900  0.1772  0.1296
  357MPD2    C1 5344   1.420   2.053   0.988  0.1281  0.1145 -0.0023
  357MPD2    C2 5345   1.301   1.985   0.985 -0.1700 -0.5335  0.2464
  357MPD2    C3 5346   1.180   2.038   1.016  0.0988 -0.8882 -0.0208
  357MPD2    C4 5347   1.177   2.172   1.050 -0.2550 -0.7140  0.0308
  357MPD2    C5 5348   1.294   2.246   1.054  0.0032 -0.1425 -0.2426
  357MPD2     H 5349   1.306   1.886   0.943 -0.6080 -0.4402 -0.0202
  357MPD2    H1 5350   1.085   2.216   1.088  1.3186  2.9329 -0.3623
  357MPD2    H2 5351   1.506   2.248   1.038  0.8715 -0.6383  0.8897
  357MPD2    H3 5352   1.300   2.348   1.090  1.0249  0.1939 -1.3849
  357MPD2     N 5353   1.052   1.973   1.018  0.1233  0.0826 -0.1516
  357MPD2    H5 5354   0.984   2.012   1.083  0.6907 -2.1199  1.7817
  357MPD2    N1 5355   1.544   1.999   0.972  0.5044  0.3208  0.6043
  357MPD2    H7 5356   1.620   2.064   0.988  0.9061 -0.8591  3.5199
  358TMC3    C1 5357   1.714   1.843   0.917 -0.7639  0.9538  0.5958
  358TMC3    C2 5358   1.743   1.750   0.823  0.4718  0.6626 -0.5548
  358TMC3    C3 5359   1.866   1.693   0.832 -0.1650 -0.5162  0.8551
  358TMC3    C4 5360   1.794   1.880   1.025 -0.0603  0.2016 -0.0697
  358TMC3    C5 5361   1.919   1.823   1.021  0.3422  0.3426 -0.4007
  358TMC3    C6 5362   1.958   1.735   0.923 -0.0068 -0.3672 -0.2254
  358TMC3     C 5363   1.572   1.870   0.931  0.4844  0.2033 -0.2115
  358TMC3     O 5364   1.499   1.783   0.887 -0.3087 -0.7366 -0.3953
  358TMC3     H 5365   1.675   1.717   0.745 -1.4422 -2.4200  2.4260
  358TMC3    H1 5366   1.768   1.944   1.108  0.5205  1.8767 -1.1967
  358TMC3    H2 5367   2.053   1.682   0.924 -0.1688 -0.6487  0.3628
  358TMC3    C7 5368   2.005   1.851   1.134 -1.4070  0.2671  0.7183
  358TMC3    C8 5369   1.912   1.625   0.714 -0.3437 -0.1929  0.0741
  358TMC3    O1 5370   1.956   1.905   1.233 -0.3203  0.7180 -0.1936
  358TMC3    O2 5371   2.028   1.639   0.681 -0.0289  0.3586 -0.7004
  359MPD2     C 5372   2.537   1.386  12.711 -0.5383  0.0675  0.4814
  359MPD2    C1 5373   2.571   1.289  12.619  0.1641 -0.7176 -0.6370
  359MPD2    C2 5374   2.511   1.169  12.624 -0.7098  0.6696  0.2694
  359MPD2    C3 5375   2.420   1.135  12.722 -0.0180 -0.6677 -0.6712
  359MPD2    C4 5376   2.394   1.230  12.817  0.2733 -0.0914  0.1054
  359MPD2    C5 5377   2.438   1.360  12.806  0.5587  0.3510  0.1891
  359MPD2     H 5378   2.535   1.097  12.546  1.5772  0.9527  0.6941
  359MPD2    H1 5379   2.337   1.199  12.904  0.0322 -0.3813 -0.1593
  359MPD2    H2 5380   2.583   1.484  12.714 -2.8588  1.1193  1.6379
  359MPD2    H3 5381   2.417   1.423  12.892 -2.0940  2.2281 -1.8529
  359MPD2     N 5382   2.368   1.003  12.744 -0.3983  0.2241 -0.3533
  359MPD2    H5 5383   2.318   0.978  12.828 -0.6602 -1.5636 -1.0391
  359MPD2    N1 5384   2.666   1.308  12.521 -0.3118  0.2164  0.3285
  359MPD2    H7 5385   2.682   1.227  12.462 -1.5516  0.8520 -0.8896
  360TMC3    C1 5386   2.827   1.420  12.387 -0.5541  0.8557 -0.5418
  360TMC3    C2 5387   2.950   1.484  12.398  0.0413  0.0469 -0.1491
  360TMC3    C3 5388   3.025   1.480  12.283  0.8024  0.4447 -0.3647
  360TMC3    C4 5389   2.779   1.352  12.278 -0.5823 -0.4159  0.1874
  360TMC3    C5 5390   2.859   1.366  12.166 -0.2040 -0.1759 -0.8859
  360TMC3    C6 5391   2.978   1.432  12.169 -0.4198 -0.1498  0.1450
  360TMC3     C 5392   2.749   1.422  12.506  0.5331  0.1015  0.6280
  360TMC3     O 5393   2.760   1.520  12.577 -0.2965 -0.5273  0.0788
  360TMC3     H 5394   2.984   1.506  12.498  1.6910  1.1110 -0.9391
  360TMC3    H1 5395   2.685   1.298  12.270 -0.6192 -0.0267 -2.0950
  360TMC3    H2 5396   3.032   1.457  12.078 -0.1270  1.1314  0.6698
  360TMC3    C7 5397   2.810   1.331  12.036  0.3205 -0.1928 -0.2437
  360TMC3    C8 5398   3.164   1.509  12.306 -0.2026 -0.0271 -0.2495
  360TMC3    O1 5399   2.862   1.391  11.939 -0.1428  0.0674  0.0147
  360TMC3    O2 5400   3.198   1.529  12.423 -0.4169  0.9054 -0.5751
  361MPD2     C 5401   3.903   0.209  17.161  0.0555 -0.5367 -0.2599
  361MPD2    C1 5402   3.906   0.218  17.299  0.0306  0.3830  0.2851
  361MPD2    C2 5403   4.006   0.157  17.370 -0.6101  0.7771  0.1597
  361MPD2    C3 5404   4.111   0.092  17.306 -0.1821 -0.1910  0.7338
  361MPD2    C4 5405   4.119   0.103  17.170  0.0230 -0.5129 -0.1754
  361MPD2    C5 5406   4.014   0.153  17.097 -0.2613 -0.2758 -0.1672
  361MPD2     H 5407   3.999   0.160  17.478  0.4346 -0.1715  0.2479
  361MPD2    H1 5408   4.195   0.042  17.124  0.9210  1.6247 -1.5092
  361MPD2    H2 5409   3.831   0.266  17.104  1.9550  0.3197 -1.8024
  361MPD2    H3 5410   4.021   0.143  16.989 -0.5797 -3.5325  0.1047
  361MPD2     N 5411   4.220   0.025  17.366 -0.0836 -0.4195  0.3982
  361MPD2    H5 5412   4.291   4.717  17.301 -0.1429 -0.8813  0.5750
  361MPD2    N1 5413   3.806   0.301  17.357 -0.0915  0.0428 -0.4920
  361MPD2    H7 5414   3.736   0.342  17.296  1.3931  0.3829 -1.9392
  362TMC3    C1 5415   3.698   0.438  17.495 -0.2436  0.2999 -0.1664
  362TMC3    C2 5416   3.573   0.403  17.480 -0.5549 -0.3799 -0.1205
  362TMC3    C3 5417   3.474   0.497  17.447  0.3867  0.6218  0.1701
  362TMC3    C4 5418   3.738   0.566  17.470  0.5937  0.1605 -0.5993
  362TMC3    C5 5419   3.647   0.662  17.428 -0.3510  0.1803 -0.0160
  362TMC3    C6 5420   3.509   0.629  17.425  0.0888  0.0337  0.0372
  362TMC3     C 5421   3.799   0.341  17.481 -0.4221 -0.5637 -0.6758
  362TMC3     O 5422   3.879   0.324  17.570 -0.3600  0.1705 -0.5287
  362TMC3     H 5423   3.563   0.296  17.485 -1.2167 -0.2464  1.4761
  362TMC3    H1 5424   3.844   0.590  17.477  0.3755  1.4241 -1.6807
  362TMC3    H2 5425   3.442   0.704  17.385 -0.2307 -0.0317  0.4486
  362TMC3    C7 5426   3.692   0.772  17.342 -0.5227 -0.3067 -0.1563
  362TMC3    C8 5427   3.335   0.455  17.458 -0.2577 -0.7722  0.6116
  362TMC3    O1 5428   3.610   0.821  17.265  0.2824 -0.1904 -0.0580
  362TMC3    O2 5429   3.308   0.338  17.443  0.2386  0.0145 -0.2687
  363TMC3    C1 5430   2.136   2.343   9.339 -1.0592  0.8640  0.2491
  363TMC3    C2 5431   2.206   2.299   9.447  0.5383 -0.7773  0.1146
  363TMC3    C3 5432   2.197   2.374   9.562 -0.1482  0.0113 -0.2506
  363TMC3    C4 5433   2.067   2.464   9.337 -0.8898  0.0296 -0.4543
  363TMC3    C5 5434   2.054   2.531   9.454  0.3790  0.0765  0.4031
  363TMC3    C6 5435   2.121   2.487   9.568 -0.4997 -0.9469 -0.0307
  363TMC3     C 5436   2.129   2.250   9.229 -0.1924 -0.2084  1.3068
  363TMC3     O 5437   2.223   2.171   9.213 -0.0630  0.6031  0.4759
  363TMC3     H 5438   2.255   2.203   9.440 -0.8600 -1.4707 -0.2289
  363TMC3    H1 5439   2.013   2.492   9.246  1.1577  1.9104 -1.0955
  363TMC3    H2 5440   2.104   2.543   9.660 -2.3136  0.2580 -1.0976
  363TMC3    C7 5441   1.994   2.665   9.454  0.1923 -0.3054 -0.4330
  363TMC3    C8 5442   2.281   2.353   9.679  0.3819 -0.5028 -0.5299
  363TMC3    O1 5443   1.901   2.700   9.384  0.2386  0.2046  0.2501
  363TMC3    O2 5444   2.252   2.418   9.779  0.5331  0.3210  0.4245
  364MPD2     C 5445   1.539   2.297  10.717  0.6200  0.4731  0.8183
  364MPD2    C1 5446   1.623   2.219  10.646 -0.3953  0.6923 -0.4754
  364MPD2    C2 5447   1.619   2.078  10.663  1.2415  0.2959  0.8023
  364MPD2    C3 5448   1.527   2.021  10.752 -0.4838 -0.4430 -0.3972
  364MPD2    C4 5449   1.441   2.102  10.817  0.3528  0.2837  0.3505
  364MPD2    C5 5450   1.454   2.242  10.805 -1.0352 -1.0066 -0.0735
  364MPD2     H 5451   1.690   2.018  10.607  1.5869  1.3242  0.1370
  364MPD2    H1 5452   1.361   2.053  10.871  0.3668 -0.0737  0.0464
  364MPD2    H2 5453   1.548   2.405  10.709  3.2432  0.2078  0.1240
  364MPD2    H3 5454   1.385   2.299  10.867  0.3221 -0.4346  0.9004
  364MPD2     N 5455   1.527   1.882  10.784 -0.0761  0.1098  0.0724
  364MPD2    H5 5456   1.457   1.844  10.847  0.3874  2.1277  1.7964
  364MPD2    N1 5457   1.708   2.293  10.559 -0.0086 -0.0640 -0.0269
  364MPD2    H7 5458   1.706   2.394  10.570 -1.4275  0.0175 -1.0095
  365TMC3    C1 5459   1.891   2.335  10.412 -0.5975  0.4877  0.2552
  365TMC3    C2 5460   2.018   2.290  10.390 -0.0576 -0.1291 -0.6096
  365TMC3    C3 5461   2.097   2.358  10.306 -0.1218  0.1548  0.1959
  365TMC3    C4 5462   1.850   2.463  10.372  0.6985 -0.3436  0.0035
  365TMC3    C5 5463   1.945   2.538  10.301  0.4108 -0.0197 -0.7649
  365TMC3    C6 5464   2.064   2.483  10.258 -0.6900 -0.9213 -0.4576
  365TMC3     C 5465   1.808   2.239  10.482 -0.1362  0.1438 -0.3086
  365TMC3     O 5466   1.828   2.119  10.464 -0.1338 -0.6524  0.6157
  365TMC3     H 5467   2.056   2.196  10.427 -0.7275 -0.3268 -0.4261
  365TMC3    H1 5468   1.751   2.502  10.393  1.4925  1.4047  0.4825
  365TMC3    H2 5469   2.145   2.549  10.231 -2.0289  1.5151  1.3995
  365TMC3    C7 5470   1.952   2.680  10.319 -0.7133 -0.4736  0.3760
  365TMC3    C8 5471   2.233   2.314  10.285 -0.4253 -0.4400  0.6269
  365TMC3    O1 5472   2.012   2.748  10.235  0.1291 -0.5771  0.0384
  365TMC3    O2 5473   2.317   2.394  10.248 -0.2881  0.8463 -0.5658
  366MPD2     C 5474   3.897   4.348  15.672 -0.0280  0.5474 -0.6531
  366MPD2    C1 5475   4.010   4.325  15.601  0.3464 -0.0831  0.2058
  366MPD2    C2 5476   4.024   4.200  15.543  0.1722 -0.9222 -0.4314
  366MPD2    C3 5477   3.927   4.106  15.551 -0.6993  0.0340  0.3872
  366MPD2    C4 5478   3.808   4.133  15.612 -0.2738 -0.7345  0.7826
  366MPD2    C5 5479   3.796   4.253  15.675  0.2575  0.2417  0.0546
  366MPD2     H 5480   4.114   4.175  15.487 -0.2208 -0.9757 -1.0477
  366MPD2    H1 5481   3.740   4.051  15.629 -2.1361  0.4120 -1.1428
  366MPD2    H2 5482   3.879   4.440  15.726  1.4015 -0.1516  1.0242
  366MPD2    H3 5483   3.702   4.274  15.723  1.8727  1.0624  2.8570
  366MPD2     N 5484   3.956   3.973  15.513 -0.2807  0.3396  0.1951
  366MPD2    H5 5485   4.051   3.939  15.509  0.0267  1.0282  1.7305
  366MPD2    N1 5486   4.112   4.414  15.582 -0.2021  0.0093 -0.9225
  366MPD2    H7 5487   4.176   4.379  15.511  0.6328 -1.6496  0.6591
  367TMC3    C1 5488   4.251   4.590  15.564 -0.2817 -0.2877  0.1853
  367TMC3    C2 5489   4.370   4.566  15.621  0.3983  0.7777 -0.7181
  367TMC3    C3 5490   4.480   4.528  15.544 -0.2829 -0.1351  0.1778
  367TMC3    C4 5491   4.229   4.564  15.428  0.4735 -0.0349 -0.0885
  367TMC3    C5 5492   4.342   4.527  15.349  0.1783 -0.0482 -0.1914
  367TMC3    C6 5493   4.465   4.496  15.412  0.6151 -0.4522  0.1553
  367TMC3     C 5494   4.135   4.541  15.633  0.6732 -0.1787  0.4376
  367TMC3     O 5495   4.108   4.584  15.744  0.7153  0.6227 -0.4019
  367TMC3     H 5496   4.384   4.569  15.728 -1.3127  0.6583 -0.4946
  367TMC3    H1 5497   4.142   4.608  15.381  1.0974 -0.6415 -1.8225
  367TMC3    H2 5498   4.545   4.447  15.358  1.0136 -1.1846  1.3960
  367TMC3    C7 5499   4.338   4.527  15.205  0.0492 -0.0602  0.2291
  367TMC3    C8 5500   4.587   4.469  15.614 -0.1706  0.2968 -0.9499
  367TMC3    O1 5501   4.431   4.482  15.136  0.2209 -0.5449 -0.1735
  367TMC3    O2 5502   4.621   4.358  15.573  0.8292  0.0756  0.3044
  368MPD2     C 5503   0.744   4.656  13.094  0.2804 -0.4687  0.4661
  368MPD2    C1 5504   0.753   4.710  12.966 -0.3647 -0.3374 -0.5840
  368MPD2    C2 5505   0.881   0.016  12.915 -0.4810 -0.5344  0.3377
  368MPD2    C3 5506   0.998   0.008  12.993  0.0763  0.1951 -0.3594
  368MPD2    C4 5507   0.976   4.677  13.118 -0.1210 -0.5957 -0.3260
  368MPD2    C5 5508   0.856   4.637  13.169 -0.8830  0.1294 -0.0726
  368MPD2     H 5509   0.899   0.044  12.812  0.2548  1.8742  1.1176
  368MPD2    H1 5510   1.062   4.671  13.183 -0.5670  2.5777  0.5792
  368MPD2    H2 5511   0.648   4.640  13.140 -1.2303  3.1172 -1.3875
  368MPD2    H3 5512   0.853   4.607  13.273 -0.3982  1.1815  0.2488
  368MPD2     N 5513   1.131   0.046  12.967 -0.1017 -0.4485 -0.0420
  368MPD2    H5 5514   1.202   0.034  13.038  1.6937 -0.5382 -1.8637
  368MPD2    N1 5515   0.633   0.030  12.901  0.2971 -0.5825 -0.0837
  368MPD2    H7 5516   0.555   0.033  12.966 -1.2176 -0.6925 -1.8832
  369TMC3    C1 5517   0.533   0.207  12.770 -0.4191  0.5849  1.2016
  369TMC3    C2 5518   0.575   0.336  12.731 -0.4170  0.2883 -0.5817
  369TMC3    C3 5519   0.498   0.447  12.759 -0.1393 -0.3901 -0.7817
  369TMC3    C4 5520   0.410   0.199  12.836  0.4459 -0.8493 -0.0902
  369TMC3    C5 5521   0.337   0.313  12.862 -0.7970 -0.2357 -0.3839
  369TMC3    C6 5522   0.382   0.440  12.836 -1.0701 -0.1592 -0.5185
  369TMC3     C 5523   0.639   0.110  12.786 -0.0019  1.1728 -1.3171
  369TMC3     O 5524   0.714   0.092  12.695  0.7570 -0.0965  0.4164
  369TMC3     H 5525   0.664   0.347  12.670 -0.6390  1.2625 -0.7384
  369TMC3    H1 5526   0.373   0.102  12.866 -0.8032 -0.9680 -1.9934
  369TMC3    H2 5527   0.324   0.528  12.862 -0.0580 -0.6347  3.3734
  369TMC3    C7 5528   0.224   0.293  12.953 -1.2303  0.8114  1.1021
  369TMC3    C8 5529   0.554   0.575  12.735 -0.0255 -0.4777  0.0545
  369TMC3    O1 5530   0.221   0.197  13.027 -0.0121 -0.1286 -0.1574
  369TMC3    O2 5531   0.465   0.660  12.735 -0.0365  0.5622  0.8678
  370TMC3    C1 5532   0.253   1.218  16.481  0.0804 -0.4640  0.0162
  370TMC3    C2 5533   0.206   1.151  16.594 -0.9504 -0.3000 -0.5553
  370TMC3    C3 5534   0.183   1.016  16.597  0.1664 -0.1786  0.7962
  370TMC3    C4 5535   0.277   1.152  16.364  0.8586  0.0968  0.3462
  370TMC3    C5 5536   0.256   1.017  16.369  0.0516 -0.0064  0.4173
  370TMC3    C6 5537   0.210   0.940  16.479  0.0274  0.2135  0.3777
  370TMC3     C 5538   0.208   1.356  16.473 -0.2765 -0.4187 -0.3493
  370TMC3     O 5539   0.094   1.375  16.515  0.0076 -0.2126 -0.2571
  370TMC3     H 5540   0.204   1.218  16.679  2.8614 -2.7786  1.5301
  370TMC3    H1 5541   0.308   1.212  16.280 -1.1094  1.4957  0.6143
  370TMC3    H2 5542   0.178   0.838  16.458  3.9779 -0.3840 -2.6599
  370TMC3    C7 5543   0.287   0.954  16.247 -0.6830 -0.2381  0.1706
  370TMC3    C8 5544   0.188   0.946  16.723  0.0120  0.3800 -0.0570
  370TMC3    O1 5545   0.270   1.018  16.144  0.1810  1.0850 -0.2028
  370TMC3    O2 5546   0.245   0.838  16.726  0.3873  0.0775 -0.2409
  371TMC3    C1 5547   1.361   3.949  16.011 -0.7562 -0.5244 -0.8166
  371TMC3    C2 5548   1.238   3.967  16.069  0.2306 -0.0758  0.6373
  371TMC3    C3 5549   1.150   4.067  16.027 -0.2642  0.0863 -0.1485
  371TMC3    C4 5550   1.399   4.041  15.915 -0.3692  0.1027 -0.4305
  371TMC3    C5 5551   1.299   4.133  15.876 -0.5179  0.4145  0.2518
  371TMC3    C6 5552   1.182   4.159  15.932 -0.2430  0.3709  0.5502
  371TMC3     C 5553   1.444   3.842  16.045 -0.8299 -0.3991 -0.0096
  371TMC3     O 5554   1.564   3.868  16.043  0.1410  0.5087 -0.2860
  371TMC3     H 5555   1.203   3.912  16.155  0.2198 -1.0888 -0.0118
  371TMC3    H1 5556   1.494   4.036  15.863  1.7596  0.6512  3.3978
  371TMC3    H2 5557   1.118   4.228  15.880  0.9239 -0.0306 -1.4227
  371TMC3    C7 5558   1.334   4.213  15.762  0.5189  0.5352  0.4198
  371TMC3    C8 5559   1.016   4.028  16.060 -0.4729  0.3114 -0.0849
  371TMC3    O1 5560   1.295   4.334  15.758 -0.0573  0.3090  0.3242
  371TMC3    O2 5561   0.992   3.906  16.086  0.3541  0.1615 -0.0555
  372MPD2     C 5562   1.001   0.428  13.126  0.4477 -0.0614 -0.2389
  372MPD2    C1 5563   1.118   0.401  13.196  0.4580  0.0800  0.8895
  372MPD2    C2 5564   1.114   0.301  13.301  0.0284  0.1602  0.2462
  372MPD2    C3 5565   0.999   0.227  13.334  0.4592  0.4419  0.2926
  372MPD2    C4 5566   0.890   0.257  13.253 -0.7390  0.7319  0.1423
  372MPD2    C5 5567   0.891   0.349  13.155 -0.8000 -0.0474  0.3921
  372MPD2     H 5568   1.207   0.279  13.352  1.5615 -1.2666 -3.1455
  372MPD2    H1 5569   0.794   0.209  13.272 -0.3454  0.3888  1.2631
  372MPD2    H2 5570   0.989   0.499  13.044 -0.7953 -0.2573 -0.2268
  372MPD2    H3 5571   0.800   0.367  13.100 -1.8138 -2.0347  1.4016
  372MPD2     N 5572   0.991   0.125  13.432 -0.2265 -0.6644 -0.0951
  372MPD2    H5 5573   1.080   0.097  13.473 -0.6163 -0.6089  0.7655
  372MPD2    N1 5574   1.240   0.475  13.170 -0.2680  0.8069  0.5106
  372MPD2    H7 5575   1.319   0.449  13.228 -0.5340 -2.4394 -0.5920
  373TMC3    C1 5576   0.919   4.705  13.596 -0.6059  0.1866  0.3761
  373TMC3    C2 5577   0.858   4.720  13.715  0.0440  0.3564  0.3918
  373TMC3    C3 5578   0.908   4.653  13.824  0.2479  0.0168 -0.3592
  373TMC3    C4 5579   1.016   4.611  13.566  0.0519 -0.3608  0.2330
  373TMC3    C5 5580   1.057   4.540  13.677 -0.3864  0.3671 -0.0376
  373TMC3    C6 5581   1.013   4.560  13.808  0.2985 -0.2210  0.6284
  373TMC3     C 5582   0.883   0.075  13.494  0.4155  0.5052 -0.2122
  373TMC3     O 5583   0.765   0.107  13.473 -0.1753  0.1046  0.1098
  373TMC3     H 5584   0.779   0.070  13.720  0.5831  0.8815  1.0187
  373TMC3    H1 5585   1.064   4.611  13.469  3.1903  0.1381  1.7901
  373TMC3    H2 5586   1.044   4.507  13.897  0.0851 -0.7092  0.4135
  373TMC3    C7 5587   1.167   4.445  13.654 -0.0858  0.4145  0.2349
  373TMC3    C8 5588   0.890   4.721  13.953  0.3420  0.0033  0.5373
  373TMC3    O1 5589   1.254   4.480  13.576 -0.3379  0.3764 -0.5400
  373TMC3    O2 5590   0.981   4.695  14.032  0.0638  0.4108 -0.4268
  374TMC3    C1 5591   1.807   0.148   9.989  0.3849  0.3466 -0.4968
  374TMC3    C2 5592   1.842   0.285   9.978  0.1613  0.4536 -0.3854
  374TMC3    C3 5593   1.813   0.344   9.856  0.3226 -0.2528 -0.7587
  374TMC3    C4 5594   1.733   0.080   9.889 -0.4137 -0.4988  0.8291
  374TMC3    C5 5595   1.705   0.150   9.772  0.4696  0.4459  0.3519
  374TMC3    C6 5596   1.740   0.282   9.762  0.5450 -0.0229 -0.0844
  374TMC3     C 5597   1.809   0.088  10.128 -0.7408  0.3731 -0.1010
  374TMC3     O 5598   1.819   0.170  10.216 -0.0499 -0.4049  0.0174
  374TMC3     H 5599   1.899   0.330  10.059  0.3595  0.9812 -0.8144
  374TMC3    H1 5600   1.695   4.705   9.906 -0.8490 -0.3057  0.9763
  374TMC3    H2 5601   1.737   0.337   9.669  0.2734  1.9479  1.0900
  374TMC3    C7 5602   1.636   0.084   9.662 -0.3042 -0.2669 -0.3312
  374TMC3    C8 5603   1.870   0.478   9.832  0.3814  0.3391  0.3870
  374TMC3    O1 5604   1.609   4.689   9.665  0.2734  0.5156  0.8883
  374TMC3    O2 5605   1.811   0.538   9.744 -0.0989 -0.2027 -0.5784
  375MPD2     C 5606   1.825   1.020  17.096  0.6514 -0.6634  0.2548
  375MPD2    C1 5607   1.733   1.075  17.002 -0.2897 -0.8948  0.4290
  375MPD2    C2 5608   1.780   1.126  16.886 -0.4970  0.2739 -0.4283
  375MPD2    C3 5609   1.923   1.131  16.859  0.1378  0.7751 -0.3994
  375MPD2    C4 5610   2.010   1.084  16.956 -0.0451  0.1312  0.1612
  375MPD2    C5 5611   1.961   1.034  17.076 -0.1669 -0.1412  0.0726
  375MPD2     H 5612   1.712   1.161  16.809 -1.6466  0.1978  0.5450
  375MPD2    H1 5613   2.114   1.105  16.935 -0.4829  0.2831 -1.8548
  375MPD2    H2 5614   1.785   0.996  17.194  0.0107  2.9354  0.8640
  375MPD2    H3 5615   2.024   1.019  17.163  1.9361  1.4977 -1.1707
  375MPD2     N 5616   1.981   1.181  16.738  0.3181 -0.3009  0.2762
  375MPD2    H5 5617   2.075   1.218  16.738  0.3125 -0.2865 -0.4842
  375MPD2    N1 5618   1.592   1.071  17.017 -0.1357  0.0216 -0.1772
  375MPD2    H7 5619   1.535   1.129  16.956 -0.4467  0.2455  0.3330
  376TMC3    C1 5620   1.977   1.252  16.509 -0.5917  0.1476  0.4047
  376TMC3    C2 5621   2.093   1.329  16.527  0.1277 -0.6905 -0.2083
  376TMC3    C3 5622   2.139   1.404  16.416  0.1219 -0.1116 -0.5866
  376TMC3    C4 5623   1.920   1.241  16.384 -0.1301  0.5545  0.7333
  376TMC3    C5 5624   1.963   1.321  16.285  0.1184 -0.3876  0.0625
  376TMC3    C6 5625   2.072   1.406  16.293 -0.0470  0.9631 -0.1964
  376TMC3     C 5626   1.907   1.183  16.621  0.8237  0.3788 -0.6752
  376TMC3     O 5627   1.799   1.131  16.596 -0.2056  0.5106 -0.1494
  376TMC3     H 5628   2.135   1.351  16.624  0.0468 -0.1279 -0.3055
  376TMC3    H1 5629   1.829   1.183  16.374  0.3506 -0.1538  0.3886
  376TMC3    H2 5630   2.123   1.444  16.206 -0.1468  2.3173  0.3306
  376TMC3    C7 5631   1.932   1.284  16.150 -0.2902  0.0733 -0.4378
  376TMC3    C8 5632   2.275   1.468  16.416 -0.3875  0.8153 -0.1159
  376TMC3    O1 5633   1.941   1.375  16.062 -0.0271  0.3510 -0.1463
  376TMC3    O2 5634   2.298   1.547  16.326  0.3925  0.1939 -0.4492
  377MPD2     C 5635   0.074   1.249  12.246  0.3184  0.1542  0.6089
  377MPD2    C1 5636   0.121   1.122  12.284 -0.3288 -0.4689  0.0111
  377MPD2    C2 5637   0.064   1.052  12.390  0.4041 -0.4987 -0.2689
  377MPD2    C3 5638   4.673   1.108  12.447 -0.6830  0.1897 -0.4236
  377MPD2    C4 5639   4.626   1.225  12.403 -0.3398 -0.1931  0.6312
  377MPD2    C5 5640   4.686   1.291  12.303  0.2223  0.6589 -0.5754
  377MPD2     H 5641   0.087   0.948  12.411 -0.7953 -0.8140 -0.5064
  377MPD2    H1 5642   4.528   1.253  12.438 -1.9516 -3.3223 -1.4941
  377MPD2    H2 5643   0.122   1.299  12.163 -1.1435  0.4396 -0.0729
  377MPD2    H3 5644   4.645   1.388  12.277 -0.6498  0.3189 -0.4699
  377MPD2     N 5645   4.593   1.047  12.540  0.1902 -0.1529 -0.4758
  377MPD2    H5 5646   4.506   1.098  12.551 -0.0232 -0.3438 -1.2729
  377MPD2    N1 5647   0.240   1.085  12.218  0.1293 -0.2193 -0.6628
  377MPD2    H7 5648   0.279   1.141  12.143 -0.5353 -0.2793 -1.0549
  378TMC3    C1 5649   0.528   1.012  11.951 -0.3141  0.3388 -0.6189
  378TMC3    C2 5650   0.419   1.021  12.032  0.0396 -0.5002 -0.5200
  378TMC3    C3 5651   0.435   0.980  12.163  0.1409 -0.0294 -1.5432
  378TMC3    C4 5652   0.651   0.975  11.993  0.6906 -0.3470  1.2174
  378TMC3    C5 5653   0.663   0.938  12.121  0.3021  0.1381  0.8779
  378TMC3    C6 5654   0.557   0.930  12.202 -0.4557 -0.1867 -0.1436
  378TMC3     C 5655   0.517   1.055  11.816 -0.1432  0.1504 -0.1599
  378TMC3     O 5656   0.434   1.143  11.800  0.2109  0.0707  0.0794
  378TMC3     H 5657   0.322   1.040  11.989 -0.1524 -1.7989 -0.6783
  378TMC3    H1 5658   0.739   0.985  11.930 -0.5129 -0.0960 -0.4366
  378TMC3    H2 5659   0.572   0.895  12.303 -1.5725  1.2889  0.5250
  378TMC3    C7 5660   0.791   0.894  12.177 -0.0753  0.3952 -0.6796
  378TMC3    C8 5661   0.321   0.978  12.250 -0.6260  0.1223 -0.4699
  378TMC3    O1 5662   0.777   0.843  12.286 -0.9935  0.1665 -0.4697
  378TMC3    O2 5663   0.328   0.897  12.341  0.8229  0.4252  0.8094
  379MPD2     C 5664   0.308   3.769  16.401 -0.0916  0.8057  0.7454
  379MPD2    C1 5665   0.418   3.740  16.326  0.4562  0.6379  0.3936
  379MPD2    C2 5666   0.490   3.620  16.357  0.0682  0.3547 -0.1773
  379MPD2    C3 5667   0.444   3.534  16.464  0.3955  0.4749  0.4642
  379MPD2    C4 5668   0.337   3.579  16.540 -1.4195 -0.4209 -0.3858
  379MPD2    C5 5669   0.270   3.694  16.505 -0.5733 -1.0567  0.0594
  379MPD2     H 5670   0.574   3.586  16.299  0.0226  0.2662 -0.1913
  379MPD2    H1 5671   0.296   3.519  16.621 -0.1092 -0.5902  0.1525
  379MPD2    H2 5672   0.255   3.861  16.382 -0.8893  0.0806 -0.5906
  379MPD2    H3 5673   0.184   3.719  16.565 -0.0456  1.1325 -0.0850
  379MPD2     N 5674   0.516   3.419  16.514 -0.4423  0.5286 -0.0136
  379MPD2    H5 5675   0.475   3.380  16.598  1.4943 -0.8736  0.2821
  379MPD2    N1 5676   0.441   3.830  16.214  0.0311  1.7138  0.0524
  379MPD2    H7 5677   0.383   3.913  16.209  0.4418  1.9651 -0.6253
  380TMC3    C1 5678   0.523   3.909  16.011  0.0775 -0.1954  0.4093
  380TMC3    C2 5679   0.538   3.859  15.885  0.3433 -0.2446 -0.0665
  380TMC3    C3 5680   0.485   3.933  15.783 -1.3534 -0.1625  0.7643
  380TMC3    C4 5681   0.467   4.029  16.037  0.1501  0.2457 -0.5348
  380TMC3    C5 5682   0.431   4.101  15.928 -1.0863 -0.9461 -0.6064
  380TMC3    C6 5683   0.428   4.056  15.799 -0.0116  0.2002 -0.1878
  380TMC3     C 5684   0.535   3.813  16.119 -0.1505  0.6221 -0.8441
  380TMC3     O 5685   0.606   3.714  16.097  0.4144  0.6659 -0.8307
  380TMC3     H 5686   0.598   3.770  15.867  0.9673  0.2578 -0.4817
  380TMC3    H1 5687   0.460   4.071  16.137  0.6952  0.3459 -0.5362
  380TMC3    H2 5688   0.405   4.122  15.716 -0.0326  0.3111 -0.0940
  380TMC3    C7 5689   0.364   4.229  15.958  0.3754  0.0423  0.5691
  380TMC3    C8 5690   0.517   3.887  15.646  0.0414 -0.0277  0.4631
  380TMC3    O1 5691   0.369   4.268  16.071 -0.8128  0.1586 -0.4387
  380TMC3    O2 5692   0.634   3.852  15.625 -0.1248  0.3119  0.2789
  381TMC3    C1 5693   0.040   0.429  16.428  0.6532 -0.5507  0.1802
  381TMC3    C2 5694   0.151   0.506  16.425  0.6140 -0.2102  0.4919
  381TMC3    C3 5695   0.201   0.545  16.542 -0.0448 -0.1286 -1.3866
  381TMC3    C4 5696   4.702   0.393  16.546  0.2646 -0.2380  0.2630
  381TMC3    C5 5697   0.036   0.445  16.662  0.2332 -0.2729 -0.5203
  381TMC3    C6 5698   0.147   0.524  16.662 -0.2367  0.4037  0.2568
  381TMC3     C 5699   4.710   0.362  16.312  0.0010 -0.4096  0.1280
  381TMC3     O 5700   4.676   0.244  16.325 -0.0598 -0.6006 -0.4201
  381TMC3     H 5701   0.207   0.516  16.333  1.2257 -0.8891  0.7865
  381TMC3    H1 5702   4.620   0.323  16.554  0.5823 -0.6915 -0.4686
  381TMC3    H2 5703   0.204   0.555  16.749  1.2306  1.0587 -0.9429
  381TMC3    C7 5704   0.007   0.367  16.782  0.3890  0.0372 -0.3846
  381TMC3    C8 5705   0.349   0.542  16.543  0.7446  0.1932 -0.2911
  381TMC3    O1 5706   4.684   0.256  16.763 -0.0852  0.1398  0.0763
  381TMC3    O2 5707   0.394   0.463  16.464 -0.0334  0.3018 -0.3256
  382MPD2     C 5708   4.529   2.691  17.641 -0.0215 -0.3082 -0.0763
  382MPD2    C1 5709   4.422   2.676  17.553 -0.1358 -0.1591 -0.5709
  382MPD2    C2 5710   4.375   2.549  17.532 -0.4217 -0.1325 -0.3153
  382MPD2    C3 5711   4.428   2.443  17.600  0.0658  0.0758  0.8096
  382MPD2    C4 5712   4.524   2.461  17.694  0.2304  0.2333  0.2084
  382MPD2    C5 5713   4.572   2.586   0.012  0.3825 -0.1321 -0.1373
  382MPD2     H 5714   4.293   2.538  17.462  0.3521  0.1497 -1.2590
  382MPD2    H1 5715   4.562   2.379   0.051 -0.1808  0.4607  0.7910
  382MPD2    H2 5716   4.586   2.782  17.651  2.6028 -2.1521  1.8465
  382MPD2    H3 5717   4.659   2.597   0.076  1.2250 -1.7720 -1.0244
  382MPD2     N 5718   4.373   2.320  17.597  0.0190 -0.5330  0.6835
  382MPD2    H5 5719   4.415   2.254  17.662 -2.9589 -0.3548  2.8247
  382MPD2    N1 5720   4.375   2.784  17.478 -0.0052 -0.3210  0.1122
  382MPD2    H7 5721   4.298   2.766  17.414  0.7405 -0.4692 -0.7524
  383TMC3    C1 5722   4.240   2.131  17.534  0.3537 -0.2866  0.1446
  383TMC3    C2 5723   4.160   2.074  17.436 -0.4748 -0.1184 -0.0376
  383TMC3    C3 5724   4.108   1.949  17.460  0.0089  0.4062 -0.1753
  383TMC3    C4 5725   4.261   2.075  17.656 -0.3208 -0.8204  0.5450
  383TMC3    C5 5726   4.201   1.955  17.673  0.9056  0.7275 -0.3231
  383TMC3    C6 5727   4.124   1.890  17.583 -0.6068 -0.1094  0.3041
  383TMC3     C 5728   4.276   2.271  17.508 -0.3400 -0.3666 -0.3085
  383TMC3     O 5729   4.223   2.321  17.410 -0.1192 -0.1571 -0.3053
  383TMC3     H 5730   4.161   2.113  17.335 -1.1355  0.4920  0.1896
  383TMC3    H1 5731   4.295   2.134   0.039  0.9286 -1.4444  0.4918
  383TMC3    H2 5732   4.069   1.805  17.622 -1.5693  0.3363 -0.0848
  383TMC3    C7 5733   4.230   1.887   0.099 -0.7549 -0.3797 -0.0162
  383TMC3    C8 5734   4.048   1.863  17.359 -0.6198 -0.3448 -0.6764
  383TMC3    O1 5735   4.133   1.840   0.151 -0.4498  0.0715 -0.2245
  383TMC3    O2 5736   3.995   1.926  17.270 -0.1010 -0.3343 -0.2775
  384MPD2     C 5737   1.744   3.884  12.131 -0.6393  0.0105  0.1865
  384MPD2    C1 5738   1.743   3.807  12.246  0.7726  0.1066  0.3351
  384MPD2    C2 5739   1.802   3.680  12.246  0.3012  0.2642 -0.5593
  384MPD2    C3 5740   1.842   3.627  12.125 -0.7961  0.8156  0.5056
  384MPD2    C4 5741   1.836   3.698  12.005 -0.0984 -0.5841  0.4969
  384MPD2    C5 5742   1.794   3.834  12.012 -0.7941  0.9797  0.1894
  384MPD2     H 5743   1.792   3.619  12.335  0.9407  1.0252  0.0352
  384MPD2    H1 5744   1.873   3.669  11.907  0.0497 -1.1491  0.7170
  384MPD2    H2 5745   1.684   3.974  12.125  0.3743  0.6729 -0.0087
  384MPD2    H3 5746   1.783   3.891  11.920 -0.3444 -1.9020 -1.6669
  384MPD2     N 5747   1.897   3.501  12.130 -0.5016  0.3071  0.3232
  384MPD2    H5 5748   1.914   3.453  12.218  0.4895 -0.5089 -0.3089
  384MPD2    N1 5749   1.672   3.837  12.359  0.4035  0.2818 -0.5142
  384MPD2    H7 5750   1.665   3.764  12.430  0.6947 -0.4691 -1.2572
  385TMC3    C1 5751   1.933   3.284  12.048 -0.6770 -0.0038  0.0017
  385TMC3    C2 5752   1.869   3.187  11.968  0.3388  0.5031 -0.8474
  385TMC3    C3 5753   1.803   3.090  12.037  0.6522 -0.5514 -0.4218
  385TMC3    C4 5754   1.957   3.264  12.184 -0.1661 -1.2355 -0.2762
  385TMC3    C5 5755   1.875   3.169  12.242  0.1640 -0.2028  0.5167
  385TMC3    C6 5756   1.799   3.082  12.175  0.8666  0.0974 -0.1275
  385TMC3     C 5757   1.912   3.427  12.012  0.0972  0.4726  0.6493
  385TMC3     O 5758   1.869   3.437  11.897  0.3166 -0.1903 -0.4241
  385TMC3     H 5759   1.856   3.203  11.862  1.7440 -2.7872 -1.5204
  385TMC3    H1 5760   2.023   3.326  12.243 -1.7620  1.1882 -1.0265
  385TMC3    H2 5761   1.752   3.001  12.230 -1.3931  0.5630 -1.3521
  385TMC3    C7 5762   1.820   3.222  12.367 -0.2541  0.3272  0.1627
  385TMC3    C8 5763   1.713   2.998  11.972 -0.7044 -0.2210 -0.6010
  385TMC3    O1 5764   1.841   3.345  12.382 -0.0106 -0.6131 -0.6030
  385TMC3    O2 5765   1.642   2.933  12.044 -0.0053 -0.6364  0.0044
  386TMC3    C1 5766   1.507   0.879  11.860  1.0541  0.3310  0.1114
  386TMC3    C2 5767   1.525   0.862  11.722 -0.4259  1.0541  0.5628
  386TMC3    C3 5768   1.440   0.924  11.641  0.3659 -0.3601 -0.3824
  386TMC3    C4 5769   1.387   0.941  11.908 -0.2077 -0.1311  0.1544
  386TMC3    C5 5770   1.306   0.999  11.818  0.0372 -0.6349 -0.3350
  386TMC3    C6 5771   1.335   0.999  11.687 -0.1447  0.2621 -0.1118
  386TMC3     C 5772   1.607   0.847  11.965 -0.2908  0.1144 -0.8347
  386TMC3     O 5773   1.577   0.855  12.084  0.0493 -0.2588  0.1829
  386TMC3     H 5774   1.607   0.797  11.694 -0.6353  0.7559  0.6489
  386TMC3    H1 5775   1.376   0.952  12.015  1.1824  0.1929  0.2674
  386TMC3    H2 5776   1.282   1.059  11.614 -2.3562  1.1307  2.1826
  386TMC3    C7 5777   1.191   1.072  11.874  0.3588 -0.1594 -0.0167
  386TMC3    C8 5778   1.412   0.863  11.516  0.2165  0.6624 -0.7091
  386TMC3    O1 5779   1.187   1.097  11.994 -0.5980 -0.7280 -0.1871
  386TMC3    O2 5780   1.301   0.874  11.466 -0.1324  0.5834  0.2549
  387MPD2     C 5781   4.160   1.148   9.360 -0.5838  0.1823 -0.6480
  387MPD2    C1 5782   4.294   1.115   9.354 -0.1062  0.0021  0.4434
  387MPD2    C2 5783   4.332   0.984   9.373 -0.5072  0.0447 -0.1288
  387MPD2    C3 5784   4.247   0.885   9.404  0.6025  0.6606  0.3599
  387MPD2    C4 5785   4.113   0.919   9.408 -0.3822  1.1711  0.0739
  387MPD2    C5 5786   4.071   1.046   9.384  0.0211  0.0317 -0.0530
  387MPD2     H 5787   4.437   0.969   9.351 -0.8145 -0.3507 -1.3377
  387MPD2    H1 5788   4.038   0.848   9.442 -1.1934  1.4513 -1.1432
  387MPD2    H2 5789   4.123   1.250   9.353  2.2468  1.2905  0.4472
  387MPD2    H3 5790   3.965   1.068   9.389 -0.0339  0.3880 -2.7763
  387MPD2     N 5791   4.299   0.760   9.440  0.2299  0.2573 -0.5624
  387MPD2    H5 5792   4.401   0.755   9.440  0.2512  0.5193  1.8389
  387MPD2    N1 5793   4.397   1.204   9.331  0.3071  0.2490 -0.3723
  387MPD2    H7 5794   4.493   1.170   9.326  0.3701  0.0558  1.7535
  388TMC3    C1 5795   4.517   1.393   9.393  0.0616 -0.9231 -0.1042
  388TMC3    C2 5796   4.527   1.528   9.388 -0.3504  0.2438  0.4667
  388TMC3    C3 5797   4.639   1.586   9.443  0.0983  1.0268 -0.2552
  388TMC3    C4 5798   4.587   1.312   9.483 -0.0757 -0.5225 -0.2075
  388TMC3    C5 5799   4.693   1.372   9.540  0.4132  0.4489 -0.0060
  388TMC3    C6 5800   4.721   1.507   9.525 -0.2464 -0.4048  0.3586
  388TMC3     C 5801   4.387   1.341   9.354 -0.4513 -0.1727  0.6126
  388TMC3     O 5802   4.290   1.410   9.350 -0.7716 -0.1531  0.1026
  388TMC3     H 5803   4.453   1.584   9.330  0.4261 -0.6978 -1.4169
  388TMC3    H1 5804   4.549   1.217   9.520  1.1445 -0.5698  0.9415
  388TMC3    H2 5805   0.077   1.555   9.577  0.0181 -1.0189  0.5152
  388TMC3    C7 5806   0.034   1.303   9.648 -0.3690  0.1455 -0.5716
  388TMC3    C8 5807   4.682   1.725   9.423 -0.4576 -0.3530 -0.4009
  388TMC3    O1 5808   0.071   1.372   9.744  0.0403 -0.1263  0.2528
  388TMC3    O2 5809   0.072   1.754   9.453 -0.0048 -0.1807  0.4000
  389MPD2     C 5810   3.756   4.157  10.944  1.0531 -0.3978 -0.3909
  389MPD2    C1 5811   3.653   4.084  10.886 -0.7143  0.8338  0.9393
  389MPD2    C2 5812   3.575   4.000  10.967 -0.6904  0.0995 -0.0349
  389MPD2    C3 5813   3.582   3.998  11.106  0.2471 -0.0495 -0.0505
  389MPD2    C4 5814   3.675   4.081  11.159 -0.8631  0.0141  0.5604
  389MPD2    C5 5815   3.755   4.157  11.079 -0.1582  0.0031 -0.0418
  389MPD2     H 5816   3.492   3.952  10.918 -0.1055 -0.3233 -0.6216
  389MPD2    H1 5817   3.688   4.082  11.267  1.1867  0.5782  0.3167
  389MPD2    H2 5818   3.824   4.221  10.889  0.1728  0.1599 -0.8073
  389MPD2    H3 5819   3.840   4.204  11.126 -0.1473  0.7773 -0.8447
  389MPD2     N 5820   3.504   3.926  11.196 -0.5553 -0.6566 -0.4324
  389MPD2    H5 5821   3.524   3.941  11.294 -3.3610  1.5344 -0.1803
  389MPD2    N1 5822   3.644   4.102  10.747 -0.3382  0.1938 -0.1450
  389MPD2    H7 5823   3.703   4.174  10.707  1.0200  0.2185  1.9447
  390TMC3    C1 5824   3.316   3.793  11.269  0.1840 -0.3043  0.2428
  390TMC3    C2 5825   3.234   3.682  11.254  0.1073 -1.0040  0.0576
  390TMC3    C3 5826   3.143   3.658  11.356 -0.2139  0.0101  0.2104
  390TMC3    C4 5827   3.286   3.887  11.365 -0.0906  0.0541 -0.3327
  390TMC3    C5 5828   3.177   3.866  11.443 -0.7711 -0.2607 -0.0283
  390TMC3    C6 5829   3.108   3.748  11.446 -0.5138  0.0817 -0.5063
  390TMC3     C 5830   3.413   3.826  11.169  0.3847  0.4128 -0.4450
  390TMC3     O 5831   3.390   3.776  11.056  0.1246  0.7430  0.1368
  390TMC3     H 5832   3.262   3.602  11.186 -1.8391  0.9440 -3.0134
  390TMC3    H1 5833   3.341   3.981  11.367 -2.9361  1.6491  2.8731
  390TMC3    H2 5834   3.021   3.735  11.510 -0.1092  0.9176  0.2100
  390TMC3    C7 5835   3.111   3.990  11.493 -0.0348 -0.3533 -1.0698
  390TMC3    C8 5836   3.061   3.537  11.342 -0.5213  0.3491  1.0750
  390TMC3    O1 5837   3.160   4.095  11.459  0.8032  0.7469 -0.2392
  390TMC3    O2 5838   3.017   3.518  11.225  0.2633 -0.3008 -0.4802
  391MPD2     C 5839   2.418   0.704  11.247 -0.1684 -0.8453 -0.2903
  391MPD2    C1 5840   2.498   0.808  11.197  1.0283 -0.3039  0.2318
  391MPD2    C2 5841   2.529   0.818  11.062 -0.0364  0.7515 -0.2546
  391MPD2    C3 5842   2.466   0.741  10.966  0.8100 -0.3260 -0.6190
  391MPD2    C4 5843   2.379   0.648  11.019 -0.5683 -0.3616 -0.2583
  391MPD2    C5 5844   2.360   0.625  11.150  0.2758  0.4598 -0.2720
  391MPD2     H 5845   2.599   0.890  11.022  0.3682 -0.3787 -1.6028
  391MPD2    H1 5846   2.330   0.581  10.949 -0.6002 -1.1520  0.5067
  391MPD2    H2 5847   2.401   0.676  11.351  2.3256 -2.1912 -0.2519
  391MPD2    H3 5848   2.296   0.548  11.192  0.6112  0.7298  0.7458
  391MPD2     N 5849   2.470   0.775  10.829 -0.5326 -0.1761  0.5027
  391MPD2    H5 5850   2.545   0.839  10.804 -1.0061  0.2428  0.1638
  391MPD2    N1 5851   2.545   0.899  11.298 -0.0475  0.7473 -0.1436
  391MPD2    H7 5852   2.545   0.865  11.394 -3.9104  2.6033  0.4871
  392TMC3    C1 5853   2.434   0.767  10.592  0.1440 -0.1104 -0.0635
  392TMC3    C2 5854   2.361   0.714  10.491  0.6920 -0.2074 -0.6247
  392TMC3    C3 5855   2.377   0.777  10.371  0.4699  0.7620 -0.2266
  392TMC3    C4 5856   2.516   0.872  10.579 -0.1018  0.0147  0.0508
  392TMC3    C5 5857   2.520   0.935  10.458  0.0352 -0.5158  0.1062
  392TMC3    C6 5858   2.456   0.887  10.349 -0.1655  0.0429 -0.2997
  392TMC3     C 5859   2.390   0.729  10.731 -0.4880 -0.3568  0.5774
  392TMC3     O 5860   2.298   0.647  10.726 -0.6908 -0.4398 -0.1093
  392TMC3     H 5861   2.296   0.627  10.501  0.6080  0.2035  2.3977
  392TMC3    H1 5862   2.572   0.914  10.661  4.0358 -2.7123 -1.3554
  392TMC3    H2 5863   2.466   0.928  10.249  0.4095 -1.0832 -0.7036
  392TMC3    C7 5864   2.625   1.036  10.449  0.3764 -0.1403 -0.5027
  392TMC3    C8 5865   2.316   0.713  10.259 -0.1990  0.3834  1.0769
  392TMC3    O1 5866   2.695   1.051  10.549 -0.1191 -0.3651 -0.2448
  392TMC3    O2 5867   2.268   0.605  10.278 -0.1490 -0.5924 -0.4923
  393TMC3    C1 5868   1.468   3.456  10.800  0.6184  0.2804  0.4116
  393TMC3    C2 5869   1.373   3.489  10.894  0.1380  0.1657 -0.4081
  393TMC3    C3 5870   1.418   3.529  11.019 -1.0464 -0.5393 -0.0998
  393TMC3    C4 5871   1.604   3.475  10.816  0.1650  0.4381  0.1327
  393TMC3    C5 5872   1.643   3.514  10.946  0.0585 -0.3475 -0.0975
  393TMC3    C6 5873   1.551   3.531  11.044 -0.0182  0.3733  0.6548
  393TMC3     C 5874   1.421   3.436  10.665 -0.5215 -0.1351 -0.2609
  393TMC3     O 5875   1.303   3.469  10.640 -0.2232  0.1454 -0.2902
  393TMC3     H 5876   1.267   3.477  10.873  0.4054 -0.6070 -1.3082
  393TMC3    H1 5877   1.679   3.465  10.740 -0.7175 -3.0086 -0.3019
  393TMC3    H2 5878   1.593   3.534  11.144 -2.1989  1.2406  1.5326
  393TMC3    C7 5879   1.776   3.581  10.965 -0.7575 -0.5113 -0.2802
  393TMC3    C8 5880   1.327   3.507  11.132  0.3773  0.6846 -0.2011
  393TMC3    O1 5881   1.790   3.669  11.047 -0.2800 -0.2687  0.5211
  393TMC3    O2 5882   1.226   3.439  11.115 -0.2999  0.4106 -0.1225
  394TMC3    C1 5883   3.548   4.079  10.531  0.5355 -0.2028 -1.1269
  394TMC3    C2 5884   3.443   4.039  10.462 -0.4455  0.2165  0.3190
  394TMC3    C3 5885   3.391   4.122  10.365  0.0707  0.1439  1.1166
  394TMC3    C4 5886   3.616   4.193  10.496  0.6006 -0.4761 -0.2846
  394TMC3    C5 5887   3.568   4.261  10.387  0.1348  0.0393 -0.3123
  394TMC3    C6 5888   3.446   4.242  10.330  0.2435 -0.3127 -0.2239
  394TMC3     C 5889   3.551   4.038  10.671  0.0032 -0.1933  0.2797
  394TMC3     O 5890   3.455   3.976  10.706  0.0212  0.2280  0.2138
  394TMC3     H 5891   3.387   3.952  10.495  0.9768 -0.0416  2.0398
  394TMC3    H1 5892   3.704   4.221  10.553 -0.0075  0.9045 -0.0207
  394TMC3    H2 5893   3.410   4.293  10.242 -0.9052 -4.6248 -2.2933
  394TMC3    C7 5894   3.657   4.348  10.314  0.1143  0.7021 -0.7295
  394TMC3    C8 5895   3.279   4.078  10.283  0.3600  0.3324 -0.3059
  394TMC3    O1 5896   3.603   4.432  10.241  0.1603 -0.2901 -0.3313
  394TMC3    O2 5897   3.213   4.161  10.225 -0.1324  0.2313  0.3326
  395TMC3    C1 5898   2.478   1.196  14.026  0.4153  0.1537  0.2587
  395TMC3    C2 5899   2.364   1.226  14.085  0.5133 -0.1003 -0.0536
  395TMC3    C3 5900   2.357   1.320  14.178  0.3790 -0.1297 -0.5002
  395TMC3    C4 5901   2.596   1.259  14.068 -0.6169 -0.2511 -0.2491
  395TMC3    C5 5902   2.581   1.361  14.158 -0.3444 -0.1420 -0.4654
  395TMC3    C6 5903   2.466   1.391  14.220 -0.5347 -0.5772  1.2261
  395TMC3     C 5904   2.485   1.049  14.000 -0.3200  0.3215 -0.0865
  395TMC3     O 5905   2.411   1.016  13.907 -0.1754  0.3278  0.0445
  395TMC3     H 5906   2.277   1.178  14.042  0.3545 -2.8012  3.3066
  395TMC3    H1 5907   2.693   1.239  14.024  0.7718  3.2127  1.3109
  395TMC3    H2 5908   2.442   1.470  14.290  0.5492  0.0739  0.8511
  395TMC3    C7 5909   2.694   1.411  14.235 -0.2836 -0.4999  0.0215
  395TMC3    C8 5910   2.259   1.302  14.274  0.0098 -0.1376 -0.5794
  395TMC3    O1 5911   2.665   1.462  14.342  0.4947 -0.3113 -0.4099
  395TMC3    O2 5912   2.221   1.401  14.339  0.2783 -0.1827  0.1947
  396MPD2     C 5913   2.529   2.157  16.868  0.2553 -0.3366 -0.5634
  396MPD2    C1 5914   2.650   2.196  16.929  0.1663  0.0220  0.1958
  396MPD2    C2 5915   2.726   2.291  16.864 -0.6240  0.0727 -0.4122
  396MPD2    C3 5916   2.687   2.335  16.740 -0.5982 -0.5344  0.0795
  396MPD2    C4 5917   2.561   2.312  16.694  0.0829 -0.0843 -0.1307
  396MPD2    C5 5918   2.482   2.226  16.760  0.1922  0.5134  0.2456
  396MPD2     H 5919   2.827   2.320  16.891 -0.6182 -1.3589  1.1232
  396MPD2    H1 5920   2.511   2.366  16.614  0.9552  1.6139  0.4733
  396MPD2    H2 5921   2.451   2.090  16.902 -0.8277  0.4685 -1.4475
  396MPD2    H3 5922   2.377   2.221  16.733  0.2535  0.6591 -0.0218
  396MPD2     N 5923   2.765   2.437  16.675  0.3542  0.1404 -0.4344
  396MPD2    H5 5924   2.841   2.481  16.726 -0.4371  0.9408  0.0645
  396MPD2    N1 5925   2.680   2.137  17.055  0.2215 -0.0864 -0.2411
  396MPD2    H7 5926   2.607   2.084  17.102  0.7557 -0.4743  0.1525
  397TMC3    C1 5927   2.805   2.083  17.251 -0.5880  0.9729  0.3753
  397TMC3    C2 5928   2.925   2.021  17.285 -0.5166 -0.1514  0.9753
  397TMC3    C3 5929   2.930   1.890  17.324 -0.2233 -0.3053 -0.0011
  397TMC3    C4 5930   2.694   2.011  17.286  0.5546  0.9688  0.0583
  397TMC3    C5 5931   2.704   1.895  17.353 -0.1291 -0.3714 -0.7343
  397TMC3    C6 5932   2.819   1.832  17.374  0.3440  0.2533 -0.4494
  397TMC3     C 5933   2.803   2.143  17.120 -0.3330  0.1265  0.3346
  397TMC3     O 5934   2.908   2.186  17.079  0.0239 -0.2591  0.2682
  397TMC3     H 5935   3.010   2.079  17.250  1.9033 -4.1209  0.2819
  397TMC3    H1 5936   2.591   2.041  17.274 -0.2576 -1.5921  0.5023
  397TMC3    H2 5937   2.827   1.732  17.416 -0.1821 -0.3857 -1.8913
  397TMC3    C7 5938   2.575   1.816  17.351 -0.3442 -0.0122  0.2809
  397TMC3    C8 5939   3.059   1.828  17.375 -0.3344 -0.1302 -0.6649
  397TMC3    O1 5940   2.497   1.829  17.255  0.1092 -0.1397 -0.1709
  397TMC3    O2 5941   3.045   1.772  17.481 -0.5276  0.3184  0.0237
  398MPD2     C 5942   0.673   2.492   0.061  0.2560  0.5466  0.2974
  398MPD2    C1 5943   0.781   2.457   0.133 -0.0047  0.0611 -0.1632
  398MPD2    C2 5944   0.864   2.560   0.183  0.4482  0.1933 -0.0856
  398MPD2    C3 5945   0.840   2.694   0.151  0.6966 -0.0189 -0.1965
  398MPD2    C4 5946   0.732   2.727   0.080  0.4128 -0.2876  0.3729
  398MPD2    C5 5947   0.652   2.624   0.023  0.0065 -0.4935 -0.3171
  398MPD2     H 5948   0.950   2.530   0.240  0.9291  2.1283  0.1993
  398MPD2    H1 5949   0.701   2.826   0.047 -1.2925 -0.3141  1.8676
  398MPD2    H2 5950   0.605   2.420   0.015  0.4358 -0.1358  1.0965
  398MPD2    H3 5951   0.568   2.651  17.661 -0.5140  0.2921  0.7136
  398MPD2     N 5952   0.921   2.796   0.207 -0.0520  0.2185 -0.0565
  398MPD2    H5 5953   0.979   2.764   0.284 -0.0167  0.8543  0.1744
  398MPD2    N1 5954   0.795   2.318   0.161  0.0962  0.3402  0.2975
  398MPD2    H7 5955   0.722   2.257   0.126  0.9744  0.1399 -1.2067
  399TMC3    C1 5956   0.914   2.115   0.216 -0.6174  0.4067  0.0434
  399TMC3    C2 5957   1.040   2.059   0.214 -0.3814  0.3905  0.3038
  399TMC3    C3 5958   1.051   1.922   0.214  0.2453  0.6645  0.2872
  399TMC3    C4 5959   0.803   2.034   0.222  0.3733  0.0685  0.0604
  399TMC3    C5 5960   0.820   1.899   0.241  0.0412 -0.3834 -0.0124
  399TMC3    C6 5961   0.947   1.839   0.238  0.0525  0.0277 -0.0144
  399TMC3     C 5962   0.911   2.255   0.210 -0.3217 -0.6825 -0.3792
  399TMC3     O 5963   1.013   2.308   0.244  0.1166 -0.1444 -0.3647
  399TMC3     H 5964   1.122   2.127   0.192  1.2665 -1.6792  0.1024
  399TMC3    H1 5965   0.703   2.077   0.223 -0.1200 -1.0887  0.6139
  399TMC3    H2 5966   0.943   1.730   0.237 -1.7862  0.1356 -2.2407
  399TMC3    C7 5967   0.712   1.820   0.282 -0.2226  0.2022 -0.3756
  399TMC3    C8 5968   1.181   1.871   0.174 -0.3196 -0.7859  0.3136
  399TMC3    O1 5969   0.601   1.851   0.248 -0.5064 -1.0328 -0.1592
  399TMC3    O2 5970   1.267   1.934   0.114  0.2899 -0.0906  0.2298
  400TMC3    C1 5971   4.423   1.968  17.218 -0.0424  0.1589  0.1849
  400TMC3    C2 5972   4.328   1.957  17.119  0.1273 -0.7209 -0.1810
  400TMC3    C3 5973   4.294   2.076  17.053 -0.9121  0.2044  0.1007
  400TMC3    C4 5974   4.495   2.086  17.241  0.6870 -0.5923 -0.5485
  400TMC3    C5 5975   4.455   2.194  17.170 -0.4642  0.8977 -0.2245
  400TMC3    C6 5976   4.349   2.197  17.080 -0.3381 -0.5929  0.3633
  400TMC3     C 5977   4.435   1.853  17.307  0.4710  0.2037 -0.1472
  400TMC3     O 5978   4.350   1.765  17.293 -0.0317  0.4942  0.1240
  400TMC3     H 5979   4.263   1.871  17.122 -0.5535 -0.1021  2.9248
  400TMC3    H1 5980   4.577   2.097  17.311 -0.4983 -0.7116  0.8565
  400TMC3    H2 5981   4.333   2.282  17.014 -2.3202 -1.6536 -0.5038
  400TMC3    C7 5982   4.513   2.327  17.194  0.6481  0.2320  0.0558
  400TMC3    C8 5983   4.198   2.065  16.939 -0.2804 -0.0389  0.0800
  400TMC3    O1 5984   4.637   2.348  17.200 -0.4857  0.3555  0.2017
  400TMC3    O2 5985   4.170   2.176  16.890 -0.1273  0.2557 -0.0547
  401MPD2     C 5986   2.089   0.881   1.571 -0.1444 -0.0923  0.4778
  401MPD2    C1 5987   2.132   0.767   1.512 -0.4890 -0.3449  0.1056
  401MPD2    C2 5988   2.038   0.677   1.481  0.3872  0.1474 -1.0143
  401MPD2    C3 5989   1.904   0.697   1.488 -0.1691  0.2144 -0.1058
  401MPD2    C4 5990   1.869   0.809   1.561 -0.0847 -0.1318 -0.5620
  401MPD2    C5 5991   1.960   0.895   1.610  0.0317  0.0145 -0.1964
  401MPD2     H 5992   2.077   0.585   1.438 -0.6747 -0.3093 -1.0028
  401MPD2    H1 5993   1.768   0.837   1.588  1.3451  2.7377  1.8275
  401MPD2    H2 5994   2.156   0.953   1.616  1.5822 -0.5840 -1.3273
  401MPD2    H3 5995   1.927   0.982   1.666 -0.1756  0.4416 -0.9787
  401MPD2     N 5996   1.806   0.616   1.423  0.0111  0.1867 -0.5166
  401MPD2    H5 5997   1.853   0.537   1.379 -0.7070 -0.0679 -0.8335
  401MPD2    N1 5998   2.270   0.738   1.484  0.1738  0.5796  0.5853
  401MPD2    H7 5999   2.292   0.655   1.429  0.2446  1.0289 -0.0660
  402TMC3    C1 6000   1.594   0.539   1.357  0.6000 -1.1295  0.2715
  402TMC3    C2 6001   1.612   0.404   1.400 -0.1870 -0.5016 -0.2372
  402TMC3    C3 6002   1.501   0.329   1.387  0.1991  0.2300  0.1497
  402TMC3    C4 6003   1.478   0.592   1.313  0.0801  0.4602  0.4494
  402TMC3    C5 6004   1.363   0.508   1.308  0.7127 -0.6889  1.5617
  402TMC3    C6 6005   1.377   0.380   1.357  0.1552 -0.0777  1.3925
  402TMC3     C 6006   1.677   0.639   1.428 -0.3949 -0.1285 -0.1671
  402TMC3     O 6007   1.613   0.735   1.469 -0.8684 -0.5025  0.3445
  402TMC3     H 6008   1.706   0.376   1.446  0.0835  0.3721 -0.2682
  402TMC3    H1 6009   1.474   0.700   1.302  1.2788  0.5002  0.4818
  402TMC3    H2 6010   1.290   0.319   1.338  1.4368 -0.9617 -1.7322
  402TMC3    C7 6011   1.237   0.574   1.325  0.1408 -0.0441  0.0270
  402TMC3    C8 6012   1.499   0.200   1.463  0.3404 -0.0135  0.0209
  402TMC3    O1 6013   1.152   0.535   1.403  0.1009 -0.2657  0.1357
  402TMC3    O2 6014   1.607   0.140   1.466 -0.7150 -0.6752 -0.1851
  403MPD2     C 6015   0.849   3.738  13.780 -0.7705  0.4630 -0.3066
  403MPD2    C1 6016   0.872   3.606  13.808 -0.4600 -0.1410  0.9032
  403MPD2    C2 6017   0.940   3.570  13.929 -0.1313 -0.3567  0.0711
  403MPD2    C3 6018   0.995   3.674  14.007 -0.0725 -0.1684 -0.1574
  403MPD2    C4 6019   0.972   3.805  13.970 -0.6543 -0.4801  1.1351
  403MPD2    C5 6020   0.903   3.835  13.860  0.5956  0.7026  1.0419
  403MPD2     H 6021   0.954   3.465  13.953  0.4219 -0.5278 -0.9760
  403MPD2    H1 6022   1.013   3.894  14.017 -0.3800 -0.5213  0.9771
  403MPD2    H2 6023   0.791   3.769  13.694 -0.1213 -0.9731 -1.2735
  403MPD2    H3 6024   0.884   3.941  13.844 -2.2145 -0.1546 -1.3448
  403MPD2     N 6025   1.065   3.637  14.122  0.2923  0.8751 -0.0440
  403MPD2    H5 6026   1.080   3.541  14.150  0.1331  0.1633 -2.4300
  403MPD2    N1 6027   0.828   3.514  13.708 -0.0364 -0.0792  0.6368
  403MPD2    H7 6028   0.802   3.547  13.616 -1.4312  0.0176  1.0638
  404TMC3    C1 6029   0.788   3.311  13.604 -0.6022  0.0637 -0.2615
  404TMC3    C2 6030   0.709   3.204  13.635  0.3870  0.0488 -0.2609
  404TMC3    C3 6031   0.663   3.141  13.526 -0.3741 -0.0268 -0.0269
  404TMC3    C4 6032   0.806   3.368  13.486  0.5118  0.8972 -0.1752
  404TMC3    C5 6033   0.762   3.293  13.383 -0.3667  0.6117  0.7476
  404TMC3    C6 6034   0.691   3.175  13.401 -0.0532  0.0712 -0.1198
  404TMC3     C 6035   0.831   3.377  13.728 -0.4483  0.0707 -0.4297
  404TMC3     O 6036   0.843   3.314  13.831 -0.3489  0.4407  0.4943
  404TMC3     H 6037   0.678   3.189  13.738  1.6466  1.1073  0.2716
  404TMC3    H1 6038   0.876   3.449  13.466 -0.6215  1.3534 -2.2938
  404TMC3    H2 6039   0.681   3.096  13.329 -3.5521 -2.1857  2.8530
  404TMC3    C7 6040   0.769   3.347  13.252  0.8659  0.0048  0.1093
  404TMC3    C8 6041   0.588   3.019  13.534 -0.2805 -0.1302  0.1571
  404TMC3    O1 6042   0.837   3.445  13.243 -0.0172  0.4683 -0.2746
  404TMC3    O2 6043   0.547   2.960  13.440 -0.6891 -0.3613 -0.4899
  405MPD2     C 6044   1.125   3.895  15.236  0.4532  0.4010  0.2527
  405MPD2    C1 6045   1.105   3.820  15.120 -0.5516 -0.1060 -0.2479
  405MPD2    C2 6046   1.131   3.883  15.001 -0.3555 -0.0538  0.3976
  405MPD2    C3 6047   1.185   4.013  14.986  0.0489  0.5055 -0.3385
  405MPD2    C4 6048   1.211   4.074  15.105  0.1816  0.0587  0.0925
  405MPD2    C5 6049   1.184   4.019  15.222  1.0793 -0.0306 -0.6268
  405MPD2     H 6050   1.116   3.825  14.911 -0.5437  0.6059 -0.0007
  405MPD2    H1 6051   1.252   4.174  15.103  0.6376 -0.1374 -0.9837
  405MPD2    H2 6052   1.118   3.878  15.343 -0.9845  4.1141  0.7330
  405MPD2    H3 6053   1.223   4.056  15.316 -2.6192  1.8820  0.1293
  405MPD2     N 6054   1.209   4.069  14.861 -0.2164  0.1534  0.0386
  405MPD2    H5 6055   1.190   4.003  14.786 -1.6335 -0.8497  1.2840
  405MPD2    N1 6056   1.040   3.690  15.132  0.0460 -0.1841  0.0846
  405MPD2    H7 6057   0.998   3.662  15.220 -0.6308  1.8672  0.4074
  406TMC3    C1 6058   1.091   4.372  14.575  0.1802  0.7433 -0.4116
  406TMC3    C2 6059   1.065   4.275  14.484  0.5805 -0.0622 -0.0798
  406TMC3    C3 6060   1.108   4.147  14.506  0.4258  0.8518 -0.3077
  406TMC3    C4 6061   1.187   4.352  14.671  0.4257  0.0525  0.0999
  406TMC3    C5 6062   1.227   4.227  14.698 -0.6007  0.0871 -0.1327
  406TMC3    C6 6063   1.184   4.125  14.615 -0.0987  0.1227  0.1107
  406TMC3     C 6064   1.039   4.499  14.556 -0.8260  0.0036 -0.9261
  406TMC3     O 6065   1.075   4.582  14.633  0.2804  0.4441  0.7073
  406TMC3     H 6066   1.009   4.282  14.392 -0.1970  1.1183  0.4806
  406TMC3    H1 6067   1.213   4.434  14.737 -1.2633  0.6551  0.0203
  406TMC3    H2 6068   1.237   4.030  14.624 -1.6649 -0.9646 -2.2414
  406TMC3    C7 6069   1.248   4.198  14.836 -0.1988  0.7144 -0.4511
  406TMC3    C8 6070   0.992   4.064  14.500  0.4210  0.3364 -0.5441
  406TMC3    O1 6071   1.253   4.293  14.916  0.5535 -0.0259 -0.1086
  406TMC3    O2 6072   0.888   4.119  14.475 -0.5290 -0.8050 -0.2213
  407MPD2     C 6073   3.683   0.756   9.239 -0.1155 -1.0504 -0.4351
  407MPD2    C1 6074   3.785   0.714   9.319 -0.1982 -0.1214 -0.0730
  407MPD2    C2 6075   3.768   0.709   9.460  1.3183 -0.4671 -0.1112
  407MPD2    C3 6076   3.648   0.739   9.514 -0.1294  0.5292  0.7404
  407MPD2    C4 6077   3.546   0.780   9.437  0.2360  0.2764  0.2380
  407MPD2    C5 6078   3.561   0.787   9.298  0.1189  0.0575 -0.3966
  407MPD2     H 6079   3.861   0.695   9.514  0.4644 -1.9016  0.9917
  407MPD2    H1 6080   3.446   0.794   9.476 -0.6136 -0.4103 -1.6895
  407MPD2    H2 6081   3.688   0.759   9.131  1.2124  1.4055 -0.3274
  407MPD2    H3 6082   3.477   0.810   9.232 -1.7311  2.3321  2.7509
  407MPD2     N 6083   3.625   0.750   9.651 -0.3264 -0.6143  0.2635
  407MPD2    H5 6084   3.547   0.809   9.678 -0.7437 -0.7779 -0.5942
  407MPD2    N1 6085   3.913   0.683   9.265 -0.3605  0.6105  0.4539
  407MPD2    H7 6086   3.988   0.655   9.327  0.1228  1.6965  0.3695
  408TMC3    C1 6087   4.096   0.712   9.115  0.0020  0.5157  0.2455
  408TMC3    C2 6088   4.157   0.605   9.171 -0.7894 -0.0535  0.1571
  408TMC3    C3 6089   4.295   0.603   9.158  0.4792  0.1788  0.4008
  408TMC3    C4 6090   4.162   0.806   9.043 -0.6914  0.0897 -0.0975
  408TMC3    C5 6091   4.299   0.803   9.037  0.4842 -0.3561  0.6234
  408TMC3    C6 6092   4.371   0.705   9.104 -0.1906  0.8042  0.2670
  408TMC3     C 6093   3.953   0.730   9.138  0.1909  0.1354  0.7757
  408TMC3     O 6094   3.882   0.789   9.056  0.1932  0.1830 -0.0489
  408TMC3     H 6095   4.110   0.532   9.237  0.1239 -0.0100  0.8532
  408TMC3    H1 6096   4.102   0.889   9.009  0.1038  1.3290  1.5271
  408TMC3    H2 6097   4.478   0.700   9.087 -0.1046  2.5299  0.3076
  408TMC3    C7 6098   4.374   0.922   9.004  0.0810 -1.0860 -0.3810
  408TMC3    C8 6099   4.356   0.475   9.184 -0.3337 -0.5604 -0.8291
  408TMC3    O1 6100   4.488   0.932   9.048  0.4755 -0.0393 -0.4207
  408TMC3    O2 6101   4.282   0.374   9.168  0.4764 -0.2917 -0.5696
  409MPD2     C 6102   2.697   1.452  17.081 -0.1655  0.9918 -0.7175
  409MPD2    C1 6103   2.805   1.419  17.161  0.6812 -0.1866 -0.3997
  409MPD2    C2 6104   2.936   1.448  17.122  0.0504  0.0060 -0.8601
  409MPD2    C3 6105   2.962   1.515  17.006  0.3519 -0.3279  0.1089
  409MPD2    C4 6106   2.851   1.547  16.925 -0.7671  0.7034  0.8992
  409MPD2    C5 6107   2.726   1.520  16.966  0.8405 -0.7367 -0.0779
  409MPD2     H 6108   3.012   1.439  17.198  0.3206  2.3573 -0.8493
  409MPD2    H1 6109   2.863   1.597  16.830 -1.6032 -1.8685 -0.5774
  409MPD2    H2 6110   2.594   1.423  17.100  0.4218 -0.7544 -0.1815
  409MPD2    H3 6111   2.641   1.550  16.907  2.0299  0.3468 -1.2234
  409MPD2     N 6112   3.093   1.548  16.956 -0.3232 -0.3405  0.5012
  409MPD2    H5 6113   3.106   1.592  16.865  0.2671  0.6221  1.0477
  409MPD2    N1 6114   2.791   1.358  17.286 -0.4090 -0.2239 -0.3675
  409MPD2    H7 6115   2.875   1.348  17.342 -1.7629 -1.7065  1.3748
  410TMC3    C1 6116   3.330   1.564  16.953  0.1686 -0.4818  0.1060
  410TMC3    C2 6117   3.450   1.566  17.025  0.0696  0.0385 -0.6301
  410TMC3    C3 6118   3.556   1.620  16.958 -0.1867 -0.3342  0.7055
  410TMC3    C4 6119   3.330   1.575  16.815 -0.1574 -0.3075  0.1340
  410TMC3    C5 6120   3.440   1.627  16.753 -0.2869 -0.9819  0.4681
  410TMC3    C6 6121   3.553   1.654  16.821  0.2394  0.0578 -0.2563
  410TMC3     C 6122   3.211   1.498  17.013 -0.1772 -0.4097 -0.3073
  410TMC3     O 6123   3.224   1.442  17.122 -0.3660 -0.8846  0.0483
  410TMC3     H 6124   3.447   1.551  17.132  1.4824 -1.5577 -0.8079
  410TMC3    H1 6125   3.241   1.570  16.754  0.1099 -1.0049 -0.2022
  410TMC3    H2 6126   3.644   1.695  16.778 -0.0497  0.4150 -0.5182
  410TMC3    C7 6127   3.428   1.664  16.615 -0.2905 -0.5971  0.5063
  410TMC3    C8 6128   3.682   1.640  17.025 -0.0933  0.2083  0.0685
  410TMC3    O1 6129   3.328   1.622  16.556  0.0217 -0.1108 -0.2576
  410TMC3    O2 6130   3.752   1.733  16.983 -0.0092  0.2932 -0.2888
  411MPD2     C 6131   3.173   2.420  14.441 -0.2700  0.1731  0.6011
  411MPD2    C1 6132   3.082   2.413  14.335  0.2649 -0.5295 -0.2195
  411MPD2    C2 6133   3.080   2.297  14.259  0.0442  0.4399  0.0248
  411MPD2    C3 6134   3.180   2.205  14.282  0.6091 -0.1527 -0.7191
  411MPD2    C4 6135   3.291   2.229  14.369 -0.2638 -0.1075  0.0288
  411MPD2    C5 6136   3.279   2.335  14.457  0.2113  0.0157 -0.7821
  411MPD2     H 6137   3.008   2.280  14.179  0.2067  2.7868 -0.6085
  411MPD2    H1 6138   3.368   2.156  14.392  0.1742  0.3502  0.0098
  411MPD2    H2 6139   3.175   2.504  14.510 -0.2671  1.5397 -1.0540
  411MPD2    H3 6140   3.347   2.347  14.540  0.4989  5.3093 -1.8019
  411MPD2     N 6141   3.190   2.085  14.210  0.0296 -0.1554 -0.3908
  411MPD2    H5 6142   3.274   2.028  14.216 -0.2237 -0.7291 -2.2962
  411MPD2    N1 6143   3.000   2.526  14.316 -0.7935  0.0146 -0.5022
  411MPD2    H7 6144   3.015   2.601  14.383 -2.9166 -0.5200  0.5798
  412TMC3    C1 6145   3.109   1.904  14.078 -0.1129 -0.4728 -0.3015
  412TMC3    C2 6146   3.008   1.815  14.084 -0.7472  0.4359  0.4961
  412TMC3    C3 6147   2.991   1.716  13.992 -0.3899  0.1375  0.3767
  412TMC3    C4 6148   3.181   1.909  13.963 -0.1388 -0.0723 -0.2670
  412TMC3    C5 6149   3.150   1.824  13.861 -0.2138  0.3801  0.5043
  412TMC3    C6 6150   3.066   1.712  13.879 -0.2639  0.5933  0.5621
  412TMC3     C 6151   3.084   2.035  14.139  0.0298 -0.3605  0.1983
  412TMC3     O 6152   2.972   2.057  14.160  0.4031 -0.3685 -0.0456
  412TMC3     H 6153   2.931   1.820  14.160  0.0136 -1.5221  1.3977
  412TMC3    H1 6154   3.255   1.987  13.954 -0.4373  0.3584  0.9546
  412TMC3    H2 6155   3.041   1.636  13.807  0.6149  1.3037 -0.4956
  412TMC3    C7 6156   3.099   1.896  13.739  0.2849  0.1742  0.2423
  412TMC3    C8 6157   2.865   1.644  14.000 -0.2294 -0.3610 -0.1400
  412TMC3    O1 6158   3.033   1.837  13.652  0.7223  0.2476  0.1137
  412TMC3    O2 6159   2.782   1.700  14.063  0.2557 -0.7886  0.2669
  413MPD2     C 6160   4.583   0.620  15.388 -0.2348 -0.2782  0.4053
  413MPD2    C1 6161   4.540   0.556  15.276  0.1230  0.1686 -0.4444
  413MPD2    C2 6162   4.617   0.443  15.229 -0.0361  0.7116 -0.2764
  413MPD2    C3 6163   0.013   0.411  15.285 -0.1458  0.7545 -0.3053
  413MPD2    C4 6164   0.061   0.487  15.392 -0.3868 -0.1163 -0.1744
  413MPD2    C5 6165   4.711   0.596  15.432  0.1073 -0.0190  0.9090
  413MPD2     H 6166   4.595   0.386  15.140  3.0773  1.2950 -1.4443
  413MPD2    H1 6167   0.152   0.453  15.441 -0.0846  0.7234 -0.1507
  413MPD2    H2 6168   4.521   0.699  15.428 -0.8029 -1.8527  2.6780
  413MPD2    H3 6169   0.022   0.651  15.518 -0.5103  1.2022  0.3928
  413MPD2     N 6170   0.091   0.306  15.224 -0.5745  0.2331  0.0982
  413MPD2    H5 6171   0.049   0.263  15.142 -4.3075  0.2786  1.9626
  413MPD2    N1 6172   4.407   0.586  15.225 -0.2641 -0.1060  0.1394
  413MPD2    H7 6173   4.358   0.662  15.271  2.4891  1.6370  0.2186
  414TMC3    C1 6174   0.275   0.170  15.160 -0.0679 -0.2029 -0.3291
  414TMC3    C2 6175   0.363   0.076  15.206  0.1234 -0.5573  0.0059
  414TMC3    C3 6176   0.362   4.683  15.134  0.0242 -0.0579  0.1779
  414TMC3    C4 6177   0.221   0.159  15.031  0.4247  0.3918  0.2864
  414TMC3    C5 6178   0.238   0.045  14.950  0.5432  0.1956  0.2847
  414TMC3    C6 6179   0.297   4.665  15.014  0.0632 -0.5777  0.0924
  414TMC3     C 6180   0.219   0.268  15.256 -0.2578  0.3485 -0.1239
  414TMC3     O 6181   0.289   0.300  15.349  0.1370 -0.8241  0.2204
  414TMC3     H 6182   0.399   0.085  15.308 -0.5045 -1.1948  0.2859
  414TMC3    H1 6183   0.164   0.241  14.988 -0.0874  1.1669  2.4649
  414TMC3    H2 6184   0.291   4.572  14.957 -0.1176 -0.8384  0.5360
  414TMC3    C7 6185   0.170   0.031  14.820  0.0456  0.1321 -0.5019
  414TMC3    C8 6186   0.457   4.584  15.152  0.3913 -0.2763 -0.4072
  414TMC3    O1 6187   0.050   0.077  14.821  0.1753 -0.1273 -0.1042
  414TMC3    O2 6188   0.446   4.479  15.090  0.3645  0.2916  0.6747
  415TMC3    C1 6189   0.283   3.058  10.131  0.3319  0.3445 -0.4793
  415TMC3    C2 6190   0.332   3.155  10.045 -0.5022  0.7636  0.1888
  415TMC3    C3 6191   0.299   3.127   9.914 -0.6510  0.2341 -0.4240
  415TMC3    C4 6192   0.227   2.939  10.092  0.6965 -0.3812 -0.8474
  415TMC3    C5 6193   0.196   2.926   9.956 -0.4630  0.8636  0.1447
  415TMC3    C6 6194   0.230   3.021   9.867 -0.2971 -0.4165 -0.3284
  415TMC3     C 6195   0.302   3.076  10.269 -0.0463 -0.0912 -0.4330
  415TMC3     O 6196   0.277   2.979  10.336  0.8349  0.0297 -0.0822
  415TMC3     H 6197   0.390   3.238  10.084  0.3071 -0.4277  1.4759
  415TMC3    H1 6198   0.202   2.855  10.155 -1.9194  1.3692  0.4412
  415TMC3    H2 6199   0.213   3.001   9.762  1.5853 -1.8956 -0.3410
  415TMC3    C7 6200   0.205   2.789   9.905  0.1947  1.1431  0.8011
  415TMC3    C8 6201   0.335   3.224   9.812 -0.4765  0.0387 -0.4965
  415TMC3    O1 6202   0.144   2.771   9.800 -0.1143  0.2518  0.0952
  415TMC3    O2 6203   0.257   3.236   9.719 -0.6173  0.3550  0.1059
  416MPD2     C 6204   2.727   2.319  11.185 -0.1862  0.4908 -0.5393
  416MPD2    C1 6205   2.651   2.291  11.293 -0.4890 -0.1610  0.2860
  416MPD2    C2 6206   2.635   2.159  11.331  0.0176  0.6265  0.7677
  416MPD2    C3 6207   2.699   2.060  11.258  0.3298 -0.3278 -0.3094
  416MPD2    C4 6208   2.754   2.093  11.135 -0.0377  0.0720  0.4483
  416MPD2    C5 6209   2.780   2.223  11.111  0.5296  0.2439 -0.4561
  416MPD2     H 6210   2.592   2.134  11.428 -2.1639  1.5999  0.0513
  416MPD2    H1 6211   2.801   2.025  11.065  0.1951  0.6131  0.0808
  416MPD2    H2 6212   2.744   2.422  11.155  1.6396 -0.0380 -1.3553
  416MPD2    H3 6213   2.833   2.242  11.018 -0.8380  3.4589 -0.5837
  416MPD2     N 6214   2.682   1.924  11.279  0.0581  0.0668  0.4033
  416MPD2    H5 6215   2.740   1.874  11.212  1.4817  2.7607 -0.3821
  416MPD2    N1 6216   2.598   2.401  11.362  0.4723  0.6148  0.3863
  416MPD2    H7 6217   2.601   2.490  11.313  2.2374  0.4792  0.2479
  417TMC3    C1 6218   2.441   2.496  11.509  0.0392  0.7093 -0.4325
  417TMC3    C2 6219   2.376   2.498  11.626  0.6237 -0.3459  0.3841
  417TMC3    C3 6220   2.251   2.555  11.633  0.1322 -0.0635  0.1751
  417TMC3    C4 6221   2.383   2.549  11.395 -0.1839 -0.3611  0.0957
  417TMC3    C5 6222   2.259   2.596  11.406  0.9710 -0.4031  0.3808
  417TMC3    C6 6223   2.186   2.594  11.516  0.0741  0.3822 -0.8719
  417TMC3     C 6224   2.528   2.395  11.486  0.0380 -0.1735  0.4419
  417TMC3     O 6225   2.519   2.308  11.573  0.6208 -0.0054 -0.1588
  417TMC3     H 6226   2.434   2.466  11.712 -0.9932 -2.5543  0.6595
  417TMC3    H1 6227   2.431   2.566  11.299 -1.8416  1.3597 -0.4415
  417TMC3    H2 6228   2.085   2.632  11.513  0.0537  0.3258 -0.8878
  417TMC3    C7 6229   2.191   2.630  11.279  0.1781  0.7240 -0.9517
  417TMC3    C8 6230   2.190   2.565  11.768  0.6795 -0.0467  0.0466
  417TMC3    O1 6231   2.251   2.712  11.213 -0.2493  0.3614  0.8443
  417TMC3    O2 6232   2.264   2.539  11.866  0.4571 -0.0864  0.3481
  418TMC3    C1 6233   1.201   3.126   0.259  0.2155 -0.3180  0.7603
  418TMC3    C2 6234   1.072   3.100   0.214 -0.2072  0.0047 -0.2409
  418TMC3    C3 6235   0.987   3.005   0.277 -0.3115  0.3035  0.0519
  418TMC3    C4 6236   1.250   3.041   0.356  0.5516 -0.3243  0.6858
  418TMC3    C5 6237   1.172   2.953   0.424 -0.0094  0.0100 -0.2592
  418TMC3    C6 6238   1.037   2.940   0.393  0.6076 -0.0333  0.2734
  418TMC3     C 6239   1.282   3.159   0.144  0.2946 -0.4083 -0.3754
  418TMC3     O 6240   1.227   3.238   0.066  0.2053  0.0508 -0.0040
  418TMC3     H 6241   1.040   3.135   0.116  5.0345  2.4867 -1.0349
  418TMC3    H1 6242   1.354   3.059   0.384  0.8386  0.2396 -0.7642
  418TMC3    H2 6243   0.972   2.876   0.450 -1.0918  2.3684  1.0178
  418TMC3    C7 6244   1.228   2.849   0.508  0.3570  0.5049  0.2231
  418TMC3    C8 6245   0.904   2.930   0.189 -0.0164  0.0103 -0.9943
  418TMC3    O1 6246   1.162   2.750   0.529 -0.1898 -0.0705  0.1596
  418TMC3    O2 6247   0.856   2.986   0.089  0.8516 -0.0456 -0.0206
  419MPD2     C 6248   0.421   1.732  12.737  0.7646 -0.2070  0.1718
  419MPD2    C1 6249   0.290   1.749  12.711  0.7367 -0.8000 -0.6213
  419MPD2    C2 6250   0.203   1.756  12.817  0.4251 -0.6245 -0.5989
  419MPD2    C3 6251   0.244   1.735  12.950 -0.0840 -0.4127 -0.5769
  419MPD2    C4 6252   0.383   1.718  12.975 -0.0240 -0.0525  0.0743
  419MPD2    C5 6253   0.463   1.712  12.866  0.3821 -0.4612 -0.4131
  419MPD2     H 6254   0.103   1.791  12.792  0.0773 -0.8243  0.5107
  419MPD2    H1 6255   0.416   1.726  13.078  0.3174 -2.2845  0.1369
  419MPD2    H2 6256   0.497   1.730  12.661  0.6829  0.9342  0.0568
  419MPD2    H3 6257   0.570   1.699  12.882  0.8035  3.1657 -0.2691
  419MPD2     N 6258   0.150   1.768  13.046 -0.1287  0.0190  0.2120
  419MPD2    H5 6259   0.059   1.784  13.003 -1.1138 -0.7109  2.0368
  419MPD2    N1 6260   0.241   1.782  12.576  0.1885 -0.6216 -0.2324
  419MPD2    H7 6261   0.149   1.824  12.572 -0.0076 -0.9169  1.1316
  420TMC3    C1 6262   0.065   1.883  13.236 -0.1345 -0.2875  0.0135
  420TMC3    C2 6263   4.688   1.926  13.152 -0.0429 -0.0476  0.0561
  420TMC3    C3 6264   4.569   1.959  13.211  0.9308 -0.2125 -0.4295
  420TMC3    C4 6265   0.044   1.848  13.366  0.1569  0.4880  0.1711
  420TMC3    C5 6266   4.649   1.871  13.422 -0.2909 -0.0012 -0.7666
  420TMC3    C6 6267   4.549   1.927  13.344  0.2024 -0.6215 -0.3080
  420TMC3     C 6268   0.175   1.807  13.174  0.1035  0.3865 -1.1622
  420TMC3     O 6269   0.271   1.769  13.235 -0.3754  0.2385 -0.5885
  420TMC3     H 6270   4.701   1.952  13.047 -3.7157 -1.0640 -0.6598
  420TMC3    H1 6271   0.126   1.815  13.428  0.0901 -0.8149 -0.4406
  420TMC3    H2 6272   4.455   1.951  13.393 -0.2202  0.1438 -1.4860
  420TMC3    C7 6273   4.625   1.835  13.562 -0.6573  0.7213  0.0110
  420TMC3    C8 6274   4.475   2.038  13.144  0.1272  0.2745 -0.1256
  420TMC3    O1 6275   4.721   1.795  13.627  0.3934 -0.1261  0.1183
  420TMC3    O2 6276   4.514   2.132  13.077  0.0451  0.4804 -0.0084
  421TMC3    C1 6277   1.237   3.680  14.277  1.0355 -0.6805  0.4936
  421TMC3    C2 6278   1.281   3.752  14.380  0.4557  0.0225 -0.0741
  421TMC3    C3 6279   1.383   3.708  14.460 -0.0685  0.2453  0.0276
  421TMC3    C4 6280   1.309   3.569  14.236 -0.0879  0.2764 -0.2421
  421TMC3    C5 6281   1.409   3.522  14.319  1.2553 -0.1752 -0.1239
  421TMC3    C6 6282   1.450   3.589  14.429  0.0293  0.1692  0.5266
  421TMC3     C 6283   1.123   3.734  14.208 -0.4626  0.1207  0.1017
  421TMC3     O 6284   1.095   3.848  14.231 -1.2474  0.8916  0.5309
  421TMC3     H 6285   1.218   3.828  14.425 -1.9008  0.1217 -3.4936
  421TMC3    H1 6286   1.283   3.518  14.144 -0.2712  1.1532 -0.6798
  421TMC3    H2 6287   1.536   3.549  14.482 -0.3281 -1.9234 -0.4901
  421TMC3    C7 6288   1.495   3.430  14.254  0.1536  0.3819  0.4715
  421TMC3    C8 6289   1.378   3.755  14.598 -0.1651 -0.4429  0.2789
  421TMC3    O1 6290   1.615   3.453  14.259  0.6188 -0.5032 -0.1993
  421TMC3    O2 6291   1.272   3.788  14.647 -0.5391 -0.3373  0.2936
  422TMC3    C1 6292   3.632   0.224  12.361 -0.5220 -0.3378  0.2009
  422TMC3    C2 6293   3.625   0.312  12.468  0.2585  0.0338 -0.1368
  422TMC3    C3 6294   3.543   0.282  12.572  0.1132 -0.2034  0.3380
  422TMC3    C4 6295   3.549   0.117  12.345  0.0314  0.6748 -0.2086
  422TMC3    C5 6296   3.475   0.082  12.456  0.0301 -0.4197  0.3758
  422TMC3    C6 6297   3.465   0.167  12.566 -0.3435  0.7447  0.1912
  422TMC3     C 6298   3.732   0.265  12.257  0.1313  0.3059  0.3417
  422TMC3     O 6299   3.766   0.384  12.262  0.0494  0.1618 -0.3654
  422TMC3     H 6300   3.685   0.402  12.473  0.6749 -0.1996 -0.9027
  422TMC3    H1 6301   3.531   0.066  12.251  0.8062  0.1116 -0.0499
  422TMC3    H2 6302   3.421   0.135  12.660 -1.2120  0.3756 -0.3471
  422TMC3    C7 6303   3.369   4.716  12.427 -0.5507 -0.1425 -0.2286
  422TMC3    C8 6304   3.530   0.367  12.688  0.1152 -0.1504  0.4801
  422TMC3    O1 6305   3.384   4.625  12.339 -0.2428  0.3285 -0.0580
  422TMC3    O2 6306   3.514   0.309  12.793  0.0595 -0.1099 -0.1263
  423MPD2     C 6307   4.219   1.088   0.840 -0.0396  0.1817  0.1649
  423MPD2    C1 6308   4.281   0.972   0.890  0.3100  0.2575 -0.6740
  423MPD2    C2 6309   4.380   0.903   0.808 -0.0952 -0.3355  0.0329
  423MPD2    C3 6310   4.415   0.965   0.688 -0.4339  0.0635 -0.2350
  423MPD2    C4 6311   4.356   1.084   0.647 -0.3278  0.7610  0.1027
  423MPD2    C5 6312   4.259   1.143   0.725  0.3721 -0.2854  0.3783
  423MPD2     H 6313   4.415   0.805   0.837 -1.0410  0.2508  3.2209
  423MPD2    H1 6314   4.389   1.134   0.557 -0.7412  0.7756 -0.0397
  423MPD2    H2 6315   4.131   1.134   0.884  0.1994  0.0177  0.8076
  423MPD2    H3 6316   4.218   1.238   0.694 -0.5432 -0.0221  2.4401
  423MPD2     N 6317   4.512   0.916   0.598 -0.0245 -0.3503  0.0737
  423MPD2    H5 6318   4.540   0.976   0.521 -0.5367 -1.2057 -0.7761
  423MPD2    N1 6319   4.231   0.897   1.001  0.2752  0.3209 -0.0277
  423MPD2    H7 6320   4.274   0.808   1.023 -1.2202 -0.5513 -0.6132
  424TMC3    C1 6321   4.092   0.857   1.190  0.9434  0.4286 -0.0739
  424TMC3    C2 6322   4.178   0.756   1.228 -0.1527  0.1350 -0.3215
  424TMC3    C3 6323   4.140   0.667   1.324  1.1410 -0.0728  0.6084
  424TMC3    C4 6324   3.970   0.866   1.238 -0.1962 -0.3425  0.2304
  424TMC3    C5 6325   3.933   0.775   1.331  0.0852  0.1310 -0.3538
  424TMC3    C6 6326   4.011   0.671   1.373  0.2772  0.5869  0.3687
  424TMC3     C 6327   4.123   0.943   1.075 -0.0494  0.1883  0.4994
  424TMC3     O 6328   4.034   1.028   1.057  0.5987  0.0569  0.3788
  424TMC3     H 6329   4.283   0.764   1.202  0.0606 -1.4258  0.0807
  424TMC3    H1 6330   3.900   0.944   1.211  1.5205  0.6557 -1.2982
  424TMC3    H2 6331   3.982   0.597   1.447 -0.1314  0.0912 -0.2920
  424TMC3    C7 6332   3.797   0.796   1.386  0.2590 -0.8807 -0.0614
  424TMC3    C8 6333   4.232   0.578   1.377 -0.2483  0.2499  0.4611
  424TMC3    O1 6334   3.719   0.864   1.324 -0.1253 -0.0858 -0.1141
  424TMC3    O2 6335   4.324   0.559   1.303  0.2204  0.4396 -0.2495
  425MPD2     C 6336   3.673   0.315   0.163 -0.1040 -0.3707 -0.8965
  425MPD2    C1 6337   3.601   0.231   0.083 -0.6680  0.0313  0.3226
  425MPD2    C2 6338   3.462   0.247   0.085  0.2022  0.3040 -0.5958
  425MPD2    C3 6339   3.404   0.355   0.159 -0.4261  0.1641  0.0325
  425MPD2    C4 6340   3.478   0.436   0.245 -0.7237 -0.6700  0.2760
  425MPD2    C5 6341   3.618   0.419   0.239  0.4387 -0.1740 -0.8244
  425MPD2     H 6342   3.395   0.183   0.031  0.4788  0.2108 -0.8263
  425MPD2    H1 6343   3.444   0.512   0.315  0.0635 -0.9202  0.9299
  425MPD2    H2 6344   3.781   0.305   0.169 -0.0828  0.2521 -0.1880
  425MPD2    H3 6345   3.688   0.487   0.286  2.4553 -3.2222  0.5679
  425MPD2     N 6346   3.264   0.373   0.140 -0.0268  0.1496  0.5196
  425MPD2    H5 6347   3.220   0.309   0.073 -1.8449  1.2592  0.6453
  425MPD2    N1 6348   3.669   0.124   0.012  0.1466 -0.4739  0.4438
  425MPD2    H7 6349   3.770   0.128   0.011  0.0917  1.3557  2.5632
  426TMC3    C1 6350   3.698   4.721  17.514  0.9556 -0.4416 -0.6886
  426TMC3    C2 6351   3.660   4.690  17.383  0.3189  0.2931  0.2559
  426TMC3    C3 6352   3.741   4.633  17.293 -0.1008  0.0911 -0.1156
  426TMC3    C4 6353   3.816   4.668  17.559 -0.2534 -0.1582  0.6419
  426TMC3    C5 6354   3.894   4.599  17.468  0.0837 -0.1669 -0.2487
  426TMC3    C6 6355   3.868   4.587  17.331 -0.1277 -0.8471 -0.1200
  426TMC3     C 6356   3.608   0.067  17.603 -0.4053  0.0342  0.5130
  426TMC3     O 6357   3.495   0.066  17.574  0.0607  0.5702  0.1257
  426TMC3     H 6358   3.561   0.009  17.369  0.8733  1.0268 -1.3384
  426TMC3    H1 6359   3.842   4.686  17.663  2.6551  2.4234 -0.5047
  426TMC3    H2 6360   3.929   4.532  17.261 -0.0645  1.4785 -1.9051
  426TMC3    C7 6361   3.989   4.504  17.517  0.1294  0.3368 -0.0482
  426TMC3    C8 6362   3.692   4.593  17.162 -0.4668 -0.5418 -0.2034
  426TMC3    O1 6363   4.017   4.413  17.441  0.1003 -0.0735  0.4575
  426TMC3    O2 6364   3.777   4.545  17.087 -0.0161  0.0554 -0.4641
  427MPD2     C 6365   1.903   1.868  14.363  0.0894  0.1909  0.1133
  427MPD2    C1 6366   1.933   1.872  14.500 -0.2558  0.3986  0.5432
  427MPD2    C2 6367   1.844   1.940  14.586 -0.9848 -0.1623 -0.0330
  427MPD2    C3 6368   1.725   1.996  14.536 -0.0382 -0.2205 -0.3326
  427MPD2    C4 6369   1.695   1.983  14.403  0.8029  0.1322 -0.2347
  427MPD2    C5 6370   1.782   1.921  14.316 -1.0025  0.7491  0.2544
  427MPD2     H 6371   1.869   1.932  14.691  2.0218 -0.7499 -0.7816
  427MPD2    H1 6372   1.602   2.026  14.366  0.2543 -1.3015 -0.5312
  427MPD2    H2 6373   1.965   1.818  14.289  1.5499 -0.1927  1.5899
  427MPD2    H3 6374   1.757   1.915  14.211 -0.4512  1.2473  0.0948
  427MPD2     N 6375   1.628   2.060  14.619  0.3482  0.3851  0.5173
  427MPD2    H5 6376   1.543   2.086  14.569 -0.0033  1.2291  1.5501
  427MPD2    N1 6377   2.056   1.826  14.559 -0.0581  0.0607 -0.1993
  427MPD2    H7 6378   2.062   1.819  14.660 -2.9443  0.1565 -0.0239
  428TMC3    C1 6379   2.262   1.726  14.573  0.0249 -0.3351  0.0259
  428TMC3    C2 6380   2.221   1.615  14.642  0.9271 -0.1230 -0.0840
  428TMC3    C3 6381   2.329   1.537  14.682 -0.9672  0.3905  0.0208
  428TMC3    C4 6382   2.392   1.765  14.553  0.1771  0.5898  0.7230
  428TMC3    C5 6383   2.487   1.682  14.605  0.3706  0.8577 -1.0070
  428TMC3    C6 6384   2.461   1.563  14.667 -0.4250 -0.8513  0.2663
  428TMC3     C 6385   2.164   1.796  14.487 -0.8305 -0.3007  0.0975
  428TMC3     O 6386   2.197   1.816  14.371 -0.5101  0.2565  0.1285
  428TMC3     H 6387   2.119   1.584  14.660  0.3896  0.3575 -2.4120
  428TMC3    H1 6388   2.407   1.852  14.490  1.1240 -0.1823 -0.1247
  428TMC3    H2 6389   2.544   1.507  14.710  2.0932  2.7018  0.0921
  428TMC3    C7 6390   2.611   1.739  14.653 -0.1372 -0.6838 -0.7030
  428TMC3    C8 6391   2.309   1.405  14.745 -0.2022 -0.0006 -1.0132
  428TMC3    O1 6392   2.650   1.707  14.762  0.0460  0.6333  0.5200
  428TMC3    O2 6393   2.407   1.332  14.765  0.2118  0.3116 -0.0495
  429MPD2     C 6394   3.084   2.430  17.435 -0.0125  0.5938 -0.3741
  429MPD2    C1 6395   3.211   2.383  17.467 -0.3993 -0.0029  0.7678
  429MPD2    C2 6396   3.324   2.446  17.425 -0.5825  0.4549  0.0364
  429MPD2    C3 6397   3.313   2.557  17.346 -0.0590  0.2028  0.3522
  429MPD2    C4 6398   3.193   2.597  17.301  0.4056 -0.0093  0.7985
  429MPD2    C5 6399   3.082   2.525  17.342  0.2229  0.6459 -0.4632
  429MPD2     H 6400   3.424   2.410  17.446  0.2704  2.1049 -1.1635
  429MPD2    H1 6401   3.184   2.684  17.238  0.4288  0.1388  0.9990
  429MPD2    H2 6402   2.990   2.392  17.474  0.1643  0.3260 -0.2028
  429MPD2    H3 6403   2.986   2.560  17.307 -0.0214  1.3756  0.9100
  429MPD2     N 6404   3.421   2.640  17.306  0.3549  0.4246 -0.0848
  429MPD2    H5 6405   3.407   2.721  17.246  2.4575  0.9818  0.1679
  429MPD2    N1 6406   3.229   2.276  17.555 -0.3564  0.0264 -0.2148
  429MPD2    H7 6407   3.323   2.260  17.589 -0.5163 -0.5862 -0.0632
  430TMC3    C1 6408   3.663   2.692  17.265  0.6285  0.7237 -0.2659
  430TMC3    C2 6409   3.631   2.724  17.134  0.3560 -0.5644 -0.2244
  430TMC3    C3 6410   3.733   2.772  17.057 -0.6727 -0.4975  0.6420
  430TMC3    C4 6411   3.790   2.701  17.310  0.7725 -0.6267 -0.2987
  430TMC3    C5 6412   3.890   2.749  17.225  0.3173 -0.6372  0.7905
  430TMC3    C6 6413   3.863   2.797  17.098  0.1124  0.3468 -0.4802
  430TMC3     C 6414   3.553   2.613  17.343 -0.6665 -0.6322  0.5986
  430TMC3     O 6415   3.601   2.527  17.416 -0.0015 -0.3843 -0.1633
  430TMC3     H 6416   3.545   2.683  17.083  0.9499 -1.1296 -0.7684
  430TMC3    H1 6417   3.801   2.658  17.408 -0.6761 -2.4541 -0.9433
  430TMC3    H2 6418   3.946   2.819  17.032  0.5458  2.3761  0.7322
  430TMC3    C7 6419   4.028   2.725  17.269  0.9319  0.7251 -0.9332
  430TMC3    C8 6420   3.713   2.773  16.914 -0.1478 -0.4040  0.0059
  430TMC3    O1 6421   4.044   2.646  17.363 -0.3765  0.6863  0.3213
  430TMC3    O2 6422   3.613   2.711  16.875  0.2144 -0.1361  0.2495
  431MPD2     C 6423   0.003   2.538  12.707  0.1505  0.3328 -0.2414
  431MPD2    C1 6424   0.083   2.556  12.593 -0.3302  0.3606 -0.3036
  431MPD2    C2 6425   0.104   2.450  12.501 -0.2938 -0.5050 -0.3634
  431MPD2    C3 6426   0.053   2.323  12.525 -0.1374 -0.1228  1.4440
  431MPD2    C4 6427   4.701   2.313  12.636 -0.1972 -0.1355 -0.6050
  431MPD2    C5 6428   4.677   2.418  12.721  0.2397  0.0709  0.0317
  431MPD2     H 6429   0.164   2.461  12.411 -1.2395 -3.0072 -1.2816
  431MPD2    H1 6430   4.655   2.217  12.654 -1.9197  0.5407 -1.3979
  431MPD2    H2 6431   4.701   2.622  12.770 -1.7636 -1.3738  1.2178
  431MPD2    H3 6432   4.608   2.398  12.802 -1.2902  0.1744 -1.2520
  431MPD2     N 6433   0.094   2.209  12.450  0.1021 -0.2163 -0.2737
  431MPD2    H5 6434   0.062   2.121  12.489 -0.2520 -0.3183 -0.7973
  431MPD2    N1 6435   0.140   2.688  12.585 -0.0355 -0.0665 -0.0565
  431MPD2    H7 6436   0.101   2.756  12.649  1.4241  1.9337 -1.3313
  432TMC3    C1 6437   0.203   2.068  12.284  0.0189  0.4846 -0.0616
  432TMC3    C2 6438   0.273   2.060  12.165 -0.2527 -0.5063 -0.0822
  432TMC3    C3 6439   0.333   1.937  12.139 -0.0476 -0.0497  0.5271
  432TMC3    C4 6440   0.205   1.970  12.376  0.6955 -0.1112  0.2683
  432TMC3    C5 6441   0.267   1.851  12.352 -0.5408 -0.3992  0.3407
  432TMC3    C6 6442   0.317   1.824  12.221 -0.1952  0.3250  0.5175
  432TMC3     C 6443   0.174   2.200  12.333 -0.2049 -0.2952 -0.3327
  432TMC3     O 6444   0.213   2.293  12.266 -0.2273  0.2278  0.4690
  432TMC3     H 6445   0.284   2.150  12.106 -0.5391  0.8696  1.9812
  432TMC3    H1 6446   0.192   1.999  12.480  1.3952 -0.2844  0.4059
  432TMC3    H2 6447   0.355   1.725  12.202  0.4789  1.1565 -2.4123
  432TMC3    C7 6448   0.321   1.778  12.464  0.7963  0.4889 -0.7124
  432TMC3    C8 6449   0.392   1.912  12.013 -0.4928  1.1052  0.3813
  432TMC3    O1 6450   0.433   1.736  12.452 -0.4157  0.2404  0.0407
  432TMC3    O2 6451   0.392   1.797  11.977 -0.8646 -0.1906  0.3985
  433MPD2     C 6452   3.643   1.370  10.911 -0.8140  0.4673  0.5830
  433MPD2    C1 6453   3.572   1.281  10.988  0.6449 -0.0750  0.8380
  433MPD2    C2 6454   3.594   1.268  11.123  0.4737  0.3754 -0.4616
  433MPD2    C3 6455   3.686   1.346  11.185  0.1843 -0.2411  0.2427
  433MPD2    C4 6456   3.778   1.424  11.108 -0.5402  0.4027  0.6454
  433MPD2    C5 6457   3.751   1.435  10.973 -0.0479  0.1436 -0.4369
  433MPD2     H 6458   3.542   1.198  11.188 -2.3461 -0.0542 -3.1913
  433MPD2    H1 6459   3.852   1.494  11.146 -0.9791  1.4216 -0.3689
  433MPD2    H2 6460   3.621   1.383  10.806 -0.8558  0.5703  0.6053
  433MPD2    H3 6461   3.822   1.494  10.917  0.1600  0.7804  0.4906
  433MPD2     N 6462   3.705   1.321  11.326 -0.9003 -0.0853 -0.6556
  433MPD2    H5 6463   3.629   1.267  11.367  0.2309 -1.6625 -0.6499
  433MPD2    N1 6464   3.473   1.198  10.929  0.7376  0.2411  0.3394
  433MPD2    H7 6465   3.448   1.219  10.833 -0.4536 -1.0324  0.3627
  434TMC3    C1 6466   3.297   1.036  10.906 -0.7142  0.3800  0.8414
  434TMC3    C2 6467   3.293   0.906  10.940  0.1305 -0.4222 -0.4155
  434TMC3    C3 6468   3.299   0.804  10.845  0.9270  0.2763  0.4311
  434TMC3    C4 6469   3.291   1.077  10.777  0.0643  0.4581  0.1978
  434TMC3    C5 6470   3.293   0.979  10.680 -0.0092  0.7517 -0.2988
  434TMC3    C6 6471   3.306   0.842  10.714 -0.2414 -0.2368  0.1692
  434TMC3     C 6472   3.400   1.096  10.988 -0.2153 -0.1538  0.5327
  434TMC3     O 6473   3.431   1.038  11.095  0.4743 -0.3613 -0.4634
  434TMC3     H 6474   3.300   0.871  11.043  2.7161 -0.7818 -0.6988
  434TMC3    H1 6475   3.280   1.180  10.742 -0.2704  0.5733  0.6309
  434TMC3    H2 6476   3.314   0.762  10.641  2.1993 -0.0937  0.2931
  434TMC3    C7 6477   3.288   1.015  10.535 -0.1380 -0.0583  0.5637
  434TMC3    C8 6478   3.381   0.699  10.884  1.0162 -0.0659 -0.7841
  434TMC3    O1 6479   3.267   1.131  10.496 -0.0316 -0.3668  0.3603
  434TMC3    O2 6480   3.479   0.727  10.954 -0.6681  0.4248 -0.2674
  435MPD2     C 6481   0.596   0.983  15.475  0.1342  0.3010  0.7232
  435MPD2    C1 6482   0.506   0.930  15.564 -0.6661  0.0898 -0.7356
  435MPD2    C2 6483   0.554   0.846  15.669  0.2601  0.1009 -0.4009
  435MPD2    C3 6484   0.690   0.822  15.686 -0.5071 -0.2503  0.5395
  435MPD2    C4 6485   0.780   0.883  15.595  0.1122 -0.2068  0.0612
  435MPD2    C5 6486   0.732   0.963  15.492  0.0869  0.6075  0.3562
  435MPD2     H 6487   0.482   0.807  15.741  1.6126 -2.6924 -0.5685
  435MPD2    H1 6488   0.887   0.863  15.591  0.0998  0.2111 -1.9878
  435MPD2    H2 6489   0.570   1.053  15.397 -0.8186  1.6671  2.2493
  435MPD2    H3 6490   0.805   1.016  15.431 -2.7631  1.0516 -2.6561
  435MPD2     N 6491   0.732   0.734  15.785 -0.9396 -0.8045 -0.2139
  435MPD2    H5 6492   0.661   0.691  15.845  0.7691 -1.2269  1.5188
  435MPD2    N1 6493   0.372   0.967  15.550  0.6966 -0.3295  0.2781
  435MPD2    H7 6494   0.367   1.048  15.490 -0.6097 -0.0584  0.7432
  436TMC3    C1 6495   4.635   1.016  15.604 -0.1144 -0.1189  0.2723
  436TMC3    C2 6496   0.037   0.985  15.650  0.1649  0.0176 -0.6519
  436TMC3    C3 6497   0.146   1.002  15.573 -0.1383  0.6271 -0.7196
  436TMC3    C4 6498   4.623   1.039  15.464 -0.3952 -0.8210  0.6279
  436TMC3    C5 6499   0.012   1.062  15.392  0.3256 -0.0500 -0.3809
  436TMC3    C6 6500   0.136   1.042  15.442  0.7617 -1.2660 -0.7607
  436TMC3     C 6501   4.527   0.933  15.653  0.4085  0.2537  0.0108
  436TMC3     O 6502   4.442   0.891  15.577 -0.0859 -0.3060  0.2689
  436TMC3     H 6503   0.046   0.949  15.751  0.1622 -1.6565 -1.2397
  436TMC3    H1 6504   4.526   1.044  15.417 -1.3888 -3.6689  2.3870
  436TMC3    H2 6505   0.221   1.060  15.377  0.7578  0.4274 -0.2891
  436TMC3    C7 6506   0.005   1.127  15.262 -0.2233  0.4159 -0.5887
  436TMC3    C8 6507   0.262   0.933  15.619  1.1775 -0.6218  0.2631
  436TMC3    O1 6508   0.047   1.060  15.170  0.0875  0.3036 -0.4177
  436TMC3    O2 6509   0.233   0.842  15.698  0.2159 -0.3069  0.4520
  437TMC3    C1 6510   4.094   3.286  12.643 -0.2066 -0.1097 -0.4745
  437TMC3    C2 6511   3.971   3.318  12.596  0.5726 -0.1084  0.5688
  437TMC3    C3 6512   3.959   3.410  12.493  0.5569  0.7850  0.0879
  437TMC3    C4 6513   4.207   3.347  12.583 -0.2134 -0.2988  0.1066
  437TMC3    C5 6514   4.186   3.436  12.480  0.1232 -1.3788  0.1662
  437TMC3    C6 6515   4.062   3.475  12.436 -0.3903  0.4828  0.2231
  437TMC3     C 6516   4.096   3.187  12.755  0.2991 -0.1010 -0.2936
  437TMC3     O 6517   3.986   3.145  12.794 -0.5506 -0.1605 -0.0163
  437TMC3     H 6518   3.883   3.276  12.644  0.6876 -1.8588 -0.7400
  437TMC3    H1 6519   4.308   3.323  12.616 -0.3940  0.5677  1.2725
  437TMC3    H2 6520   4.039   3.534  12.348 -0.6957 -0.8819 -0.6310
  437TMC3    C7 6521   4.296   3.507  12.409  0.2548 -0.6537 -0.6954
  437TMC3    C8 6522   3.822   3.446  12.450 -0.3182  0.9576  0.5841
  437TMC3    O1 6523   4.258   3.567  12.306  0.4048  0.1372  0.5491
  437TMC3    O2 6524   3.734   3.359  12.451 -0.0514  0.7792 -0.1978
  438MPD2     C 6525   1.616   3.448  16.433 -0.6931  0.2223 -0.1533
  438MPD2    C1 6526   1.692   3.392  16.530 -0.0740 -0.2290 -0.0422
  438MPD2    C2 6527   1.649   3.400  16.664  1.0680 -0.1133  0.2251
  438MPD2    C3 6528   1.524   3.446  16.693  0.2080 -0.4282  0.5647
  438MPD2    C4 6529   1.436   3.482  16.591  0.7514 -0.4426  0.1189
  438MPD2    C5 6530   1.485   3.479  16.460 -0.2317 -0.3324  0.3435
  438MPD2     H 6531   1.712   3.354  16.740  0.7484  0.7111  0.9937
  438MPD2    H1 6532   1.334   3.514  16.611  0.0373 -2.5827 -0.0197
  438MPD2    H2 6533   1.659   3.455  16.333 -1.8130 -0.5191 -0.6936
  438MPD2    H3 6534   1.411   3.514  16.389 -0.9844 -2.0409  0.2862
  438MPD2     N 6535   1.465   3.430  16.819 -0.3025  0.4707 -0.2877
  438MPD2    H5 6536   1.364   3.439  16.828 -0.3310  1.2206 -1.4071
  438MPD2    N1 6537   1.818   3.325  16.506  0.1512 -0.2206 -0.3891
  438MPD2    H7 6538   1.866   3.292  16.589  0.8774 -2.1228 -1.5732
  439TMC3    C1 6539   1.975   3.192  16.388 -0.3342 -0.3000 -0.2247
  439TMC3    C2 6540   1.985   3.110  16.281  0.0769 -0.1522  1.0471
  439TMC3    C3 6541   2.103   3.044  16.269 -0.2308 -0.2069 -0.0775
  439TMC3    C4 6542   2.078   3.214  16.481  0.5178 -0.5283 -0.4010
  439TMC3    C5 6543   2.197   3.144  16.467  0.2170 -0.4590 -0.2904
  439TMC3    C6 6544   2.207   3.050  16.360  0.0403  0.1480  0.5249
  439TMC3     C 6545   1.864   3.282  16.378  0.8187 -0.4014 -0.3402
  439TMC3     O 6546   1.796   3.283  16.274  0.0518 -0.3574 -0.3258
  439TMC3     H 6547   1.910   3.121  16.204  0.7574 -0.5003  0.3272
  439TMC3    H1 6548   2.066   3.285  16.562  0.3630 -1.0647  0.0468
  439TMC3    H2 6549   2.286   2.976  16.352  0.4638  0.5524  0.9194
  439TMC3    C7 6550   2.301   3.166  16.562  0.5278 -0.2600  0.5293
  439TMC3    C8 6551   2.147   2.993  16.143 -0.3566  0.3326  0.1788
  439TMC3    O1 6552   2.284   3.252  16.644  0.1247  0.1560  0.3145
  439TMC3    O2 6553   2.265   2.959  16.138 -0.5421 -0.2496 -0.0318
  440MPD2     C 6554   0.340   4.219  14.381  0.3093  0.4643 -0.4430
  440MPD2    C1 6555   0.316   4.172  14.503  0.3385  1.0124  0.0980
  440MPD2    C2 6556   0.411   4.104  14.573  0.4635 -0.0650 -0.4644
  440MPD2    C3 6557   0.531   4.083  14.525 -0.0006  0.1019  0.5090
  440MPD2    C4 6558   0.559   4.126  14.396 -0.1030  0.5904 -0.6787
  440MPD2    C5 6559   0.460   4.194  14.328 -0.8524  0.5137  0.0346
  440MPD2     H 6560   0.382   4.075  14.674  1.3222  4.6430  1.1514
  440MPD2    H1 6561   0.659   4.132  14.355  0.2087  1.6238  0.2412
  440MPD2    H2 6562   0.272   4.282  14.325  2.6800  1.3777 -2.2639
  440MPD2    H3 6563   0.483   4.221  14.226  3.5827 -3.0108  0.1308
  440MPD2     N 6564   0.635   4.035  14.601  0.3051  0.1943  0.1310
  440MPD2    H5 6565   0.729   4.054  14.570  0.9745 -1.2444  1.2860
  440MPD2    N1 6566   0.198   4.203  14.572 -0.2726 -0.3758  0.2245
  440MPD2    H7 6567   0.197   4.182  14.671 -0.3764 -0.1979  0.2611
  441TMC3    C1 6568   0.753   3.966  14.792 -0.2485  0.4922 -0.7964
  441TMC3    C2 6569   0.816   4.082  14.810 -0.1323 -0.3637 -0.2063
  441TMC3    C3 6570   0.871   4.125  14.927 -0.4551 -0.1443 -0.2927
  441TMC3    C4 6571   0.748   3.873  14.893  0.5054 -0.4023  0.2410
  441TMC3    C5 6572   0.786   3.927  15.015  0.0868 -0.0062 -1.0803
  441TMC3    C6 6573   0.855   4.040  15.035 -1.0162 -0.9951  0.3745
  441TMC3     C 6574   0.629   3.971  14.725 -0.2238 -0.1467 -0.0299
  441TMC3     O 6575   0.530   3.929  14.783  0.6864 -0.0836 -0.0859
  441TMC3     H 6576   0.823   4.156  14.732  0.4112 -0.2529 -0.0583
  441TMC3    H1 6577   0.669   3.799  14.897 -0.2498  0.2945 -2.1731
  441TMC3    H2 6578   0.895   4.046  15.136  0.2086 -2.0935 -0.0460
  441TMC3    C7 6579   0.713   3.888  15.132 -0.1539 -0.2321 -0.1710
  441TMC3    C8 6580   0.849   4.264  14.958 -0.1269  0.1607  0.4540
  441TMC3    O1 6581   0.771   3.892  15.241  0.0100 -0.3230  0.1560
  441TMC3    O2 6582   0.779   4.330  14.883  0.4360 -0.2416 -0.8681
  442MPD2     C 6583   3.383   0.193  16.897 -0.6421 -0.4806 -0.2394
  442MPD2    C1 6584   3.267   0.120  16.883  0.4294  0.7902 -0.1624
  442MPD2    C2 6585   3.269   0.006  16.800  0.1808 -0.1117 -0.2387
  442MPD2    C3 6586   3.375   4.712  16.712 -0.9745  0.1662 -0.9549
  442MPD2    C4 6587   3.486   0.071  16.726  0.0726 -0.5544  0.4355
  442MPD2    C5 6588   3.484   0.176  16.809  0.8205  0.6413 -0.8520
  442MPD2     H 6589   3.187   4.660  16.804 -0.3700  0.4391 -1.7566
  442MPD2    H1 6590   3.555   0.088  16.644 -0.1169 -2.3939 -0.1003
  442MPD2    H2 6591   3.392   0.280  16.961  0.8677 -0.9956  0.2541
  442MPD2    H3 6592   3.569   0.244  16.804  0.4095  1.2799  0.7329
  442MPD2     N 6593   3.371   4.602  16.618  0.5385  0.2551  0.2155
  442MPD2    H5 6594   3.454   4.579  16.563 -0.2940 -5.1268  1.1482
  442MPD2    N1 6595   3.159   0.143  16.972 -0.1339  0.1486  0.4302
  442MPD2    H7 6596   3.078   0.082  16.964 -0.8225  1.0023  0.9825
  443TMC3    C1 6597   3.031   0.218  17.133 -0.0346  0.1197 -0.3386
  443TMC3    C2 6598   2.946   0.313  17.083 -0.0799 -0.1126 -0.0183
  443TMC3    C3 6599   2.814   0.288  17.087 -0.2014  0.4314  0.4047
  443TMC3    C4 6600   2.985   0.102  17.179 -0.0982  0.5945  0.0018
  443TMC3    C5 6601   2.852   0.095  17.214 -0.3186  0.1049 -0.8126
  443TMC3    C6 6602   2.766   0.193  17.168 -0.2067 -0.1130 -0.5056
  443TMC3     C 6603   3.150   0.231  17.072 -0.2992  0.5864  1.3424
  443TMC3     O 6604   3.222   0.326  17.106  0.3983  0.2291  0.0746
  443TMC3     H 6605   2.992   0.375  17.007  1.6138  1.5372  2.3367
  443TMC3    H1 6606   3.054   0.021  17.198 -1.5167 -0.3243  1.2133
  443TMC3    H2 6607   2.660   0.169  17.161 -0.0712 -1.0998  0.7661
  443TMC3    C7 6608   2.798   4.693  17.255  0.0138  0.1130 -0.1408
  443TMC3    C8 6609   2.753   0.301  16.958 -0.3067 -0.0366 -0.6219
  443TMC3    O1 6610   2.859   4.595  17.220  0.0042 -0.2457 -0.0237
  443TMC3    O2 6611   2.700   0.194  16.927 -0.0102 -0.2674  0.9836
  444MPD2     C 6612   3.645   4.256  17.269 -0.4259  0.1176 -0.9834
  444MPD2    C1 6613   3.568   4.166  17.210  0.6341  0.8544 -0.5964
  444MPD2    C2 6614   3.621   4.060  17.138  0.0298  0.1636  0.3744
  444MPD2    C3 6615   3.751   4.051  17.105  0.2355 -0.1540  0.6386
  444MPD2    C4 6616   3.831   4.152  17.149 -0.3708  0.2626 -0.4850
  444MPD2    C5 6617   3.778   4.245  17.237 -0.0385  0.3896  0.9208
  444MPD2     H 6618   3.550   3.989  17.097  0.6132 -0.1601 -0.0847
  444MPD2    H1 6619   3.936   4.154  17.119 -0.3017  1.2171 -0.1806
  444MPD2    H2 6620   3.618   4.339  17.334 -0.3005  0.6225 -1.5710
  444MPD2    H3 6621   3.841   4.322  17.281 -0.0139  0.9367 -0.0716
  444MPD2     N 6622   3.788   3.965  16.999  0.0908  0.4967 -0.1066
  444MPD2    H5 6623   3.721   3.894  16.974 -0.6369  0.9918  0.4534
  444MPD2    N1 6624   3.432   4.165  17.228  0.0176 -0.2030 -0.5701
  444MPD2    H7 6625   3.383   4.117  17.153  0.0562 -2.4922  0.8745
  445TMC3    C1 6626   3.924   3.863  16.827  0.1922  0.2127 -0.1329
  445TMC3    C2 6627   3.861   3.742  16.835  0.1916 -1.2577 -0.3602
  445TMC3    C3 6628   3.893   3.648  16.740 -0.9272 -0.0838 -0.2072
  445TMC3    C4 6629   4.005   3.894  16.728 -0.5003 -0.0171 -0.2387
  445TMC3    C5 6630   4.045   3.794  16.642 -0.3818 -0.3102 -0.4094
  445TMC3    C6 6631   3.985   3.674  16.641 -0.1318  0.3386 -0.0133
  445TMC3     C 6632   3.910   3.966  16.936  0.7283 -0.1095 -0.3908
  445TMC3     O 6633   4.011   4.035  16.951 -0.4467 -0.2148 -0.0678
  445TMC3     H 6634   3.816   3.720  16.931 -3.4365 -0.0354 -1.8119
  445TMC3    H1 6635   4.068   3.983  16.732  0.1977 -0.6753  3.4781
  445TMC3    H2 6636   4.011   3.593  16.573  0.6633  0.6750 -0.1077
  445TMC3    C7 6637   4.173   3.810  16.583 -0.5791 -0.2276  0.2921
  445TMC3    C8 6638   3.849   3.506  16.760 -0.5597  0.0546 -0.0098
  445TMC3    O1 6639   4.193   3.740  16.487  0.6152  0.3130  0.5658
  445TMC3    O2 6640   3.908   3.413  16.701  0.1143 -0.1932  0.1844
  446MPD2     C 6641   3.421   0.492  11.396  0.3633  0.0623 -0.2291
  446MPD2    C1 6642   3.375   0.542  11.276 -0.5496  0.3928  0.0218
  446MPD2    C2 6643   3.418   0.668  11.234 -0.1109 -0.1692 -0.8049
  446MPD2    C3 6644   3.514   0.737  11.296 -0.3646 -0.0448 -0.1585
  446MPD2    C4 6645   3.560   0.690  11.418  0.2388  0.8193  0.0575
  446MPD2    C5 6646   3.508   0.571  11.465  0.3824 -0.3735  0.0146
  446MPD2     H 6647   3.375   0.704  11.142 -1.1480  2.8884  0.8720
  446MPD2    H1 6648   3.620   0.739  11.494  1.1027  0.0026 -0.1066
  446MPD2    H2 6649   3.389   0.397  11.438 -3.1431  1.3288 -0.0724
  446MPD2    H3 6650   3.527   0.530  11.564 -1.4538 -0.7627  0.2124
  446MPD2     N 6651   3.579   0.848  11.234 -0.4186 -0.5737  0.2806
  446MPD2    H5 6652   3.523   0.890  11.160 -1.2052  0.6476  1.5527
  446MPD2    N1 6653   3.270   0.463  11.218 -0.3723  0.5296  0.2223
  446MPD2    H7 6654   3.259   0.370  11.257 -3.1481  0.5125 -0.5938
  447TMC3    C1 6655   3.755   0.989  11.181 -0.0265 -0.0768  0.4782
  447TMC3    C2 6656   3.722   0.965  11.049  0.3111  0.4661  0.5147
  447TMC3    C3 6657   3.815   1.006  10.947 -0.1367  0.2389  0.7204
  447TMC3    C4 6658   3.872   1.047  11.209 -0.0204 -0.1734  0.0573
  447TMC3    C5 6659   3.955   1.095  11.115 -0.0229  0.2320  0.0361
  447TMC3    C6 6660   3.930   1.073  10.980  0.0196 -0.0899  0.3557
  447TMC3     C 6661   3.699   0.905  11.283 -0.2097  0.1082 -0.7172
  447TMC3     O 6662   3.778   0.860  11.364 -0.0199  0.3353  0.1460
  447TMC3     H 6663   3.634   0.909  11.019 -0.9637  1.6274  2.1314
  447TMC3    H1 6664   3.901   1.051  11.314 -0.5828 -0.1813  0.2104
  447TMC3    H2 6665   4.007   1.097  10.908 -0.5483 -1.0058 -0.5546
  447TMC3    C7 6666   4.086   1.084  11.155  0.3406  0.1170  0.5266
  447TMC3    C8 6667   3.801   0.967  10.809 -0.1267  0.0150  0.3438
  447TMC3    O1 6668   4.153   1.011  11.077 -0.4335 -0.3458  0.2947
  447TMC3    O2 6669   3.883   1.009  10.725 -0.0874  0.0550  0.4432
  448TMC3    C1 6670   1.242   4.708  16.669 -0.2452 -0.4413 -0.2639
  448TMC3    C2 6671   1.268   4.597  16.601  0.7014 -0.4189 -0.1613
  448TMC3    C3 6672   1.350   4.503  16.654 -0.2559  0.0207  0.3501
  448TMC3    C4 6673   1.305   0.003  16.788  0.0909 -0.3124 -0.2426
  448TMC3    C5 6674   1.379   4.628  16.846 -0.1933 -0.5340  0.4138
  448TMC3    C6 6675   1.399   4.510  16.785  0.0013 -0.2476 -0.1726
  448TMC3     C 6676   1.140   0.077  16.619  0.1884  0.2416 -0.2421
  448TMC3     O 6677   1.040   0.023  16.579 -0.5430 -0.5129 -0.9454
  448TMC3     H 6678   1.221   4.572  16.507  1.2006 -0.3914 -0.4157
  448TMC3    H1 6679   1.275   0.087  16.849  1.9143  1.7830 -2.2102
  448TMC3    H2 6680   1.465   4.433  16.825 -0.2277 -0.0245  0.6315
  448TMC3    C7 6681   1.417   4.645  16.985  0.6394 -0.5709 -0.1757
  448TMC3    C8 6682   1.395   4.392  16.569 -0.1994 -0.2522 -0.1936
  448TMC3    O1 6683   1.406   0.030  17.034 -0.0532  0.6448 -0.6196
  448TMC3    O2 6684   1.422   4.290  16.633 -0.6708  0.4029  0.0599
  449MPD2     C 6685   3.218   3.821  13.822 -0.1200  0.0037 -0.1338
  449MPD2    C1 6686   3.095   3.877  13.785 -0.5122 -0.3424  0.3008
  449MPD2    C2 6687   2.981   3.828  13.846  0.0000 -0.4943 -0.2223
  449MPD2    C3 6688   2.978   3.734  13.952 -0.0336  0.0215 -0.2961
  449MPD2    C4 6689   3.099   3.680  13.979  0.3759  0.0467  0.4708
  449MPD2    C5 6690   3.217   3.716  13.920 -0.1568  0.6212 -0.2678
  449MPD2     H 6691   2.885   3.865  13.812 -0.9297 -0.8140  2.0620
  449MPD2    H1 6692   3.098   3.592  14.043 -0.1129 -1.3285 -1.4282
  449MPD2    H2 6693   3.316   3.846  13.783 -0.0690 -1.5813 -1.0410
  449MPD2    H3 6694   3.313   3.674  13.947 -0.0714  0.8004 -0.2891
  449MPD2     N 6695   2.855   3.693  14.003  0.8272 -0.9781 -0.3040
  449MPD2    H5 6696   2.772   3.745  13.973  0.4466 -0.5669  1.4216
  449MPD2    N1 6697   3.072   3.968  13.675  0.2470  0.0237  0.0608
  449MPD2    H7 6698   2.976   3.999  13.669  0.6799  1.4229  0.3685
  450TMC3    C1 6699   3.127   4.115  13.503 -0.1546  0.5524  0.2215
  450TMC3    C2 6700   3.144   4.064  13.374 -0.0225  0.6844 -0.2341
  450TMC3    C3 6701   3.037   4.074  13.293 -0.2173  0.0384 -0.4251
  450TMC3    C4 6702   3.013   4.171  13.545  0.2125  0.1198 -0.1476
  450TMC3    C5 6703   2.896   4.175  13.463  0.4778  0.7622 -0.2959
  450TMC3    C6 6704   2.919   4.135  13.329 -0.5919 -0.0683  0.5157
  450TMC3     C 6705   3.174   4.018  13.600  0.2373 -0.4398 -0.9370
  450TMC3     O 6706   3.293   3.989  13.588 -0.0644 -0.0640  0.2522
  450TMC3     H 6707   3.229   4.000  13.353 -0.3374 -0.1536  1.0152
  450TMC3    H1 6708   3.005   4.216  13.643 -0.6082 -0.2966 -0.0208
  450TMC3    H2 6709   2.831   4.126  13.267 -0.5264  1.8057  0.1499
  450TMC3    C7 6710   2.793   4.108  13.529  1.2280 -0.1741  0.3184
  450TMC3    C8 6711   3.044   4.033  13.152 -0.2135  0.7076  1.1056
  450TMC3    O1 6712   2.828   4.067  13.642  0.4715 -0.0261 -0.4409
  450TMC3    O2 6713   2.958   4.075  13.075  0.4497  0.3481  0.4238
  451MPD2     C 6714   3.399   1.630   1.341  0.0612 -0.7174 -0.0906
  451MPD2    C1 6715   3.513   1.705   1.298 -0.1889 -0.4089 -0.3073
  451MPD2    C2 6716   3.636   1.647   1.300 -0.0243 -0.8892 -0.9124
  451MPD2    C3 6717   3.646   1.519   1.350 -0.3843 -0.1946 -0.1265
  451MPD2    C4 6718   3.539   1.449   1.403  0.1490  0.0911 -0.3812
  451MPD2    C5 6719   3.415   1.502   1.388 -0.0824  0.2520  0.0772
  451MPD2     H 6720   3.724   1.700   1.267 -0.0727  0.2555  0.8437
  451MPD2    H1 6721   3.546   1.350   1.445 -0.4225  0.0589 -0.3607
  451MPD2    H2 6722   3.301   1.676   1.335  0.3208 -0.2920 -1.1188
  451MPD2    H3 6723   3.328   1.451   1.428 -2.0569  2.0757 -1.9522
  451MPD2     N 6724   3.772   1.451   1.359  0.2335 -0.0414 -0.5375
  451MPD2    H5 6725   3.777   1.356   1.394  1.0190  0.4297  0.6048
  451MPD2    N1 6726   3.488   1.837   1.248  0.5713  0.1728 -0.3596
  451MPD2    H7 6727   3.389   1.860   1.254  0.7252  0.7188  0.1001
  452TMC3    C1 6728   4.001   1.398   1.317 -0.0017  0.2868 -0.5192
  452TMC3    C2 6729   3.993   1.285   1.394 -0.6457 -0.2435 -0.4903
  452TMC3    C3 6730   4.094   1.192   1.384  0.3079  0.1643  0.0749
  452TMC3    C4 6731   4.105   1.423   1.230  0.1271 -0.4630 -0.2845
  452TMC3    C5 6732   4.208   1.337   1.232 -0.1590 -0.5525  0.0151
  452TMC3    C6 6733   4.203   1.214   1.300  0.2109  0.1811  0.3896
  452TMC3     C 6734   3.896   1.501   1.307  0.0426  0.2960 -0.3525
  452TMC3     O 6735   3.913   1.589   1.222 -0.2148  0.3666  0.7856
  452TMC3     H 6736   3.910   1.277   1.464 -0.3074 -0.9611 -0.1771
  452TMC3    H1 6737   4.099   1.496   1.150 -0.0764 -0.5161 -0.3179
  452TMC3    H2 6738   4.279   1.137   1.289  0.6575  0.8275 -1.1050
  452TMC3    C7 6739   4.314   1.385   1.149 -0.1852 -0.0575 -0.5143
  452TMC3    C8 6740   4.111   1.088   1.481 -0.0431  0.8267  0.1129
  452TMC3    O1 6741   4.313   1.510   1.129 -0.3793  0.1708 -0.3836
  452TMC3    O2 6742   4.222   1.038   1.492 -0.2364  0.0532  0.3968
  453TMC3    C1 6743   1.300   3.913  11.425 -0.4526  0.2507 -0.2414
  453TMC3    C2 6744   1.180   3.889  11.485  0.3556 -0.2283  0.3907
  453TMC3    C3 6745   1.086   3.841  11.400 -0.0012 -1.1490  0.0636
  453TMC3    C4 6746   1.325   3.888  11.292 -0.0022 -0.0597  0.6723
  453TMC3    C5 6747   1.227   3.830  11.218 -0.2867  0.8583  0.4251
  453TMC3    C6 6748   1.105   3.806  11.273  0.7300 -0.7914  0.1242
  453TMC3     C 6749   1.396   3.996  11.500 -0.1590 -0.5226  0.0422
  453TMC3     O 6750   1.471   4.067  11.433  0.1088  0.0857 -0.2983
  453TMC3     H 6751   1.152   3.943  11.574 -0.4773  1.3341 -0.8172
  453TMC3    H1 6752   1.413   3.931  11.246  0.8427 -1.8015  0.6797
  453TMC3    H2 6753   1.022   3.761  11.220 -0.0728  2.7923 -1.6615
  453TMC3    C7 6754   1.233   3.830  11.075 -0.4936 -0.8112  0.5847
  453TMC3    C8 6755   0.955   3.817  11.455  0.1017  0.1034 -0.0962
  453TMC3    O1 6756   1.136   3.789  11.016 -0.1224  0.2671 -0.0353
  453TMC3    O2 6757   0.866   3.807  11.370  0.1613 -0.6548  0.3148
  454MPD2     C 6758   4.371   4.304  16.300 -0.4338  0.0822  0.6689
  454MPD2    C1 6759   4.300   4.191  16.254 -0.0829  0.5749 -0.4835
  454MPD2    C2 6760   4.190   4.136  16.321 -0.4603 -0.6315 -0.1052
  454MPD2    C3 6761   4.144   4.202  16.436  0.0974  0.8640 -0.7628
  454MPD2    C4 6762   4.217   4.305  16.488 -0.7952 -0.8809  0.6579
  454MPD2    C5 6763   4.326   4.353  16.416 -0.1921  0.1480 -0.5861
  454MPD2     H 6764   4.132   4.056  16.276  0.4023 -1.0182 -0.5400
  454MPD2    H1 6765   4.187   4.356  16.579 -0.3069  0.2504  0.1914
  454MPD2    H2 6766   4.451   4.354  16.246 -2.0589 -0.1197 -1.9142
  454MPD2    H3 6767   4.373   4.445  16.451 -0.2882 -0.9054  2.3534
  454MPD2     N 6768   4.015   4.177  16.495 -0.4609 -0.2653 -0.1309
  454MPD2    H5 6769   3.988   4.227  16.579  0.9290  0.9087 -0.3768
  454MPD2    N1 6770   4.331   4.147  16.123  0.5685 -0.1038 -0.4929
  454MPD2    H7 6771   4.359   4.206  16.045  0.4769  1.8934  0.9939
  455TMC3    C1 6772   3.800   4.071  16.522 -0.7045 -0.7996  0.5198
  455TMC3    C2 6773   3.757   4.172  16.608  0.3089 -0.1371 -0.3279
  455TMC3    C3 6774   3.649   4.140  16.688  0.3861 -0.3914  0.0618
  455TMC3    C4 6775   3.731   3.950  16.504  0.1742  0.4581 -0.6079
  455TMC3    C5 6776   3.619   3.934  16.587  0.4201 -0.2569 -0.3008
  455TMC3    C6 6777   3.590   4.018  16.691 -0.3958 -0.4355 -0.1924
  455TMC3     C 6778   3.927   4.081  16.445  0.5575  0.7114  0.7570
  455TMC3     O 6779   3.946   3.985  16.373  0.3140 -0.0990  0.4958
  455TMC3     H 6780   3.799   4.271  16.594  0.2595  0.2389  2.2108
  455TMC3    H1 6781   3.776   3.865  16.453 -0.5754 -0.7384  0.7252
  455TMC3    H2 6782   3.508   3.990  16.757 -1.1673  1.1669 -0.4723
  455TMC3    C7 6783   3.580   3.795  16.591 -0.6715  0.0244 -0.2527
  455TMC3    C8 6784   3.629   4.229  16.791  0.1872 -0.0520 -0.1775
  455TMC3    O1 6785   3.556   3.749  16.700 -0.3648  0.0758 -0.0613
  455TMC3    O2 6786   3.731   4.294  16.818  0.3690 -0.1883  0.2658
  456MPD2     C 6787   2.267   3.252  16.012 -0.2704  0.0027  0.0917
  456MPD2    C1 6788   2.329   3.310  16.125 -0.4263  0.0001 -0.2016
  456MPD2    C2 6789   2.257   3.406  16.193 -0.1053  0.1059 -0.3050
  456MPD2    C3 6790   2.124   3.438  16.163 -0.4367 -1.1785 -0.2803
  456MPD2    C4 6791   2.070   3.377  16.052 -0.3884  0.0405  0.0121
  456MPD2    C5 6792   2.145   3.294  15.970 -0.7538 -0.0185  0.4718
  456MPD2     H 6793   2.296   3.472  16.270  0.1092 -0.4344  0.0458
  456MPD2    H1 6794   1.966   3.398  16.028 -0.2010  0.6101 -0.2994
  456MPD2    H2 6795   2.323   3.186  15.947 -0.1307 -0.5119  0.7355
  456MPD2    H3 6796   2.100   3.258  15.878  2.5155 -1.1218 -0.6979
  456MPD2     N 6797   2.057   3.529  16.245 -0.1541  0.5658  0.0790
  456MPD2    H5 6798   2.100   3.543  16.336 -1.2197  1.1252  0.4937
  456MPD2    N1 6799   2.458   3.274  16.152 -1.0150 -0.1036 -0.1275
  456MPD2    H7 6800   2.508   3.228  16.077 -1.0500  3.1801 -2.1625
  457TMC3    C1 6801   1.890   3.685  16.313  0.1080  0.0195  0.6024
  457TMC3    C2 6802   1.784   3.767  16.281  0.3029  0.4188  0.5084
  457TMC3    C3 6803   1.718   3.822  16.385 -0.3441  0.1491  0.6901
  457TMC3    C4 6804   1.908   3.647  16.441  0.6645 -0.6641 -0.1097
  457TMC3    C5 6805   1.827   3.689  16.539  0.3759 -0.5468 -0.0775
  457TMC3    C6 6806   1.728   3.772  16.510 -0.2429 -0.1082 -0.3861
  457TMC3     C 6807   1.941   3.591  16.213 -0.3430  0.4489  0.5411
  457TMC3     O 6808   1.882   3.601  16.108 -0.1244 -0.5080 -0.2361
  457TMC3     H 6809   1.768   3.805  16.181 -1.4632  0.2910  0.7472
  457TMC3    H1 6810   1.989   3.581  16.471  1.3546  0.8535  1.3819
  457TMC3    H2 6811   1.651   3.792  16.583  1.1623 -1.0536  1.3748
  457TMC3    C7 6812   1.879   3.703  16.675  0.3254  0.8695 -0.5340
  457TMC3    C8 6813   1.618   3.931  16.380  0.0883 -0.4089 -0.2451
  457TMC3    O1 6814   1.975   3.635  16.704 -0.6427 -0.0647 -0.2421
  457TMC3    O2 6815   1.557   3.958  16.485 -0.5381  0.0870 -0.1669
  458MPD2     C 6816   0.058   3.577  12.302 -0.2871  0.1169  0.8566
  458MPD2    C1 6817   0.052   3.578  12.445 -0.3755 -0.0504 -0.3299
  458MPD2    C2 6818   4.655   3.544  12.500 -0.2202 -0.8578  0.4948
  458MPD2    C3 6819   4.543   3.531  12.416  0.6432  0.0731  0.4265
  458MPD2    C4 6820   4.559   3.532  12.276 -0.3162  0.4015 -0.4118
  458MPD2    C5 6821   4.680   3.548  12.220  0.0684 -0.1695 -0.1519
  458MPD2     H 6822   4.640   3.538  12.607  0.4750 -0.2411  0.6213
  458MPD2    H1 6823   4.479   3.500  12.211  0.6197 -0.5181 -1.1029
  458MPD2    H2 6824   0.152   3.591  12.250 -0.2185 -0.4555  0.8312
  458MPD2    H3 6825   4.695   3.550  12.113 -0.2216  0.3858 -0.1788
  458MPD2     N 6826   4.423   3.505  12.473  0.3226  0.2837 -0.3928
  458MPD2    H5 6827   4.431   3.472  12.569  0.9009  1.2640 -0.1110
  458MPD2    N1 6828   0.171   3.591  12.517  0.0983  0.0907 -0.1596
  458MPD2    H7 6829   0.262   3.580  12.473  1.0198  1.7632  1.3126
  459TMC3    C1 6830   0.312   3.620  12.707  0.3336  0.2074 -0.7936
  459TMC3    C2 6831   0.410   3.708  12.654 -0.2474 -0.2388  0.6982
  459TMC3    C3 6832   0.510   3.739  12.747 -0.1022  0.1610 -0.1595
  459TMC3    C4 6833   0.307   3.586  12.840 -0.2766 -0.4645  0.0714
  459TMC3    C5 6834   0.403   3.627  12.918 -0.3670 -0.4284 -0.5656
  459TMC3    C6 6835   0.515   3.688  12.870 -0.3039 -0.0012 -0.0195
  459TMC3     C 6836   0.177   3.629  12.650 -0.2872  0.9456 -0.4193
  459TMC3     O 6837   0.083   3.651  12.724  0.4334 -0.0278  0.5190
  459TMC3     H 6838   0.415   3.745  12.553  0.1205  2.4841  1.7207
  459TMC3    H1 6839   0.231   3.513  12.867 -0.4770 -0.3047 -0.0603
  459TMC3    H2 6840   0.604   3.702  12.930  0.1699  3.4489 -1.5560
  459TMC3    C7 6841   0.405   3.558  13.044 -0.5802  0.0227 -0.0446
  459TMC3    C8 6842   0.640   3.788  12.701 -0.2016 -0.2854  0.8709
  459TMC3    O1 6843   0.303   3.493  13.063 -0.0825 -0.4919  0.1692
  459TMC3    O2 6844   0.736   3.733  12.744 -0.0762  0.2383 -0.4950
  460MPD2     C 6845   3.649   0.649  10.710  0.0815  0.6162 -0.5201
  460MPD2    C1 6846   3.698   0.777  10.689  0.6780 -0.6096 -0.2507
  460MPD2    C2 6847   3.702   0.828  10.562  0.2582  0.2030 -0.9688
  460MPD2    C3 6848   3.671   0.748  10.449 -0.5642  0.3637  0.6846
  460MPD2    C4 6849   3.639   0.621  10.473 -0.3538  0.4530  0.1945
  460MPD2    C5 6850   3.621   0.563  10.601  0.0147 -0.2899  0.7681
  460MPD2     H 6851   3.736   0.930  10.555  1.8387 -0.3160 -1.1252
  460MPD2    H1 6852   3.623   0.543  10.399  0.5103 -0.9646  1.5144
  460MPD2    H2 6853   3.649   0.611  10.811  0.6070  0.6883 -0.4972
  460MPD2    H3 6854   3.602   0.456  10.603  0.1945 -0.3037  2.0335
  460MPD2     N 6855   3.673   0.805  10.323 -0.3963 -0.4467  0.4047
  460MPD2    H5 6856   3.690   0.904  10.308 -1.4798 -0.3212  0.0166
  460MPD2    N1 6857   3.733   0.853  10.807  0.4872 -0.6751  0.5645
  460MPD2    H7 6858   3.712   0.807  10.895  0.6146  0.3237  1.1071
  461TMC3    C1 6859   3.676   0.810  10.092 -0.2251 -0.0630 -0.6890
  461TMC3    C2 6860   3.725   0.761   9.979  0.5103  0.1595 -0.2469
  461TMC3    C3 6861   3.709   0.816   9.860  0.8854  0.0360 -0.7530
  461TMC3    C4 6862   3.598   0.929  10.098  0.3687  0.1349  1.0662
  461TMC3    C5 6863   3.584   0.985   9.973  0.1279  0.2425 -0.1186
  461TMC3    C6 6864   3.640   0.935   9.857  0.0218  0.4082 -0.5499
  461TMC3     C 6865   3.688   0.732  10.211 -0.1605 -0.1721  0.4285
  461TMC3     O 6866   3.718   0.616  10.194  0.6626  0.2601 -0.0590
  461TMC3     H 6867   3.770   0.662   9.972 -0.8903 -0.6200  1.5579
  461TMC3    H1 6868   3.542   0.956  10.186  1.2715 -0.3323  1.7842
  461TMC3    H2 6869   3.628   0.985   9.761  2.9713  1.6270 -0.2947
  461TMC3    C7 6870   3.494   1.093   9.961  0.0121 -0.6690 -0.2582
  461TMC3    C8 6871   3.716   0.724   9.750  0.3805 -0.4115  0.5462
  461TMC3    O1 6872   3.438   1.105   9.852  0.4834 -0.6584 -0.0414
  461TMC3    O2 6873   3.806   0.641   9.742  0.1575 -0.2629  0.3854
  462TMC3    C1 6874   3.385   2.473   0.261  1.2785 -0.0991 -0.1922
  462TMC3    C2 6875   3.462   2.409   0.168 -0.3829 -0.6002  0.0040
  462TMC3    C3 6876   3.507   2.283   0.176  0.0432  0.3668 -0.2347
  462TMC3    C4 6877   3.354   2.397   0.366 -0.0452  0.6816 -0.1775
  462TMC3    C5 6878   3.390   2.264   0.372  0.1353 -1.0957  0.3943
  462TMC3    C6 6879   3.484   2.211   0.287  0.2947 -0.0298  0.4795
  462TMC3     C 6880   3.346   2.612   0.242  0.7972 -0.1871  0.0486
  462TMC3     O 6881   3.265   2.661   0.323  0.7665 -0.3906 -0.1113
  462TMC3     H 6882   3.466   2.458   0.071 -0.0613  1.7815  1.2049
  462TMC3    H1 6883   3.285   2.436   0.440  1.3436  0.4002  1.2645
  462TMC3    H2 6884   3.484   2.104   0.273 -1.1413 -0.1216  1.1810
  462TMC3    C7 6885   3.296   2.168   0.415  0.1374 -0.0762 -0.3517
  462TMC3    C8 6886   3.539   2.205   0.056  0.1394  0.3087  0.0137
  462TMC3    O1 6887   3.332   2.051   0.419  0.0207 -0.5965  0.7076
  462TMC3    O2 6888   3.480   2.240  17.658  0.1812  0.2864  0.3152
  463MPD2     C 6889   3.950   4.641   2.640  0.2602  0.2302 -0.4177
  463MPD2    C1 6890   3.942   4.655   2.503 -0.1369  0.3297  0.0605
  463MPD2    C2 6891   4.043   4.719   2.432 -0.0757  0.8111 -0.0644
  463MPD2    C3 6892   4.151   0.057   2.493 -0.2381  0.9773 -0.6340
  463MPD2    C4 6893   4.161   0.040   2.632 -0.0228  0.3828  0.0937
  463MPD2    C5 6894   4.062   4.694   2.699  0.0731 -0.7545 -0.6837
  463MPD2     H 6895   4.044   0.003   2.324  1.8188  1.1658 -0.0113
  463MPD2    H1 6896   4.231   0.098   2.690 -1.0307 -1.1159  2.8506
  463MPD2    H2 6897   3.884   4.580   2.699 -2.1017  1.2712 -1.9918
  463MPD2    H3 6898   4.072   4.689   2.807 -2.8290 -0.5501 -0.3948
  463MPD2     N 6899   4.245   0.139   2.421 -0.2836 -0.3101  0.2905
  463MPD2    H5 6900   4.328   0.170   2.469  0.0820  0.6531 -0.9597
  463MPD2    N1 6901   3.820   4.630   2.433 -0.3343  0.6265 -0.0587
  463MPD2    H7 6902   3.820   4.651   2.334 -0.7256 -0.2997 -0.2573
  464TMC3    C1 6903   3.600   4.576   2.389  0.0924 -0.3334 -0.1381
  464TMC3    C2 6904   3.583   4.672   2.293 -0.4274 -0.5280 -0.3530
  464TMC3    C3 6905   3.466   4.669   2.227  0.7077  0.0507 -0.7023
  464TMC3    C4 6906   3.507   4.484   2.412  0.2343 -0.3856  0.4144
  464TMC3    C5 6907   3.397   4.482   2.329 -0.0288  0.1769 -0.2663
  464TMC3    C6 6908   3.373   4.570   2.235 -0.3893  0.5919 -0.0162
  464TMC3     C 6909   3.704   4.578   2.482  0.0831  0.1561  0.6102
  464TMC3     O 6910   3.692   4.518   2.592 -0.1411  0.3677 -0.3147
  464TMC3     H 6911   3.648   0.033   2.282 -0.5613 -0.4983 -0.9325
  464TMC3    H1 6912   3.513   4.406   2.487  1.2663 -1.3715 -0.7052
  464TMC3    H2 6913   3.284   4.567   2.173  0.2124  0.5287 -0.8941
  464TMC3    C7 6914   3.306   4.366   2.357  0.5341 -0.1506  0.2336
  464TMC3    C8 6915   3.443   0.049   2.140  0.2591 -0.7863  0.5699
  464TMC3    O1 6916   3.313   4.311   2.467 -0.8088  0.4787 -0.1118
  464TMC3    O2 6917   3.542   0.106   2.097  0.2228 -0.4861  0.2478
  465MPD2     C 6918   0.826   3.513  16.762  0.0546 -0.6180  0.1330
  465MPD2    C1 6919   0.739   3.503  16.872 -1.0993 -0.3110 -0.1309
  465MPD2    C2 6920   0.644   3.600  16.878  0.5406  0.2500 -0.2462
  465MPD2    C3 6921   0.619   3.693  16.781 -0.5559  0.2698 -0.5896
  465MPD2    C4 6922   0.712   3.711  16.684  0.1081  0.3798 -0.2537
  465MPD2    C5 6923   0.810   3.616  16.672 -0.6627  0.4702 -0.5111
  465MPD2     H 6924   0.579   3.598  16.965  0.3705 -1.1703 -0.4176
  465MPD2    H1 6925   0.712   3.781  16.602 -0.8755 -1.5486 -1.8934
  465MPD2    H2 6926   0.907   3.445  16.741 -1.6467 -1.7497 -2.6564
  465MPD2    H3 6927   0.888   3.624  16.597 -0.1749  1.6415  0.1248
  465MPD2     N 6928   0.512   3.786  16.795 -0.5609 -0.1301 -0.2403
  465MPD2    H5 6929   0.448   3.771  16.873 -1.2572  3.7901 -0.0629
  465MPD2    N1 6930   0.736   3.406  16.974  1.0081 -0.2581 -0.4117
  465MPD2    H7 6931   0.669   3.416  17.049  2.0845 -0.7151  0.6258
  466TMC3    C1 6932   0.230   4.045  16.957  0.4140  0.1430 -0.6110
  466TMC3    C2 6933   0.191   4.154  16.879  0.3937 -0.2016  0.6193
  466TMC3    C3 6934   0.243   4.163  16.752 -0.3507 -0.1024  0.2173
  466TMC3    C4 6935   0.336   3.968  16.909 -0.5141  0.3486 -0.0448
  466TMC3    C5 6936   0.375   3.973  16.771  0.6899 -0.6908 -0.0416
  466TMC3    C6 6937   0.320   4.068  16.694  0.4239 -0.3997  0.3808
  466TMC3     C 6938   0.253   4.084  17.097  0.6533 -0.0318  0.5400
  466TMC3     O 6939   0.338   4.016  17.158  0.3493  0.1133  0.1919
  466TMC3     H 6940   0.112   4.221  16.912  2.1907  1.4758  1.5390
  466TMC3    H1 6941   0.380   3.895  16.977  1.1698 -0.3563 -1.8808
  466TMC3    H2 6942   0.362   4.093  16.597  1.1532  1.1991  1.1091
  466TMC3    C7 6943   0.485   3.898  16.720 -0.1332 -0.1069  0.1500
  466TMC3    C8 6944   0.243   4.297  16.689 -0.5656  0.6641  0.0321
  466TMC3    O1 6945   0.543   3.948  16.627 -0.0901  0.2496  0.1828
  466TMC3    O2 6946   0.294   4.310  16.576  0.2241 -1.0891 -0.2064
  467TMC3    C1 6947   1.551   2.437  13.820 -0.4475 -0.0534 -0.6747
  467TMC3    C2 6948   1.536   2.380  13.698 -0.2636  0.5502 -0.3344
  467TMC3    C3 6949   1.410   2.388  13.635 -0.5306  0.1883  0.7670
  467TMC3    C4 6950   1.445   2.511  13.875  0.0292 -0.5355  0.1341
  467TMC3    C5 6951   1.322   2.511  13.809  0.5928  0.5558 -0.0036
  467TMC3    C6 6952   1.308   2.461  13.685  0.7693  0.6168 -0.2064
  467TMC3     C 6953   1.675   2.497  13.842 -0.1199 -0.1952  0.2370
  467TMC3     O 6954   1.691   2.542  13.956  0.4155 -0.6075  0.2471
  467TMC3     H 6955   1.611   2.316  13.653  0.4368 -0.7674  2.6831
  467TMC3    H1 6956   1.462   2.577  13.960 -1.3967  1.2875 -0.9843
  467TMC3    H2 6957   1.228   2.491  13.619  1.2095  1.4831 -0.3400
  467TMC3    C7 6958   1.211   2.580  13.865  0.1024  0.4401  0.2895
  467TMC3    C8 6959   1.441   2.418  13.502 -0.1464  0.5823 -0.4562
  467TMC3    O1 6960   1.252   2.680  13.918 -0.1386 -0.0500  0.1803
  467TMC3    O2 6961   1.554   2.441  13.470  0.3918 -0.9730 -0.3282
  468MPD2     C 6962   0.700   4.706  10.729  0.0499  0.4391 -0.4105
  468MPD2    C1 6963   0.837   4.720  10.749 -0.1126  0.3793 -0.2731
  468MPD2    C2 6964   0.906   4.602  10.759 -0.1971 -0.4585 -0.2918
  468MPD2    C3 6965   0.842   4.477  10.767 -0.2543  0.1195  0.4637
  468MPD2    C4 6966   0.702   4.470  10.766 -0.0853 -0.4713 -0.0523
  468MPD2    C5 6967   0.638   4.584  10.728 -0.2251  0.9785  0.2637
  468MPD2     H 6968   1.014   4.608  10.764 -0.3432  1.4379  0.3003
  468MPD2    H1 6969   0.646   4.377  10.763  1.4857 -1.5023  3.0552
  468MPD2    H2 6970   0.639   0.068  10.710 -0.2544  0.5503  1.1291
  468MPD2    H3 6971   0.532   4.593  10.706 -0.3939  0.6957  0.9291
  468MPD2     N 6972   0.917   4.358  10.762  0.7230  0.2992 -0.0885
  468MPD2    H5 6973   0.867   4.272  10.785  0.3980  0.4425 -0.2573
  468MPD2    N1 6974   0.893   0.118  10.750 -0.4106 -0.3078  0.5637
  468MPD2    H7 6975   0.824   0.193  10.745 -1.1007 -1.0230 -0.6935
  469TMC3    C1 6976   1.053   0.288  10.811 -0.6785  0.0690 -0.1088
  469TMC3    C2 6977   1.169   0.314  10.878  0.5498 -0.3351  0.1678
  469TMC3    C3 6978   1.187   0.431  10.947  0.0040  0.1581  0.2832
  469TMC3    C4 6979   0.953   0.387  10.803 -0.3267  0.4098 -0.2290
  469TMC3    C5 6980   0.988   0.511  10.862 -0.3760  0.6566  0.3303
  469TMC3    C6 6981   1.100   0.533  10.938 -0.0348 -0.4640 -0.1355
  469TMC3     C 6982   1.030   0.151  10.766 -0.3223  0.5144 -0.4484
  469TMC3     O 6983   1.128   0.074  10.760  0.1379 -0.6884 -0.8024
  469TMC3     H 6984   1.227   0.231  10.917 -0.1821 -0.9660 -0.0808
  469TMC3    H1 6985   0.859   0.369  10.751 -0.8464 -0.8289  1.1250
  469TMC3    H2 6986   1.133   0.631  10.969 -1.6540  0.5519 -1.6292
  469TMC3    C7 6987   0.880   0.605  10.862  0.0664  0.2200 -0.4322
  469TMC3    C8 6988   1.322   0.463  10.996 -0.5637 -0.9894 -0.2343
  469TMC3    O1 6989   0.772   0.575  10.809  0.0390  0.3067 -0.1145
  469TMC3    O2 6990   1.416   0.401  10.946  0.1090  0.2820 -0.5340
  470TMC3    C1 6991   3.219   1.983   0.926  0.5387  0.7106  0.0847
  470TMC3    C2 6992   3.121   2.058   0.863 -0.5650  0.3050 -0.0231
  470TMC3    C3 6993   3.002   2.063   0.927  0.5700  0.0189  0.2401
  470TMC3    C4 6994   3.206   1.933   1.049 -0.5210  0.1761  0.1064
  470TMC3    C5 6995   3.095   1.964   1.117  0.7260  0.0476 -1.2806
  470TMC3    C6 6996   2.987   2.014   1.050  0.2355  0.2035  0.1098
  470TMC3     C 6997   3.349   1.991   0.859 -0.5709  0.5321  0.4812
  470TMC3     O 6998   3.365   2.073   0.772 -0.7442  0.4811  0.2732
  470TMC3     H 6999   3.131   2.102   0.765  1.5092 -1.4700 -0.6178
  470TMC3    H1 7000   3.275   1.870   1.104 -1.0207 -0.1596  0.3522
  470TMC3    H2 7001   2.899   2.051   1.103 -0.7124 -2.5029  0.4310
  470TMC3    C7 7002   3.074   1.908   1.249  0.1265 -0.1983 -0.0383
  470TMC3    C8 7003   2.912   2.174   0.895 -0.3886  0.3939  0.3149
  470TMC3    O1 7004   3.181   1.894   1.309  0.3231  0.1281 -0.0156
  470TMC3    O2 7005   2.812   2.177   0.963 -0.8488 -0.3866 -0.4735
  471MPD2     C 7006   3.839   2.888  16.427  0.8534 -0.1978 -0.4115
  471MPD2    C1 7007   3.781   2.774  16.477 -0.3587 -0.0102 -0.0191
  471MPD2    C2 7008   3.774   2.764  16.621  0.5742 -0.4619 -0.2105
  471MPD2    C3 7009   3.809   2.870  16.704  0.0983  0.3398  0.4888
  471MPD2    C4 7010   3.862   2.982  16.644 -0.4648 -0.5056 -0.5657
  471MPD2    C5 7011   3.874   2.994  16.508 -1.0869  0.0419 -0.3317
  471MPD2     H 7012   3.732   2.675  16.666  1.4331 -0.1240  1.2896
  471MPD2    H1 7013   3.904   3.065  16.701 -2.1442 -0.2099  0.2306
  471MPD2    H2 7014   3.867   2.901  16.323  1.1702  0.7556 -0.2071
  471MPD2    H3 7015   3.926   3.082  16.471 -0.0740 -1.5731 -2.6731
  471MPD2     N 7016   3.792   2.865  16.846 -0.4155  0.0993 -0.0462
  471MPD2    H5 7017   3.852   2.928  16.899  1.4706 -1.2091 -0.6157
  471MPD2    N1 7018   3.738   2.664  16.399 -0.7100 -0.5765 -0.7313
  471MPD2    H7 7019   3.684   2.595  16.451 -1.6995  0.9794  0.3132
  472TMC3    C1 7020   3.677   2.543  16.222 -0.1406 -0.2963  0.4491
  472TMC3    C2 7021   3.559   2.563  16.146  0.1097  0.3990  0.4388
  472TMC3    C3 7022   3.481   2.455  16.116  0.0794  0.4981  0.4575
  472TMC3    C4 7023   3.702   2.423  16.282  0.1724  0.8448  0.3488
  472TMC3    C5 7024   3.624   2.318  16.251 -0.1475 -0.3359 -0.2746
  472TMC3    C6 7025   3.510   2.330  16.172  0.1517  0.2653  0.4540
  472TMC3     C 7026   3.740   2.659  16.266 -0.2642 -0.5890 -0.0385
  472TMC3     O 7027   3.762   2.744  16.176 -0.2909  0.0802  0.2459
  472TMC3     H 7028   3.526   2.661  16.114  1.6132  1.0484  0.8772
  472TMC3    H1 7029   3.797   2.403  16.331 -0.2107  0.4373  0.9162
  472TMC3    H2 7030   3.451   2.243  16.147 -1.6152  1.0341  1.9537
  472TMC3    C7 7031   3.662   2.191  16.308  0.8947  0.7279  0.3061
  472TMC3    C8 7032   3.337   2.476  16.082  0.1696 -0.5006 -0.1800
  472TMC3    O1 7033   3.677   2.196  16.430  0.3915 -0.4442 -0.3253
  472TMC3    O2 7034   3.310   2.556  15.994 -0.6742  0.0634 -0.2045
  473MPD2     C 7035   3.135   0.170  14.193  0.2215 -0.0647  1.0754
  473MPD2    C1 7036   3.101   0.248  14.084 -0.1408  1.3727  0.0394
  473MPD2    C2 7037   3.115   0.389  14.100 -0.7696  0.7076 -0.0538
  473MPD2    C3 7038   3.167   0.449  14.213  0.5261 -0.5054 -0.0233
  473MPD2    C4 7039   3.205   0.372  14.320 -1.1249  0.2892  0.5330
  473MPD2    C5 7040   3.181   0.236  14.307  0.1410 -0.0894 -0.4399
  473MPD2     H 7041   3.086   0.455  14.020 -1.7393  1.1735  0.6761
  473MPD2    H1 7042   3.249   0.415  14.409 -0.0724  0.4425 -0.0656
  473MPD2    H2 7043   3.146   0.063  14.190  0.8623  0.0465 -0.3558
  473MPD2    H3 7044   3.211   0.178  14.393 -3.6211  1.3492  1.8635
  473MPD2     N 7045   3.194   0.588  14.229 -0.1299  0.4689  0.7706
  473MPD2    H5 7046   3.207   0.615  14.326  3.3208 -1.1170  0.7799
  473MPD2    N1 7047   3.069   0.211  13.949 -0.5101 -0.4321 -0.1396
  473MPD2    H7 7048   3.066   0.280  13.875  0.3637  0.6111  0.7893
  474TMC3    C1 7049   3.255   0.812  14.166  0.7601 -0.8012 -0.0187
  474TMC3    C2 7050   3.246   0.897  14.062 -0.2150 -0.5600 -0.3487
  474TMC3    C3 7051   3.307   1.020  14.076  0.1277  0.6723  0.1187
  474TMC3    C4 7052   3.335   0.837  14.271 -0.4891  1.0031  0.0094
  474TMC3    C5 7053   3.398   0.955  14.276 -0.1846 -0.4696 -0.3818
  474TMC3    C6 7054   3.378   1.057  14.189 -0.2009 -0.1682  0.1020
  474TMC3     C 7055   3.198   0.682  14.137 -0.1999  0.0561 -0.6296
  474TMC3     O 7056   3.166   0.665  14.019 -0.1117  0.5768  0.1720
  474TMC3     H 7057   3.187   0.871  13.975  2.5087  2.6692 -3.1398
  474TMC3    H1 7058   3.359   0.749  14.331 -1.3167  0.8582  0.1255
  474TMC3    H2 7059   3.429   1.150  14.208  0.9409 -1.3652  2.9098
  474TMC3    C7 7060   3.478   0.990  14.389  0.6178 -0.7560  0.1951
  474TMC3    C8 7061   3.292   1.108  13.964 -0.8827 -0.2749 -0.6715
  474TMC3    O1 7062   3.468   1.105  14.424  0.4695  0.2136 -0.4676
  474TMC3    O2 7063   3.199   1.085  13.888 -0.0538 -0.4671  0.1122
  475MPD2     C 7064   2.250   3.690  10.761  0.2864 -0.1210  0.2621
  475MPD2    C1 7065   2.189   3.573  10.702 -0.3654 -0.0980  0.2807
  475MPD2    C2 7066   2.061   3.537  10.743 -0.3994  0.4423  0.3601
  475MPD2    C3 7067   1.992   3.603  10.839  0.3673 -0.1350  0.0210
  475MPD2    C4 7068   2.045   3.720  10.891 -0.0776  0.6981  0.2324
  475MPD2    C5 7069   2.168   3.763  10.844 -0.3499 -0.2882 -0.6191
  475MPD2     H 7070   2.019   3.441  10.718 -0.9996  1.4968 -2.7865
  475MPD2    H1 7071   1.993   3.783  10.962 -0.0556  0.5556  0.3748
  475MPD2    H2 7072   2.347   3.730  10.734  0.3767 -0.6981 -0.2702
  475MPD2    H3 7073   2.207   3.854  10.886  0.3521 -0.7437 -0.2832
  475MPD2     N 7074   1.868   3.540  10.870  0.5258 -0.3312 -0.1217
  475MPD2    H5 7075   1.839   3.454  10.823  0.2713 -1.1045  1.4307
  475MPD2    N1 7076   2.264   3.511  10.601 -0.0422  0.1188  0.6653
  475MPD2    H7 7077   2.357   3.546  10.584  0.4488 -1.1628  0.7273
  476TMC3    C1 7078   2.288   3.379  10.409  0.1888  0.7503 -1.3918
  476TMC3    C2 7079   2.222   3.353  10.291 -0.8391  0.3855 -0.2457
  476TMC3    C3 7080   2.291   3.379  10.176 -0.2287  0.3120 -0.8396
  476TMC3    C4 7081   2.420   3.398  10.403  0.3339  0.0982  0.6295
  476TMC3    C5 7082   2.487   3.413  10.292 -0.2689  0.0220 -0.0470
  476TMC3    C6 7083   2.425   3.404  10.172 -0.3969  0.6652  0.9435
  476TMC3     C 7084   2.207   3.413  10.521 -0.0200 -0.4338  0.2640
  476TMC3     O 7085   2.094   3.371  10.508  0.3700  0.3887  0.0579
  476TMC3     H 7086   2.115   3.340  10.281 -1.2351  2.3429  1.3971
  476TMC3    H1 7087   2.479   3.381  10.493  1.5931 -2.7581 -0.7500
  476TMC3    H2 7088   2.487   3.428  10.086 -0.2582  0.4284  0.9785
  476TMC3    C7 7089   2.632   3.423  10.282  0.3594 -0.4122 -0.0716
  476TMC3    C8 7090   2.205   3.414  10.061  0.5271  0.3296 -0.5548
  476TMC3    O1 7091   2.688   3.389  10.182 -0.8324  0.3591 -0.1094
  476TMC3    O2 7092   2.227   3.519  10.001  0.2211 -0.3630  0.3018
  477MPD2     C 7093   3.993   4.424  11.479 -0.1642  0.3225  0.6090
  477MPD2    C1 7094   4.032   4.557  11.499 -0.4254  0.6782  0.1545
  477MPD2    C2 7095   4.091   4.591  11.615 -0.6384  0.0419  0.3946
  477MPD2    C3 7096   4.112   4.496  11.712 -0.1578 -0.6941 -0.2594
  477MPD2    C4 7097   4.090   4.362  11.685  0.6717 -0.4497 -0.7169
  477MPD2    C5 7098   4.033   4.328  11.568  0.0268 -0.7468 -0.0704
  477MPD2     H 7099   4.111   4.695  11.641  0.3159  0.7650 -3.2881
  477MPD2    H1 7100   4.092   4.285  11.761 -0.1730 -0.3216 -0.5661
  477MPD2    H2 7101   3.935   4.400  11.391  0.4456 -3.4079  1.2408
  477MPD2    H3 7102   4.014   4.226  11.538 -0.0293 -1.0431  0.9996
  477MPD2     N 7103   4.152   4.543  11.840 -0.0320 -0.1916 -0.0249
  477MPD2    H5 7104   4.136   4.640  11.864 -2.6413 -0.2321 -1.6687
  477MPD2    N1 7105   3.991   4.659  11.407  0.2837 -0.2921 -0.2747
  477MPD2    H7 7106   3.904   4.640  11.358 -1.1492  0.2159  2.0537
  478TMC3    C1 7107   3.950   0.154  11.350  0.3884 -0.3661 -0.0222
  478TMC3    C2 7108   3.936   0.266  11.427 -0.3138 -0.4074 -0.4754
  478TMC3    C3 7109   3.821   0.332  11.432 -0.0905 -0.1329  0.7708
  478TMC3    C4 7110   3.840   0.107  11.279  0.2343 -0.1703 -0.2410
  478TMC3    C5 7111   3.731   0.184  11.275 -0.2741 -0.4210 -0.1205
  478TMC3    C6 7112   3.716   0.292  11.353  0.4404 -0.2598 -0.2453
  478TMC3     C 7113   4.046   0.057  11.398  0.1369  0.1029 -0.1000
  478TMC3     O 7114   4.149   0.102  11.448  0.2635  0.4406 -0.2535
  478TMC3     H 7115   4.017   0.296  11.492 -0.3402  1.0170 -1.0975
  478TMC3    H1 7116   3.834   0.011  11.229 -1.2796 -0.3356  0.2297
  478TMC3    H2 7117   3.629   0.356  11.342  0.7115  0.2967  0.8165
  478TMC3    C7 7118   3.629   0.173  11.169 -0.7008  0.1935  0.1937
  478TMC3    C8 7119   3.779   0.370  11.569  0.1936  0.5896  0.1875
  478TMC3    O1 7120   3.597   0.058  11.147 -0.0974 -0.7489 -0.0770
  478TMC3    O2 7121   3.711   0.293  11.644  0.3598 -0.0136 -0.0483
  479MPD2     C 7122   2.794   1.992  14.465 -0.0221  0.7833  0.8684
  479MPD2    C1 7123   2.752   1.922  14.577 -0.0588  0.4798  0.4496
  479MPD2    C2 7124   2.770   1.977  14.699 -0.7592 -0.4267  0.0489
  479MPD2    C3 7125   2.825   2.102  14.716 -0.7923 -0.2500  0.0717
  479MPD2    C4 7126   2.868   2.164  14.604  0.1450 -0.1225  0.1838
  479MPD2    C5 7127   2.852   2.113  14.487  0.4007 -0.4808 -0.4425
  479MPD2     H 7128   2.736   1.923  14.786  0.0715 -2.0907 -0.6444
  479MPD2    H1 7129   2.925   2.255  14.620 -0.1252  0.5231 -2.5451
  479MPD2    H2 7130   2.771   1.960  14.364 -2.5912  0.2662  1.6220
  479MPD2    H3 7131   2.884   2.171  14.402 -1.0692  0.3645 -0.4205
  479MPD2     N 7132   2.832   2.178  14.833 -0.0855 -0.0888  0.1069
  479MPD2    H5 7133   2.868   2.272  14.847  0.5833 -0.5803  1.6899
  479MPD2    N1 7134   2.665   1.815  14.553 -0.5041 -0.2201  0.5005
  479MPD2    H7 7135   2.639   1.805  14.455  0.5643 -2.1828  0.4179
  480TMC3    C1 7136   2.702   2.250  15.283 -0.1425 -0.4302  0.0683
  480TMC3    C2 7137   2.630   2.362  15.258  0.2086 -0.0826  0.4338
  480TMC3    C3 7138   2.620   2.394  15.126  0.4690  1.1094  0.1428
  480TMC3    C4 7139   2.776   2.179  15.189  0.2307  0.1418 -0.2955
  480TMC3    C5 7140   2.769   2.226  15.059 -1.0592  0.0210  0.4186
  480TMC3    C6 7141   2.682   2.328  15.022 -0.9090 -0.4041  0.4187
  480TMC3     C 7142   2.732   2.209  15.419  0.2425 -0.4906 -0.3765
  480TMC3     O 7143   2.844   2.163  15.436  0.1545  0.0155  0.3533
  480TMC3     H 7144   2.584   2.414  15.342  0.0538  1.4140 -0.5819
  480TMC3    H1 7145   2.831   2.088  15.210  0.8418  0.2177 -1.5371
  480TMC3    H2 7146   2.666   2.348  14.917 -1.6746 -0.0189  0.6081
  480TMC3    C7 7147   2.796   2.127  14.954  0.5296 -0.1977 -0.4858
  480TMC3    C8 7148   2.524   2.495  15.092  0.4336  0.7623 -0.5788
  480TMC3    O1 7149   2.767   2.018  14.996  0.6315 -0.0271 -0.4198
  480TMC3    O2 7150   2.429   2.529  15.165 -0.3302 -0.3505 -0.1682
  481MPD2     C 7151   0.208   1.548  14.881  0.4433  0.0762  0.2096
  481MPD2    C1 7152   0.091   1.608  14.841 -0.0210  0.1240 -0.2747
  481MPD2    C2 7153   0.021   1.682  14.938 -0.1133  0.1931 -0.2607
  481MPD2    C3 7154   0.066   1.688  15.071 -0.6119  0.0060 -0.3476
  481MPD2    C4 7155   0.184   1.617  15.101  0.1225  0.1117  0.9312
  481MPD2    C5 7156   0.256   1.547  15.004 -0.2963 -0.0130  0.7891
  481MPD2     H 7157   4.651   1.728  14.915 -0.5230 -1.6638 -2.3500
  481MPD2    H1 7158   0.223   1.633  15.201  1.1834  0.0472  0.5331
  481MPD2    H2 7159   0.272   1.506  14.803  0.5643  0.2473  0.2183
  481MPD2    H3 7160   0.358   1.514  15.017 -0.8049 -1.8400  0.0804
  481MPD2     N 7161   0.007   1.779  15.166 -0.6234 -0.0878  0.3090
  481MPD2    H5 7162   0.057   1.775  15.255  0.8283  2.3634 -0.4114
  481MPD2    N1 7163   0.052   1.583  14.709 -0.3561  0.0811  0.3434
  481MPD2    H7 7164   0.105   1.520  14.649 -0.9913 -1.5561  1.4909
  482TMC3    C1 7165   4.645   1.596  14.516 -0.2177 -1.4042  0.1468
  482TMC3    C2 7166   4.696   1.477  14.479  0.2070  0.7339  0.1488
  482TMC3    C3 7167   4.681   1.445  14.346  0.6260  0.3874  0.0486
  482TMC3    C4 7168   4.584   1.687  14.436  0.4014  0.0390 -0.9786
  482TMC3    C5 7169   4.581   1.656  14.302  0.4825  0.3037  0.1750
  482TMC3    C6 7170   4.626   1.534  14.253 -0.3731  0.6158 -0.7151
  482TMC3     C 7171   4.658   1.632  14.649  0.3560  0.3629 -0.3896
  482TMC3     O 7172   4.582   1.722  14.691  0.4121  0.3920  0.1546
  482TMC3     H 7173   4.714   1.392  14.544  2.1632  1.0307 -0.0236
  482TMC3    H1 7174   4.542   1.779  14.473  0.5503 -0.0141 -0.6777
  482TMC3    H2 7175   4.631   1.502  14.149  1.7242 -0.6550 -0.2157
  482TMC3    C7 7176   4.513   1.751  14.209 -0.2159  0.3068 -0.1951
  482TMC3    C8 7177   4.708   1.311  14.289 -0.5984 -0.2812 -0.1029
  482TMC3    O1 7178   4.445   1.834  14.267 -0.5541  0.0390 -0.5931
  482TMC3    O2 7179   4.625   1.277  14.205  0.1447  0.2747 -0.1114
  483TMC3    C1 7180   2.500   0.768   1.473  0.3314 -0.0615  0.2454
  483TMC3    C2 7181   2.573   0.864   1.413 -0.3325  0.4860 -0.1273
  483TMC3    C3 7182   2.676   0.829   1.336  0.1451  0.0313  0.2873
  483TMC3    C4 7183   2.531   0.636   1.473  0.1603 -0.6368  0.3063
  483TMC3    C5 7184   2.646   0.597   1.396 -0.2479  0.2414 -0.8361
  483TMC3    C6 7185   2.720   0.696   1.327 -0.4730 -0.2384 -0.6461
  483TMC3     C 7186   2.377   0.813   1.527 -0.5343 -0.3181 -0.4553
  483TMC3     O 7187   2.379   0.919   1.587 -0.6008 -0.5871 -0.0964
  483TMC3     H 7188   2.543   0.966   1.432  1.5090  0.6747  1.8417
  483TMC3    H1 7189   2.458   0.572   1.520  1.9110 -1.8356  1.3931
  483TMC3    H2 7190   2.816   0.678   1.281  0.3037  1.2493  0.3990
  483TMC3    C7 7191   2.717   0.473   1.439  0.4994  0.5467 -0.2220
  483TMC3    C8 7192   2.746   0.931   1.261  0.0249  0.1415  0.3343
  483TMC3    O1 7193   2.796   0.424   1.360 -0.3578 -0.2261 -0.7144
  483TMC3    O2 7194   2.795   0.904   1.151 -0.0812 -0.3960  0.4078
  484MPD2     C 7195   0.715   4.020  12.423  0.0294 -0.0753  1.0111
  484MPD2    C1 7196   0.739   3.933  12.528  0.5520 -0.6309 -0.0401
  484MPD2    C2 7197   0.872   3.900  12.544  0.2690  0.1169  0.3739
  484MPD2    C3 7198   0.973   3.957  12.472 -0.1445  0.2530  0.3482
  484MPD2    C4 7199   0.940   4.038  12.370  0.1946  0.8853  0.3280
  484MPD2    C5 7200   0.808   4.064  12.338 -0.1770  0.2008 -0.6263
  484MPD2     H 7201   0.899   3.825  12.618  0.5258  0.4868  0.6539
  484MPD2    H1 7202   1.014   4.081  12.305  1.1159  0.7978  1.3195
  484MPD2    H2 7203   0.624   4.072  12.395  0.1243 -0.6400 -0.3688
  484MPD2    H3 7204   0.782   4.135  12.260 -0.1414  2.6616  1.5968
  484MPD2     N 7205   1.112   3.935  12.500  0.1680  1.0256 -0.1941
  484MPD2    H5 7206   1.180   3.984  12.443  0.0215  1.2331 -0.1897
  484MPD2    N1 7207   0.633   3.875  12.596 -0.7465  0.1418  0.8487
  484MPD2    H7 7208   0.543   3.901  12.556 -0.3725  1.8053  1.1277
  485TMC3    C1 7209   1.309   3.831  12.574 -0.7857 -0.2742 -0.8268
  485TMC3    C2 7210   1.367   3.738  12.655  0.0640  0.3821 -0.4911
  485TMC3    C3 7211   1.505   3.745  12.667 -0.5615 -0.5006 -0.1969
  485TMC3    C4 7212   1.385   3.928  12.501 -0.2057 -0.0935 -0.3465
  485TMC3    C5 7213   1.521   3.922  12.510 -0.6057  0.0405  0.2176
  485TMC3    C6 7214   1.574   3.840  12.603 -0.3470  0.0949 -0.2494
  485TMC3     C 7215   1.165   3.842  12.588 -0.5299 -0.1829  0.2824
  485TMC3     O 7216   1.110   3.765  12.665 -0.5851  0.0586 -0.2843
  485TMC3     H 7217   1.307   3.684  12.728  1.1412 -1.6811 -1.1428
  485TMC3    H1 7218   1.342   4.001  12.433  0.9201 -0.2950 -1.2821
  485TMC3    H2 7219   1.678   3.854  12.630 -0.2574  1.7926 -1.4508
  485TMC3    C7 7220   1.597   3.951  12.391  0.3274  0.5701 -0.3006
  485TMC3    C8 7221   1.556   3.614  12.630  0.6775 -0.0442 -0.0419
  485TMC3    O1 7222   1.576   4.049  12.321 -0.1845  0.5029 -0.4796
  485TMC3    O2 7223   1.638   3.613  12.542  0.1780 -0.2542  0.2691
  486MPD2     C 7224   2.440   2.788  12.871 -0.2347  0.8331 -0.3315
  486MPD2    C1 7225   2.426   2.754  12.741  0.2267  0.9879 -0.5127
  486MPD2    C2 7226   2.480   2.836  12.645 -0.0638  0.3931  0.2817
  486MPD2    C3 7227   2.526   2.956  12.688 -0.8045  0.1447 -0.0568
  486MPD2    C4 7228   2.529   2.992  12.820 -0.2780 -0.2029 -0.3128
  486MPD2    C5 7229   2.482   2.905  12.914 -0.2431  0.5344 -0.2434
  486MPD2     H 7230   2.495   2.805  12.543  1.0208 -2.3760  1.2692
  486MPD2    H1 7231   2.588   3.077  12.850  0.7799 -1.3431  0.8509
  486MPD2    H2 7232   2.388   2.725  12.942  0.8475 -1.7310 -1.7898
  486MPD2    H3 7233   2.496   2.934  13.018 -0.3583  0.3015 -0.1611
  486MPD2     N 7234   2.590   3.045  12.592  0.4651 -0.3035  0.5533
  486MPD2    H5 7235   2.621   3.015  12.501  0.3212  0.0232  0.3973
  486MPD2    N1 7236   2.387   2.626  12.711  0.0140 -0.3195 -0.6050
  486MPD2    H7 7237   2.368   2.564  12.789  0.2940  1.7377  1.0986
  487TMC3    C1 7238   2.333   2.440  12.575 -0.0882 -0.5154  0.1982
  487TMC3    C2 7239   2.236   2.401  12.489  0.0810 -0.5174 -0.6030
  487TMC3    C3 7240   2.193   2.267  12.492 -0.2620 -0.2651 -0.0897
  487TMC3    C4 7241   2.390   2.355  12.672 -0.3074 -0.6385  0.6941
  487TMC3    C5 7242   2.342   2.223  12.671  0.4022  0.5550 -0.4891
  487TMC3    C6 7243   2.242   2.181  12.589  0.7766  0.2869  0.6437
  487TMC3     C 7244   2.355   2.585  12.587 -0.0500 -0.3119 -0.4775
  487TMC3     O 7245   2.337   2.639  12.480 -0.0281 -0.6230  0.3122
  487TMC3     H 7246   2.191   2.471  12.419  1.2413  0.5267 -0.2974
  487TMC3    H1 7247   2.468   2.390  12.738  1.3055  0.4264 -1.7458
  487TMC3    H2 7248   2.224   2.075  12.573 -0.3394  0.5173  0.3295
  487TMC3    C7 7249   2.308   2.179  12.800  0.2475  0.4048  0.1314
  487TMC3    C8 7250   2.054   2.259  12.477 -0.7287  0.2227 -0.4102
  487TMC3    O1 7251   2.401   2.179  12.880  0.5353  0.3672  0.2603
  487TMC3    O2 7252   1.989   2.357  12.505  0.3905  0.5622  0.4960
  488MPD2     C 7253   2.913   4.047  16.410  0.5241 -0.1222  0.3947
  488MPD2    C1 7254   2.894   4.155  16.490  0.2925  0.0730  0.1839
  488MPD2    C2 7255   2.848   4.134  16.620 -0.5290  0.5112 -0.2839
  488MPD2    C3 7256   2.815   4.003  16.658 -0.0998  0.3970 -0.1210
  488MPD2    C4 7257   2.844   3.893  16.575  0.2052  0.6190 -0.2036
  488MPD2    C5 7258   2.887   3.920  16.448  0.8779 -0.2175 -0.7248
  488MPD2     H 7259   2.827   4.216  16.688  1.2207  0.4327  0.3505
  488MPD2    H1 7260   2.827   3.790  16.604 -0.7718  0.8085 -0.1185
  488MPD2    H2 7261   2.955   4.054  16.310 -1.5491 -1.6160 -0.5882
  488MPD2    H3 7262   2.913   3.838  16.381  0.0247 -1.3769  0.3650
  488MPD2     N 7263   2.769   3.987  16.790  0.3664 -0.8624  0.8626
  488MPD2    H5 7264   2.791   4.067  16.849 -0.7086  1.3167 -1.6630
  488MPD2    N1 7265   2.921   4.292  16.452  0.1661  0.6807  0.5023
  488MPD2    H7 7266   2.904   4.364  16.522 -1.4997 -0.1694  0.9709
  489TMC3    C1 7267   2.663   3.926  16.986  0.2700 -0.2869  0.2662
  489TMC3    C2 7268   2.663   4.056  17.025 -0.0510 -0.2394 -0.7512
  489TMC3    C3 7269   2.615   4.092  17.149 -0.5824 -0.1846 -0.4978
  489TMC3    C4 7270   2.614   3.832  17.068  0.6593 -0.8631  0.0868
  489TMC3    C5 7271   2.557   3.867  17.190 -0.5060 -0.1646 -0.0800
  489TMC3    C6 7272   2.573   3.998  17.240 -0.0295 -0.2253  0.4673
  489TMC3     C 7273   2.711   3.889  16.852  0.1025 -0.1159  0.0263
  489TMC3     O 7274   2.679   3.778  16.812 -0.1843  0.7623 -0.5642
  489TMC3     H 7275   2.688   4.128  16.948 -0.4032 -2.5866 -3.0748
  489TMC3    H1 7276   2.614   3.733  17.026 -2.1503 -0.7154 -0.2699
  489TMC3    H2 7277   2.536   4.022  17.339 -2.0609  1.7237 -0.7813
  489TMC3    C7 7278   2.490   3.775  17.281 -0.2860 -0.0413  0.8629
  489TMC3    C8 7279   2.592   4.238  17.173 -0.2505  0.4608 -1.1578
  489TMC3    O1 7280   2.442   3.817  17.385  0.1793  0.2474  0.3510
  489TMC3    O2 7281   2.663   4.305  17.097 -0.0355 -0.1931 -0.1216
  490MPD2     C 7282   3.076   3.844  17.623 -0.6692 -0.3423  0.1311
  490MPD2    C1 7283   3.159   3.776  17.536 -0.3778 -0.4437  0.0109
  490MPD2    C2 7284   3.285   3.826  17.508 -0.1075 -0.4362 -0.0681
  490MPD2    C3 7285   3.324   3.946  17.572  0.1802  0.5820  1.0905
  490MPD2    C4 7286   3.229   4.018  17.649  0.0592 -0.3831  0.0385
  490MPD2    C5 7287   3.108   3.961  17.678 -0.2275 -0.0449 -0.1926
  490MPD2     H 7288   3.346   3.778  17.432 -1.2015 -1.0658 -0.5568
  490MPD2    H1 7289   3.257   4.099   0.014 -1.2936  0.6204 -0.6169
  490MPD2    H2 7290   2.985   3.798  17.659 -0.9045  1.2965  1.6141
  490MPD2    H3 7291   3.030   4.004   0.038 -0.5097  0.7280 -1.0792
  490MPD2     N 7292   3.456   4.006  17.547  0.3938 -0.4169 -0.0050
  490MPD2    H5 7293   3.471   4.099  17.585 -2.7999 -0.2601  0.8802
  490MPD2    N1 7294   3.109   3.656  17.480  0.2787  0.5914  0.3721
  490MPD2    H7 7295   3.016   3.632  17.513 -0.3025 -1.9078 -3.1303
  491TMC3    C1 7296   3.094   3.451  17.378  0.2343  0.9752  0.2254
  491TMC3    C2 7297   3.073   3.378  17.494  0.2724 -0.1129  0.2219
  491TMC3    C3 7298   3.023   3.252  17.466 -0.5461 -0.2179  0.0023
  491TMC3    C4 7299   3.087   3.405  17.245  0.8274 -0.0030  1.2079
  491TMC3    C5 7300   3.038   3.275  17.229  0.4845  0.2088  0.5213
  491TMC3    C6 7301   3.004   3.200  17.341  1.1041 -0.1451  0.3190
  491TMC3     C 7302   3.177   3.573  17.395  0.5972  0.2425  0.0678
  491TMC3     O 7303   3.281   3.584  17.328  0.1389  0.3131 -0.4586
  491TMC3     H 7304   3.089   3.416  17.594 -2.0471  0.3189  0.4406
  491TMC3    H1 7305   3.103   3.477  17.166 -1.0907 -2.1222 -1.0823
  491TMC3    H2 7306   2.958   3.104  17.318  2.3875 -0.6054 -0.3124
  491TMC3    C7 7307   3.034   3.213  17.101  0.3116  0.1243 -0.0733
  491TMC3    C8 7308   2.981   3.171  17.580  0.0391  0.4161  0.4143
  491TMC3    O1 7309   2.950   3.127  17.075  0.0245 -0.2277  0.0363
  491TMC3    O2 7310   2.945   3.235  17.679  0.1635 -0.5209 -0.2014
  492MPD2     C 7311   4.291   3.461  11.279  0.3893 -0.2669  0.1309
  492MPD2    C1 7312   4.175   3.424  11.224 -0.4008 -0.0159 -0.6008
  492MPD2    C2 7313   4.078   3.358  11.300  0.1529  0.2066 -0.6417
  492MPD2    C3 7314   4.100   3.339  11.440 -0.1849 -0.0210 -0.5753
  492MPD2    C4 7315   4.222   3.381  11.491 -0.1872  0.6427  0.4864
  492MPD2    C5 7316   4.314   3.441  11.413 -0.2962  0.8337 -0.4535
  492MPD2     H 7317   3.977   3.343  11.264 -0.1661 -0.6686  0.6411
  492MPD2    H1 7318   4.247   3.368  11.595  0.9572 -0.7321  0.0344
  492MPD2    H2 7319   4.371   3.502  11.218  1.3980  2.5748  3.3320
  492MPD2    H3 7320   4.412   3.470  11.450 -0.6137  0.3685  0.7491
  492MPD2     N 7321   4.001   3.290  11.527  0.5298  0.0655  0.3692
  492MPD2    H5 7322   4.024   3.279  11.625  1.7245 -1.6334 -0.1121
  492MPD2    N1 7323   4.150   3.463  11.097 -0.0722 -0.2692  0.3066
  492MPD2    H7 7324   4.233   3.505  11.056  0.7772 -2.7659 -0.5968
  493TMC3    C1 7325   4.066   3.459  10.880 -0.7688  0.5235  0.8526
  493TMC3    C2 7326   4.138   3.567  10.839 -0.2651 -0.7932  0.5407
  493TMC3    C3 7327   4.152   3.581  10.701 -0.3131  0.3093 -0.1691
  493TMC3    C4 7328   4.002   3.368  10.793  0.0240 -0.5862  0.4666
  493TMC3    C5 7329   4.032   3.384  10.659 -0.0159 -0.4705  0.2301
  493TMC3    C6 7330   4.107   3.488  10.610  0.2467 -0.1705  0.2661
  493TMC3     C 7331   4.044   3.427  11.020 -0.8484 -0.9908 -0.1724
  493TMC3     O 7332   3.940   3.373  11.055 -0.2199 -0.0128  0.2976
  493TMC3     H 7333   4.178   3.628  10.920  1.1726  2.7097 -2.8318
  493TMC3    H1 7334   3.955   3.279  10.833  0.8448 -0.1308  2.4395
  493TMC3    H2 7335   4.110   3.482  10.502  0.3269  0.4682  0.2328
  493TMC3    C7 7336   3.945   3.306  10.571 -0.1949  0.4711 -0.8133
  493TMC3    C8 7337   4.202   3.707  10.649  0.2334 -0.2920  0.2175
  493TMC3    O1 7338   3.916   3.355  10.468  0.0527 -0.6808  0.2036
  493TMC3    O2 7339   4.255   3.791  10.726 -0.2324 -0.3754 -0.0202
  494TMC3    C1 7340   4.130   0.377   0.903 -0.4641  0.7917  0.6041
  494TMC3    C2 7341   4.167   0.244   0.883  0.7023 -0.0869 -0.4181
  494TMC3    C3 7342   4.224   0.213   0.764  0.1092  0.3307 -0.2338
  494TMC3    C4 7343   4.177   0.477   0.818  0.7358  0.5259 -0.6401
  494TMC3    C5 7344   4.227   0.438   0.694  0.9935  0.9354 -0.2726
  494TMC3    C6 7345   4.250   0.308   0.668  0.1045  0.0976  0.2278
  494TMC3     C 7346   4.089   0.418   1.045 -0.6339  0.5280 -0.0155
  494TMC3     O 7347   4.042   0.530   1.058  0.7846 -0.3100  0.1312
  494TMC3     H 7348   4.112   0.167   0.935  0.3195  1.3898  1.3687
  494TMC3    H1 7349   4.151   0.579   0.844 -0.4698 -0.3096  1.4490
  494TMC3    H2 7350   4.303   0.283   0.577 -0.5496 -1.3063  0.2314
  494TMC3    C7 7351   4.248   0.536   0.587  0.3179 -0.1964 -0.5816
  494TMC3    C8 7352   4.256   0.079   0.727  0.0399 -0.1106  0.0258
  494TMC3    O1 7353   4.307   0.497   0.484  0.0203  0.1544 -0.1502
  494TMC3    O2 7354   4.248   0.057   0.606 -0.2925  0.3865  0.3022
  495TMC3    C1 7355   2.816   2.652  14.246 -0.3804  0.1705 -0.1227
  495TMC3    C2 7356   2.693   2.647  14.177  0.2030 -0.1583 -0.4277
  495TMC3    C3 7357   2.598   2.736  14.213  0.0900  0.0114  0.2353
  495TMC3    C4 7358   2.835   2.742  14.350  0.1275  0.0877  0.8635
  495TMC3    C5 7359   2.725   2.808  14.397 -0.1169  0.0211 -0.3628
  495TMC3    C6 7360   2.608   2.816  14.326 -0.4754 -0.2162 -0.2343
  495TMC3     C 7361   2.904   2.540  14.217  0.0782  0.3334 -0.8693
  495TMC3     O 7362   2.875   2.457  14.130  0.4093  0.5697  0.1369
  495TMC3     H 7363   2.678   2.577  14.096  0.3552 -0.1564 -0.4577
  495TMC3    H1 7364   2.930   2.754  14.401 -1.0770  0.7948  2.9115
  495TMC3    H2 7365   2.529   2.887  14.349  0.6128  0.3807  1.6669
  495TMC3    C7 7366   2.715   2.785  14.540  0.4914  0.7678  0.5396
  495TMC3    C8 7367   2.470   2.716  14.150  1.4158  0.1816  0.2563
  495TMC3    O1 7368   2.789   2.698  14.577  0.0716 -0.1528 -0.0880
  495TMC3    O2 7369   2.375   2.715  14.230  0.1330  0.1169 -0.1512
  496MPD2     C 7370   4.382   2.312  15.140 -0.3958 -0.4795 -0.0219
  496MPD2    C1 7371   4.478   2.320  15.240  0.4556 -0.4384  0.6443
  496MPD2    C2 7372   4.440   2.345  15.371 -0.6739 -0.3371  0.1203
  496MPD2    C3 7373   4.306   2.351  15.397 -0.2320  0.1439 -0.2409
  496MPD2    C4 7374   4.209   2.346  15.300  0.0188  0.1111 -0.1563
  496MPD2    C5 7375   4.251   2.328  15.170  0.1104 -0.9504 -0.0002
  496MPD2     H 7376   4.506   2.337  15.456  0.3688  0.3040 -0.6213
  496MPD2    H1 7377   4.107   2.374  15.325  0.6160  0.7621  1.5198
  496MPD2    H2 7378   4.413   2.286  15.039 -1.9623 -1.7272 -0.1986
  496MPD2    H3 7379   4.173   2.327  15.094  1.2276 -0.6270 -1.1564
  496MPD2     N 7380   4.253   2.364  15.530 -0.1354  0.1701  0.5098
  496MPD2    H5 7381   4.156   2.337  15.542 -0.3570  0.6520 -0.2377
  496MPD2    N1 7382   4.610   2.283  15.199 -0.4785 -0.9223  0.5649
  496MPD2    H7 7383   4.623   2.234  15.111 -2.5397  1.7278 -1.2127
  497TMC3    C1 7384   4.260   2.339  15.771  0.1067  0.2002 -0.1004
  497TMC3    C2 7385   4.192   2.214  15.750 -0.3582  0.3516  0.2939
  497TMC3    C3 7386   4.212   2.120  15.846 -0.1385  0.1187  0.2889
  497TMC3    C4 7387   4.331   2.357  15.884 -0.4558 -0.5070 -0.3982
  497TMC3    C5 7388   4.335   2.263  15.980  0.0229 -0.5198 -0.2890
  497TMC3    C6 7389   4.280   2.143  15.960  0.3472 -0.3336 -0.7500
  497TMC3     C 7390   4.322   2.384  15.644 -0.6785 -0.5605 -0.1885
  497TMC3     O 7391   4.441   2.413  15.657  0.1389 -0.1744 -0.1929
  497TMC3     H 7392   4.134   2.191  15.661 -0.3221  1.6216 -0.0570
  497TMC3    H1 7393   4.369   2.457  15.900  0.0590 -0.5364 -1.4533
  497TMC3    H2 7394   4.288   2.068  16.038 -2.2646 -0.6230 -0.7551
  497TMC3    C7 7395   4.362   2.292  16.123 -0.5080  0.0976  0.5258
  497TMC3    C8 7396   4.138   1.986  15.836  0.4559  1.1885 -0.5474
  497TMC3    O1 7397   4.320   2.218  16.207 -0.0402  0.3536  0.2180
  497TMC3    O2 7398   4.135   1.908  15.935  0.1664 -0.3950  0.1844
  498MPD2     C 7399   0.689   3.522   9.570 -0.2936  0.0852  0.0559
  498MPD2    C1 7400   0.747   3.449   9.677 -0.1166  0.5798 -0.0539
  498MPD2    C2 7401   0.664   3.377   9.764  0.1493 -0.6476 -0.0033
  498MPD2    C3 7402   0.528   3.364   9.745 -0.0774 -0.0782  0.0526
  498MPD2    C4 7403   0.474   3.419   9.630  0.8175 -0.3504 -0.5602
  498MPD2    C5 7404   0.557   3.496   9.544  1.3937  0.1208 -0.1145
  498MPD2     H 7405   0.719   3.329   9.844  0.8337 -2.1253 -1.3417
  498MPD2    H1 7406   0.375   3.392   9.597  1.4185 -1.1211 -1.7259
  498MPD2    H2 7407   0.734   3.588   9.496 -3.3390  0.6560 -1.2752
  498MPD2    H3 7408   0.514   3.539   9.454 -0.7339 -1.7670  0.0065
  498MPD2     N 7409   0.460   3.279   9.837  0.1582  0.2045  0.1001
  498MPD2    H5 7410   0.514   3.258   9.921  0.5028 -2.7292 -0.8214
  498MPD2    N1 7411   0.893   3.446   9.695 -0.3063  0.2663  0.4966
  498MPD2    H7 7412   0.927   3.376   9.761 -1.6493  0.5583  1.5054
  499TMC3    C1 7413   1.112   3.495   9.623  0.7901  0.0223  0.3073
  499TMC3    C2 7414   1.157   3.385   9.692 -0.4824 -0.7618  0.0664
  499TMC3    C3 7415   1.292   3.372   9.712  0.1227 -0.0717 -0.1388
  499TMC3    C4 7416   1.196   3.577   9.561  0.4120  0.7649  0.4045
  499TMC3    C5 7417   1.326   3.551   9.569 -0.6246  0.5076 -0.0167
  499TMC3    C6 7418   1.379   3.451   9.648 -0.3929  0.7309 -0.0791
  499TMC3     C 7419   0.975   3.522   9.613  0.6311 -0.0936  0.2949
  499TMC3     O 7420   0.947   3.605   9.529 -0.3214 -0.0203  0.2949
  499TMC3     H 7421   1.092   3.303   9.722 -2.0528 -0.0314 -1.3117
  499TMC3    H1 7422   1.165   3.673   9.523  3.7780  1.0100 -1.7532
  499TMC3    H2 7423   1.487   3.444   9.659 -0.4437 -2.2456 -1.4518
  499TMC3    C7 7424   1.409   3.644   9.509 -1.0563 -0.8749 -0.1387
  499TMC3    C8 7425   1.353   3.259   9.781 -0.2952  0.0375  0.0803
  499TMC3    O1 7426   1.513   3.672   9.564  0.8209 -0.1190 -0.3922
  499TMC3    O2 7427   1.475   3.250   9.779  0.0467  0.8749  0.1843
  500MPD2     C 7428   3.400   0.244   9.476 -0.3903  0.1586  0.0652
  500MPD2    C1 7429   3.371   0.240   9.607 -0.4481  0.2695  0.3898
  500MPD2    C2 7430   3.251   0.208   9.656 -0.4554 -0.4655 -0.3994
  500MPD2    C3 7431   3.151   0.179   9.571 -0.0982  0.0115 -0.7711
  500MPD2    C4 7432   3.175   0.188   9.432 -0.8501 -0.3679 -0.2456
  500MPD2    C5 7433   3.297   0.219   9.382  0.2831 -0.1492  0.2648
  500MPD2     H 7434   3.229   0.214   9.762  2.5197  3.2477 -0.0191
  500MPD2    H1 7435   3.101   0.172   9.355 -1.1889 -0.5544  0.1199
  500MPD2    H2 7436   3.495   0.274   9.435 -0.7027  1.4138  0.2818
  500MPD2    H3 7437   3.320   0.213   9.276 -2.6290  1.8055 -0.4624
  500MPD2     N 7438   3.023   0.166   9.606  0.1656 -0.4791 -0.1666
  500MPD2    H5 7439   2.950   0.188   9.540  0.4839 -2.7845 -1.2997
  500MPD2    N1 7440   3.455   0.284   9.710  0.2009  0.5295  0.4403
  500MPD2    H7 7441   3.423   0.283   9.807 -0.2371  0.5101  0.2950
  501TMC3    C1 7442   3.619   0.387   9.826 -0.1137 -0.1961  0.0889
  501TMC3    C2 7443   3.527   0.464   9.892  0.3463 -0.4935 -0.3711
  501TMC3    C3 7444   3.520   0.460  10.029  0.5206 -0.1367 -0.6708
  501TMC3    C4 7445   3.688   0.296   9.900  0.1767 -0.9535 -0.7064
  501TMC3    C5 7446   3.667   0.288  10.030  0.8599  0.0469 -0.3993
  501TMC3    C6 7447   3.584   0.368  10.098  1.0853 -0.3403 -0.3246
  501TMC3     C 7448   3.580   0.338   9.693 -0.3242  0.1467  0.4085
  501TMC3     O 7449   3.653   0.337   9.597  0.7517  0.6571 -0.3846
  501TMC3     H 7450   3.465   0.532   9.834  1.8884  0.8517 -0.4279
  501TMC3    H1 7451   3.756   0.221   9.859  0.7124 -1.9895  2.0804
  501TMC3    H2 7452   3.573   0.358  10.205 -3.4969 -0.8509 -0.8515
  501TMC3    C7 7453   3.766   0.224  10.118 -0.9962  0.1242  0.1900
  501TMC3    C8 7454   3.419   0.537  10.103  0.1992 -0.0359  0.9999
  501TMC3    O1 7455   3.812   0.116  10.091  0.1062 -0.1575 -0.1468
  501TMC3    O2 7456   3.386   0.496  10.214 -0.2452 -0.9824  0.2990
  502TMC3    C1 7457   2.034   3.698  15.822 -0.4277 -0.1561 -0.0695
  502TMC3    C2 7458   1.956   3.810  15.826 -0.0953 -0.2309  0.6238
  502TMC3    C3 7459   1.824   3.797  15.785  0.3356 -0.4092 -0.5448
  502TMC3    C4 7460   1.986   3.574  15.795 -0.9020 -0.7465  0.6296
  502TMC3    C5 7461   1.856   3.572  15.747 -0.1385 -0.1064  0.0779
  502TMC3    C6 7462   1.773   3.682  15.735 -0.0598 -0.1903  0.3290
  502TMC3     C 7463   2.176   3.723  15.856 -0.5147  0.0968  0.3257
  502TMC3     O 7464   2.204   3.829  15.903  0.7662  0.2292 -0.8565
  502TMC3     H 7465   2.000   3.898  15.872  1.1171 -0.5557  0.0992
  502TMC3    H1 7466   2.038   3.482  15.817  0.5549 -0.1186 -0.2419
  502TMC3    H2 7467   1.669   3.674  15.704 -0.6794  0.1352  2.3256
  502TMC3    C7 7468   1.803   3.438  15.735 -0.0564  0.3049 -0.0143
  502TMC3    C8 7469   1.764   3.918  15.737  0.1200  0.2496  0.0824
  502TMC3    O1 7470   1.886   3.349  15.718 -0.2300 -0.6421  0.0791
  502TMC3    O2 7471   1.645   3.929  15.726  0.0664  0.4060  0.2718
  503MPD2     C 7472   4.506   4.094  17.198 -0.2925  0.0526  0.3120
  503MPD2    C1 7473   4.560   4.109  17.325 -0.4982 -0.3098  0.4616
  503MPD2    C2 7474   4.660   4.026  17.374  0.0497 -0.5451 -0.7821
  503MPD2    C3 7475   4.712   3.930  17.288  0.5091 -0.9066  0.7280
  503MPD2    C4 7476   4.657   3.912  17.164 -0.5432 -0.7813  0.1623
  503MPD2    C5 7477   4.554   3.991  17.119  1.0223  0.1761 -0.3021
  503MPD2     H 7478   4.706   4.046  17.470 -1.0593 -2.7768  0.2090
  503MPD2    H1 7479   4.688   3.835  17.094 -2.0023 -0.7708 -0.5011
  503MPD2    H2 7480   4.443   4.163  17.143 -0.1609 -0.2064 -0.1618
  503MPD2    H3 7481   4.516   3.972  17.019  1.3779  0.1892 -0.4407
  503MPD2     N 7482   0.089   3.838  17.337 -0.0651  0.6622  0.5725
  503MPD2    H5 7483   0.112   3.847  17.436  1.8667  0.1354  0.1697
  503MPD2    N1 7484   4.522   4.217  17.416  0.1178 -0.5683  0.4866
  503MPD2    H7 7485   4.563   4.225  17.509  1.6289  2.5950 -0.4609
  504TMC3    C1 7486   0.234   3.654  17.346  0.4401  0.0412  0.3721
  504TMC3    C2 7487   0.195   3.608  17.467 -0.9350 -0.3996  0.0138
  504TMC3    C3 7488   0.248   3.494  17.531 -0.4148  0.0806  0.3465
  504TMC3    C4 7489   0.326   3.579  17.279  0.0860  0.3225 -0.0586
  504TMC3    C5 7490   0.376   3.464  17.339 -0.1771  0.0380  0.2988
  504TMC3    C6 7491   0.341   3.420  17.461 -0.0899 -0.1215 -0.0012
  504TMC3     C 7492   0.145   3.736  17.264  0.3820  0.9659  0.7604
  504TMC3     O 7493   0.168   3.730  17.143 -0.2330  0.3362  0.2706
  504TMC3     H 7494   0.104   3.654  17.503  0.9726  0.9625  3.1011
  504TMC3    H1 7495   0.366   3.615  17.185 -0.4948  1.2365  0.0472
  504TMC3    H2 7496   0.405   3.343  17.505  0.1054 -0.5412 -1.0159
  504TMC3    C7 7497   0.449   3.381  17.243  0.1181 -0.2394 -0.7799
  504TMC3    C8 7498   0.202   3.462  17.660 -0.1500  0.5822 -0.7980
  504TMC3    O1 7499   0.487   3.430  17.138  0.1516 -0.2477 -0.5782
  504TMC3    O2 7500   0.154   3.556   0.022 -0.1836  0.3881 -0.2315
  505MPD2     C 7501   0.417   2.090  10.599  0.1284 -0.0265 -0.6653
  505MPD2    C1 7502   0.530   2.172  10.577 -0.3486 -0.4150 -0.0715
  505MPD2    C2 7503   0.560   2.284  10.647 -0.2941 -0.3976 -0.7028
  505MPD2    C3 7504   0.487   2.310  10.761  0.6212  0.2542  0.0734
  505MPD2    C4 7505   0.370   2.238  10.795  0.2786 -0.0020 -0.1961
  505MPD2    C5 7506   0.337   2.139  10.701  0.7191 -0.1146  1.0543
  505MPD2     H 7507   0.649   2.341  10.620  1.6844 -2.3220  1.7933
  505MPD2    H1 7508   0.295   2.275  10.864  1.1796  1.1956  0.1509
  505MPD2    H2 7509   0.384   2.013  10.531 -2.3577  3.1012 -2.9939
  505MPD2    H3 7510   0.235   2.104  10.711  0.2981  1.0891  0.9213
  505MPD2     N 7511   0.508   2.423  10.832  0.1539 -0.5076 -0.6514
  505MPD2    H5 7512   0.442   2.460  10.899  2.3587 -0.9273  1.7253
  505MPD2    N1 7513   0.607   2.130  10.471 -0.2942  0.4084 -0.5536
  505MPD2    H7 7514   0.566   2.059  10.410  2.0222 -0.8363 -0.6647
  506TMC3    C1 7515   0.792   2.123  10.322  0.2215 -0.5208  0.3547
  506TMC3    C2 7516   0.714   2.180  10.221 -0.4308 -0.3429 -0.0054
  506TMC3    C3 7517   0.777   2.233  10.121 -0.3041 -0.2054  0.1771
  506TMC3    C4 7518   0.932   2.134  10.325 -0.5091 -0.4007  1.0570
  506TMC3    C5 7519   0.994   2.198  10.217  0.7451 -0.6433 -0.2464
  506TMC3    C6 7520   0.913   2.236  10.107 -0.3777  0.0557  0.7405
  506TMC3     C 7521   0.734   2.159  10.448  0.3252 -0.1416  0.5842
  506TMC3     O 7522   0.807   2.189  10.538 -0.4423  0.2153  0.3058
  506TMC3     H 7523   0.608   2.158  10.217 -0.9589  1.7421  2.6806
  506TMC3    H1 7524   0.981   2.097  10.414  2.5426  1.4083  0.1434
  506TMC3    H2 7525   0.951   2.301  10.029 -0.2929 -1.9919 -0.9107
  506TMC3    C7 7526   1.073   2.324  10.239  0.2045  0.2499  0.8600
  506TMC3    C8 7527   0.701   2.290  10.014 -0.6190 -0.3418  0.5863
  506TMC3    O1 7528   1.131   2.377  10.144  0.0919  0.2589  0.6203
  506TMC3    O2 7529   0.756   2.276   9.906  0.4654 -0.1315  0.1696
  507TMC3    C1 7530   0.682   3.500  15.082 -0.6570 -0.3487 -0.6561
  507TMC3    C2 7531   0.652   3.439  14.961 -0.1063 -0.2406 -0.3112
  507TMC3    C3 7532   0.754   3.403  14.884 -0.1641 -0.2277  0.0590
  507TMC3    C4 7533   0.807   3.541  15.119 -0.4411  0.3092 -0.3996
  507TMC3    C5 7534   0.914   3.516  15.033  0.5239  0.0175  0.3876
  507TMC3    C6 7535   0.882   3.440  14.921  0.0324  0.0283 -0.0371
  507TMC3     C 7536   0.579   3.519  15.182  0.2583  1.0182 -0.0598
  507TMC3     O 7537   0.615   3.530  15.300  0.3054  0.1759  0.0854
  507TMC3     H 7538   0.554   3.403  14.932  1.1306 -3.4495 -0.4435
  507TMC3    H1 7539   0.824   3.596  15.211  0.8177 -0.7649  0.0220
  507TMC3    H2 7540   0.967   3.397  14.868  1.6704  0.3340  2.3538
  507TMC3    C7 7541   1.027   3.608  15.024  0.2523  0.0396 -0.4537
  507TMC3    C8 7542   0.724   3.448  14.748 -0.8199  0.1737  0.6033
  507TMC3    O1 7543   1.081   3.604  14.914  0.3578  0.0345  0.8497
  507TMC3    O2 7544   0.608   3.449  14.714  0.4483  0.0450 -0.4163
  508MPD2     C 7545   1.804   0.970  16.008 -0.9735  0.9629 -0.2224
  508MPD2    C1 7546   1.814   1.109  16.034 -0.0103  0.7007  0.6180
  508MPD2    C2 7547   1.744   1.186  15.956  0.2456 -0.2421 -0.1660
  508MPD2    C3 7548   1.677   1.144  15.842  0.2499  0.4985 -0.0811
  508MPD2    C4 7549   1.689   1.010  15.810 -0.2524  0.9323 -0.2129
  508MPD2    C5 7550   1.751   0.926  15.894 -0.2763  0.0947  0.1800
  508MPD2     H 7551   1.729   1.289  15.988 -0.1937 -0.4047  0.1463
  508MPD2    H1 7552   1.633   0.959  15.732 -1.2890 -0.8402  1.6686
  508MPD2    H2 7553   1.847   0.888  16.063  0.0870  1.3107 -0.5366
  508MPD2    H3 7554   1.747   0.819  15.875  0.6402 -0.0502  0.8164
  508MPD2     N 7555   1.608   1.241  15.759 -0.1640 -0.1158 -0.7123
  508MPD2    H5 7556   1.609   1.337  15.790  0.2580 -0.2774 -0.2150
  508MPD2    N1 7557   1.892   1.155  16.139 -0.2033 -0.1192 -0.4330
  508MPD2    H7 7558   1.902   1.094  16.220 -3.4504 -0.3124 -0.1744
  509TMC3    C1 7559   1.415   1.529  15.504 -0.1180 -0.4890 -0.2952
  509TMC3    C2 7560   1.463   1.522  15.373 -0.5556 -0.2317  0.8546
  509TMC3    C3 7561   1.556   1.428  15.333 -0.0964  0.4855  0.2212
  509TMC3    C4 7562   1.457   1.437  15.598 -0.4654 -0.4680 -0.1924
  509TMC3    C5 7563   1.547   1.339  15.554  0.1878 -0.2098  0.3172
  509TMC3    C6 7564   1.595   1.330  15.426  0.3537  0.1025  0.4809
  509TMC3     C 7565   1.364   1.660  15.553  0.1722  0.4994 -1.1365
  509TMC3     O 7566   1.318   1.663  15.666  0.0225 -0.7997 -0.1320
  509TMC3     H 7567   1.435   1.591  15.294 -1.6400 -2.0185 -0.3156
  509TMC3    H1 7568   1.405   1.424  15.692 -1.3344 -0.4490 -0.6722
  509TMC3    H2 7569   1.664   1.249  15.404  1.8692  1.2581  0.9490
  509TMC3    C7 7570   1.572   1.219  15.629  0.5387  1.0026  0.2508
  509TMC3    C8 7571   1.653   1.494  15.234  0.6856 -0.3189 -0.7214
  509TMC3    O1 7572   1.580   1.111  15.566 -0.3551 -0.1272 -0.0210
  509TMC3    O2 7573   1.651   1.462  15.114  0.0965  0.2213  0.1577
  510MPD2     C 7574   4.259   2.842  14.507 -0.2276 -0.5520  0.4367
  510MPD2    C1 7575   4.331   2.787  14.610 -0.0465 -0.8853 -0.2132
  510MPD2    C2 7576   4.466   2.779  14.601 -0.1417 -0.4222 -0.1837
  510MPD2    C3 7577   4.526   2.825  14.485  0.0533  0.6115 -1.0696
  510MPD2    C4 7578   4.458   2.892  14.380  0.4495 -0.1303 -0.2991
  510MPD2    C5 7579   4.324   2.885  14.397  0.2112 -0.6057 -0.7900
  510MPD2     H 7580   4.532   2.750  14.682 -1.2459  0.4230  0.9973
  510MPD2    H1 7581   4.498   2.932  14.287  0.2142 -1.3329 -0.9218
  510MPD2    H2 7582   4.151   2.829  14.499 -0.7190  3.5276  0.3225
  510MPD2    H3 7583   4.262   2.916  14.313 -1.6327 -1.4302  0.2803
  510MPD2     N 7584   4.667   2.813  14.481 -0.3477 -0.1999  0.9540
  510MPD2    H5 7585   4.721   2.767  14.554  2.0282 -1.2549 -1.4777
  510MPD2    N1 7586   4.251   2.750  14.724 -0.3822  0.4945 -0.6379
  510MPD2    H7 7587   4.152   2.735  14.707 -0.1809 -3.0090  1.1657
  511TMC3    C1 7588   4.199   2.649  14.925 -0.4131  0.2481  0.5104
  511TMC3    C2 7589   4.180   2.702  15.052  0.0498 -0.0489  0.0223
  511TMC3    C3 7590   4.076   2.667  15.127 -0.2161 -0.0448  0.1742
  511TMC3    C4 7591   4.111   2.561  14.874  0.3529  0.0688  0.3553
  511TMC3    C5 7592   4.013   2.517  14.952  0.1837  0.2788  0.0133
  511TMC3    C6 7593   3.983   2.570  15.079 -0.8334  0.1119  0.0621
  511TMC3     C 7594   4.303   2.702  14.842  0.1476  1.0787  0.0985
  511TMC3     O 7595   4.412   2.723  14.894 -0.2349 -0.0267  0.0540
  511TMC3     H 7596   4.237   2.787  15.088 -0.7524  1.0341 -1.2858
  511TMC3    H1 7597   4.125   2.535  14.769  2.5698  0.6711  0.4914
  511TMC3    H2 7598   3.898   2.539  15.138 -1.1848  0.3175 -0.3314
  511TMC3    C7 7599   3.945   2.389  14.909  0.7463  0.3764 -1.0006
  511TMC3    C8 7600   4.054   2.719  15.252 -0.5473  0.0322 -0.3000
  511TMC3    O1 7601   4.011   2.324  14.831  0.1017  0.1720  0.3640
  511TMC3    O2 7602   3.934   2.720  15.278  0.0941 -0.0901 -0.6500
  512TMC3    C1 7603   3.928   1.912  13.439 -0.0235  0.7423 -0.0643
  512TMC3    C2 7604   3.812   1.946  13.379 -0.4922  0.0015  0.2230
  512TMC3    C3 7605   3.703   1.863  13.371 -0.0669 -0.6683 -0.7748
  512TMC3    C4 7606   3.949   1.782  13.470 -0.3206  0.1225 -0.2905
  512TMC3    C5 7607   3.835   1.702  13.477 -0.0713 -0.4642 -0.6499
  512TMC3    C6 7608   3.711   1.739  13.425 -0.0320 -0.0907 -0.0799
  512TMC3     C 7609   4.051   1.995  13.444 -0.4048  0.8845  0.6892
  512TMC3     O 7610   4.154   1.935  13.468 -0.4691 -0.5016 -0.2355
  512TMC3     H 7611   3.802   2.044  13.334  0.6508  0.2582  0.5323
  512TMC3    H1 7612   4.042   1.745  13.511 -0.0887  1.3125  0.2483
  512TMC3    H2 7613   3.622   1.678  13.435 -0.1981  0.4144  1.4934
  512TMC3    C7 7614   3.833   1.599  13.579  0.3232  0.1130  0.3185
  512TMC3    C8 7615   3.572   1.921  13.349 -0.6855 -0.3996  0.1459
  512TMC3    O1 7616   3.909   1.612  13.676 -0.2687  0.2215  0.2510
  512TMC3    O2 7617   3.477   1.848  13.312  0.1850 -0.0660 -0.2602
  513MPD2     C 7618   0.456   2.730  12.897  0.4391 -0.2015  0.6177
  513MPD2    C1 7619   0.431   2.594  12.900 -0.9866 -0.2376 -0.7162
  513MPD2    C2 7620   0.455   2.526  13.018  0.6525 -0.4714 -0.4123
  513MPD2    C3 7621   0.509   2.590  13.126 -0.3388 -0.1237 -1.0343
  513MPD2    C4 7622   0.540   2.723  13.116 -0.6803 -0.2846 -0.1909
  513MPD2    C5 7623   0.505   2.794  13.004 -0.0966 -0.2737 -0.6722
  513MPD2     H 7624   0.443   2.419  13.012 -0.8291 -0.3157 -0.0370
  513MPD2    H1 7625   0.590   2.777  13.196  0.7405 -1.3612 -0.3517
  513MPD2    H2 7626   0.449   2.779  12.800  1.6689  0.5573  0.9195
  513MPD2    H3 7627   0.535   2.898  12.996 -1.8201  0.1262 -2.0351
  513MPD2     N 7628   0.537   2.511  13.241 -0.4168 -0.0745 -0.2856
  513MPD2    H5 7629   0.515   2.413  13.232 -1.6599 -0.0230  2.2211
  513MPD2    N1 7630   0.394   2.527  12.778 -0.3434 -0.4593  0.0361
  513MPD2    H7 7631   0.393   2.586  12.695 -1.4693 -0.5866 -0.0391
  514TMC3    C1 7632   0.392   2.349  12.623 -0.0554 -0.0442  0.3292
  514TMC3    C2 7633   0.469   2.423  12.540 -0.3706 -0.8207 -0.1069
  514TMC3    C3 7634   0.543   2.355  12.450  0.1409  0.0731  0.3900
  514TMC3    C4 7635   0.385   2.212  12.620 -0.6784 -0.0239 -0.2283
  514TMC3    C5 7636   0.474   2.146  12.538  0.3113 -0.2178  0.0107
  514TMC3    C6 7637   0.536   2.216  12.437 -0.1067 -0.1213  0.4028
  514TMC3     C 7638   0.358   2.398  12.761 -0.2014  0.5503  0.5365
  514TMC3     O 7639   0.336   2.306  12.841 -0.5271 -0.0368 -0.0812
  514TMC3     H 7640   0.473   2.532  12.544  0.8694 -0.9401  1.7113
  514TMC3    H1 7641   0.327   2.153  12.690 -3.0216 -0.2038 -2.3127
  514TMC3    H2 7642   0.614   2.168  12.379 -0.4394  2.0196 -1.8303
  514TMC3    C7 7643   0.560   2.061  12.612 -0.5675 -0.3582 -0.3151
  514TMC3    C8 7644   0.626   2.414  12.355  0.3240  0.0164 -0.0862
  514TMC3    O1 7645   0.642   1.996  12.552  0.2720 -0.2791  0.5905
  514TMC3    O2 7646   0.643   2.347  12.255 -0.2040 -0.3925  0.7187
  515MPD2     C 7647   3.483   3.847  14.714  0.7921  0.4587  0.6509
  515MPD2    C1 7648   3.373   3.925  14.680  0.1652  0.5963 -0.2337
  515MPD2    C2 7649   3.370   4.061  14.705  0.2694  0.6022  0.0903
  515MPD2    C3 7650   3.481   4.121  14.772  0.2386  0.2740 -0.5529
  515MPD2    C4 7651   3.588   4.040  14.801 -0.2502 -0.3168  0.0227
  515MPD2    C5 7652   3.586   3.906  14.775  0.6905 -0.0798  0.2717
  515MPD2     H 7653   3.284   4.123  14.684  1.2567  1.8080 -0.4070
  515MPD2    H1 7654   3.675   4.084  14.849  0.2119 -0.2031 -0.9155
  515MPD2    H2 7655   3.501   3.744  14.684  0.6701  0.6568 -0.1122
  515MPD2    H3 7656   3.671   3.847  14.807  0.9891 -0.2022 -0.7515
  515MPD2     N 7657   3.489   4.258  14.805  0.1734 -0.3354  0.0885
  515MPD2    H5 7658   3.572   4.279  14.860 -1.1013  4.3223  0.1596
  515MPD2    N1 7659   3.264   3.875  14.610 -0.2714  0.2942 -0.2150
  515MPD2    H7 7660   3.201   3.945  14.571 -1.4706 -0.9851 -0.5869
  516TMC3    C1 7661   3.102   3.724  14.537  0.3130 -0.0401  0.1133
  516TMC3    C2 7662   3.061   3.817  14.452 -0.1286  0.0834 -0.6760
  516TMC3    C3 7663   2.931   3.807  14.407 -0.3146 -0.1843  0.4868
  516TMC3    C4 7664   3.025   3.625  14.588  0.0096 -0.3205  0.4539
  516TMC3    C5 7665   2.895   3.623  14.551  0.0900  0.6380 -0.3198
  516TMC3    C6 7666   2.848   3.718  14.462 -0.4176  0.2203 -0.2117
  516TMC3     C 7667   3.237   3.740  14.596  0.1392 -0.1996  0.5181
  516TMC3     O 7668   3.297   3.648  14.654 -0.1335  0.2732  0.4420
  516TMC3     H 7669   3.130   3.891  14.412 -0.5463 -0.6176 -2.7192
  516TMC3    H1 7670   3.065   3.548  14.652  1.6825  0.7981  0.7739
  516TMC3    H2 7671   2.751   3.707  14.415 -0.4106  1.1372 -0.4375
  516TMC3    C7 7672   2.810   3.512  14.608 -0.0508 -0.4032  0.0403
  516TMC3    C8 7673   2.875   3.903  14.314  0.6270 -0.1762  1.1021
  516TMC3    O1 7674   2.882   3.421  14.653 -0.3978 -0.2865  0.7244
  516TMC3    O2 7675   2.759   3.885  14.282 -0.0087 -0.1542 -0.2778
  517MPD2     C 7676   2.640   0.992   0.146  0.9655  0.4860 -0.0502
  517MPD2    C1 7677   2.752   0.946   0.221 -0.1827 -0.1282 -0.2753
  517MPD2    C2 7678   2.794   1.024   0.330 -1.2130  0.1648  0.8583
  517MPD2    C3 7679   2.724   1.148   0.355  0.1242 -0.4285  0.5268
  517MPD2    C4 7680   2.619   1.195   0.284  0.3157  0.1851 -0.2062
  517MPD2    C5 7681   2.588   1.117   0.177 -0.3703 -0.2275 -0.5695
  517MPD2     H 7682   2.876   0.991   0.393  0.1252  1.4235 -0.1970
  517MPD2    H1 7683   2.564   1.287   0.301  0.8460  0.8501 -2.0115
  517MPD2    H2 7684   2.596   0.944   0.059 -1.3034  1.4971  0.5239
  517MPD2    H3 7685   2.505   1.138   0.110  1.1683  1.2571 -1.9873
  517MPD2     N 7686   2.751   1.235   0.461  0.0945  0.1207 -0.2872
  517MPD2    H5 7687   2.692   1.318   0.467  1.1196  0.9546 -1.7480
  517MPD2    N1 7688   2.820   0.825   0.200  0.9223  0.0743  0.6263
  517MPD2    H7 7689   2.894   0.778   0.252  0.6817  0.8105  1.6196
  518TMC3    C1 7690   2.863   0.622   0.088  0.2708  0.2346 -0.1796
  518TMC3    C2 7691   2.796   0.502   0.077 -0.2042 -0.1963 -0.2968
  518TMC3    C3 7692   2.860   0.383   0.088  0.2591 -0.5329  0.4048
  518TMC3    C4 7693   2.994   0.620   0.126  0.2347 -0.3563 -0.5158
  518TMC3    C5 7694   3.058   0.499   0.125  0.3671 -0.5885  0.5707
  518TMC3    C6 7695   2.992   0.384   0.104 -0.3638 -0.1565  0.0463
  518TMC3     C 7696   2.774   0.735   0.105 -0.4675 -0.5010 -0.1471
  518TMC3     O 7697   2.667   0.737   0.040  0.0955 -0.3666 -0.4081
  518TMC3     H 7698   2.696   0.502   0.037 -0.5552 -1.9723  0.5574
  518TMC3    H1 7699   3.048   0.712   0.146 -0.9739  0.0308  0.9725
  518TMC3    H2 7700   3.032   0.286   0.127  0.0697  0.2148  0.8534
  518TMC3    C7 7701   3.193   0.488   0.174 -0.5184 -0.1918 -0.4619
  518TMC3    C8 7702   2.783   0.264   0.062 -0.4991 -0.0478  0.2586
  518TMC3    O1 7703   3.231   0.593   0.220 -0.6145  0.6786  0.3162
  518TMC3    O2 7704   2.663   0.269   0.083  0.2476 -0.2427  0.1179
  519MPD2     C 7705   4.278   4.039  14.303  0.5878 -0.3402  0.6581
  519MPD2    C1 7706   4.247   4.004  14.176  0.1876  0.1597  0.3122
  519MPD2    C2 7707   4.330   3.928  14.104  0.1014 -0.4055 -0.5687
  519MPD2    C3 7708   4.451   3.894  14.159 -0.0659 -0.1577  0.6207
  519MPD2    C4 7709   4.488   3.933  14.279  0.1383 -0.1219  0.6049
  519MPD2    C5 7710   4.399   4.011  14.354  0.1740  0.3670 -0.8625
  519MPD2     H 7711   4.305   3.892  14.005  0.7319 -0.3871 -0.7306
  519MPD2    H1 7712   4.586   3.911  14.319 -0.5472 -0.1709  2.2782
  519MPD2    H2 7713   4.206   4.101  14.356 -0.9534 -1.8302  0.3069
  519MPD2    H3 7714   4.435   4.037  14.452  1.0434  3.7305 -2.0842
  519MPD2     N 7715   4.534   3.798  14.091  0.2170  0.3122 -0.5040
  519MPD2    H5 7716   4.623   3.774  14.134  0.2507  1.0090 -0.1795
  519MPD2    N1 7717   4.128   4.056  14.118 -0.0384 -0.8122  0.3210
  519MPD2    H7 7718   4.057   4.098  14.177 -1.3037 -1.7352 -0.5653
  520TMC3    C1 7719   4.570   3.609  13.925  0.2732 -0.8659  0.2941
  520TMC3    C2 7720   4.509   3.534  13.826  0.0529 -0.0899  0.4529
  520TMC3    C3 7721   4.575   3.417  13.778  0.4140 -0.7147 -0.2481
  520TMC3    C4 7722   4.695   3.585  13.970  0.6660 -0.1211  0.2749
  520TMC3    C5 7723   0.036   3.473  13.915 -0.8199  0.6438 -0.1635
  520TMC3    C6 7724   4.695   3.382  13.831  0.8035  0.2097 -0.0316
  520TMC3     C 7725   4.478   3.706  13.999 -0.1577  0.1541  0.0141
  520TMC3     O 7726   4.362   3.696  13.971  0.1194  0.1535 -0.0360
  520TMC3     H 7727   4.415   3.568  13.785  1.7794  2.0756 -1.7266
  520TMC3    H1 7728   0.019   3.660  14.031 -1.3144 -0.0210  1.7640
  520TMC3    H2 7729   0.024   3.291  13.804 -1.0282 -1.3188  1.4354
  520TMC3    C7 7730   0.151   3.423  13.989  0.0376  0.4077 -0.2089
  520TMC3    C8 7731   4.538   3.366  13.642  0.3686  0.5190  0.0297
  520TMC3    O1 7732   0.155   3.302  13.993 -0.5933  0.1866  0.1081
  520TMC3    O2 7733   4.617   3.287  13.591  0.2709  0.3894 -0.0601
  521MPD2     C 7734   0.766   0.822  17.653 -0.2693  0.1608 -0.9677
  521MPD2    C1 7735   0.744   0.954  17.619  0.8417  0.0090  0.1558
  521MPD2    C2 7736   0.808   1.012  17.514 -0.0066 -0.0354  0.0484
  521MPD2    C3 7737   0.893   0.938  17.441 -0.0054 -0.2388  0.1875
  521MPD2    C4 7738   0.909   0.807  17.464  0.1561 -0.4669 -1.0673
  521MPD2    C5 7739   0.841   0.746  17.564  0.3129 -0.4855 -0.6590
  521MPD2     H 7740   0.797   1.116  17.488  1.0539 -0.2496 -1.3033
  521MPD2    H1 7741   0.975   0.740  17.411  1.3642 -0.8523  0.9399
  521MPD2    H2 7742   0.718   0.771   0.033  0.4507 -1.4570 -1.5550
  521MPD2    H3 7743   0.867   0.646  17.598 -2.1175 -0.7673  0.3525
  521MPD2     N 7744   0.968   0.997  17.341  0.0352  0.8792 -0.5866
  521MPD2    H5 7745   0.953   1.095  17.318 -0.3306  0.9585  0.0109
  521MPD2    N1 7746   0.649   1.013   0.003  0.4980 -0.3276  0.3029
  521MPD2    H7 7747   0.611   0.957   0.078  0.6065 -2.5276 -1.2897
  522TMC3    C1 7748   1.162   1.010  17.194 -0.0440  0.1367 -0.2692
  522TMC3    C2 7749   1.291   0.972  17.189  0.2240 -0.7859 -0.2979
  522TMC3    C3 7750   1.379   1.047  17.114  0.7878  0.5124  0.7291
  522TMC3    C4 7751   1.120   1.124  17.135  0.3211  0.8286 -0.2334
  522TMC3    C5 7752   1.209   1.196  17.059  0.4636 -0.4921  0.1143
  522TMC3    C6 7753   1.343   1.164  17.058  0.6208 -0.2150  1.1438
  522TMC3     C 7754   1.065   0.924  17.264 -0.1585 -0.7428  0.2772
  522TMC3     O 7755   1.084   0.808  17.244 -0.1023 -0.0558  0.0004
  522TMC3     H 7756   1.323   0.880  17.238  1.0042 -0.3551 -0.0093
  522TMC3    H1 7757   1.012   1.128  17.126  0.1539 -1.9202  0.4697
  522TMC3    H2 7758   1.408   1.240  17.017 -1.6359  0.0839 -1.8865
  522TMC3    C7 7759   1.165   1.314  16.992 -0.6016 -0.5641 -0.3409
  522TMC3    C8 7760   1.521   1.004  17.112  0.5122 -0.1711  0.4609
  522TMC3    O1 7761   1.258   1.383  16.954 -0.2745  0.4369 -0.2281
  522TMC3    O2 7762   1.558   0.909  17.186  0.1135 -0.0466  0.0882
  523MPD2     C 7763   3.452   1.369  10.207  0.0770  0.7525 -0.3408
  523MPD2    C1 7764   3.419   1.289  10.096 -0.0505  1.1681 -0.1437
  523MPD2    C2 7765   3.323   1.337  10.008  0.4405 -0.2826  0.0205
  523MPD2    C3 7766   3.272   1.464  10.022 -0.0049 -0.1566 -0.0647
  523MPD2    C4 7767   3.291   1.529  10.137  0.1855  0.2402  0.3341
  523MPD2    C5 7768   3.379   1.483  10.227 -0.0532 -0.7576  0.7336
  523MPD2     H 7769   3.293   1.275   9.925  2.0806  0.5078 -1.1874
  523MPD2    H1 7770   3.252   1.630  10.148 -2.2722 -0.4000 -2.5226
  523MPD2    H2 7771   3.528   1.336  10.277 -0.9248 -0.9307 -0.0380
  523MPD2    H3 7772   3.395   1.541  10.317 -1.0433 -0.6266  0.8293
  523MPD2     N 7773   3.181   1.528   9.934 -0.2478 -0.7739 -0.3929
  523MPD2    H5 7774   3.167   1.628   9.945 -0.8565 -1.1974  2.7208
  523MPD2    N1 7775   3.487   1.167  10.077 -0.1623  0.4947  0.6039
  523MPD2    H7 7776   3.558   1.146  10.147  0.5905  2.6555  0.4929
  524TMC3    C1 7777   3.017   1.556   9.767 -0.6147 -0.0622  0.4839
  524TMC3    C2 7778   2.971   1.523   9.644  0.1011 -0.4326  0.5916
  524TMC3    C3 7779   2.872   1.594   9.579  0.0485  0.4994  0.0076
  524TMC3    C4 7780   2.954   1.662   9.826  0.4610  0.2580  0.0115
  524TMC3    C5 7781   2.857   1.737   9.758  0.5611 -0.7424 -0.1822
  524TMC3    C6 7782   2.819   1.708   9.631 -0.4771 -0.6658  0.3654
  524TMC3     C 7783   3.122   1.474   9.822 -0.2967  0.7590 -0.3113
  524TMC3     O 7784   3.131   1.359   9.788 -0.1390  0.3695  0.1899
  524TMC3     H 7785   3.029   1.444   9.599 -0.4929 -0.3498 -0.3184
  524TMC3    H1 7786   2.974   1.688   9.930  0.4889 -2.2621  0.6370
  524TMC3    H2 7787   2.735   1.758   9.586  1.8557  1.9341 -1.0839
  524TMC3    C7 7788   2.790   1.844   9.832  0.1632 -0.3267  0.4633
  524TMC3    C8 7789   2.809   1.545   9.459  0.1416 -0.1508  0.2512
  524TMC3    O1 7790   2.813   1.845   9.952 -0.1238  0.1606  0.8289
  524TMC3    O2 7791   2.702   1.583   9.416  0.0721 -0.3479  0.1121
  525MPD2     C 7792   1.039   3.180  14.663 -0.2379  0.2210 -0.2709
  525MPD2    C1 7793   1.142   3.144  14.742 -0.3144 -1.1671 -0.1436
  525MPD2    C2 7794   1.245   3.230  14.771  0.8336 -0.1399 -0.4033
  525MPD2    C3 7795   1.223   3.365  14.731 -0.5486 -0.2745 -0.4302
  525MPD2    C4 7796   1.116   3.403  14.651 -0.4357  0.4819 -0.3950
  525MPD2    C5 7797   1.023   3.307  14.625  0.4897  0.0509 -0.3618
  525MPD2     H 7798   1.328   3.200  14.834  1.3475  0.3443 -0.8475
  525MPD2    H1 7799   1.107   3.499  14.602  2.1909  1.6946  1.4984
  525MPD2    H2 7800   0.963   3.106  14.639 -0.0810  0.7851 -2.4649
  525MPD2    H3 7801   0.940   3.338  14.563 -0.4400 -1.7731 -0.0471
  525MPD2     N 7802   1.321   3.466  14.764  0.2571 -0.3006  0.2033
  525MPD2    H5 7803   1.288   3.562  14.760  0.0788 -0.3040  1.6361
  525MPD2    N1 7804   1.150   3.019  14.807  0.2038 -0.1431  0.3197
  525MPD2    H7 7805   1.236   2.997  14.855 -0.0730 -0.5892  0.6105
  526TMC3    C1 7806   1.082   2.833  14.917 -0.2011 -0.0604  0.2149
  526TMC3    C2 7807   1.000   2.810  15.022  0.2525  0.5800 -0.1479
  526TMC3    C3 7808   1.056   2.758  15.136  0.3438 -0.2349  0.1391
  526TMC3    C4 7809   1.212   2.790  14.908  0.0248 -0.0680 -0.2310
  526TMC3    C5 7810   1.265   2.733  15.015  0.7121 -0.0522 -0.1640
  526TMC3    C6 7811   1.190   2.720  15.131  0.5626  0.3726  0.1619
  526TMC3     C 7812   1.041   2.938  14.825  0.0809  0.4693  0.5439
  526TMC3     O 7813   0.923   2.965  14.816 -0.3869  0.6745 -0.1515
  526TMC3     H 7814   0.900   2.852  15.020  0.3591  0.7874 -1.4343
  526TMC3    H1 7815   1.269   2.800  14.816  1.6464 -1.3990  0.6247
  526TMC3    H2 7816   1.243   2.684  15.219 -1.7037 -2.4183  0.3870
  526TMC3    C7 7817   1.391   2.660  15.017  0.6835  0.5452 -1.2948
  526TMC3    C8 7818   0.990   2.741  15.264 -0.2388  0.0368 -0.0408
  526TMC3    O1 7819   1.434   2.623  15.124 -0.2273 -0.0094 -0.7971
  526TMC3    O2 7820   1.054   2.686  15.355  0.2577  0.2891 -0.3615
  527MPD2     C 7821   3.453   0.746   1.766 -0.0407  0.7472  0.1789
  527MPD2    C1 7822   3.554   0.654   1.782  0.0325 -0.1134 -0.0465
  527MPD2    C2 7823   3.659   0.645   1.694 -0.4070  0.1062  0.1983
  527MPD2    C3 7824   3.669   0.736   1.591  0.4386  0.1241  0.2621
  527MPD2    C4 7825   3.561   0.825   1.571 -0.2255  0.5727 -0.3783
  527MPD2    C5 7826   3.460   0.828   1.658  0.1811 -0.7410  0.2187
  527MPD2     H 7827   3.743   0.581   1.721  1.5043  2.4739 -0.1355
  527MPD2    H1 7828   3.568   0.899   1.492  0.8728  2.9057  1.9278
  527MPD2    H2 7829   3.374   0.761   1.839 -1.2403  0.2165 -0.9948
  527MPD2    H3 7830   3.381   0.902   1.652  0.0698 -0.8736  0.0518
  527MPD2     N 7831   3.787   0.732   1.507  0.2458  0.4696 -0.1445
  527MPD2    H5 7832   3.864   0.681   1.549 -0.8112 -0.7173  0.3616
  527MPD2    N1 7833   3.563   0.570   1.894  0.1022 -0.0455 -0.2087
  527MPD2    H7 7834   3.640   0.504   1.901 -0.4960 -0.4553  2.4033
  528TMC3    C1 7835   3.522   0.483   2.105 -0.2693 -0.6567  0.5706
  528TMC3    C2 7836   3.653   0.505   2.142  0.0077  0.1491 -0.1560
  528TMC3    C3 7837   3.697   0.471   2.270  0.3777  1.1661 -0.1449
  528TMC3    C4 7838   3.445   0.429   2.198  0.4138 -0.1393 -0.1796
  528TMC3    C5 7839   3.491   0.393   2.323 -0.0644  0.0631 -0.4406
  528TMC3    C6 7840   3.624   0.403   2.359  0.1436  0.3742  0.8492
  528TMC3     C 7841   3.473   0.561   1.999  0.1218  0.3094  0.6242
  528TMC3     O 7842   3.360   0.611   2.004  0.6468  0.1356  0.6371
  528TMC3     H 7843   3.717   0.577   2.091  0.1826 -0.0713 -0.2470
  528TMC3    H1 7844   3.340   0.412   2.176  0.3172  0.0164  0.1639
  528TMC3    H2 7845   3.647   0.401   2.465  0.6817 -1.6268  0.6945
  528TMC3    C7 7846   3.392   0.317   2.399 -0.0033  0.5382  0.7198
  528TMC3    C8 7847   3.836   0.495   2.304  0.2538  0.0468 -0.3071
  528TMC3    O1 7848   3.276   0.327   2.368  0.2233  0.6068  0.2059
  528TMC3    O2 7849   3.889   0.568   2.222  0.3180  0.0597 -0.6597
  529MPD2     C 7850   0.714   3.764   0.196 -0.8528  0.8636  0.7074
  529MPD2    C1 7851   0.831   3.755   0.277  0.1961  0.4046  0.2454
  529MPD2    C2 7852   0.956   3.796   0.217  0.0605 -0.0908  0.3507
  529MPD2    C3 7853   0.952   3.821   0.081 -0.4657 -0.3095  0.5764
  529MPD2    C4 7854   0.833   3.829   0.010  0.9042 -0.9029 -0.7658
  529MPD2    C5 7855   0.716   3.802   0.067  0.4415 -0.8801 -0.3942
  529MPD2     H 7856   1.050   3.777   0.267  0.2500  1.2122  0.4826
  529MPD2    H1 7857   0.823   3.855  17.606 -0.7787  1.6245  0.0036
  529MPD2    H2 7858   0.614   3.738   0.229 -1.0303 -0.3995 -0.8204
  529MPD2    H3 7859   0.630   3.790   0.001 -1.8131  0.5181  2.2704
  529MPD2     N 7860   1.064   3.846   0.002  0.6137  0.0487 -0.3361
  529MPD2    H5 7861   1.052   3.851  17.603 -0.4129 -0.7545 -0.2593
  529MPD2    N1 7862   0.836   3.701   0.409  0.6391  0.7342  0.2967
  529MPD2    H7 7863   0.928   3.697   0.452  0.6258  1.0391  0.3572
  530TMC3    C1 7864   0.764   3.576   0.594 -0.4584  0.2273  0.5539
  530TMC3    C2 7865   0.858   3.644   0.669 -0.2180  0.7905  0.9676
  530TMC3    C3 7866   0.881   3.590   0.790  0.2633  0.2236  0.5130
  530TMC3    C4 7867   0.716   3.459   0.636  0.1385 -0.3145  1.2704
  530TMC3    C5 7868   0.749   3.403   0.750  0.8780 -0.6338 -0.4768
  530TMC3    C6 7869   0.829   3.473   0.833  0.0209  0.1381 -0.3904
  530TMC3     C 7870   0.728   3.626   0.465 -0.4622  0.1866 -0.6286
  530TMC3     O 7871   0.622   3.595   0.420  0.9314 -0.6675  0.3530
  530TMC3     H 7872   0.900   3.740   0.643  0.1637  0.8584  1.8231
  530TMC3    H1 7873   0.651   3.400   0.572  2.7617 -0.7514 -0.9965
  530TMC3    H2 7874   0.854   3.436   0.931  1.2316  0.0607 -0.7238
  530TMC3    C7 7875   0.740   3.257   0.761 -0.5185 -0.2134  0.4763
  530TMC3    C8 7876   0.943   3.677   0.883  0.6974  0.0535 -0.1790
  530TMC3    O1 7877   0.684   3.200   0.669 -0.3456 -0.2763 -0.0628
  530TMC3    O2 7878   0.935   3.797   0.869  0.2014  0.0418 -0.1917
  531MPD2     C 7879   0.746   1.909  13.063  0.1210  0.4751 -0.0567
  531MPD2    C1 7880   0.656   2.007  13.088 -0.3437 -0.8787  0.2153
  531MPD2    C2 7881   0.592   2.060  12.979 -1.2841 -0.8499 -0.9252
  531MPD2    C3 7882   0.613   2.018  12.852  0.3827 -0.0312 -0.2795
  531MPD2    C4 7883   0.709   1.918  12.824  0.3790 -0.0067 -0.0838
  531MPD2    C5 7884   0.770   1.865  12.937  0.4172 -0.1025 -0.3554
  531MPD2     H 7885   0.532   2.150  12.992 -0.0331 -0.1202 -0.2222
  531MPD2    H1 7886   0.733   1.870  12.730  2.4720  2.7249 -0.9641
  531MPD2    H2 7887   0.805   1.865  13.143  1.9107  2.0631 -0.5089
  531MPD2    H3 7888   0.849   1.793  12.918  0.3318  0.0373 -1.2185
  531MPD2     N 7889   0.544   2.087  12.746  0.1106  0.6245 -0.2077
  531MPD2    H5 7890   0.472   2.149  12.780 -1.0302 -1.0247  0.4012
  531MPD2    N1 7891   0.644   2.049  13.214 -0.9795  0.5795 -0.0760
  531MPD2    H7 7892   0.696   2.000  13.286  1.2331  2.0278 -0.6501
  532TMC3    C1 7893   0.612   2.206  13.383 -0.2109 -0.0739 -0.7349
  532TMC3    C2 7894   0.561   2.329  13.398 -0.3023  0.2845  0.1945
  532TMC3    C3 7895   0.647   2.432  13.417  0.2563 -0.8679 -0.0978
  532TMC3    C4 7896   0.743   2.179  13.415 -0.5341  0.2485 -0.3450
  532TMC3    C5 7897   0.823   2.285  13.454  0.4946 -0.2974 -0.6622
  532TMC3    C6 7898   0.776   2.417  13.461  0.2383  0.1446  0.2001
  532TMC3     C 7899   0.579   2.161  13.251 -0.0855 -0.3956 -0.2608
  532TMC3     O 7900   0.506   2.235  13.188 -0.1149  0.0895 -0.0957
  532TMC3     H 7901   0.454   2.339  13.394 -0.3851  0.0298  1.8246
  532TMC3    H1 7902   0.792   2.084  13.398 -1.2656 -0.3340  0.8061
  532TMC3    H2 7903   0.842   2.500  13.486 -0.6756  1.2313 -0.9844
  532TMC3    C7 7904   0.966   2.261  13.480 -0.9403 -0.6179 -0.6968
  532TMC3    C8 7905   0.625   2.547  13.339  0.5107  0.5435 -0.5937
  532TMC3    O1 7906   1.032   2.340  13.545  0.5374 -0.0943  0.0081
  532TMC3    O2 7907   0.685   2.651  13.365  0.0487  0.5287  0.5839
  533TMC3    C1 7908   1.504   3.543  14.898 -0.3755  0.5976 -0.0403
  533TMC3    C2 7909   1.638   3.553  14.909 -0.4471 -0.3574 -0.0151
  533TMC3    C3 7910   1.696   3.606  15.022 -0.4171 -0.5487  0.1308
  533TMC3    C4 7911   1.427   3.542  15.013  0.3051 -0.3236 -0.3725
  533TMC3    C5 7912   1.493   3.573  15.126  0.8399  0.2109  0.0266
  533TMC3    C6 7913   1.627   3.616  15.136 -0.6603  0.1708 -1.1093
  533TMC3     C 7914   1.451   3.437  14.813 -0.2216  0.6030 -0.3563
  533TMC3     O 7915   1.515   3.332  14.809  0.1604 -0.7847 -0.8017
  533TMC3     H 7916   1.694   3.539  14.817  0.5271  0.7429  0.4152
  533TMC3    H1 7917   1.321   3.521  15.004  0.2660  0.1982 -1.1921
  533TMC3    H2 7918   1.680   3.637  15.229  0.2569 -1.5660 -1.2494
  533TMC3    C7 7919   1.405   3.575  15.239 -0.4046 -0.3358  0.4470
  533TMC3    C8 7920   1.822   3.676  15.011  0.3953 -0.1271 -0.2630
  533TMC3    O1 7921   1.302   3.518  15.217 -0.3775  0.2706 -0.1811
  533TMC3    O2 7922   1.858   3.732  15.111 -0.3921  0.5355  0.3919
  534MPD2     C 7923   3.085   4.168   2.364 -0.4485 -0.1655  0.1863
  534MPD2    C1 7924   3.134   4.227   2.247  0.6685 -0.0303  0.1887
  534MPD2    C2 7925   3.074   4.185   2.127 -0.0975  0.1381 -0.6546
  534MPD2    C3 7926   2.970   4.103   2.116  0.7578  0.2474 -0.5836
  534MPD2    C4 7927   2.934   4.036   2.231 -0.1265 -0.2387  0.3383
  534MPD2    C5 7928   2.989   4.072   2.350 -0.4664  0.3889  0.5707
  534MPD2     H 7929   3.102   4.240   2.038  1.6800  0.7526  0.2862
  534MPD2    H1 7930   2.857   3.959   2.227  0.0489 -0.3015 -1.7814
  534MPD2    H2 7931   3.119   4.191   2.464  3.1653  0.3369 -1.1514
  534MPD2    H3 7932   2.955   4.013   2.435  0.0902  0.2889  0.7220
  534MPD2     N 7933   2.895   4.070   1.994 -0.2659  0.0786 -0.1931
  534MPD2    H5 7934   2.813   4.012   2.010 -0.2860  0.0412 -0.4420
  534MPD2    N1 7935   3.242   4.322   2.244 -0.8444 -0.1307 -0.4980
  534MPD2    H7 7936   3.261   4.363   2.153  1.7443  0.0374  0.1208
  535TMC3    C1 7937   2.854   4.057   1.762 -0.0169  0.2457  0.3716
  535TMC3    C2 7938   2.723   4.095   1.780  0.3368  0.3509 -0.6573
  535TMC3    C3 7939   2.646   4.143   1.671 -0.2060  0.1096  0.2371
  535TMC3    C4 7940   2.912   4.067   1.639  0.2107 -0.1298 -0.5398
  535TMC3    C5 7941   2.834   4.101   1.528  0.2892  0.2113  0.3824
  535TMC3    C6 7942   2.699   4.134   1.543 -0.1064  0.6692  0.2344
  535TMC3     C 7943   2.944   4.097   1.871  0.5337 -0.0933  0.3833
  535TMC3     O 7944   3.055   4.130   1.844 -0.4443  0.0994 -0.3071
  535TMC3     H 7945   2.679   4.097   1.880 -0.6817  1.4370 -1.1184
  535TMC3    H1 7946   3.020   4.059   1.630  0.2733  1.6603 -1.5116
  535TMC3    H2 7947   2.629   4.155   1.463  0.3240  1.0200 -0.0484
  535TMC3    C7 7948   2.909   4.125   1.403  0.0332 -0.2311 -0.7913
  535TMC3    C8 7949   2.515   4.193   1.688 -0.4999 -0.3158 -0.3425
  535TMC3    O1 7950   3.027   4.116   1.414  0.0293 -0.1022  0.1884
  535TMC3    O2 7951   2.438   4.183   1.594  0.0556  0.5177  0.8285
  536MPD2     C 7952   3.263   2.888  16.003  0.1396 -1.1388  0.3596
  536MPD2    C1 7953   3.127   2.849  16.036  0.4065  1.1802  0.5237
  536MPD2    C2 7954   3.027   2.892  15.952 -0.2498 -0.4866 -0.0732
  536MPD2    C3 7955   3.059   2.959  15.831  0.0604  0.5657 -0.0990
  536MPD2    C4 7956   3.194   2.990  15.806 -0.6529  0.2618  0.6968
  536MPD2    C5 7957   3.293   2.946  15.886 -0.3849  0.2816  1.1034
  536MPD2     H 7958   2.921   2.890  15.973 -0.5445 -1.3451 -1.6208
  536MPD2    H1 7959   3.221   3.051  15.721 -1.0498 -0.5674 -0.0197
  536MPD2    H2 7960   3.338   2.861  16.076 -0.2531  0.0680  1.2089
  536MPD2    H3 7961   3.391   2.981  15.855 -1.0561  1.3906  0.2011
  536MPD2     N 7962   2.961   2.987  15.730  0.1436  0.3080  0.3536
  536MPD2    H5 7963   2.991   3.005  15.635 -0.2162 -0.6273  0.0610
  536MPD2    N1 7964   3.100   2.805  16.164 -0.5067 -0.2082 -0.5010
  536MPD2    H7 7965   3.184   2.794  16.219 -0.2763  0.9602 -0.5996
  537TMC3    C1 7966   2.968   2.721  16.344  0.4521 -0.1843 -0.4108
  537TMC3    C2 7967   3.021   2.803  16.432  0.4486  0.3619 -0.3354
  537TMC3    C3 7968   2.988   2.782  16.561 -0.4609  0.1464  0.3834
  537TMC3    C4 7969   2.873   2.628  16.377  0.1687  0.4948 -0.2334
  537TMC3    C5 7970   2.859   2.586  16.506 -0.3056 -0.0513  0.2767
  537TMC3    C6 7971   2.918   2.668  16.604  0.5646 -0.0287  0.3622
  537TMC3     C 7972   2.975   2.752  16.201 -0.0477 -0.5179  0.3209
  537TMC3     O 7973   2.876   2.736  16.133  0.6732 -0.7075  0.2981
  537TMC3     H 7974   3.075   2.893  16.403 -0.6913  0.0694 -3.2933
  537TMC3    H1 7975   2.827   2.571  16.296 -1.1120  1.5296 -0.2268
  537TMC3    H2 7976   2.906   2.642  16.708  0.8377 -1.9927 -0.0899
  537TMC3    C7 7977   2.757   2.483  16.543 -0.3205  0.0497 -1.0189
  537TMC3    C8 7978   3.021   2.865  16.673  0.4127 -0.7584 -0.6367
  537TMC3    O1 7979   2.685   2.437  16.454 -0.5708 -0.4640 -0.0071
  537TMC3    O2 7980   2.972   2.853  16.785  0.3031 -0.0841 -0.1130
  538TMC3    C1 7981   4.159   1.720  10.647  0.3176 -0.1169 -0.4742
  538TMC3    C2 7982   4.227   1.666  10.541  0.5713 -0.9030  0.7232
  538TMC3    C3 7983   4.171   1.682  10.412 -0.0163 -0.2607 -0.4340
  538TMC3    C4 7984   4.051   1.799  10.636 -0.5801 -0.0297  0.6288
  538TMC3    C5 7985   4.002   1.819  10.513 -0.4235 -0.7093 -0.2904
  538TMC3    C6 7986   4.057   1.761  10.401 -0.2031  0.2345 -0.4120
  538TMC3     C 7987   4.166   1.665  10.784 -0.4921 -0.3788  0.1045
  538TMC3     O 7988   4.077   1.704  10.854 -0.0469  0.1800  0.9049
  538TMC3     H 7989   4.309   1.596  10.547  0.8378 -0.7653 -1.2107
  538TMC3    H1 7990   4.003   1.853  10.716 -2.7670 -0.0634 -0.6660
  538TMC3    H2 7991   3.998   1.764  10.310 -2.8228  0.5109  1.2972
  538TMC3    C7 7992   3.862   1.846  10.499 -0.1780  0.3482 -0.2085
  538TMC3    C8 7993   4.229   1.622  10.294 -0.3336 -0.4420 -0.9811
  538TMC3    O1 7994   3.790   1.774  10.428  0.7428  0.0272 -0.1844
  538TMC3    O2 7995   4.167   1.637  10.188  0.4636 -0.4938  0.3668
  539MPD2     C 7996   3.769   0.520  11.827  0.4780  0.3310  0.5432
  539MPD2    C1 7997   3.805   0.576  11.709  0.0524 -0.0179  0.6527
  539MPD2    C2 7998   3.833   0.714  11.701 -0.3258  0.7448 -0.2740
  539MPD2    C3 7999   3.843   0.793  11.817 -0.0064 -0.1770 -0.2391
  539MPD2    C4 8000   3.806   0.726  11.931  0.5691  0.0497 -0.0985
  539MPD2    C5 8001   3.781   0.592  11.940  0.5472  0.3520 -0.3294
  539MPD2     H 8002   3.829   0.768  11.607  0.4866 -0.6084 -1.0757
  539MPD2    H1 8003   3.806   0.784  12.022  1.1799  1.8240 -1.2308
  539MPD2    H2 8004   3.745   0.415  11.831  0.3129  0.3860  0.9311
  539MPD2    H3 8005   3.768   0.542  12.035 -0.1889  1.9354  0.3926
  539MPD2     N 8006   3.848   0.933  11.809 -0.2040 -0.3900  0.2053
  539MPD2    H5 8007   3.812   0.981  11.891 -0.8069  1.1348 -0.9446
  539MPD2    N1 8008   3.811   0.502  11.588 -0.2806  0.4835  0.0714
  539MPD2    H7 8009   3.840   0.553  11.505 -1.1517  0.9437  0.0540
  540TMC3    C1 8010   3.858   1.140  11.696  0.4552  1.0102  0.1523
  540TMC3    C2 8011   3.893   1.218  11.586 -0.5871  0.0714 -0.3053
  540TMC3    C3 8012   3.809   1.316  11.545  0.2269 -0.6942 -0.3700
  540TMC3    C4 8013   3.745   1.169  11.770  0.6557  0.6506  0.3059
  540TMC3    C5 8014   3.666   1.270  11.722 -0.1281 -0.3659  0.9226
  540TMC3    C6 8015   3.693   1.345  11.612  0.9972 -1.1416  0.8219
  540TMC3     C 8016   3.888   1.002  11.694 -0.1167  1.0593 -0.1055
  540TMC3     O 8017   3.953   0.961  11.595 -0.2241  0.5390  0.3355
  540TMC3     H 8018   3.971   1.180  11.521  0.1472 -2.1957  1.8899
  540TMC3    H1 8019   3.702   1.112  11.852 -0.0385  0.6350 -0.0675
  540TMC3    H2 8020   3.638   1.433  11.580  0.3516 -1.0657  2.1420
  540TMC3    C7 8021   3.568   1.327  11.818  0.4318  0.1986  0.4454
  540TMC3    C8 8022   3.818   1.343  11.404  0.0260 -0.0333  0.2798
  540TMC3    O1 8023   3.465   1.370  11.774  0.4146  0.2851  1.2402
  540TMC3    O2 8024   3.925   1.356  11.351  0.3931 -0.2694 -0.0005
  541MPD2     C 8025   1.967   2.756  13.178  0.3236 -0.1868 -0.0763
  541MPD2    C1 8026   1.906   2.697  13.069 -0.3941  0.2156 -0.5659
  541MPD2    C2 8027   1.963   2.730  12.941  0.4026 -0.3338  0.8572
  541MPD2    C3 8028   2.068   2.820  12.925  0.2316  0.6008 -0.5791
  541MPD2    C4 8029   2.125   2.872  13.040  0.2183  0.6119 -0.0646
  541MPD2    C5 8030   2.070   2.841  13.159 -0.4683 -0.7753 -0.5005
  541MPD2     H 8031   1.924   2.681  12.853 -0.3176 -1.5428  1.8361
  541MPD2    H1 8032   2.207   2.943  13.041  1.3303 -0.6948  0.3303
  541MPD2    H2 8033   1.931   2.723  13.275  0.8678  1.9760  0.8514
  541MPD2    H3 8034   2.116   2.872  13.253  0.0490  1.3509 -1.4409
  541MPD2     N 8035   2.125   2.870  12.812 -0.0542  0.4537  0.3697
  541MPD2    H5 8036   2.192   2.946  12.816 -1.3448  1.4997  2.3656
  541MPD2    N1 8037   1.815   2.600  13.094  0.4195 -0.1980  0.6211
  541MPD2    H7 8038   1.798   2.587  13.193 -1.2099 -2.0774  0.0999
  542TMC3    C1 8039   2.132   2.906  12.581 -0.2016 -0.0943  0.0623
  542TMC3    C2 8040   2.108   2.851  12.464  0.0484  0.6471  0.3480
  542TMC3    C3 8041   2.147   2.919  12.353  0.5813 -0.0911  0.4697
  542TMC3    C4 8042   2.180   3.033  12.586  0.4477  0.0827 -0.8757
  542TMC3    C5 8043   2.210   3.099  12.474 -0.5809 -0.3452 -0.2277
  542TMC3    C6 8044   2.202   3.042  12.350  0.6728  0.1695 -0.3139
  542TMC3     C 8045   2.086   2.831  12.690  0.3182  0.0842  0.0606
  542TMC3     O 8046   2.033   2.727  12.663  0.1695 -0.2192  0.4030
  542TMC3     H 8047   2.072   2.751  12.445 -0.6115  1.0879 -0.7721
  542TMC3    H1 8048   2.213   3.088  12.673 -0.9474 -0.9684  0.3134
  542TMC3    H2 8049   2.242   3.081  12.257  0.4843 -0.4191 -0.6417
  542TMC3    C7 8050   2.209   3.247  12.484  0.0997 -0.2990  0.9123
  542TMC3    C8 8051   2.131   2.854  12.219  0.5514  0.4132  0.3990
  542TMC3    O1 8052   2.156   3.291  12.579 -0.0938  0.7360  0.3163
  542TMC3    O2 8053   2.218   2.873  12.132 -0.3322  0.2983  0.1173
  543TMC3    C1 8054   1.458   3.421  17.055  0.4032  0.0809  0.5681
  543TMC3    C2 8055   1.361   3.320  17.055  0.4538  0.1551 -0.8658
  543TMC3    C3 8056   1.313   3.280  17.178  0.3338 -0.4653 -0.0499
  543TMC3    C4 8057   1.511   3.471  17.169 -0.1360 -0.3962  0.3223
  543TMC3    C5 8058   1.458   3.434  17.285 -0.8556  0.0318 -0.6590
  543TMC3    C6 8059   1.364   3.338  17.292  0.4338  0.2444 -0.3092
  543TMC3     C 8060   1.535   3.445  16.936 -0.5483 -0.2524  0.6733
  543TMC3     O 8061   1.652   3.487  16.958 -0.3081  0.3508 -0.1182
  543TMC3     H 8062   1.323   3.279  16.963  1.4202 -0.4023 -1.0162
  543TMC3    H1 8063   1.574   3.558  17.167  0.4090 -0.7342  2.4762
  543TMC3    H2 8064   1.337   3.296  17.389 -0.4036  0.8731 -0.2781
  543TMC3    C7 8065   1.507   3.510  17.398 -0.2616  0.1014 -0.1049
  543TMC3    C8 8066   1.276   3.143  17.189  0.5910 -0.6249  0.1252
  543TMC3    O1 8067   1.623   3.553  17.392  0.6145 -0.2820 -0.0700
  543TMC3    O2 8068   1.332   3.069  17.110  0.3167 -0.2848  0.2035
  544MPD2     C 8069   1.144   2.733  17.476  0.3348 -0.7941 -0.2040
  544MPD2    C1 8070   1.200   2.741  17.348 -0.1846 -0.4521 -0.6294
  544MPD2    C2 8071   1.217   2.868  17.285  0.4719 -0.5792  0.2307
  544MPD2    C3 8072   1.181   2.982  17.362 -0.0898 -0.2166  0.5368
  544MPD2    C4 8073   1.129   2.969  17.489 -0.2701  0.0095 -0.1592
  544MPD2    C5 8074   1.110   2.846  17.548  0.5100 -0.2512 -0.0949
  544MPD2     H 8075   1.255   2.872  17.184 -1.7970 -1.0607 -0.6368
  544MPD2    H1 8076   1.101   3.058  17.545 -1.3432 -1.7045  1.9972
  544MPD2    H2 8077   1.132   2.636  17.523  1.8353 -0.5770  0.6233
  544MPD2    H3 8078   1.071   2.829  17.647 -3.1372 -1.3242 -1.7403
  544MPD2     N 8079   1.204   3.114  17.306  0.2217 -0.5946 -0.1210
  544MPD2    H5 8080   1.174   3.192  17.363  2.7047 -0.1015  0.4630
  544MPD2    N1 8081   1.247   2.617  17.292 -0.1493 -0.2622  0.4865
  544MPD2    H7 8082   1.236   2.532  17.347  0.1082  0.5628  1.7945
  545TMC3    C1 8083   1.345   2.471  17.128  0.4068  0.3328  0.3556
  545TMC3    C2 8084   1.432   2.471  17.030  0.1333 -0.0103  0.0699
  545TMC3    C3 8085   1.509   2.363  17.007 -0.8583 -0.2093 -0.9549
  545TMC3    C4 8086   1.335   2.374  17.219  0.0292  0.1388 -0.2320
  545TMC3    C5 8087   1.430   2.271  17.208 -0.5520  0.0814  0.2831
  545TMC3    C6 8088   1.510   2.261  17.095  0.5974 -0.0397  0.2380
  545TMC3     C 8089   1.299   2.607  17.167  0.3311 -0.3136 -0.2226
  545TMC3     O 8090   1.289   2.688  17.076 -0.2236  0.4901 -0.0596
  545TMC3     H 8091   1.433   2.558  16.965  0.6323 -1.2070 -1.5285
  545TMC3    H1 8092   1.259   2.372  17.296 -1.4611 -0.2356 -1.7083
  545TMC3    H2 8093   1.559   2.166  17.079  0.6948  0.1190 -0.3835
  545TMC3    C7 8094   1.409   2.146  17.286 -0.3111  0.0568  0.8839
  545TMC3    C8 8095   1.565   2.357  16.879 -0.2175 -0.2152 -0.5993
  545TMC3    O1 8096   1.304   2.127  17.347  0.2255  0.2039  0.5913
  545TMC3    O2 8097   1.510   2.425  16.795  0.3404  0.3290 -0.1180
  546MPD2     C 8098   2.669   3.716  17.585  0.4245 -0.1166 -0.1514
  546MPD2    C1 8099   2.739   3.671  17.474 -0.8385  0.2911  1.1098
  546MPD2    C2 8100   2.813   3.760  17.403  0.3205 -0.8326  0.2363
  546MPD2    C3 8101   2.829   3.890  17.445  0.6297 -0.4100 -0.7025
  546MPD2    C4 8102   2.761   3.934  17.558  0.2891  0.1565 -0.0252
  546MPD2    C5 8103   2.687   3.848  17.632 -0.5209  0.7135 -0.3145
  546MPD2     H 8104   2.860   3.726  17.312 -0.1504  0.9903 -0.6838
  546MPD2    H1 8105   2.773   4.034  17.600  0.3831  0.2757 -0.3331
  546MPD2    H2 8106   2.598   3.654  17.639 -0.8648 -0.2752 -2.0140
  546MPD2    H3 8107   2.630   3.880   0.017 -0.1757 -2.2806  1.0212
  546MPD2     N 8108   2.893   3.992  17.377  0.2560 -0.5821  0.0985
  546MPD2    H5 8109   2.878   4.084  17.417  0.4919 -0.2193 -0.6452
  546MPD2    N1 8110   2.723   3.537  17.440 -0.4916 -0.2207 -0.1728
  546MPD2    H7 8111   2.661   3.483  17.499 -1.7891  2.5522  0.9976
  547TMC3    C1 8112   2.708   3.345  17.304  0.0855  0.1318  0.1724
  547TMC3    C2 8113   2.686   3.311  17.178  0.2748 -0.1703 -0.0001
  547TMC3    C3 8114   2.636   3.187  17.163  0.1487 -0.0609 -0.6675
  547TMC3    C4 8115   2.673   3.273  17.420  0.3392  0.2165  0.0587
  547TMC3    C5 8116   2.623   3.143  17.389 -0.0471  0.3252 -0.4794
  547TMC3    C6 8117   2.608   3.101  17.262  0.6261  0.1630 -0.3274
  547TMC3     C 8118   2.760   3.478  17.322  0.3200 -0.6229 -0.0073
  547TMC3     O 8119   2.818   3.521  17.223 -0.1727 -0.2284  0.0209
  547TMC3     H 8120   2.703   3.374  17.092  0.6908 -0.3620 -0.0583
  547TMC3    H1 8121   2.683   3.306  17.523  1.7292 -3.4527  1.0798
  547TMC3    H2 8122   2.556   3.008  17.244 -1.8400  1.7004 -1.1751
  547TMC3    C7 8123   2.600   3.055  17.503  0.3301  0.8224 -0.0123
  547TMC3    C8 8124   2.578   3.154  17.039 -0.7731  0.4951 -0.0491
  547TMC3    O1 8125   2.551   3.100  17.608 -0.2270 -0.0522  0.0255
  547TMC3    O2 8126   2.456   3.145  17.027  0.1552 -0.1671 -0.0878
  548MPD2     C 8127   3.133   4.459  11.892  0.1527  0.1351 -0.1813
  548MPD2    C1 8128   3.077   4.354  11.961 -0.2699  0.1875 -0.2409
  548MPD2    C2 8129   3.126   4.228  11.953  0.1559 -0.0139  0.6693
  548MPD2    C3 8130   3.238   4.201  11.878 -0.4065  0.2915  0.3819
  548MPD2    C4 8131   3.293   4.308  11.806 -0.3402  0.2045 -0.8511
  548MPD2    C5 8132   3.246   4.436  11.820  0.8449 -0.5330 -0.5490
  548MPD2     H 8133   3.058   4.154  11.994 -1.6234  3.1682  3.4882
  548MPD2    H1 8134   3.380   4.283  11.745  1.5503 -2.5606  2.9709
  548MPD2    H2 8135   3.086   4.556  11.906  0.8641  0.5701 -0.8421
  548MPD2    H3 8136   3.285   4.522  11.767  0.6534 -1.0974 -1.5984
  548MPD2     N 8137   3.289   4.064  11.867 -0.0804 -1.1958  0.2893
  548MPD2    H5 8138   3.244   4.007  11.938 -2.1189 -2.0676 -1.7274
  548MPD2    N1 8139   2.963   4.384  12.040  0.6753  0.0247  0.0085
  548MPD2    H7 8140   2.940   4.483  12.051 -1.0405 -0.3034 -0.5937
  549TMC3    C1 8141   2.797   4.360  12.211  0.5699 -0.0546  0.4620
  549TMC3    C2 8142   2.721   4.456  12.146 -0.4611  0.7695  0.0110
  549TMC3    C3 8143   2.610   4.504  12.215  0.0489  0.1407  0.0716
  549TMC3    C4 8144   2.748   4.295  12.323 -0.0108  0.2471  0.5347
  549TMC3    C5 8145   2.623   4.333  12.371 -0.4153 -0.0633  0.3908
  549TMC3    C6 8146   2.557   4.447  12.327 -0.1047  0.1475 -0.6412
  549TMC3     C 8147   2.904   4.301  12.132  0.0694  1.1358  0.0380
  549TMC3     O 8148   2.910   4.182  12.153  0.1181  0.0490  0.4401
  549TMC3     H 8149   2.747   4.492  12.047  2.8109 -3.1060 -0.5595
  549TMC3    H1 8150   2.817   4.218  12.359  0.1286 -0.0997 -0.4784
  549TMC3    H2 8151   2.468   4.480  12.379 -0.0489 -1.3895  0.4444
  549TMC3    C7 8152   2.559   4.256  12.474 -0.4934  0.9714  0.1280
  549TMC3    C8 8153   2.517   4.585  12.132  0.7711 -0.0985 -0.5989
  549TMC3    O1 8154   2.478   4.316  12.548 -0.0028 -0.3443 -0.3733
  549TMC3    O2 8155   2.515   4.549  12.014 -0.0085 -0.4154  0.3284
  550TMC3    C1 8156   1.531   2.004  12.384  0.6821 -0.3596 -0.5018
  550TMC3    C2 8157   1.452   2.028  12.488 -0.1628  0.4957  0.3053
  550TMC3    C3 8158   1.404   2.156  12.501 -0.7677 -0.5981 -0.0871
  550TMC3    C4 8159   1.575   2.100  12.300  0.0312  0.2701 -0.8508
  550TMC3    C5 8160   1.534   2.237  12.316  0.3297 -0.3880 -0.3909
  550TMC3    C6 8161   1.435   2.251  12.412  0.1669  0.1684  0.3603
  550TMC3     C 8162   1.495   1.883  12.319 -0.9231 -0.0929  0.4902
  550TMC3     O 8163   1.509   1.773  12.370 -1.0644  0.0127  0.1079
  550TMC3     H 8164   1.409   1.955  12.554  0.0198 -0.5132 -0.7019
  550TMC3    H1 8165   1.641   2.064  12.221  1.0751  0.2534  0.0255
  550TMC3    H2 8166   1.393   2.350  12.428 -1.0272 -0.2965  0.1440
  550TMC3    C7 8167   1.483   2.287  12.191 -0.2893  0.2257 -0.7612
  550TMC3    C8 8168   1.289   2.186  12.583  0.0228 -0.1859  0.8409
  550TMC3    O1 8169   1.363   2.306  12.197 -0.3619  0.3487 -0.3251
  550TMC3    O2 8170   1.226   2.287  12.556  0.1668  0.8280  0.2415
  551TMC3    C1 8171   3.793   4.651  12.965 -0.3428 -0.2150 -0.4744
  551TMC3    C2 8172   3.921   4.638  12.912 -0.2049 -0.5066  0.2327
  551TMC3    C3 8173   4.015   4.708  12.980  0.4831 -0.0164 -0.4469
  551TMC3    C4 8174   3.772   4.700  13.095  0.5268 -0.5813 -0.2319
  551TMC3    C5 8175   3.877   0.048  13.152  0.0420  0.2121 -0.3186
  551TMC3    C6 8176   3.999   0.058  13.093  0.4890 -0.1296  0.0946
  551TMC3     C 8177   3.691   4.599  12.879 -0.7177  0.2773 -0.2428
  551TMC3     O 8178   3.726   4.538  12.781  0.4419  0.0851 -0.0860
  551TMC3     H 8179   3.946   4.578  12.825 -0.6658  1.7410 -1.4654
  551TMC3    H1 8180   3.679   4.673  13.143  0.4479  0.3028  0.1213
  551TMC3    H2 8181   4.070   0.129  13.135  0.1640  0.7089 -0.7812
  551TMC3    C7 8182   3.863   0.116  13.278  0.1941  0.1428 -0.1367
  551TMC3    C8 8183   4.130   0.004  12.895  0.2169 -0.4211 -0.0351
  551TMC3    O1 8184   3.961   0.134  13.348 -0.5276  0.2342  0.2134
  551TMC3    O2 8185   4.165   4.648  12.813  0.2446 -0.4206  0.6249
  552MPD2     C 8186   0.576   1.017  14.059 -0.6198  0.4745  0.6404
  552MPD2    C1 8187   0.690   1.051  14.000 -0.2990  0.7955  0.9789
  552MPD2    C2 8188   0.780   1.121  14.072 -0.0423  0.6247  1.4219
  552MPD2    C3 8189   0.763   1.139  14.206 -0.5201  0.5170  0.0672
  552MPD2    C4 8190   0.643   1.107  14.269  0.3571  0.1481  0.6619
  552MPD2    C5 8191   0.551   1.045  14.189  0.0549  0.1055 -0.5045
  552MPD2     H 8192   0.873   1.136  14.017 -0.6622  0.0902  0.2268
  552MPD2    H1 8193   0.640   1.131  14.374  0.6515 -0.5088  0.8187
  552MPD2    H2 8194   0.510   0.948  14.007 -2.2425  0.3689  2.8646
  552MPD2    H3 8195   0.451   1.025  14.226 -0.4677 -0.2357 -2.1138
  552MPD2     N 8196   0.859   1.205  14.278 -0.2549 -0.2195 -0.1632
  552MPD2    H5 8197   0.862   1.189  14.378  1.4601  1.6102  0.0812
  552MPD2    N1 8198   0.719   1.021  13.862 -0.1184  0.6420  0.3585
  552MPD2    H7 8199   0.801   1.065  13.822 -0.5425  1.3137  0.2138
  553TMC3    C1 8200   0.716   0.934  13.651  0.2200 -0.0160  0.2573
  553TMC3    C2 8201   0.661   0.990  13.544 -1.1850  0.3080  0.5617
  553TMC3    C3 8202   0.730   1.037  13.432 -0.1444 -0.8174 -0.0037
  553TMC3    C4 8203   0.857   0.938  13.665 -0.2109  0.8933  0.6677
  553TMC3    C5 8204   0.926   0.994  13.561 -0.8162 -0.3580  0.1695
  553TMC3    C6 8205   0.864   1.025  13.442 -0.0369  0.7814  0.4695
  553TMC3     C 8206   0.639   0.951  13.767 -0.2232  0.2835  0.4487
  553TMC3     O 8207   0.518   0.927  13.765  0.4674  1.0594  0.5928
  553TMC3     H 8208   0.555   1.012  13.547 -1.0656  0.3609  3.7860
  553TMC3    H1 8209   0.907   0.904  13.755 -0.3621  0.9882  0.7884
  553TMC3    H2 8210   0.925   1.056  13.358  0.0741  2.1932  1.0667
  553TMC3    C7 8211   1.051   1.065  13.584  0.4969  0.3769 -0.8029
  553TMC3    C8 8212   0.684   1.153  13.368  0.2494  0.3979 -0.7235
  553TMC3    O1 8213   1.118   1.042  13.682 -0.1310  0.5011 -0.0730
  553TMC3    O2 8214   0.615   1.225  13.440 -0.4415  0.9410  0.5114
  554TMC3    C1 8215   2.812   1.044  11.587  0.5607 -0.1681 -0.2717
  554TMC3    C2 8216   2.716   0.997  11.504 -1.3557  0.7086  0.1977
  554TMC3    C3 8217   2.677   1.068  11.392  0.5420  1.0641  0.2042
  554TMC3    C4 8218   2.871   1.167  11.560  0.0640  0.3965  0.2396
  554TMC3    C5 8219   2.815   1.243  11.460 -0.5973  0.7860  0.1033
  554TMC3    C6 8220   2.731   1.188  11.368  0.2991 -0.3239  0.4079
  554TMC3     C 8221   2.863   0.968  11.698 -0.4319  0.4173  0.2108
  554TMC3     O 8222   2.970   1.004  11.746  0.2574  0.0235 -0.5368
  554TMC3     H 8223   2.684   0.893  11.505  1.9317 -0.2392  3.0417
  554TMC3    H1 8224   2.919   1.218  11.643  1.8547  0.3918 -0.8076
  554TMC3    H2 8225   2.702   1.253  11.286  1.3549 -0.0672  0.2280
  554TMC3    C7 8226   2.891   1.349  11.404 -0.5658  0.0777  0.6756
  554TMC3    C8 8227   2.613   1.011  11.271  0.6890  0.1961  0.3763
  554TMC3    O1 8228   2.836   1.425  11.327  0.5775  0.7192  0.1162
  554TMC3    O2 8229   2.626   1.077  11.169  0.6928 -0.4630 -0.0967
  555TMC3    C1 8230   1.472   0.163  15.186  0.5818  0.2805  0.4261
  555TMC3    C2 8231   1.424   0.263  15.263  0.6681 -0.3678  0.4884
  555TMC3    C3 8232   1.431   0.232  15.399 -0.4202  0.4515 -0.0858
  555TMC3    C4 8233   1.506   0.041  15.233 -0.0217 -0.8485  0.0521
  555TMC3    C5 8234   1.489   0.014  15.370  0.1836  0.1777  0.0635
  555TMC3    C6 8235   1.454   0.112  15.454  0.1382  0.1701  0.0037
  555TMC3     C 8236   1.540   0.204  15.062  0.2881 -0.8263  0.3988
  555TMC3     O 8237   1.624   0.133  15.016  0.6893  0.1904 -0.2699
  555TMC3     H 8238   1.390   0.360  15.229  0.0921 -0.8366 -0.2916
  555TMC3    H1 8239   1.548   4.702  15.156  0.1415 -1.9419  1.0657
  555TMC3    H2 8240   1.430   0.090  15.557 -0.7079  1.5643  0.1027
  555TMC3    C7 8241   1.496   4.606  15.433  0.1194 -0.5819  0.2135
  555TMC3    C8 8242   1.441   0.344  15.493  0.5085  0.5568  0.6323
  555TMC3    O1 8243   1.524   4.608  15.553  0.1106  0.0426  0.1103
  555TMC3    O2 8244   1.389   0.446  15.449  0.2339  0.2764 -0.2560
  556MPD2     C 8245   0.738   1.890  10.731  0.2880  0.2784 -0.0311
  556MPD2    C1 8246   0.606   1.857  10.771 -0.1216  0.4248 -1.0785
  556MPD2    C2 8247   0.529   1.776  10.695  0.0689  0.0694  0.8247
  556MPD2    C3 8248   0.586   1.721  10.577 -0.4971 -0.3718 -0.6892
  556MPD2    C4 8249   0.716   1.751  10.542  0.5473  0.0596  0.0127
  556MPD2    C5 8250   0.792   1.829  10.622  0.0717 -0.1793 -0.0292
  556MPD2     H 8251   0.426   1.755  10.724 -0.6594  1.3189 -0.7990
  556MPD2    H1 8252   0.762   1.695  10.462 -0.4632 -0.7116 -0.0244
  556MPD2    H2 8253   0.801   1.957  10.789 -0.1804  0.6576  0.0362
  556MPD2    H3 8254   0.894   1.852  10.593  0.0385 -0.6422 -0.5098
  556MPD2     N 8255   0.506   1.621  10.504 -0.1782  0.3379  0.0984
  556MPD2    H5 8256   0.409   1.613  10.533  0.4290 -2.4770  1.4061
  556MPD2    N1 8257   0.557   1.931  10.882 -0.3260  0.0577 -0.1526
  556MPD2    H7 8258   0.619   1.996  10.929  0.9248 -1.5293  0.3606
  557TMC3    C1 8259   0.462   1.428  10.351  0.7219 -0.3216 -0.1343
  557TMC3    C2 8260   0.504   1.354  10.249 -0.5635  0.1557 -0.0119
  557TMC3    C3 8261   0.411   1.277  10.182  0.0726 -0.6159 -0.0394
  557TMC3    C4 8262   0.334   1.413  10.405  0.4825  0.0214  0.2445
  557TMC3    C5 8263   0.250   1.336  10.338 -0.1443  0.7605  0.1896
  557TMC3    C6 8264   0.282   1.264  10.228  0.0779  0.5740 -0.2521
  557TMC3     C 8265   0.555   1.526  10.413  0.3516 -0.4323  1.0281
  557TMC3     O 8266   0.667   1.520  10.366 -0.3838  0.7814 -0.7910
  557TMC3     H 8267   0.611   1.353  10.230 -1.1348  0.8286 -3.1724
  557TMC3    H1 8268   0.291   1.478  10.480  0.1091 -0.0432  0.0877
  557TMC3    H2 8269   0.202   1.201  10.191  0.0233 -0.2150  1.1920
  557TMC3    C7 8270   0.117   1.384  10.335  0.5110  0.0024 -0.2510
  557TMC3    C8 8271   0.465   1.189  10.085  0.2262 -0.2359 -0.4015
  557TMC3    O1 8272   0.074   1.438  10.436 -0.8955  0.2290 -0.1881
  557TMC3    O2 8273   0.570   1.227  10.032  0.1718 -0.2145  0.6915
  558TMC3    C1 8274   2.842   0.139   9.760  0.4235 -0.1746  0.9020
  558TMC3    C2 8275   2.793   0.081   9.878  0.5416 -0.1997 -0.0473
  558TMC3    C3 8276   2.658   0.075   9.893 -0.4963 -0.4720 -0.4885
  558TMC3    C4 8277   2.754   0.202   9.671  0.3661 -0.0255  0.1414
  558TMC3    C5 8278   2.624   0.185   9.695 -0.3245 -0.0528  0.0313
  558TMC3    C6 8279   2.574   0.109   9.794 -0.2017 -0.6399  0.0434
  558TMC3     C 8280   2.978   0.122   9.730  0.6650 -0.4385 -0.2361
  558TMC3     O 8281   3.044   0.059   9.815 -0.4485  0.1618  0.1572
  558TMC3     H 8282   2.857   0.063   9.964  1.4986  2.2848 -0.2271
  558TMC3    H1 8283   2.782   0.253   9.579 -2.9950 -0.4493 -1.1260
  558TMC3    H2 8284   2.466   0.093   9.797 -0.4722  1.2100  0.1149
  558TMC3    C7 8285   2.548   0.209   9.576  0.6333  0.4363  0.4670
  558TMC3    C8 8286   2.598   0.022  10.013 -0.2990 -0.8575 -0.7156
  558TMC3    O1 8287   2.572   0.303   9.507 -0.2934 -0.7286  0.2864
  558TMC3    O2 8288   2.478   0.044  10.029  0.5263 -0.2691 -0.6425
  559MPD2     C 8289   2.494   0.362  10.410 -0.0990  0.2590  0.4569
  559MPD2    C1 8290   2.496   0.263  10.499 -0.8361 -0.0702  0.1425
  559MPD2    C2 8291   2.599   0.252  10.585  0.9977  0.1047 -0.2094
  559MPD2    C3 8292   2.699   0.352  10.595  0.3686 -0.4459  0.2628
  559MPD2    C4 8293   2.704   0.450  10.501  0.4651  0.6675  0.1044
  559MPD2    C5 8294   2.596   0.457  10.408  0.1005 -0.6072 -0.2352
  559MPD2     H 8295   2.597   0.175  10.661  0.5660  0.6206  0.2964
  559MPD2    H1 8296   2.784   0.524  10.499  0.1417  1.0311  0.6178
  559MPD2    H2 8297   2.404   0.381  10.352  1.0422 -0.8622 -1.6432
  559MPD2    H3 8298   2.603   0.540  10.337  1.9942 -2.3997 -2.1466
  559MPD2     N 8299   2.791   0.342  10.705  0.2611 -0.1323  0.1654
  559MPD2    H5 8300   2.768   0.272  10.775  0.4989 -1.0702 -0.6883
  559MPD2    N1 8301   2.379   0.183  10.499 -0.0718 -0.2116 -0.3984
  559MPD2    H7 8302   2.305   0.216  10.438 -0.1659 -0.5136 -0.4466
  560TMC3    C1 8303   2.950   0.372  10.870 -0.2075  0.2655 -0.3579
  560TMC3    C2 8304   2.980   0.240  10.866 -0.0243  0.1435  0.1110
  560TMC3    C3 8305   3.070   0.189  10.961 -0.0478  0.0049 -0.5448
  560TMC3    C4 8306   3.016   0.457  10.960 -0.6678 -0.0677  0.4080
  560TMC3    C5 8307   3.104   0.405  11.048 -0.6489 -0.4896 -0.0284
  560TMC3    C6 8308   3.124   0.274  11.054 -0.2407 -0.2869 -0.4478
  560TMC3     C 8309   2.883   0.424  10.752  1.0385 -0.5037 -0.4980
  560TMC3     O 8310   2.913   0.531  10.704 -0.1541  0.3986 -0.1675
  560TMC3     H 8311   2.948   0.188  10.777 -0.6154 -1.0869  1.0271
  560TMC3    H1 8312   3.001   0.565  10.959 -1.7267 -0.2052  0.9413
  560TMC3    H2 8313   3.181   0.227  11.133  0.2174  0.8290 -0.1203
  560TMC3    C7 8314   3.184   0.506  11.119  0.0977  0.5335 -0.1958
  560TMC3    C8 8315   3.100   0.047  10.957  0.4591  0.1213 -0.2551
  560TMC3    O1 8316   3.176   0.618  11.076  0.3011  0.4385  0.7398
  560TMC3    O2 8317   3.036   4.704  10.874 -0.0127  0.7489 -0.1369
  561TMC3    C1 8318   0.390   4.105  11.777 -0.1453 -0.3367 -0.6092
  561TMC3    C2 8319   0.345   4.098  11.908 -0.1456  0.1572  0.5725
  561TMC3    C3 8320   0.443   4.127  12.003  0.1254 -0.4146  0.9726
  561TMC3    C4 8321   0.522   4.123  11.744  0.3005 -0.9618  0.1417
  561TMC3    C5 8322   0.613   4.145  11.850 -0.6473  0.3082 -0.0433
  561TMC3    C6 8323   0.574   4.137  11.980 -0.0090 -0.2436  0.1516
  561TMC3     C 8324   0.301   4.176  11.700 -0.9364  0.4173  0.8254
  561TMC3     O 8325   0.207   4.228  11.758 -0.4423 -0.0702  0.2620
  561TMC3     H 8326   0.242   4.083  11.940 -0.1576  1.2996  1.0694
  561TMC3    H1 8327   0.557   4.123  11.641  0.5674 -0.8062  0.2341
  561TMC3    H2 8328   0.642   4.164  12.060 -1.1714 -0.9213  1.3760
  561TMC3    C7 8329   0.752   4.142  11.825 -0.6340 -0.2087  0.4460
  561TMC3    C8 8330   0.391   4.157  12.133 -0.2549 -0.8546 -0.0687
  561TMC3    O1 8331   0.812   4.170  11.928 -0.4412 -0.2161  0.2114
  561TMC3    O2 8332   0.453   4.128  12.235  0.4680  0.4392 -0.2013
  562TMC3    C1 8333   1.087   1.167  16.410  1.1093  0.4218  0.3134
  562TMC3    C2 8334   1.007   1.224  16.313  0.3965  0.2520  0.4277
  562TMC3    C3 8335   0.949   1.140  16.228  0.3590 -0.0833  0.1631
  562TMC3    C4 8336   1.123   1.031  16.404  0.5713 -0.2467 -0.6304
  562TMC3    C5 8337   1.091   0.968  16.291  0.5840  0.4371 -0.0137
  562TMC3    C6 8338   0.999   1.016  16.200 -0.2634  0.8026  0.2853
  562TMC3     C 8339   1.162   1.254  16.495 -0.3995 -0.1638 -0.6342
  562TMC3     O 8340   1.212   1.206  16.595 -0.0821  0.3792  0.6198
  562TMC3     H 8341   0.960   1.322  16.314 -0.8816 -0.3738  0.9076
  562TMC3    H1 8342   1.189   0.985  16.476 -0.1952  0.5539  0.5876
  562TMC3    H2 8343   0.968   0.962  16.111 -1.2535  3.2751 -0.8866
  562TMC3    C7 8344   1.110   0.825  16.277 -0.0327  0.7338  0.0966
  562TMC3    C8 8345   0.810   1.151  16.182 -0.2117 -0.1781 -0.3830
  562TMC3    O1 8346   1.035   0.771  16.200  0.2661  0.7083  0.4635
  562TMC3    O2 8347   0.732   1.196  16.262 -0.2990 -0.0883 -0.7256
  563MPD2     C 8348   3.785   1.346  15.880  0.1063 -0.3074 -0.7536
  563MPD2    C1 8349   3.698   1.381  15.984 -0.1204 -0.5293  0.1259
  563MPD2    C2 8350   3.727   1.467  16.083  0.5753 -0.6164 -0.4865
  563MPD2    C3 8351   3.847   1.523  16.086  0.8343 -0.3258 -0.5746
  563MPD2    C4 8352   3.940   1.492  15.986  0.4156 -0.1875  0.0113
  563MPD2    C5 8353   3.910   1.395  15.892 -0.1689 -1.1746  0.4320
  563MPD2     H 8354   3.660   1.493  16.164  0.7423 -0.3344 -0.4418
  563MPD2    H1 8355   4.035   1.542  15.975  0.3146 -0.1120 -0.5232
  563MPD2    H2 8356   3.757   1.272  15.806  1.6143 -3.1805  1.4775
  563MPD2    H3 8357   3.980   1.357  15.818 -0.9981  1.4202 -1.6666
  563MPD2     N 8358   3.878   1.614  16.189 -0.2306  0.4107  1.2403
  563MPD2    H5 8359   3.811   1.642  16.260 -0.0375  2.1772  0.7146
  563MPD2    N1 8360   3.572   1.311  15.978  1.1235 -0.7792 -0.4572
  563MPD2    H7 8361   3.556   1.243  15.904 -0.7615 -0.8290 -0.0061
  564TMC3    C1 8362   3.352   1.242  16.066 -0.2984  0.8185 -0.6813
  564TMC3    C2 8363   3.230   1.308  16.097 -0.2890 -0.2714  0.6656
  564TMC3    C3 8364   3.153   1.243  16.190 -0.0426  0.5436 -0.1607
  564TMC3    C4 8365   3.383   1.123  16.128  0.1129 -0.3869  0.8927
  564TMC3    C5 8366   3.298   1.049  16.198  0.1721 -0.5815  0.5599
  564TMC3    C6 8367   3.175   1.105  16.231  0.2464 -0.2159  0.4450
  564TMC3     C 8368   3.468   1.332  16.062 -1.0157 -0.0060 -0.9293
  564TMC3     O 8369   3.454   1.422  16.144  0.0577  0.6223 -0.6507
  564TMC3     H 8370   3.204   1.401  16.048 -0.5671 -1.5589 -1.6045
  564TMC3    H1 8371   3.479   1.079  16.106 -0.2842 -0.1278 -1.3921
  564TMC3    H2 8372   3.102   1.067  16.302 -0.6777 -1.5220 -1.1859
  564TMC3    C7 8373   3.357   0.976  16.308  0.1002 -0.1607 -0.4264
  564TMC3    C8 8374   3.039   1.320  16.234  0.2867 -0.0785 -0.4573
  564TMC3    O1 8375   3.279   0.909  16.378  0.0457 -0.1102 -0.2928
  564TMC3    O2 8376   2.979   1.392  16.155  0.0254  0.4139 -0.6440
  565TMC3    C1 8377   4.317   3.304  10.064  0.2830  0.8157 -0.5767
  565TMC3    C2 8378   4.309   3.174  10.106 -0.1611  0.0891 -0.2088
  565TMC3    C3 8379   4.266   3.082  10.011 -0.5551 -0.2964 -0.0435
  565TMC3    C4 8380   4.291   3.339   9.937  0.9047  0.2184 -0.2734
  565TMC3    C5 8381   4.239   3.247   9.855  0.0692 -0.0489  0.1369
  565TMC3    C6 8382   4.218   3.117   9.891 -0.3760  0.1432 -0.3591
  565TMC3     C 8383   4.387   3.401  10.140 -0.4041  0.2281 -0.2711
  565TMC3     O 8384   4.442   3.495  10.081 -0.5134  0.0733 -0.0782
  565TMC3     H 8385   4.341   3.139  10.203 -2.4423 -1.0770  0.1322
  565TMC3    H1 8386   4.303   3.441   9.904 -1.6195 -0.1396 -2.2775
  565TMC3    H2 8387   4.211   3.035   9.820 -0.0030  0.0808 -0.3216
  565TMC3    C7 8388   4.246   3.278   9.714 -0.1165  0.3793 -0.3169
  565TMC3    C8 8389   4.271   2.940  10.046 -0.0025  0.0413  0.0175
  565TMC3    O1 8390   4.307   3.377   9.684 -0.1105  0.4340 -0.4495
  565TMC3    O2 8391   4.344   2.910  10.138  0.0779 -0.3318  0.2484
  566MPD2     C 8392   0.800   0.451  14.165  0.5191 -0.1381 -0.1488
  566MPD2    C1 8393   0.920   0.393  14.120 -0.5176 -0.1061 -0.1464
  566MPD2    C2 8394   0.909   0.272  14.053 -0.1240  0.8874  0.5465
  566MPD2    C3 8395   0.790   0.211  14.035  0.3063  0.2407  0.4471
  566MPD2    C4 8396   0.669   0.264  14.082 -0.1316 -0.2815 -0.8727
  566MPD2    C5 8397   0.681   0.379  14.160 -0.2010 -0.0388  0.2548
  566MPD2     H 8398   0.996   0.223  14.011 -0.0169  0.9244  0.7271
  566MPD2    H1 8399   0.570   0.221  14.066 -1.5994  2.3038  1.2938
  566MPD2    H2 8400   0.802   0.543  14.221 -1.3465 -0.0730 -0.1938
  566MPD2    H3 8401   0.593   0.418  14.210 -0.0791 -0.2316  0.6157
  566MPD2     N 8402   0.788   0.085  13.959 -0.2192  0.1552 -0.3978
  566MPD2    H5 8403   0.696   0.064  13.921  0.2279 -0.6027 -1.0655
  566MPD2    N1 8404   1.053   0.459  14.128  0.2653 -0.5299  0.2945
  566MPD2    H7 8405   1.125   0.429  14.063  3.1116  1.5203  2.4825
  567TMC3    C1 8406   1.230   0.584  14.203 -0.5143  0.0240  0.3081
  567TMC3    C2 8407   1.272   0.589  14.072 -0.0924 -0.6675  0.0414
  567TMC3    C3 8408   1.398   0.549  14.041  0.4098 -0.5257 -0.5210
  567TMC3    C4 8409   1.299   0.520  14.302 -0.4674  0.2436 -0.0779
  567TMC3    C5 8410   1.421   0.471  14.259  1.3747 -0.5473  0.7845
  567TMC3    C6 8411   1.478   0.496  14.135  0.3190 -0.2693 -0.2906
  567TMC3     C 8412   1.091   0.554  14.217  1.2749 -0.0915  0.6717
  567TMC3     O 8413   1.027   0.593  14.317  0.2676  0.0793  0.0236
  567TMC3     H 8414   1.210   0.631  13.993 -1.3445 -3.0323 -0.2356
  567TMC3    H1 8415   1.246   0.504  14.395 -1.0450 -0.0842 -0.4589
  567TMC3    H2 8416   1.569   0.445  14.107  1.7395  1.4985  1.1439
  567TMC3    C7 8417   1.480   0.364  14.324 -0.0380 -0.4520  0.3695
  567TMC3    C8 8418   1.440   0.585  13.905 -0.6671 -0.1551  0.2728
  567TMC3    O1 8419   1.590   0.324  14.284 -0.2874  0.3711 -0.3157
  567TMC3    O2 8420   1.353   0.578  13.818  0.2788  0.2480 -0.5132
  568MPD2     C 8421   4.039   0.860  17.268 -0.8844 -0.0834 -0.7550
  568MPD2    C1 8422   3.906   0.882  17.272 -0.3501  0.2085 -0.1046
  568MPD2    C2 8423   3.854   0.979  17.191 -0.8763  0.0422 -0.2016
  568MPD2    C3 8424   3.934   1.044  17.098 -0.3136 -0.0371  0.5223
  568MPD2    C4 8425   4.068   1.017  17.092 -0.1970 -0.3882  0.4558
  568MPD2    C5 8426   4.114   0.926  17.179 -0.3621 -0.4168  0.0025
  568MPD2     H 8427   3.749   1.003  17.202 -1.1162 -0.7137 -0.8230
  568MPD2    H1 8428   4.133   1.054  17.014 -2.2777  1.5202 -0.3651
  568MPD2    H2 8429   4.088   0.794  17.338 -1.3019 -2.5653 -2.7709
  568MPD2    H3 8430   4.220   0.905  17.175  0.0383  1.0914  3.1940
  568MPD2     N 8431   3.867   1.121  17.000  0.6368  0.2855 -0.1683
  568MPD2    H5 8432   3.767   1.136  17.014  0.9628  1.1074  1.3530
  568MPD2    N1 8433   3.828   0.799  17.354 -0.6467  0.1368  0.9508
  568MPD2    H7 8434   3.885   0.737  17.411  2.9573  1.1129 -1.5335
  569TMC3    C1 8435   3.825   1.259  16.812  0.0697  0.0219 -0.0081
  569TMC3    C2 8436   3.876   1.355  16.732  0.3094 -0.1007 -0.1041
  569TMC3    C3 8437   3.790   1.416  16.653 -0.3921  0.2400  0.6172
  569TMC3    C4 8438   3.688   1.227  16.820  0.5451 -0.5926 -0.3224
  569TMC3    C5 8439   3.604   1.297  16.737 -0.3524 -0.2402  0.3309
  569TMC3    C6 8440   3.653   1.391  16.650 -0.9760 -0.5821 -0.0769
  569TMC3     C 8441   3.927   1.187  16.895 -0.0804 -0.0786  0.1992
  569TMC3     O 8442   4.045   1.199  16.864  0.4638 -0.6622  0.4868
  569TMC3     H 8443   3.983   1.374  16.731  0.4042 -0.6122  0.2375
  569TMC3    H1 8444   3.651   1.137  16.868 -2.0571  0.4575 -0.3661
  569TMC3    H2 8445   3.583   1.442  16.585 -2.5127 -0.6657  1.4983
  569TMC3    C7 8446   3.466   1.262  16.750  0.6361 -0.7625 -0.4515
  569TMC3    C8 8447   3.825   1.541  16.598 -0.7255  0.1684 -0.7554
  569TMC3    O1 8448   3.434   1.222  16.862 -0.0977 -0.2857 -0.2207
  569TMC3    O2 8449   3.785   1.571  16.487  0.4710 -0.1209 -0.3900
  570TMC3    C1 8450   2.986   4.467  16.309  0.5567 -0.4211 -0.3243
  570TMC3    C2 8451   3.031   4.518  16.193  0.1080 -0.2519  1.0695
  570TMC3    C3 8452   3.043   4.652  16.181  0.0253 -0.0355 -0.3754
  570TMC3    C4 8453   2.960   4.551  16.412 -0.2320  0.0925  0.4034
  570TMC3    C5 8454   2.976   4.688  16.397  0.5163 -0.7924  0.4642
  570TMC3    C6 8455   3.021   0.019  16.282  0.1124  0.2373  0.6666
  570TMC3     C 8456   2.975   4.327  16.329 -0.0175 -0.1004  0.4039
  570TMC3     O 8457   2.995   4.254  16.232  0.2846  0.5984  0.0846
  570TMC3     H 8458   3.058   4.446  16.117  2.0132  0.3443  1.2044
  570TMC3    H1 8459   2.899   4.524  16.497 -0.6541 -0.0749  0.0485
  570TMC3    H2 8460   3.037   0.125  16.264  0.1692  0.4948  2.2360
  570TMC3    C7 8461   2.943   0.051  16.510  0.2442  0.0395 -0.2213
  570TMC3    C8 8462   3.107   4.702  16.059 -0.3581 -0.1915  0.1018
  570TMC3    O1 8463   2.915   4.720  16.615 -0.0926  0.3521 -0.1335
  570TMC3    O2 8464   3.148   0.096  16.059  0.4247  0.1708  0.1814
  571MPD2     C 8465   0.726   0.469   0.568 -0.3157  1.0294 -0.3891
  571MPD2    C1 8466   0.702   0.514   0.442  0.1248  0.2702 -0.5203
  571MPD2    C2 8467   0.692   0.649   0.425  0.4598 -0.4056  0.1023
  571MPD2    C3 8468   0.713   0.740   0.535  0.4852 -0.8922  0.4745
  571MPD2    C4 8469   0.726   0.685   0.658  0.4546 -1.2849  0.3468
  571MPD2    C5 8470   0.727   0.547   0.672 -0.4975  0.0955 -0.7074
  571MPD2     H 8471   0.684   0.696   0.327 -1.8895 -0.3937  0.2983
  571MPD2    H1 8472   0.748   0.755   0.737 -0.8932 -1.1854  0.6243
  571MPD2    H2 8473   0.741   0.362   0.580  0.2138  1.1378 -0.0825
  571MPD2    H3 8474   0.753   0.503   0.768 -0.2645  1.0844 -0.3073
  571MPD2     N 8475   0.713   0.879   0.524 -0.1275  0.5333 -0.2105
  571MPD2    H5 8476   0.700   0.919   0.617  0.7935  0.9448 -0.2658
  571MPD2    N1 8477   0.703   0.422   0.336 -0.4465 -0.0948 -0.3027
  571MPD2    H7 8478   0.719   0.328   0.369 -0.1352 -0.2154 -0.8097
  572TMC3    C1 8479   0.675   1.094   0.428  0.3675 -0.1782 -1.0015
  572TMC3    C2 8480   0.596   1.139   0.532 -0.0567  0.2289  0.2197
  572TMC3    C3 8481   0.552   1.263   0.528 -0.7363 -0.1252 -0.4484
  572TMC3    C4 8482   0.724   1.178   0.326 -0.8374 -0.5033 -0.5256
  572TMC3    C5 8483   0.671   1.306   0.338  0.3222 -0.8258  0.3731
  572TMC3    C6 8484   0.591   1.355   0.440 -0.3380  0.6166  0.1236
  572TMC3     C 8485   0.691   0.951   0.409  0.1220  0.8269  0.0722
  572TMC3     O 8486   0.696   0.915   0.292 -0.4086  0.4523  0.0887
  572TMC3     H 8487   0.530   1.069   0.582 -2.3226  0.0390 -3.0597
  572TMC3    H1 8488   0.786   1.132   0.250 -1.4932 -1.7600 -0.2947
  572TMC3    H2 8489   0.543   1.451   0.431  4.1762  2.7572 -1.4432
  572TMC3    C7 8490   0.709   1.398   0.240 -0.3323  0.2510 -0.6804
  572TMC3    C8 8491   0.457   1.299   0.624 -0.3442  0.1825  0.2205
  572TMC3    O1 8492   0.632   1.483   0.211 -0.1629 -0.1157 -0.1924
  572TMC3    O2 8493   0.375   1.380   0.582 -1.3270 -0.6726 -0.6748
  573MPD2     C 8494   1.733   1.389   0.499  0.0107 -0.0674 -0.4898
  573MPD2    C1 8495   1.813   1.497   0.529  0.4909  0.1910  0.1427
  573MPD2    C2 8496   1.898   1.542   0.426  0.5982  0.4947  0.2542
  573MPD2    C3 8497   1.890   1.485   0.302  0.1200 -0.6961  0.1396
  573MPD2    C4 8498   1.795   1.392   0.273 -0.0260  0.0723 -0.1054
  573MPD2    C5 8499   1.715   1.343   0.375 -0.1142 -0.6742  0.5012
  573MPD2     H 8500   1.975   1.616   0.447 -1.0167  2.5762 -1.1459
  573MPD2    H1 8501   1.780   1.358   0.171  0.8847  0.1100 -0.2443
  573MPD2    H2 8502   1.672   1.348   0.579  2.1613 -2.6063 -0.1441
  573MPD2    H3 8503   1.639   1.269   0.354  0.3815 -0.3127 -2.6305
  573MPD2     N 8504   1.967   1.534   0.191  0.3871  0.5753 -0.4488
  573MPD2    H5 8505   1.947   1.486   0.104  0.8419  0.8572 -0.7083
  573MPD2    N1 8506   1.817   1.542   0.663  0.5018 -0.0983 -0.2401
  573MPD2    H7 8507   1.735   1.516   0.717  0.7851  0.0320  0.2482
  574TMC3    C1 8508   2.120   1.659   0.059 -0.5632 -0.4519  0.2578
  574TMC3    C2 8509   2.066   1.583  17.659  0.0256  0.1048  0.7000
  574TMC3    C3 8510   2.017   1.652  17.551 -0.1453 -0.6726 -0.1619
  574TMC3    C4 8511   2.165   1.786   0.041 -0.0960  0.0664 -0.6274
  574TMC3    C5 8512   2.147   1.839  17.613 -0.2367 -0.2786  0.6485
  574TMC3    C6 8513   2.058   1.782  17.526  0.0976 -0.4861 -0.1843
  574TMC3     C 8514   2.067   1.632   0.190  0.5782 -0.9686 -0.2224
  574TMC3     O 8515   2.103   1.708   0.280  0.4554 -0.1005 -0.3911
  574TMC3     H 8516   2.036   1.479  17.666  0.7264 -0.2992 -2.2150
  574TMC3    H1 8517   2.197   1.840   0.130  1.3863 -3.6851  1.1216
  574TMC3    H2 8518   2.034   1.833  17.433 -0.9127 -1.6377 -0.5515
  574TMC3    C7 8519   2.224   1.952  17.571 -0.5581  0.2541  0.0801
  574TMC3    C8 8520   1.868   1.657  17.550  0.1892 -0.3123  0.0744
  574TMC3    O1 8521   2.189   2.003  17.466 -0.6053 -0.0939 -0.2263
  574TMC3    O2 8522   1.811   1.577  17.625 -0.3221  0.5806 -0.0679
  575TMC3    C1 8523   4.622   2.341  10.536  0.5386  0.4857 -0.1967
  575TMC3    C2 8524   4.654   2.223  10.480  0.2023 -0.4873  0.2473
  575TMC3    C3 8525   4.605   2.182  10.355  0.2481 -0.0308 -0.6317
  575TMC3    C4 8526   4.536   2.423  10.471 -0.9607  0.6947  0.7150
  575TMC3    C5 8527   4.480   2.379  10.353  0.7494  0.9107  0.1142
  575TMC3    C6 8528   4.512   2.259  10.291 -0.6409  0.4580  0.2740
  575TMC3     C 8529   4.694   2.382  10.648 -0.0343  0.2798  0.4213
  575TMC3     O 8530   4.710   2.292  10.731 -0.6338  0.3208 -0.2644
  575TMC3     H 8531   4.722   2.154  10.529  1.1650  0.4562  0.2336
  575TMC3    H1 8532   4.475   2.492  10.529 -2.0884  0.8707 -0.6719
  575TMC3    H2 8533   4.466   2.228  10.198  2.8781  1.6392 -1.8336
  575TMC3    C7 8534   4.385   2.477  10.297  0.0614  0.3679 -0.2616
  575TMC3    C8 8535   4.663   2.067  10.297 -0.7440  0.5464  0.1174
  575TMC3    O1 8536   4.393   2.588  10.343 -0.1801 -0.1398  0.6441
  575TMC3    O2 8537   4.715   1.983  10.371 -0.2394 -0.3791  0.0713
  576MPD2     C 8538   3.981   0.087  12.556  0.4341  0.0998  0.0866
  576MPD2    C1 8539   4.057   0.176  12.485  0.0336  0.8508  0.0331
  576MPD2    C2 8540   4.055   0.309  12.525  0.6687 -0.1616  0.3971
  576MPD2    C3 8541   3.971   0.350  12.632  0.0491 -0.0974  0.3431
  576MPD2    C4 8542   3.888   0.259  12.688  0.3160  0.6847 -0.0923
  576MPD2    C5 8543   3.897   0.128  12.649 -0.9510  0.0484 -0.0826
  576MPD2     H 8544   4.113   0.377  12.463 -3.0121  1.4207 -1.3761
  576MPD2    H1 8545   3.804   0.290  12.750  1.6740  0.6039  1.8117
  576MPD2    H2 8546   3.977   4.705  12.536 -3.7598  0.2077  0.3567
  576MPD2    H3 8547   3.825   0.053  12.681 -0.9367  0.9580  2.0458
  576MPD2     N 8548   3.979   0.487  12.661 -0.0294 -0.0596 -0.0248
  576MPD2    H5 8549   4.029   0.538  12.589  0.4671 -1.8928 -0.9866
  576MPD2    N1 8550   4.127   0.133  12.371 -0.2926 -0.0092 -0.4946
  576MPD2    H7 8551   4.202   0.189  12.333 -0.6129  1.5242  1.1249
  577TMC3    C1 8552   4.207   0.000  12.200  0.2735 -0.1370 -0.0728
  577TMC3    C2 8553   4.337   4.715  12.244 -0.1791  0.1769  0.5010
  577TMC3    C3 8554   4.418   4.617  12.188 -0.4633  0.2978  0.0954
  577TMC3    C4 8555   4.166   4.645  12.099  1.6630 -0.8136  0.4298
  577TMC3    C5 8556   4.252   4.553  12.048 -0.0086  0.7745 -0.4530
  577TMC3    C6 8557   4.381   4.531  12.087  0.0762 -0.2506  0.0350
  577TMC3     C 8558   4.103   0.016  12.298  0.3325 -0.4099  1.3470
  577TMC3     O 8559   4.022   4.653  12.310 -0.5639  0.0075 -0.0598
  577TMC3     H 8560   4.367   0.051  12.328  0.8091  2.1668 -1.3211
  577TMC3    H1 8561   4.066   4.660  12.058  1.2763  0.8229  1.9723
  577TMC3    H2 8562   4.428   4.441  12.050  0.0371 -0.4109  0.3727
  577TMC3    C7 8563   4.217   4.473  11.936 -0.1668 -0.7360 -0.4511
  577TMC3    C8 8564   4.526   4.576  12.267  0.1072 -0.0562  0.1029
  577TMC3    O1 8565   4.267   4.359  11.924 -0.7025 -0.0648 -0.2779
  577TMC3    O2 8566   4.546   4.617  12.382  0.4764 -0.2662  0.2027
  578MPD2     C 8567   1.199   0.005   1.553  0.3935 -0.9108 -0.1282
  578MPD2    C1 8568   1.332   0.036   1.548  0.3383  0.1926 -0.1914
  578MPD2    C2 8569   1.421   4.672   1.604 -0.5583  0.3392  0.3448
  578MPD2    C3 8570   1.373   4.546   1.648 -0.0958 -0.3859 -0.3725
  578MPD2    C4 8571   1.240   4.522   1.665  0.2416  0.4380  0.4710
  578MPD2    C5 8572   1.152   4.617   1.614  0.2069 -0.0981 -0.8122
  578MPD2     H 8573   1.528   4.688   1.597 -0.5083  1.2494  3.0010
  578MPD2    H1 8574   1.192   4.429   1.694 -1.1577  1.1270  0.3786
  578MPD2    H2 8575   1.123   0.078   1.525  0.9914 -0.6745 -1.1227
  578MPD2    H3 8576   1.046   4.598   1.621  0.0959  0.3921 -1.1830
  578MPD2     N 8577   1.467   4.447   1.680  0.3401 -0.0712  0.4479
  578MPD2    H5 8578   1.565   4.471   1.668  0.7090 -1.2287  1.1454
  578MPD2    N1 8579   1.369   0.161   1.491 -0.5248 -0.1918 -0.3580
  578MPD2    H7 8580   1.298   0.226   1.459  0.6248  1.8781  1.2969
  579TMC3    C1 8581   1.554   4.233   1.691  0.2647 -0.7177 -0.5225
  579TMC3    C2 8582   1.661   4.291   1.750 -0.2284  0.2656 -0.7067
  579TMC3    C3 8583   1.776   4.217   1.748  0.0713  0.1052  0.0556
  579TMC3    C4 8584   1.554   4.106   1.648  0.1063  0.5478 -0.0657
  579TMC3    C5 8585   1.663   4.029   1.658 -0.4107  0.2064 -0.4286
  579TMC3    C6 8586   1.778   4.087   1.705 -0.4124 -0.6797  0.3964
  579TMC3     C 8587   1.437   4.316   1.680  0.1979 -0.9715 -0.4437
  579TMC3     O 8588   1.331   4.256   1.653 -0.0345  0.1355 -0.3412
  579TMC3     H 8589   1.662   4.385   1.803  0.2247  0.1871 -0.5803
  579TMC3    H1 8590   1.456   4.074   1.614  0.4516  1.0885 -1.5794
  579TMC3    H2 8591   1.861   4.021   1.727  0.6086  0.9596  1.5066
  579TMC3    C7 8592   1.683   3.912   1.577  0.0232  0.6645  0.0590
  579TMC3    C8 8593   1.874   4.267   1.843 -0.3297 -0.0376 -0.0878
  579TMC3    O1 8594   1.785   3.852   1.596  0.0726  0.0407  0.0140
  579TMC3    O2 8595   1.835   4.324   1.946  0.2428 -0.3378  0.3953
  580TMC3    C1 8596   2.156   4.064  11.604  0.5819  1.2455 -0.6707
  580TMC3    C2 8597   2.242   4.136  11.682 -0.1556  0.1081 -0.5203
  580TMC3    C3 8598   2.318   4.070  11.777 -0.0103  1.2965 -0.0610
  580TMC3    C4 8599   2.144   3.928  11.605  0.3559  0.4570  0.1607
  580TMC3    C5 8600   2.234   3.863  11.694  0.1429 -0.2637 -0.3126
  580TMC3    C6 8601   2.326   3.929  11.773 -0.1825 -0.0276 -0.1525
  580TMC3     C 8602   2.082   4.144  11.511 -0.2961  0.0281 -0.5153
  580TMC3     O 8603   1.970   4.104  11.486  0.4933 -0.5267  0.2900
  580TMC3     H 8604   2.235   4.244  11.681 -0.4942  0.0962  0.1627
  580TMC3    H1 8605   2.075   3.877  11.538 -0.2482  1.9757 -0.3606
  580TMC3    H2 8606   2.380   3.877  11.851 -2.3922  1.0825  2.1288
  580TMC3    C7 8607   2.215   3.719  11.705 -0.2534 -0.0849 -0.3252
  580TMC3    C8 8608   2.448   4.135  11.787 -0.4178 -0.0378  0.1546
  580TMC3    O1 8609   2.107   3.677  11.673  0.5070 -0.0883  0.6330
  580TMC3    O2 8610   2.441   4.252  11.823 -0.1348 -0.9147 -0.1783
  581MPD2     C 8611   4.225   3.782  14.795 -0.1054  0.5713  0.3427
  581MPD2    C1 8612   4.094   3.758  14.841  0.0956  0.0471 -0.5441
  581MPD2    C2 8613   3.991   3.804  14.762  0.2743 -0.4122  0.8535
  581MPD2    C3 8614   4.014   3.880  14.650 -0.0206  0.0655  0.1410
  581MPD2    C4 8615   4.141   3.909  14.615 -0.2781 -0.4700 -0.6685
  581MPD2    C5 8616   4.244   3.853  14.680  0.6365  0.7215 -0.2998
  581MPD2     H 8617   3.890   3.796  14.799 -0.2200  0.3322 -0.3303
  581MPD2    H1 8618   4.159   3.977  14.533 -0.3651 -3.8904 -3.5416
  581MPD2    H2 8619   4.314   3.748  14.846 -0.1401  1.3741  0.9376
  581MPD2    H3 8620   4.343   3.889  14.655  0.7262  1.4391  1.0949
  581MPD2     N 8621   3.902   3.928  14.585 -0.1976  0.0309 -0.7710
  581MPD2    H5 8622   3.813   3.882  14.601 -0.2609  0.0443 -1.0913
  581MPD2    N1 8623   4.080   3.700  14.969  0.1424 -0.0306  0.2236
  581MPD2    H7 8624   4.168   3.684  15.018 -0.6608 -1.3502  1.2320
  582TMC3    C1 8625   3.979   3.678  15.177  0.2737 -0.7724 -0.2045
  582TMC3    C2 8626   4.093   3.621  15.226  1.0156  0.1948  0.5918
  582TMC3    C3 8627   4.125   3.646  15.358 -0.8445  0.1167  0.7389
  582TMC3    C4 8628   3.894   3.760  15.251 -0.3012 -0.3520 -0.3491
  582TMC3    C5 8629   3.932   3.778  15.379 -0.8419  0.7671 -0.7380
  582TMC3    C6 8630   4.052   3.734  15.431 -0.2102 -0.1702  0.0640
  582TMC3     C 8631   3.956   3.683  15.033  0.2008  0.1494 -0.5861
  582TMC3     O 8632   3.842   3.682  14.983 -0.0041 -0.5810  0.3601
  582TMC3     H 8633   4.152   3.553  15.165  0.5755  0.5019 -0.1845
  582TMC3    H1 8634   3.812   3.812  15.204 -1.9656 -2.5593  0.1015
  582TMC3    H2 8635   4.078   3.761  15.533  1.6399 -0.5891 -0.2981
  582TMC3    C7 8636   3.864   3.897  15.442 -0.2704 -0.2853  0.5706
  582TMC3    C8 8637   4.239   3.580  15.424 -0.4138 -0.1843  0.4170
  582TMC3    O1 8638   3.750   3.927  15.401  0.3445  0.4820 -0.6540
  582TMC3    O2 8639   4.267   3.464  15.401 -0.1749  0.8655  0.4083
  583MPD2     C 8640   4.645   0.273  17.044 -0.2305 -0.3098  1.0321
  583MPD2    C1 8641   4.669   0.402  17.017  0.1263 -0.1317 -0.0362
  583MPD2    C2 8642   4.624   0.498  17.106  0.3313  0.4683  0.1597
  583MPD2    C3 8643   4.558   0.462  17.218 -1.2434  0.2383 -0.4541
  583MPD2    C4 8644   4.541   0.328  17.246  0.5063 -0.5752 -0.3475
  583MPD2    C5 8645   4.590   0.234  17.159  0.1329  0.9461 -1.0630
  583MPD2     H 8646   4.642   0.600  17.074 -0.6413  0.1207 -1.5211
  583MPD2    H1 8647   4.490   0.300  17.338  2.0633 -1.5311  0.2078
  583MPD2    H2 8648   4.682   0.195  16.977  0.3690  0.3160  0.6382
  583MPD2    H3 8649   4.575   0.131  17.189 -0.3400  1.4583  0.4811
  583MPD2     N 8650   4.501   0.564  17.305  0.1362  0.1478 -0.1514
  583MPD2    H5 8651   4.522   0.660  17.283 -3.8398  1.1549  0.4701
  583MPD2    N1 8652   4.717   0.445  16.889  0.0062  0.4868  0.5242
  583MPD2    H7 8653   0.000   0.545  16.877  2.9057  0.1378 -0.3437
  584TMC3    C1 8654   4.373   0.664  17.475  0.1411 -0.0468 -0.3603
  584TMC3    C2 8655   4.378   0.785  17.410  0.5187 -0.4642 -0.2384
  584TMC3    C3 8656   4.368   0.895  17.486 -0.1811 -0.0526 -0.6512
  584TMC3    C4 8657   4.352   0.642  17.613 -0.1399 -0.1659  0.1407
  584TMC3    C5 8658   4.348   0.756  17.684  0.4591  0.6585 -0.6409
  584TMC3    C6 8659   4.358   0.881  17.624 -0.4684 -0.3981 -0.2992
  584TMC3     C 8660   4.412   0.543  17.406  0.5128  0.3642 -0.2276
  584TMC3     O 8661   4.393   0.439  17.464  0.0959  0.3561  0.1489
  584TMC3     H 8662   4.396   0.792  17.303  1.3913  0.6265 -0.0216
  584TMC3    H1 8663   4.355   0.544  17.659  0.7369  0.1416  0.7268
  584TMC3    H2 8664   4.345   0.966  17.690  0.5515 -0.1246 -0.4506
  584TMC3    C7 8665   4.350   0.752   0.123  0.0158  0.1046 -0.0957
  584TMC3    C8 8666   4.413   1.022  17.433  0.0667  0.3798 -0.4627
  584TMC3    O1 8667   4.392   0.650   0.174  0.2504  0.3303  0.0250
  584TMC3    O2 8668   4.406   1.042  17.314 -0.3084  0.3373  0.1477
  585MPD2     C 8669   3.679   4.530   0.425  0.4245 -0.3792 -0.0533
  585MPD2    C1 8670   3.687   4.392   0.439 -0.2414 -0.3821 -0.1504
  585MPD2    C2 8671   3.704   4.315   0.330 -0.2824 -0.3755  0.0727
  585MPD2    C3 8672   3.731   4.365   0.207 -0.1106 -0.1858 -0.8084
  585MPD2    C4 8673   3.714   4.505   0.189 -0.0150  0.3721 -0.5042
  585MPD2    C5 8674   3.687   4.581   0.304 -0.1113 -0.4685 -0.0835
  585MPD2     H 8675   3.709   4.207   0.323 -0.0058 -0.2589 -1.5138
  585MPD2    H1 8676   3.707   4.560   0.096 -1.8047  1.0457  0.0418
  585MPD2    H2 8677   3.656   4.601   0.504  3.3690  0.2183  0.2770
  585MPD2    H3 8678   3.669   4.687   0.288 -0.2995 -0.8182 -2.1981
  585MPD2     N 8679   3.772   4.292   0.098  1.0729 -0.0595 -0.4606
  585MPD2    H5 8680   3.764   4.329   0.004 -3.0075  0.1183 -0.0098
  585MPD2    N1 8681   3.644   4.345   0.564  0.4909  0.9094  0.3672
  585MPD2    H7 8682   3.602   4.409   0.631 -1.2634  1.1962 -0.9887
  586TMC3    C1 8683   3.834   4.116  17.666 -0.1978 -0.6252 -0.5975
  586TMC3    C2 8684   3.933   4.030  17.632  0.5118 -0.4504  0.0406
  586TMC3    C3 8685   3.915   3.953  17.520 -0.6992  0.4127 -0.3031
  586TMC3    C4 8686   3.713   4.112  17.598 -0.3702  0.7557 -0.1161
  586TMC3    C5 8687   3.692   4.019  17.497 -0.3129 -0.2182 -0.5109
  586TMC3    C6 8688   3.795   3.943  17.452  0.0675  0.0424 -0.3091
  586TMC3     C 8689   3.822   4.164   0.105  0.0812  0.4438  0.2399
  586TMC3     O 8690   3.872   4.100   0.195  0.9790 -0.1708  0.1019
  586TMC3     H 8691   4.015   4.013  17.700 -0.1021 -0.5245  0.7690
  586TMC3    H1 8692   3.626   4.168  17.631  0.0732  1.4470 -0.1050
  586TMC3    H2 8693   3.790   3.878  17.365 -2.4220 -0.5493  0.2745
  586TMC3    C7 8694   3.563   3.947  17.486  0.1575  0.0640  0.4946
  586TMC3    C8 8695   4.013   3.852  17.493  0.0312 -0.3125 -0.0971
  586TMC3    O1 8696   3.567   3.837  17.435  0.3288  0.2320 -1.0489
  586TMC3    O2 8697   3.974   3.753  17.432  0.0245  0.2723 -0.6716
  587TMC3    C1 8698   1.394   2.355  16.247 -0.2944  0.5040 -0.6211
  587TMC3    C2 8699   1.402   2.481  16.302  0.3534  0.2476 -0.5880
  587TMC3    C3 8700   1.495   2.569  16.254 -0.6338 -0.1256  0.3224
  587TMC3    C4 8701   1.487   2.308  16.154  0.6654  0.2526  0.0686
  587TMC3    C5 8702   1.573   2.399  16.107 -0.0159  0.4789  0.2495
  587TMC3    C6 8703   1.578   2.536  16.148 -0.7644  0.5271  0.1253
  587TMC3     C 8704   1.299   2.257  16.287 -0.4428 -0.3357 -0.1348
  587TMC3     O 8705   1.325   2.140  16.265  0.1364 -0.0501  0.4910
  587TMC3     H 8706   1.333   2.516  16.377 -1.2283  2.2555 -2.9521
  587TMC3    H1 8707   1.468   2.212  16.108 -0.7711  0.2731  0.6068
  587TMC3    H2 8708   1.645   2.612  16.109 -1.1410  1.1895  0.7603
  587TMC3    C7 8709   1.687   2.354  16.028  0.7854 -0.4774 -0.5404
  587TMC3    C8 8710   1.493   2.705  16.305  0.2069 -0.4754 -0.5320
  587TMC3    O1 8711   1.744   2.445  15.967  0.2039 -0.3349 -0.0900
  587TMC3    O2 8712   1.594   2.770  16.297 -0.2288 -0.0255  0.0394
  588TMC3    C1 8713   4.313   0.567   9.566 -0.6964  0.1040  0.2282
  588TMC3    C2 8714   4.283   0.427   9.579 -0.0183  0.0736 -0.1771
  588TMC3    C3 8715   4.349   0.353   9.672  0.2876  0.4086  0.0549
  588TMC3    C4 8716   4.414   0.627   9.638  0.5427  0.2639  0.1278
  588TMC3    C5 8717   4.483   0.548   9.728  0.8216 -0.5670  0.5684
  588TMC3    C6 8718   4.449   0.413   9.743  0.4052  0.2539  1.1102
  588TMC3     C 8719   4.229   0.650   9.489 -0.2919 -0.5649 -0.4399
  588TMC3     O 8720   4.117   0.614   9.459 -0.0722 -0.2477  0.0975
  588TMC3     H 8721   4.198   0.375   9.536 -1.3653 -0.7171  3.4626
  588TMC3    H1 8722   4.424   0.734   9.643  1.3628  0.1380  1.3462
  588TMC3    H2 8723   4.492   0.361   9.828 -0.6833 -0.5728  1.1613
  588TMC3    C7 8724   4.601   0.607   9.791 -0.0280  0.3717 -1.0745
  588TMC3    C8 8725   4.345   0.206   9.656  0.1206  0.4861 -0.2335
  588TMC3    O1 8726   4.649   0.552   9.887 -0.5106 -0.2549 -0.2785
  588TMC3    O2 8727   4.310   0.148   9.555  0.0907 -0.6103 -0.0309
  589TMC3    C1 8728   2.431   2.691   1.303  0.5648  0.9755 -0.9386
  589TMC3    C2 8729   2.527   2.766   1.356  0.5517 -0.1702 -0.4171
  589TMC3    C3 8730   2.640   2.789   1.274  0.3211  0.3619  0.0942
  589TMC3    C4 8731   2.442   2.644   1.174  0.2635  0.2268  0.1685
  589TMC3    C5 8732   2.550   2.672   1.091  0.0056  0.0748 -0.3875
  589TMC3    C6 8733   2.653   2.747   1.142 -0.6984 -0.1124 -0.0422
  589TMC3     C 8734   2.315   2.657   1.387 -0.4505 -0.1948 -0.9444
  589TMC3     O 8735   2.338   2.668   1.505 -0.1794  0.9025  0.0313
  589TMC3     H 8736   2.516   2.789   1.461  0.7342  2.6935 -1.0253
  589TMC3    H1 8737   2.376   2.561   1.150 -0.7185  0.8938  0.5519
  589TMC3    H2 8738   2.739   2.760   1.078 -1.8476  1.7526 -1.2194
  589TMC3    C7 8739   2.588   2.572   0.989  0.0541  0.1308  0.0518
  589TMC3    C8 8740   2.762   2.773   1.357 -0.4712  0.3208 -0.2865
  589TMC3    O1 8741   2.553   2.459   1.011 -0.0352 -0.1981  0.1030
  589TMC3    O2 8742   2.737   2.804   1.473 -0.5865  0.0367  0.2706
  590MPD2     C 8743   2.567   1.381  16.635 -0.1659  0.3428 -0.2401
  590MPD2    C1 8744   2.493   1.437  16.531  0.4966 -0.4757  0.2915
  590MPD2    C2 8745   2.565   1.532  16.452  0.0922  0.3914 -0.3156
  590MPD2    C3 8746   2.699   1.549  16.461  0.2770 -0.7109 -0.1367
  590MPD2    C4 8747   2.770   1.491  16.566 -0.6534 -0.0349  0.8757
  590MPD2    C5 8748   2.699   1.407  16.652 -0.3348 -0.1715  0.2228
  590MPD2     H 8749   2.520   1.597  16.377 -0.0357  1.9608  1.1207
  590MPD2    H1 8750   2.877   1.497  16.577 -0.4300  1.5396 -2.1258
  590MPD2    H2 8751   2.524   1.301  16.696 -0.0560  0.7258  0.3337
  590MPD2    H3 8752   2.736   1.340  16.729 -0.2240  0.7361  0.9621
  590MPD2     N 8753   2.765   1.620  16.353 -0.4520  0.2231  0.3520
  590MPD2    H5 8754   2.704   1.674  16.292 -1.9181 -1.4977  0.2777
  590MPD2    N1 8755   2.359   1.411  16.515  0.6736 -0.1245  0.2423
  590MPD2    H7 8756   2.321   1.338  16.574  3.5416 -1.9471 -0.1932
  591TMC3    C1 8757   2.940   1.750  16.249  0.3825  0.4430  0.3938
  591TMC3    C2 8758   3.067   1.747  16.195 -0.8319 -0.1654  0.4085
  591TMC3    C3 8759   3.089   1.818  16.081  0.6019 -0.6139  0.3078
  591TMC3    C4 8760   2.851   1.839  16.202  0.3249 -0.8723  1.4697
  591TMC3    C5 8761   2.875   1.902  16.083  0.0557  0.7887  0.0678
  591TMC3    C6 8762   2.988   1.879  16.013  0.0165  0.2146  0.1912
  591TMC3     C 8763   2.899   1.652  16.346  0.2873  0.2206  0.2638
  591TMC3     O 8764   2.987   1.611  16.414 -0.4420  0.3525 -0.1009
  591TMC3     H 8765   3.142   1.683  16.241  0.4764  0.0725 -1.3692
  591TMC3    H1 8766   2.751   1.840  16.243  0.4062  1.1952  1.6172
  591TMC3    H2 8767   2.990   1.899  15.906  1.3527 -0.1146  0.1612
  591TMC3    C7 8768   2.775   2.003  16.052 -0.6258 -0.2818  0.0147
  591TMC3    C8 8769   3.192   1.766  16.001 -0.3209 -1.2384 -0.6512
  591TMC3    O1 8770   2.676   2.005  16.125  0.4247 -0.5064 -0.1479
  591TMC3    O2 8771   3.223   1.649  16.024 -0.3859  0.3348  0.4598
  592MPD2     C 8772   3.297   3.313  10.953 -0.3945 -0.3621  0.6690
  592MPD2    C1 8773   3.326   3.342  11.086  0.0930 -0.3219 -0.2937
  592MPD2    C2 8774   3.243   3.285  11.181 -1.0092  0.0342 -0.1115
  592MPD2    C3 8775   3.135   3.208  11.156  0.6012 -0.0938  0.1566
  592MPD2    C4 8776   3.114   3.179  11.015  0.3422 -0.2770 -0.0572
  592MPD2    C5 8777   3.197   3.227  10.919 -0.7683  0.0151 -0.1943
  592MPD2     H 8778   3.269   3.293  11.286  0.9972  0.4856 -0.6279
  592MPD2    H1 8779   3.039   3.104  10.991 -0.3182  0.2349  0.3895
  592MPD2    H2 8780   3.360   3.342  10.869  0.1875  1.9622  1.9220
  592MPD2    H3 8781   3.179   3.197  10.817 -2.3990 -2.6098  0.8451
  592MPD2     N 8782   3.062   3.151  11.267  0.3218 -0.3165  0.3793
  592MPD2    H5 8783   3.094   3.159  11.363 -0.3697 -1.2546  0.6968
  592MPD2    N1 8784   3.428   3.429  11.125  0.0540  0.1467 -0.4654
  592MPD2    H7 8785   3.477   3.479  11.051 -0.6415 -0.0226 -1.0300
  593TMC3    C1 8786   3.603   3.529  11.244  0.3715  0.6207 -0.2160
  593TMC3    C2 8787   3.621   3.598  11.360  0.0396 -0.4115 -0.2247
  593TMC3    C3 8788   3.728   3.690  11.376  0.0121  0.0936 -0.2200
  593TMC3    C4 8789   3.695   3.546  11.139 -0.3338 -0.0927 -0.9303
  593TMC3    C5 8790   3.794   3.643  11.153  0.3740  0.1311 -0.6494
  593TMC3    C6 8791   3.804   3.721  11.266  0.3241  0.7159 -0.0849
  593TMC3     C 8792   3.482   3.448  11.247  0.3090 -0.3209 -0.6687
  593TMC3     O 8793   3.441   3.410  11.356  0.2462  0.3736 -0.2261
  593TMC3     H 8794   3.543   3.599  11.436  0.7335 -0.8982  0.4952
  593TMC3    H1 8795   3.703   3.479  11.054  2.5108 -0.6264 -0.2465
  593TMC3    H2 8796   3.879   3.799  11.273 -0.2257  1.5846 -3.9148
  593TMC3    C7 8797   3.858   3.700  11.039  0.0430  0.7824 -0.1400
  593TMC3    C8 8798   3.690   3.814  11.451  0.1034  0.4363  0.9420
  593TMC3    O1 8799   3.968   3.748  11.060  0.1014 -0.2108  0.3054
  593TMC3    O2 8800   3.570   3.839  11.464  0.0777 -0.3374 -0.4577
  594MPD2     C 8801   1.345   1.754  13.958  0.0284  0.7994 -0.0125
  594MPD2    C1 8802   1.355   1.761  14.089  0.0421 -0.6865 -0.3046
  594MPD2    C2 8803   1.435   1.864  14.146 -0.3772 -0.2774  0.1732
  594MPD2    C3 8804   1.496   1.957  14.060  0.2254  0.9661 -0.3106
  594MPD2    C4 8805   1.489   1.937  13.924 -0.2921 -0.2619 -0.6335
  594MPD2    C5 8806   1.406   1.844  13.876  0.0397  0.5676  0.2542
  594MPD2     H 8807   1.429   1.880  14.253 -1.0308  1.4844 -0.1297
  594MPD2    H1 8808   1.539   2.010  13.862  0.5213 -0.9264 -0.7687
  594MPD2    H2 8809   1.296   1.669  13.911  2.2299 -0.1356 -0.6152
  594MPD2    H3 8810   1.398   1.839  13.768  0.1414  2.1575  0.1737
  594MPD2     N 8811   1.555   2.070  14.119 -0.3376 -0.1824  0.0450
  594MPD2    H5 8812   1.548   2.090  14.218 -0.1691  0.0390  0.0142
  594MPD2    N1 8813   1.283   1.661  14.158 -0.2539 -0.4871 -0.0125
  594MPD2    H7 8814   1.229   1.597  14.101  0.5160  1.0700 -2.5064
  595TMC3    C1 8815   1.880   2.400  14.185 -0.2848 -0.3985  0.6767
  595TMC3    C2 8816   1.818   2.311  14.102  0.5016 -0.6812  0.1602
  595TMC3    C3 8817   1.699   2.256  14.148 -0.3109  0.3688 -0.3427
  595TMC3    C4 8818   1.831   2.435  14.307  0.3885 -0.6265  0.2035
  595TMC3    C5 8819   1.717   2.372  14.352  0.0206 -1.4249  0.3779
  595TMC3    C6 8820   1.650   2.283  14.277  0.2293  0.6624 -0.0266
  595TMC3     C 8821   2.013   2.449  14.158  0.1767  0.0618 -0.1382
  595TMC3     O 8822   2.061   2.531  14.235 -0.3675 -0.6077  0.3955
  595TMC3     H 8823   1.863   2.273  14.011  0.1008  0.6631 -0.5927
  595TMC3    H1 8824   1.882   2.506  14.371 -0.2771  0.4582 -0.4676
  595TMC3    H2 8825   1.547   2.258  14.299  0.1649 -0.4209 -1.5606
  595TMC3    C7 8826   1.656   2.419  14.471 -0.0060 -0.4332 -0.8500
  595TMC3    C8 8827   1.636   2.159  14.055 -0.2329 -0.9404  0.5238
  595TMC3    O1 8828   1.540   2.420  14.475  0.3391  0.0722 -0.9742
  595TMC3    O2 8829   1.681   2.158  13.944  0.0117 -0.5994  0.7420
  596MPD2     C 8830   0.672   0.003  17.050 -0.2479  0.3311 -0.2366
  596MPD2    C1 8831   0.648   0.122  16.983  0.1361  0.1108 -0.4768
  596MPD2    C2 8832   0.643   0.123  16.842 -0.3825  0.1521 -0.9862
  596MPD2    C3 8833   0.641   4.724  16.772 -0.2935 -1.1023  0.5318
  596MPD2    C4 8834   0.671   4.612  16.841  0.6459 -0.0189 -0.1526
  596MPD2    C5 8835   0.693   4.611  16.975  0.0773  0.3659  0.2384
  596MPD2     H 8836   0.630   0.222  16.801 -1.5713  0.6180  0.5607
  596MPD2    H1 8837   0.686   4.517  16.791  1.4242 -0.0602  0.1525
  596MPD2    H2 8838   0.680   0.005  17.158  1.7372 -1.2501 -0.3396
  596MPD2    H3 8839   0.718   4.515  17.019  1.5105  0.4856 -0.2898
  596MPD2     N 8840   0.638   0.000  16.629  0.3025  0.5158 -0.2467
  596MPD2    H5 8841   0.635   4.639  16.577 -0.0435  2.0416 -2.7278
  596MPD2    N1 8842   0.634   0.255  17.045 -0.5435 -0.3091  0.0295
  596MPD2    H7 8843   0.646   0.334  16.982 -0.2385  1.1277  1.8903
  597TMC3    C1 8844   0.632   0.408  17.199  1.1765 -0.3365  0.1931
  597TMC3    C2 8845   0.718   0.482  17.120  0.3049  0.0768 -0.2583
  597TMC3    C3 8846   0.723   0.615  17.140  0.0691 -0.3329  0.1670
  597TMC3    C4 8847   0.576   0.452  17.313  0.5743  0.1280  0.5951
  597TMC3    C5 8848   0.586   0.584  17.334 -0.1356 -0.7033  0.1591
  597TMC3    C6 8849   0.651   0.666  17.248  0.2825  0.2627 -0.8892
  597TMC3     C 8850   0.611   0.274  17.173  0.7927  0.6387 -0.0452
  597TMC3     O 8851   0.567   0.193  17.254 -0.5631  0.0927 -0.3062
  597TMC3     H 8852   0.772   0.443  17.034 -0.8729  1.5444 -1.6575
  597TMC3    H1 8853   0.508   0.391  17.373 -0.4032  0.6928  0.0633
  597TMC3    H2 8854   0.660   0.773  17.265 -2.2461  0.7711 -2.7999
  597TMC3    C7 8855   0.496   0.644  17.434 -0.7314 -0.0348  0.7161
  597TMC3    C8 8856   0.803   0.697  17.058  0.0453 -0.0121 -0.2301
  597TMC3    O1 8857   0.445   0.563  17.510  0.3764  0.0538  0.6904
  597TMC3    O2 8858   0.910   0.648  17.025  0.0135  0.5698 -0.2983
  598TMC3    C1 8859   3.165   2.148  15.387  0.1061  0.1433  0.7742
  598TMC3    C2 8860   3.105   2.041  15.450 -0.4826  0.0325  0.2465
  598TMC3    C3 8861   3.120   1.913  15.404 -0.2098 -0.1690 -0.4455
  598TMC3    C4 8862   3.246   2.121  15.277  0.4123 -0.4826  0.1157
  598TMC3    C5 8863   3.273   1.987  15.240 -0.2565  0.0683 -0.4717
  598TMC3    C6 8864   3.207   1.885  15.303  1.2285 -0.4479  0.0961
  598TMC3     C 8865   3.174   2.276  15.453  0.3183 -0.4144  0.5507
  598TMC3     O 8866   3.277   2.340  15.434  0.6022  0.1162 -0.0711
  598TMC3     H 8867   3.093   2.057  15.557  0.8226 -0.0882  0.4213
  598TMC3    H1 8868   3.308   2.204  15.244  0.5432 -0.5970  0.0733
  598TMC3    H2 8869   3.216   1.785  15.263  2.4951 -0.2257 -0.1658
  598TMC3    C7 8870   3.390   1.956  15.146 -0.0053 -0.5486 -0.2843
  598TMC3    C8 8871   3.069   1.800  15.481 -0.3642 -0.1970 -0.5644
  598TMC3    O1 8872   3.387   1.861  15.076  0.0338  0.0157 -0.5251
  598TMC3    O2 8873   3.114   1.687  15.456  1.1300 -0.5871 -0.2714
  599MPD2     C 8874   4.056   4.445  16.128  0.2633 -0.5654  0.5879
  599MPD2    C1 8875   3.978   4.345  16.084 -0.5985 -0.2911 -0.3936
  599MPD2    C2 8876   3.858   4.302  16.148  0.3662  0.1291 -0.3796
  599MPD2    C3 8877   3.809   4.382  16.251  0.1993 -0.2461  0.0954
  599MPD2    C4 8878   3.892   4.482  16.300 -0.5476 -0.2138 -0.3836
  599MPD2    C5 8879   4.011   4.513  16.237  0.6559  0.4553 -0.8785
  599MPD2     H 8880   3.790   4.225  16.114 -0.5031  0.7849 -0.1165
  599MPD2    H1 8881   3.864   4.552  16.378  0.7681  2.5921 -2.4248
  599MPD2    H2 8882   4.148   4.471  16.077  1.9764 -1.6096  3.1516
  599MPD2    H3 8883   4.075   4.592  16.277  0.3734  0.1543  0.1832
  599MPD2     N 8884   3.680   4.380  16.314 -0.3555 -0.2814  0.4417
  599MPD2    H5 8885   3.654   4.450  16.384  0.3520  0.3828  0.0361
  599MPD2    N1 8886   4.033   4.269  15.979  0.1607  0.2420 -0.2902
  599MPD2    H7 8887   4.122   4.298  15.940  0.9131 -1.5880  0.0545
  600TMC3    C1 8888   3.462   4.286  16.375 -0.0558 -0.1729 -0.0159
  600TMC3    C2 8889   3.384   4.173  16.382  0.1565 -0.2543  0.2762
  600TMC3    C3 8890   3.279   4.175  16.471  0.4157 -0.3483 -0.5211
  600TMC3    C4 8891   3.420   4.406  16.426 -0.0915  0.3604 -0.3677
  600TMC3    C5 8892   3.310   4.402  16.510 -0.4659 -0.7137  0.3979
  600TMC3    C6 8893   3.252   4.286  16.539  1.2126  0.3798  0.3766
  600TMC3     C 8894   3.588   4.282  16.290  0.0274 -0.2957  0.0941
  600TMC3     O 8895   3.593   4.188  16.212 -0.3666  0.3328  0.2088
  600TMC3     H 8896   3.430   4.088  16.333 -0.5183 -1.0304  1.0094
  600TMC3    H1 8897   3.457   4.504  16.398  0.9864  0.6501  2.0512
  600TMC3    H2 8898   3.182   4.279  16.622  2.2716  0.2032  1.2461
  600TMC3    C7 8899   3.271   4.513  16.591 -0.3893 -0.3719 -0.1732
  600TMC3    C8 8900   3.260   4.053  16.550  0.6635 -0.0093 -0.1219
  600TMC3    O1 8901   3.170   4.495  16.662  0.1453 -0.1857  0.0186
  600TMC3    O2 8902   3.289   4.081  16.667 -0.4616 -0.6672 -0.0046
  601MPD2     C 8903   1.024   1.644  17.613 -0.2328 -0.1784  0.7391
  601MPD2    C1 8904   0.886   1.655  17.639  0.0455  0.1720  0.1787
  601MPD2    C2 8905   0.830   1.563   0.016  0.4742  0.0760 -0.1227
  601MPD2    C3 8906   0.897   1.465   0.087  0.0741 -0.4829 -0.5458
  601MPD2    C4 8907   1.031   1.450   0.054  0.7276 -0.1647  0.5882
  601MPD2    C5 8908   1.096   1.542  17.672 -0.0955 -0.1011  0.4171
  601MPD2     H 8909   0.725   1.573   0.040  1.1897  0.4703  2.7674
  601MPD2    H1 8910   1.091   1.379   0.109  3.2261  0.1280 -1.7438
  601MPD2    H2 8911   1.085   1.710  17.553  2.4817 -1.8934  1.6226
  601MPD2    H3 8912   1.197   1.522  17.640 -0.6547 -0.1217 -1.3027
  601MPD2     N 8913   0.837   1.379   0.182 -0.2054  0.0017  1.0741
  601MPD2    H5 8914   0.906   1.321   0.228 -2.0559 -2.6534  0.4660
  601MPD2    N1 8915   0.805   1.755  17.584 -0.5849 -0.3700  0.2853
  601MPD2    H7 8916   0.707   1.752  17.609 -0.9387 -0.8094 -1.1786
  602TMC3    C1 8917   0.765   1.945  17.453 -0.0578  0.5499  0.0819
  602TMC3    C2 8918   0.684   1.997  17.547 -0.8901  1.2198 -0.1602
  602TMC3    C3 8919   0.622   2.115  17.520  0.7320 -0.1106  0.3230
  602TMC3    C4 8920   0.764   2.002  17.328  0.9449  0.2105  0.2609
  602TMC3    C5 8921   0.695   2.115  17.305  1.0762 -0.6537  0.1715
  602TMC3    C6 8922   0.625   2.175  17.401 -0.3696  0.4136  0.4915
  602TMC3     C 8923   0.852   1.837  17.485  0.8586 -0.4495  0.0437
  602TMC3     O 8924   0.962   1.837  17.426  0.4797 -0.3639  0.5700
  602TMC3     H 8925   0.684   1.965  17.650  0.1392  0.9345 -0.2507
  602TMC3    H1 8926   0.823   1.963  17.245  0.3701  1.0376 -0.5470
  602TMC3    H2 8927   0.576   2.269  17.377 -2.3725 -1.6876 -3.6558
  602TMC3    C7 8928   0.715   2.184  17.171  0.3028 -0.0585 -0.5129
  602TMC3    C8 8929   0.544   2.179  17.623  0.7582  0.2221  0.4659
  602TMC3    O1 8930   0.807   2.160  17.096 -0.5074  0.5080  0.3764
  602TMC3    O2 8931   0.586   2.186   0.036 -0.7031  0.0156 -0.4124
  603TMC3    C1 8932   4.591   2.448  11.066  0.0218  0.1391 -0.4217
  603TMC3    C2 8933   4.668   2.456  11.178  0.9675  0.4079 -0.3676
  603TMC3    C3 8934   4.695   2.578  11.222  0.0368 -1.0728  0.3226
  603TMC3    C4 8935   4.542   2.557  10.997 -0.2853 -0.2655  0.9740
  603TMC3    C5 8936   4.575   2.677  11.046 -0.3525 -0.5519  0.1113
  603TMC3    C6 8937   4.642   2.695  11.167 -0.1992 -0.0098  0.1644
  603TMC3     C 8938   4.535   2.320  11.021 -0.2779  0.4472  0.2057
  603TMC3     O 8939   4.601   2.226  11.061 -0.3474 -0.2494 -0.3214
  603TMC3     H 8940   4.698   2.366  11.230  0.9382 -0.7886 -2.4255
  603TMC3    H1 8941   4.512   2.532  10.895  0.4307  0.3592  0.6185
  603TMC3    H2 8942   4.676   2.793  11.198 -0.9185  0.4009 -0.3593
  603TMC3    C7 8943   4.528   2.798  10.984 -0.5076  0.3299 -0.7633
  603TMC3    C8 8944   0.014   2.575  11.360  0.0771 -0.1181  0.6221
  603TMC3    O1 8945   4.540   2.905  11.038 -0.9784  0.4362 -0.0099
  603TMC3    O2 8946   0.047   2.465  11.404 -0.2977  0.6734  0.0506
  604MPD2     C 8947   4.274   0.678  16.021  0.7627 -0.0016 -0.0191
  604MPD2    C1 8948   4.348   0.786  16.078 -0.8195  0.2333  0.0585
  604MPD2    C2 8949   4.428   0.869  15.999  0.3831 -0.1719  0.2354
  604MPD2    C3 8950   4.436   0.841  15.859  0.6973 -0.3676 -0.5475
  604MPD2    C4 8951   4.362   0.738  15.807 -0.3031  0.5047  0.6865
  604MPD2    C5 8952   4.288   0.654  15.885 -0.9779  0.2156  0.4188
  604MPD2     H 8953   4.495   0.945  16.039  0.6161  0.1879 -0.8287
  604MPD2    H1 8954   4.373   0.698  15.707 -1.4595  0.3719  0.6093
  604MPD2    H2 8955   4.225   0.600  16.077 -0.5843  1.5961  1.0559
  604MPD2    H3 8956   4.253   0.561  15.841  1.3277  0.4419 -1.9077
  604MPD2     N 8957   4.528   0.921  15.784 -0.6138 -0.2561  0.8341
  604MPD2    H5 8958   4.591   0.990  15.825  0.9571 -0.8191 -0.6339
  604MPD2    N1 8959   4.336   0.809  16.216 -0.3497 -0.2466 -0.6509
  604MPD2    H7 8960   4.265   0.756  16.265  1.5557 -0.3935  1.9666
  605TMC3    C1 8961   4.335   0.921  16.411  0.0209 -0.3083  0.3536
  605TMC3    C2 8962   4.403   0.973  16.518  0.4166 -0.0013  1.0280
  605TMC3    C3 8963   4.331   1.019  16.626  0.2441 -0.0869 -0.4261
  605TMC3    C4 8964   4.199   0.939  16.406 -0.8694 -0.3511  0.4304
  605TMC3    C5 8965   4.124   0.979  16.511 -0.6135 -0.0731 -0.4159
  605TMC3    C6 8966   4.189   1.023  16.628  0.0909  0.1179  0.1672
  605TMC3     C 8967   4.403   0.898  16.292  0.2209 -0.1248  0.1046
  605TMC3     O 8968   4.512   0.949  16.271 -0.1416 -0.2383 -0.5471
  605TMC3     H 8969   4.511   0.963  16.529  0.5011  1.1510  1.2789
  605TMC3    H1 8970   4.150   0.909  16.313  1.0452 -0.7320 -0.4465
  605TMC3    H2 8971   4.141   1.056  16.720 -0.4344  1.5331 -0.6166
  605TMC3    C7 8972   3.991   1.029  16.477  0.0849  0.3219  0.3429
  605TMC3    C8 8973   4.405   1.102  16.721  0.2079 -0.6314 -0.0375
  605TMC3    O1 8974   3.961   1.052  16.359  0.6806  0.4362  0.1447
  605TMC3    O2 8975   4.522   1.112  16.691  0.4207 -0.1911 -0.1243
  606TMC3    C1 8976   0.991   4.137  16.568 -0.5218  0.8512  0.7433
  606TMC3    C2 8977   1.043   4.028  16.630 -0.0576  0.0573 -0.1050
  606TMC3    C3 8978   0.973   3.966  16.734  0.0343  0.2156  0.3848
  606TMC3    C4 8979   0.866   4.187  16.605 -0.5750 -0.4269 -0.3916
  606TMC3    C5 8980   0.803   4.127  16.705 -0.0549 -0.2598 -0.5421
  606TMC3    C6 8981   0.855   4.015  16.768 -0.2487  0.5549 -0.0835
  606TMC3     C 8982   1.057   4.193  16.451  0.2034  0.7586  0.0217
  606TMC3     O 8983   1.148   4.129  16.399 -0.1747 -0.3167  0.1260
  606TMC3     H 8984   1.145   4.003  16.604  0.0594 -0.3440  0.7311
  606TMC3    H1 8985   0.818   4.264  16.546 -0.8701 -1.6365 -1.7335
  606TMC3    H2 8986   0.801   3.969  16.849 -1.1205  0.5301 -0.6751
  606TMC3    C7 8987   0.693   4.197  16.766 -0.0458 -0.0654 -0.7602
  606TMC3    C8 8988   1.042   3.892  16.840 -0.4133  0.0049  0.1647
  606TMC3    O1 8989   0.640   4.288  16.707  0.1494 -0.6866 -0.4905
  606TMC3    O2 8990   1.017   3.917  16.957  0.2807 -0.5325 -0.0934
  607MPD2     C 8991   3.362   2.844  11.866 -0.4992  0.5903  0.1905
  607MPD2    C1 8992   3.462   2.928  11.910  0.0985 -0.0385 -0.1842
  607MPD2    C2 8993   3.529   2.892  12.026  0.1467  0.0217 -0.0291
  607MPD2    C3 8994   3.492   2.784  12.095 -0.0856 -0.2937 -0.5034
  607MPD2    C4 8995   3.396   2.693  12.045 -0.9810 -1.1865 -0.0997
  607MPD2    C5 8996   3.335   2.725  11.931  0.2618 -0.4735 -0.2790
  607MPD2     H 8997   3.607   2.958  12.061  0.0425  1.3801 -2.3869
  607MPD2    H1 8998   3.382   2.598  12.096 -0.1079 -0.0329  2.2822
  607MPD2    H2 8999   3.312   2.868  11.773  3.8053  0.0049 -2.2760
  607MPD2    H3 9000   3.252   2.666  11.894 -1.8408  0.4943  2.8916
  607MPD2     N 9001   3.549   2.765  12.224  0.6743 -0.6415 -0.2190
  607MPD2    H5 9002   3.598   2.849  12.254  1.1592 -0.1522 -2.3903
  607MPD2    N1 9003   3.492   3.051  11.843 -0.0746 -0.2220  0.2200
  607MPD2    H7 9004   3.554   3.114  11.893  0.4233  0.5285 -1.3425
  608TMC3    C1 9005   3.569   3.198  11.681  0.1953  0.0896  0.4625
  608TMC3    C2 9006   3.595   3.273  11.791  0.1485 -0.2447  0.0538
  608TMC3    C3 9007   3.723   3.299  11.824  0.2222 -0.3919 -0.3032
  608TMC3    C4 9008   3.662   3.183  11.583  0.6159 -0.3450 -0.1904
  608TMC3    C5 9009   3.786   3.240  11.609 -0.2238  0.1283  0.1711
  608TMC3    C6 9010   3.824   3.289  11.732  0.6411  0.6711  0.5290
  608TMC3     C 9011   3.491   3.081  11.706 -0.0965  0.4134  0.5091
  608TMC3     O 9012   3.430   3.034  11.608  0.0943  0.1522 -0.1061
  608TMC3     H 9013   3.524   3.296  11.870  2.1748 -0.4899  1.9687
  608TMC3    H1 9014   3.633   3.114  11.504  0.1690  0.3887 -0.6747
  608TMC3    H2 9015   3.921   3.332  11.758  0.7296  0.1486  1.0577
  608TMC3    C7 9016   3.874   3.254  11.496 -0.1003  0.0217  0.3898
  608TMC3    C8 9017   3.760   3.265  11.965  0.3234  0.0882  0.3354
  608TMC3    O1 9018   3.836   3.211  11.392 -0.7081  0.6828 -0.3059
  608TMC3    O2 9019   3.681   3.186  12.013 -0.4632 -0.4803 -0.0367
  609TMC3    C1 9020   1.730   1.497   9.377 -0.0592 -0.0597  0.0704
  609TMC3    C2 9021   1.607   1.436   9.347  0.9751  0.0647  0.3838
  609TMC3    C3 9022   1.604   1.330   9.261 -0.6182 -0.2810  0.4087
  609TMC3    C4 9023   1.840   1.459   9.308  0.1271  0.4359 -0.5033
  609TMC3    C5 9024   1.835   1.353   9.216 -0.1236 -0.2544  0.1716
  609TMC3    C6 9025   1.713   1.288   9.197  0.6388  0.2884 -0.1452
  609TMC3     C 9026   1.735   1.586   9.493  0.0816  0.1589 -0.0015
  609TMC3     O 9027   1.624   1.611   9.541  0.1629  0.0572 -0.1438
  609TMC3     H 9028   1.519   1.465   9.403  0.8674  0.4768  0.0011
  609TMC3    H1 9029   1.935   1.507   9.327 -0.3419  0.8260  0.8552
  609TMC3    H2 9030   1.704   1.204   9.129 -1.9145 -1.7861  2.7710
  609TMC3    C7 9031   1.956   1.278   9.211 -0.1086 -0.0680 -0.4169
  609TMC3    C8 9032   1.473   1.306   9.198  0.1253 -0.0636 -0.2764
  609TMC3    O1 9033   2.064   1.337   9.228  1.0339  0.0811 -0.0882
  609TMC3    O2 9034   1.374   1.367   9.236  0.0057  0.1253 -0.4604
  610TMC3    C1 9035   4.015   2.753  12.867 -0.3125 -0.2728 -0.0846
  610TMC3    C2 9036   4.085   2.819  12.768  0.6686  0.1046  0.1513
  610TMC3    C3 9037   4.196   2.762  12.721 -0.1878  0.1708 -0.3560
  610TMC3    C4 9038   4.053   2.628  12.902  0.2025  0.1465 -0.5679
  610TMC3    C5 9039   4.164   2.569  12.846 -0.2034 -0.0263  0.1666
  610TMC3    C6 9040   4.239   2.635  12.762  0.4331 -0.0134 -0.1190
  610TMC3     C 9041   3.879   2.791  12.893 -1.0157  0.1806 -0.1274
  610TMC3     O 9042   3.805   2.701  12.935 -0.1678  0.1625  0.1166
  610TMC3     H 9043   4.074   2.926  12.756  2.5945  0.4527  1.6201
  610TMC3    H1 9044   4.003   2.593  12.992  0.7665  1.4202  0.2426
  610TMC3    H2 9045   4.324   2.587  12.715  2.1486  1.3966  1.5257
  610TMC3    C7 9046   4.206   2.446  12.903  0.3276  0.3734 -0.5901
  610TMC3    C8 9047   4.245   2.826  12.597  0.0615  0.0489  0.6056
  610TMC3    O1 9048   4.323   2.413  12.903  0.4740 -0.1849  0.0481
  610TMC3    O2 9049   4.164   2.892  12.535  0.3817 -0.0674 -0.8824
  611MPD2     C 9050   3.726   2.268  10.265 -0.7049 -0.1892 -0.6475
  611MPD2    C1 9051   3.646   2.375  10.251  0.0570  0.4018 -0.7073
  611MPD2    C2 9052   3.698   2.503  10.247 -0.1633  0.2619  0.4551
  611MPD2    C3 9053   3.837   2.519  10.271 -0.3272  0.8586 -0.0161
  611MPD2    C4 9054   3.909   2.408  10.296  0.1893 -0.6845 -0.4884
  611MPD2    C5 9055   3.859   2.278  10.288 -0.0145 -0.0323  0.2041
  611MPD2     H 9056   3.628   2.585  10.232 -0.0563  0.5034  1.3069
  611MPD2    H1 9057   4.016   2.407  10.313  0.3726 -1.4636 -1.6403
  611MPD2    H2 9058   3.688   2.166  10.270  1.6457 -0.9762  1.1180
  611MPD2    H3 9059   3.918   2.189  10.302  1.4494  0.9381  0.1981
  611MPD2     N 9060   3.901   2.645  10.273 -0.8605 -0.2515 -0.5369
  611MPD2    H5 9061   3.993   2.646  10.317  0.0305  1.2937 -2.4629
  611MPD2    N1 9062   3.504   2.352  10.244  0.1591  0.0972 -0.0964
  611MPD2    H7 9063   3.447   2.435  10.260 -1.1246 -1.0842  1.4849
  612TMC3    C1 9064   3.893   2.887  10.239  0.1798 -0.1187  0.4533
  612TMC3    C2 9065   3.989   2.912  10.337 -0.1583 -0.2968 -0.7373
  612TMC3    C3 9066   4.054   3.033  10.338 -0.6372  0.0874 -0.3360
  612TMC3    C4 9067   3.870   2.969  10.141 -0.6346  0.6426 -0.2837
  612TMC3    C5 9068   3.929   3.091  10.148  0.6174  0.3444  0.1158
  612TMC3    C6 9069   4.017   3.126  10.248  0.3533  0.2945 -0.1799
  612TMC3     C 9070   3.837   2.753  10.218 -0.1369 -0.6588 -0.2800
  612TMC3     O 9071   3.761   2.748  10.117  0.0249  0.2736  0.0531
  612TMC3     H 9072   4.015   2.831  10.404 -1.4533  0.8474  1.1480
  612TMC3    H1 9073   3.789   2.948  10.072 -1.7583 -0.8844  1.5134
  612TMC3    H2 9074   4.073   3.217  10.232  0.7807 -0.1741 -1.3223
  612TMC3    C7 9075   3.891   3.191  10.049  0.4416 -0.0131  1.2277
  612TMC3    C8 9076   4.186   3.064  10.401 -0.2382 -0.0141 -0.1062
  612TMC3    O1 9077   3.953   3.299  10.060 -0.7971  0.1119  0.6589
  612TMC3    O2 9078   4.223   3.183  10.402  0.0067  0.4815 -0.7075
  613MPD2     C 9079   2.484   0.434  16.495  0.4822 -0.1976  0.2929
  613MPD2    C1 9080   2.382   0.494  16.423 -0.3303  0.4632  0.9236
  613MPD2    C2 9081   2.263   0.507  16.497 -0.3653 -0.5522 -0.0815
  613MPD2    C3 9082   2.237   0.444  16.624 -0.6621  0.8612 -0.8936
  613MPD2    C4 9083   2.340   0.379  16.681  0.4943 -0.1257  0.0375
  613MPD2    C5 9084   2.462   0.378  16.618  0.1344 -0.6911  0.6938
  613MPD2     H 9085   2.184   0.553  16.438 -0.4570 -1.3450 -0.5723
  613MPD2    H1 9086   2.334   0.321  16.772 -0.9751 -0.6876 -0.4247
  613MPD2    H2 9087   2.580   0.410  16.451  0.9803 -0.6895  1.6626
  613MPD2    H3 9088   2.544   0.321  16.659  2.3528  1.2441 -1.1131
  613MPD2     N 9089   2.113   0.438  16.693  0.1374 -0.7231  0.0595
  613MPD2    H5 9090   2.120   0.396  16.785 -0.6878 -1.2977 -0.1466
  613MPD2    N1 9091   2.407   0.525  16.288  0.2283 -0.6323 -0.1348
  613MPD2    H7 9092   2.506   0.539  16.273 -0.0881 -0.2180 -1.8596
  614TMC3    C1 9093   2.193   0.454  16.218 -0.5035 -0.6255 -0.4646
  614TMC3    C2 9094   2.185   0.316  16.253 -0.1560  0.2692  0.1510
  614TMC3    C3 9095   2.070   0.244  16.238 -0.7877 -1.1332  0.7391
  614TMC3    C4 9096   2.076   0.509  16.156 -1.2704  0.1274 -0.2068
  614TMC3    C5 9097   1.966   0.434  16.128  0.3368 -0.2372  0.1630
  614TMC3    C6 9098   1.966   0.304  16.168 -0.9998  0.5435  0.3234
  614TMC3     C 9099   2.316   0.522  16.186 -0.1914  0.4881 -0.5287
  614TMC3     O 9100   2.323   0.560  16.069  0.2469  0.2174  0.7709
  614TMC3     H 9101   2.275   0.276  16.300 -0.0969 -3.2838 -2.9899
  614TMC3    H1 9102   2.095   0.610  16.119  1.0095  0.0467  0.6968
  614TMC3    H2 9103   1.873   0.249  16.160 -0.1632 -0.7402 -0.4167
  614TMC3    C7 9104   1.857   0.499  16.063  0.5544  0.2607  0.1769
  614TMC3    C8 9105   2.021   0.181  16.357 -0.3874 -0.1079  0.6662
  614TMC3    O1 9106   1.863   0.620  16.064  0.1357 -0.1862  0.1414
  614TMC3    O2 9107   1.923   0.214  16.419 -0.5777 -0.2732 -0.6521
  615MPD2     C 9108   1.480   1.188  16.141  0.9878 -0.4479  0.0714
  615MPD2    C1 9109   1.434   1.315  16.164  0.2399 -0.3160 -0.3548
  615MPD2    C2 9110   1.328   1.358  16.085  0.2814 -0.1789 -0.1775
  615MPD2    C3 9111   1.284   1.283  15.977  0.7167  1.1598 -0.7049
  615MPD2    C4 9112   1.340   1.158  15.954  0.3309 -0.2232 -0.2331
  615MPD2    C5 9113   1.430   1.111  16.044  0.3190 -0.1574 -0.1183
  615MPD2     H 9114   1.302   1.463  16.083  2.3332  0.3047 -0.7961
  615MPD2    H1 9115   1.310   1.102  15.866  0.4579  0.0095 -0.4243
  615MPD2    H2 9116   1.562   1.145  16.198  3.1231  0.8198 -2.0608
  615MPD2    H3 9117   1.465   1.009  16.030 -1.3297 -0.9546  1.5808
  615MPD2     N 9118   1.180   1.327  15.893 -0.1658 -0.0730 -0.3258
  615MPD2    H5 9119   1.153   1.275  15.809 -3.3111  1.0343 -0.0144
  615MPD2    N1 9120   1.494   1.403  16.255 -0.3565 -0.0780 -0.2432
  615MPD2    H7 9121   1.469   1.500  16.241  2.0581  0.5834  0.0710
  616TMC3    C1 9122   1.643   1.468  16.411 -0.1934 -0.4867  0.4226
  616TMC3    C2 9123   1.724   1.560  16.341  0.1013  0.0506 -0.6578
  616TMC3    C3 9124   1.803   1.646  16.409 -0.0982 -0.0257  0.6709
  616TMC3    C4 9125   1.653   1.464  16.543  0.1945 -0.5835 -0.2625
  616TMC3    C5 9126   1.744   1.546  16.609  0.1184  0.8373  0.1725
  616TMC3    C6 9127   1.822   1.635  16.544  0.3502 -0.3171  0.0048
  616TMC3     C 9128   1.581   1.357  16.350 -0.0181 -0.1273  0.4201
  616TMC3     O 9129   1.594   1.245  16.393  0.2501  0.2292 -0.0882
  616TMC3     H 9130   1.734   1.552  16.233 -1.1521 -0.1709 -0.7661
  616TMC3    H1 9131   1.591   1.392  16.595 -1.2119  0.6869 -0.1597
  616TMC3    H2 9132   1.883   1.702  16.604 -1.2655  0.3338  0.9277
  616TMC3    C7 9133   1.797   1.500  16.729 -0.3861  0.0658 -0.5086
  616TMC3    C8 9134   1.893   1.729  16.332  0.1297 -0.2163 -0.5773
  616TMC3    O1 9135   1.920   1.492  16.732 -0.0331 -0.1183 -0.3761
  616TMC3    O2 9136   1.857   1.773  16.223  0.6097  0.1318  0.8232
  617MPD2     C 9137   4.000   4.526  14.056  0.6428  0.7736 -0.3802
  617MPD2    C1 9138   4.027   4.504  13.925 -0.3206 -1.1197  0.1189
  617MPD2    C2 9139   3.929   4.538  13.833 -0.1785 -0.0712 -0.4290
  617MPD2    C3 9140   3.800   4.576  13.868 -0.6732 -0.1130  0.2233
  617MPD2    C4 9141   3.767   4.577  14.003  0.3348 -0.3418  0.1739
  617MPD2    C5 9142   3.867   4.549  14.090  0.6389 -0.7482 -0.6606
  617MPD2     H 9143   3.954   4.519  13.729  1.6218 -1.9367  0.3716
  617MPD2    H1 9144   3.669   4.603  14.044  0.2581  0.0296 -0.2499
  617MPD2    H2 9145   4.076   4.517  14.133  1.7087  1.2410 -1.3703
  617MPD2    H3 9146   3.840   4.562  14.194 -0.5025  0.8083 -1.1683
  617MPD2     N 9147   3.703   4.611  13.776 -0.4420  0.1717 -0.7078
  617MPD2    H5 9148   3.613   4.626  13.822  0.2785  0.2493  0.6951
  617MPD2    N1 9149   4.156   4.470  13.895 -0.7523 -0.4543 -0.7254
  617MPD2    H7 9150   4.220   4.466  13.974 -2.1924 -1.4579  0.3957
  618TMC3    C1 9151   4.352   4.455  13.765  0.4155  0.2008 -0.2198
  618TMC3    C2 9152   4.417   4.371  13.677 -0.2342  0.1304 -0.6864
  618TMC3    C3 9153   4.553   4.361  13.686  0.5109  0.6650 -0.2853
  618TMC3    C4 9154   4.421   4.541  13.847 -0.2410  0.4968  0.2098
  618TMC3    C5 9155   4.554   4.536  13.841 -0.7966 -0.7141  0.0512
  618TMC3    C6 9156   4.629   4.450  13.766  0.4082  0.8763 -0.2111
  618TMC3     C 9157   4.205   4.452  13.768  0.0209 -0.3496  0.2253
  618TMC3     O 9158   4.144   4.425  13.664  0.0535  0.1842  0.3482
  618TMC3     H 9159   4.351   4.318  13.610 -2.4916  1.6099  0.3935
  618TMC3    H1 9160   4.371   4.614  13.911 -1.4225 -0.5301  0.4508
  618TMC3    H2 9161   0.011   4.441  13.779  0.1135 -0.4428  1.2848
  618TMC3    C7 9162   4.623   4.644  13.906  0.3372  0.3647 -0.0090
  618TMC3    C8 9163   4.613   4.319  13.559 -0.4886 -0.6134 -0.0472
  618TMC3    O1 9164   4.594   4.657  14.025 -0.2369  0.2871  0.4178
  618TMC3    O2 9165   4.535   4.273  13.474  0.1815 -0.2166 -0.3270
  619MPD2     C 9166   1.380   1.044  13.383 -0.1660 -0.1700 -0.1777
  619MPD2    C1 9167   1.304   1.111  13.291 -0.2963 -1.0882  0.9734
  619MPD2    C2 9168   1.199   1.046  13.227 -0.3026 -0.0411 -0.6981
  619MPD2    C3 9169   1.165   0.914  13.260 -0.3538 -0.5235  0.8587
  619MPD2    C4 9170   1.247   0.848  13.350 -0.5390 -0.7502 -0.1528
  619MPD2    C5 9171   1.354   0.914  13.405  0.3987  0.0572 -0.3582
  619MPD2     H 9172   1.147   1.095  13.146 -1.8390  2.1811  1.6189
  619MPD2    H1 9173   1.236   0.743  13.372  0.2658 -0.9947 -0.9085
  619MPD2    H2 9174   1.452   1.097  13.444 -1.3502  0.0118  1.0573
  619MPD2    H3 9175   1.406   0.857  13.482 -2.5905 -3.7685 -1.1243
  619MPD2     N 9176   1.057   0.851  13.205 -0.5320  0.0803  0.0163
  619MPD2    H5 9177   1.036   0.754  13.227 -0.5352  0.0840  0.0294
  619MPD2    N1 9178   1.338   1.237  13.248 -0.2957 -0.4611 -0.3869
  619MPD2    H7 9179   1.284   1.272  13.169  0.5067 -1.9622 -1.6040
  620TMC3    C1 9180   1.445   1.435  13.199 -0.0338 -0.6691 -0.4603
  620TMC3    C2 9181   1.393   1.418  13.079 -0.3052  0.6105 -0.3172
  620TMC3    C3 9182   1.304   1.499  13.023  0.1632 -0.2446  0.1918
  620TMC3    C4 9183   1.426   1.559  13.256  0.5069  0.7482 -0.6255
  620TMC3    C5 9184   1.362   1.654  13.180 -0.4901 -1.1573  0.1594
  620TMC3    C6 9185   1.296   1.624  13.068 -0.2474 -0.0008 -0.5156
  620TMC3     C 9186   1.441   1.321  13.289  0.4062 -0.0735  0.1706
  620TMC3     O 9187   1.537   1.315  13.364  0.0224 -0.6182  0.1594
  620TMC3     H 9188   1.410   1.320  13.035  3.7278  0.4364  1.7096
  620TMC3    H1 9189   1.446   1.570  13.362  0.6244 -2.1000 -0.3641
  620TMC3    H2 9190   1.236   1.697  13.016  1.0643  1.5537  0.1439
  620TMC3    C7 9191   1.272   1.754  13.250  0.1812 -0.0866  0.2998
  620TMC3    C8 9192   1.169   1.439  13.024 -0.1879  0.1523  0.4056
  620TMC3    O1 9193   1.157   1.755  13.216 -0.0547 -0.2322 -0.1820
  620TMC3    O2 9194   1.182   1.318  13.028  0.6826  0.4587  0.2353
  621MPD2     C 9195   1.704   1.017   9.936  0.1441 -0.6514 -0.0659
  621MPD2    C1 9196   1.769   0.972  10.044  0.4359  0.3947 -0.3012
  621MPD2    C2 9197   1.880   1.043  10.093 -0.5185  0.0005 -0.1128
  621MPD2    C3 9198   1.929   1.159  10.041  0.2991 -0.1713 -0.2984
  621MPD2    C4 9199   1.861   1.198   9.924  0.0378 -0.0430  0.8182
  621MPD2    C5 9200   1.747   1.134   9.881  0.5922 -0.1265  0.0485
  621MPD2     H 9201   1.903   0.994  10.187 -2.0944  1.9405  1.2647
  621MPD2    H1 9202   1.888   1.288   9.870  2.8882 -0.5163  1.4380
  621MPD2    H2 9203   1.619   0.964   9.895  0.3002 -1.2329  0.3545
  621MPD2    H3 9204   1.696   1.174   9.795  2.8722  0.9909 -0.8032
  621MPD2     N 9205   2.034   1.236  10.099  0.1586 -0.8286 -0.1982
  621MPD2    H5 9206   2.052   1.230  10.199 -3.3487 -3.0769  0.2949
  621MPD2    N1 9207   1.739   0.854  10.119 -0.0800  0.4644  0.1718
  621MPD2    H7 9208   1.806   0.840  10.194 -1.0947  1.2168  1.2123
  622TMC3    C1 9209   1.634   0.659  10.202  0.0264 -0.3096  0.9886
  622TMC3    C2 9210   1.634   0.707  10.330  0.3374  0.1736 -0.2323
  622TMC3    C3 9211   1.602   0.613  10.431 -0.5632  0.3488  0.2810
  622TMC3    C4 9212   1.625   0.525  10.170 -0.2212 -0.4065  0.3945
  622TMC3    C5 9213   1.597   0.439  10.271 -0.1678 -0.2299  0.1361
  622TMC3    C6 9214   1.592   0.477  10.399 -0.4202  0.2353  0.9215
  622TMC3     C 9215   1.639   0.761  10.095 -0.1289 -0.3083  0.1752
  622TMC3     O 9216   1.577   0.742   9.987  0.1353 -0.2309 -0.5824
  622TMC3     H 9217   1.636   0.813  10.352  1.2888  0.4151 -1.4262
  622TMC3    H1 9218   1.619   0.511  10.062  0.8629 -1.2186  0.4386
  622TMC3    H2 9219   1.559   0.404  10.473 -0.7249  0.9368  1.4730
  622TMC3    C7 9220   1.537   0.308  10.240 -0.4389 -0.7846 -0.5651
  622TMC3    C8 9221   1.568   0.653  10.564 -0.1793  0.3971 -0.3529
  622TMC3    O1 9222   1.511   0.233  10.330 -0.3424  0.2044 -0.2333
  622TMC3    O2 9223   1.512   0.569  10.630  0.1329  0.5386 -0.6718
  623MPD2     C 9224   4.600   2.148  16.485 -0.3945 -0.3569 -0.0754
  623MPD2    C1 9225   4.540   2.028  16.495  0.8651 -0.0445  0.4541
  623MPD2    C2 9226   4.610   1.929  16.558  0.0028 -0.3918  0.5113
  623MPD2    C3 9227   0.009   1.958  16.616 -0.5562  0.1817 -0.2804
  623MPD2    C4 9228   0.065   2.086  16.616 -0.2063 -0.1703 -0.0929
  623MPD2    C5 9229   4.714   2.179  16.550 -0.5445  0.5042  0.4034
  623MPD2     H 9230   4.566   1.831  16.561 -0.4842 -0.1935 -0.1055
  623MPD2    H1 9231   0.165   2.113  16.647 -1.3939  2.1402  1.7222
  623MPD2    H2 9232   4.555   2.223  16.422  1.7077 -0.0921 -1.2618
  623MPD2    H3 9233   0.023   2.282  16.544 -1.3186  0.7089 -0.4847
  623MPD2     N 9234   0.078   1.841  16.671 -0.3701  0.4293  0.2828
  623MPD2    H5 9235   0.032   1.751  16.668 -3.1153  1.8228  0.4059
  623MPD2    N1 9236   4.412   2.013  16.432  0.3325  0.8988 -0.3831
  623MPD2    H7 9237   4.376   2.093  16.381 -1.4357  0.4099  0.1223
  624TMC3    C1 9238   0.394   1.547  16.830  0.3921  0.1785 -0.1375
  624TMC3    C2 9239   0.301   1.475  16.890 -0.4991 -0.4630  0.0553
  624TMC3    C3 9240   0.175   1.523  16.895  0.2232 -0.1623 -0.4471
  624TMC3    C4 9241   0.361   1.671  16.787 -0.3581  0.4475 -0.5581
  624TMC3    C5 9242   0.234   1.715  16.778  0.0333  0.0235 -0.4340
  624TMC3    C6 9243   0.131   1.639  16.839  0.2587  0.1370  0.2756
  624TMC3     C 9244   0.533   1.498  16.849  0.2037 -0.6414  0.1047
  624TMC3     O 9245   0.545   1.385  16.902 -0.1411  0.0937 -0.5984
  624TMC3     H 9246   0.328   1.378  16.932 -2.1573 -1.5261 -1.3613
  624TMC3    H1 9247   0.445   1.727  16.746 -0.4129  1.4425  0.6680
  624TMC3    H2 9248   0.024   1.653  16.832 -0.0114 -1.9881  0.1111
  624TMC3    C7 9249   0.206   1.845  16.723  0.2183 -0.5009 -0.0935
  624TMC3    C8 9250   0.073   1.422  16.910 -0.0449  0.7149  1.0310
  624TMC3    O1 9251   0.292   1.931  16.723 -0.3607 -0.1201  0.1945
  624TMC3    O2 9252   0.103   1.313  16.860  0.0167 -0.1793  0.2637
  625MPD2     C 9253   0.602   2.209   0.508 -0.6062 -0.7124  0.6190
  625MPD2    C1 9254   0.684   2.317   0.502  0.3410 -0.6781  0.2845
  625MPD2    C2 9255   0.817   2.298   0.534  0.2206  0.1382  0.7971
  625MPD2    C3 9256   0.860   2.177   0.581  0.0401  0.3888  0.5420
  625MPD2    C4 9257   0.778   2.068   0.572  0.3544  0.0647 -0.4879
  625MPD2    C5 9258   0.651   2.085   0.534 -0.7837 -0.1323  0.1524
  625MPD2     H 9259   0.891   2.377   0.528 -1.9375  1.8875 -2.3912
  625MPD2    H1 9260   0.810   1.968   0.599  1.1139 -0.3403 -2.8905
  625MPD2    H2 9261   0.495   2.218   0.500 -0.7566 -2.4745  0.7292
  625MPD2    H3 9262   0.575   2.009   0.549 -0.0642 -0.7002  0.9248
  625MPD2     N 9263   0.994   2.162   0.622 -0.3590  0.3066  0.1631
  625MPD2    H5 9264   1.053   2.244   0.631  2.9655 -1.8622 -1.8080
  625MPD2    N1 9265   0.639   2.451   0.466  0.3148 -0.5278 -0.1809
  625MPD2    H7 9266   0.705   2.527   0.477  0.4831 -0.3461 -2.3179
  626TMC3    C1 9267   0.472   2.623   0.472  0.0362 -0.1897  0.5749
  626TMC3    C2 9268   0.434   2.710   0.374 -0.3279 -0.2532 -0.3791
  626TMC3    C3 9269   0.349   2.815   0.412  0.1696  0.2230 -0.0633
  626TMC3    C4 9270   0.422   2.623   0.601 -0.2226  0.4787  0.1185
  626TMC3    C5 9271   0.330   2.726   0.626  0.7177  0.7954 -0.6931
  626TMC3    C6 9272   0.298   2.829   0.539 -0.1415 -0.2618 -0.0195
  626TMC3     C 9273   0.503   2.486   0.439  0.2958  0.5213  0.5641
  626TMC3     O 9274   0.405   2.415   0.435 -0.9365  0.0127 -0.4129
  626TMC3     H 9275   0.478   2.706   0.275 -1.2803 -0.8950 -0.7759
  626TMC3    H1 9276   0.447   2.549   0.677 -0.5085 -0.8061 -1.0389
  626TMC3    H2 9277   0.252   2.917   0.584 -1.5638 -1.1966  0.3611
  626TMC3    C7 9278   0.261   2.709   0.743  0.3844 -0.7528 -0.3272
  626TMC3    C8 9279   0.308   2.905   0.308 -0.6848  0.1387  0.7267
  626TMC3    O1 9280   0.327   2.650   0.826  0.1601  0.3210  0.2901
  626TMC3    O2 9281   0.370   2.896   0.203 -0.1467  0.2164 -0.2405
  627MPD2     C 9282   3.305   3.651  14.268  0.4037  0.4484  0.2499
  627MPD2    C1 9283   3.428   3.657  14.325 -0.0616 -0.3325  0.2545
  627MPD2    C2 9284   3.486   3.531  14.359  0.1512  1.0271  0.3765
  627MPD2    C3 9285   3.417   3.408  14.343 -0.0497 -0.8248  0.4994
  627MPD2    C4 9286   3.286   3.416  14.300 -0.7414  0.2869 -0.0557
  627MPD2    C5 9287   3.238   3.535  14.262  0.6580 -1.3073 -0.1006
  627MPD2     H 9288   3.583   3.534  14.408 -0.2785  0.4702  1.2693
  627MPD2    H1 9289   3.216   3.334  14.312 -0.8478  0.3299 -0.3823
  627MPD2    H2 9290   3.265   3.743  14.228 -1.1497  0.4436  1.7642
  627MPD2    H3 9291   3.131   3.528  14.245  0.9408 -2.3429 -1.4664
  627MPD2     N 9292   3.473   3.290  14.406 -0.6738 -0.8550  0.2143
  627MPD2    H5 9293   3.572   3.296  14.429 -0.3171  0.1079 -1.5620
  627MPD2    N1 9294   3.500   3.776  14.350  0.0128  0.4683 -1.3590
  627MPD2    H7 9295   3.583   3.756  14.406 -1.8403 -1.5109  0.7134
  628TMC3    C1 9296   3.553   4.004  14.371  0.8318  0.1072 -0.1008
  628TMC3    C2 9297   3.678   3.967  14.417 -0.4443  0.3145 -0.4467
  628TMC3    C3 9298   3.762   4.066  14.455  0.1981 -0.8402  0.3975
  628TMC3    C4 9299   3.506   4.134  14.362 -0.1825  0.6498 -0.5495
  628TMC3    C5 9300   3.599   4.221  14.413 -0.3709  0.1519 -0.0605
  628TMC3    C6 9301   3.714   4.193  14.475 -0.0641 -0.0728 -0.7385
  628TMC3     C 9302   3.468   3.900  14.306  0.4637 -0.1764  0.4841
  628TMC3     O 9303   3.383   3.932  14.224  0.0022 -0.0800  0.4638
  628TMC3     H 9304   3.723   3.870  14.398 -1.5925 -0.6652  1.7521
  628TMC3    H1 9305   3.406   4.167  14.337 -1.4345 -0.1780  3.3239
  628TMC3    H2 9306   3.782   4.271  14.509 -0.3797  0.2107 -0.7579
  628TMC3    C7 9307   3.560   4.362  14.412  0.5187 -0.4619 -0.5263
  628TMC3    C8 9308   3.897   4.039  14.506 -0.7456 -0.6336 -0.9076
  628TMC3    O1 9309   3.606   4.430  14.500 -0.8157  0.2018  0.1253
  628TMC3    O2 9310   3.986   4.127  14.500  0.7355  0.4567 -0.1193
  629MPD2     C 9311   2.284   2.060  16.311  0.1371  0.4512  0.5101
  629MPD2    C1 9312   2.319   1.960  16.392  0.3769 -0.6634 -0.4280
  629MPD2    C2 9313   2.231   1.854  16.421 -0.2356 -0.6279  0.5344
  629MPD2    C3 9314   2.101   1.856  16.358  0.0429  0.4482 -0.4141
  629MPD2    C4 9315   2.070   1.961  16.280 -0.2667  0.1043  0.9287
  629MPD2    C5 9316   2.162   2.061  16.250  0.8314  0.0615  0.0903
  629MPD2     H 9317   2.252   1.763  16.475  1.1839 -0.4903  0.2209
  629MPD2    H1 9318   1.971   1.961  16.235  0.7023  1.9572 -1.1527
  629MPD2    H2 9319   2.351   2.136  16.274  0.2149  0.2491  0.2342
  629MPD2    H3 9320   2.147   2.142  16.181  1.4766 -2.7368 -3.3178
  629MPD2     N 9321   2.017   1.752  16.394  0.0133 -0.3165  0.3239
  629MPD2    H5 9322   2.040   1.702  16.479  1.7985 -0.8595 -0.4759
  629MPD2    N1 9323   2.448   1.974  16.448  0.1544 -0.1912  0.8228
  629MPD2    H7 9324   2.498   2.055  16.412  2.1278 -1.3158  1.0614
  630TMC3    C1 9325   2.635   1.955  16.588  0.5504  0.3902 -0.2306
  630TMC3    C2 9326   2.712   1.993  16.482 -0.0357  0.5212 -0.5901
  630TMC3    C3 9327   2.842   2.017  16.517  0.0684 -0.6647 -0.1472
  630TMC3    C4 9328   2.696   1.914  16.706 -0.1777 -0.5400 -0.9865
  630TMC3    C5 9329   2.825   1.930  16.727 -0.2860 -0.1994 -0.3408
  630TMC3    C6 9330   2.901   1.988  16.634  0.4907  0.5455 -0.4804
  630TMC3     C 9331   2.505   1.902  16.551 -0.2788 -0.5550 -0.1842
  630TMC3     O 9332   2.448   1.817  16.618 -0.0747 -0.6155  0.5327
  630TMC3     H 9333   2.672   2.012  16.383  0.2652  0.7092 -0.6723
  630TMC3    H1 9334   2.623   1.881  16.780  0.5905  0.8122  0.3534
  630TMC3    H2 9335   3.001   2.027  16.653  0.7833 -0.8688  0.8605
  630TMC3    C7 9336   2.891   1.879  16.850  0.9440  0.2331  0.7201
  630TMC3    C8 9337   2.929   2.083  16.424 -0.1144  0.0725 -0.3679
  630TMC3    O1 9338   2.816   1.846  16.943  0.3035 -0.0939  0.3914
  630TMC3    O2 9339   3.048   2.061  16.446 -0.1246 -0.1939 -0.1161
  631MPD2     C 9340   0.246   1.873  15.747 -0.9148  0.3385 -0.7993
  631MPD2    C1 9341   0.343   1.912  15.654 -0.4033  0.9008 -0.4581
  631MPD2    C2 9342   0.470   1.865  15.664 -0.6452 -0.4437 -0.0563
  631MPD2    C3 9343   0.503   1.777  15.766  0.7476  0.5847  0.1253
  631MPD2    C4 9344   0.410   1.735  15.862 -0.0015 -0.0952 -0.3587
  631MPD2    C5 9345   0.279   1.781  15.852 -0.3118  0.3552 -0.2796
  631MPD2     H 9346   0.546   1.891  15.592  0.1386  0.0531  0.9485
  631MPD2    H1 9347   0.434   1.676  15.950 -0.2584  0.5930  0.1744
  631MPD2    H2 9348   0.145   1.910  15.754 -0.9762 -0.1686  0.9320
  631MPD2    H3 9349   0.209   1.752  15.929 -1.1378 -2.8445 -2.2383
  631MPD2     N 9350   0.630   1.721  15.763  0.2058 -0.2157  0.0356
  631MPD2    H5 9351   0.695   1.750  15.691 -1.9403 -1.3239 -2.3548
  631MPD2    N1 9352   0.310   2.001  15.545 -0.8321  0.6774 -0.4777
  631MPD2    H7 9353   0.216   2.038  15.549 -0.1058  2.3218  1.3455
  632TMC3    C1 9354   0.304   2.099  15.331  0.7279  0.4673 -0.0706
  632TMC3    C2 9355   0.205   2.188  15.356  0.7250 -0.8634 -0.1733
  632TMC3    C3 9356   0.112   2.208  15.257  0.4547 -0.2596  0.3760
  632TMC3    C4 9357   0.303   2.026  15.217  0.5702  0.8228  0.6981
  632TMC3    C5 9358   0.206   2.041  15.122 -0.2961  0.2351 -0.1487
  632TMC3    C6 9359   0.111   2.134  15.136  0.2180  0.0712  0.7348
  632TMC3     C 9360   0.382   2.049  15.441 -0.3886  0.2100 -0.0342
  632TMC3     O 9361   0.497   2.018  15.409 -0.2615 -0.0129 -0.2477
  632TMC3     H 9362   0.194   2.242  15.449 -0.6731 -0.4639 -0.5823
  632TMC3    H1 9363   0.385   1.955  15.214  0.8155  1.2242 -2.0191
  632TMC3    H2 9364   0.044   2.159  15.055  2.7877  0.9617 -1.0947
  632TMC3    C7 9365   0.240   2.007  14.986 -0.2520  0.6155 -0.7679
  632TMC3    C8 9366   4.713   2.287  15.289 -0.1267  0.2475 -0.5457
  632TMC3    O1 9367   0.158   2.045  14.901 -0.3711  1.0368  0.6863
  632TMC3    O2 9368   4.716   2.341  15.400 -0.0751 -0.3091  0.4798
  633MPD2     C 9369   0.317   0.161   0.063 -0.5603 -0.2756 -0.2880
  633MPD2    C1 9370   0.345   0.103  17.642 -0.5827 -0.7000 -0.2678
  633MPD2    C2 9371   0.413   4.709  17.641  0.1071  0.6161 -0.5312
  633MPD2    C3 9372   0.469   4.653   0.055 -0.1110 -0.1679 -0.5009
  633MPD2    C4 9373   0.446   4.714   0.173  0.4264 -0.2510  0.0279
  633MPD2    C5 9374   0.362   0.097   0.175 -0.6451 -0.9695  0.7468
  633MPD2     H 9375   0.437   4.668  17.543  0.2146  0.8545 -0.6069
  633MPD2    H1 9376   0.470   4.661   0.265  0.9748  1.5551  0.9193
  633MPD2    H2 9377   0.255   0.249   0.068  0.1341  0.3113 -2.0523
  633MPD2    H3 9378   0.324   0.130   0.271 -0.9315 -0.4672  0.4589
  633MPD2     N 9379   0.534   4.525   0.059  0.7782 -0.0629  0.6041
  633MPD2    H5 9380   0.549   4.482   0.150 -1.2592  1.5391  1.7099
  633MPD2    N1 9381   0.296   0.156  17.522  0.7230  0.1909  0.1408
  633MPD2    H7 9382   0.334   0.114  17.438 -0.7550  1.8698 -1.3823
  634TMC3    C1 9383   0.205   0.311  17.357 -0.2242 -0.6292  0.1737
  634TMC3    C2 9384   0.210   0.201  17.272 -0.2833  0.1385  0.2708
  634TMC3    C3 9385   0.248   0.221  17.141 -0.5865 -0.0630 -0.3630
  634TMC3    C4 9386   0.224   0.438  17.318 -0.6397  0.3863  0.0658
  634TMC3    C5 9387   0.252   0.452  17.188  1.3604  0.2326 -0.1115
  634TMC3    C6 9388   0.270   0.349  17.093 -0.6681  0.4392 -0.0875
  634TMC3     C 9389   0.234   0.280  17.498 -0.6534 -0.3619  0.1862
  634TMC3     O 9390   0.200   0.365  17.578  0.4425  0.3041 -0.3593
  634TMC3     H 9391   0.166   0.104  17.294  1.4288 -1.2206 -2.2753
  634TMC3    H1 9392   0.227   0.525  17.382  0.9056  2.3265 -2.6755
  634TMC3    H2 9393   0.280   0.367  16.987 -0.2516 -1.7421 -0.4111
  634TMC3    C7 9394   0.246   0.586  17.121 -0.8510 -0.7362 -0.3592
  634TMC3    C8 9395   0.221   0.105  17.059  0.1117  0.5281 -0.3607
  634TMC3    O1 9396   0.317   0.599  17.022  0.2588  0.1941 -0.4981
  634TMC3    O2 9397   0.162   0.011  17.103 -0.3586 -0.3928 -0.6049
  635TMC3    C1 9398   0.718   0.346   0.123 -0.1656  0.0208 -0.0709
  635TMC3    C2 9399   0.740   0.378  17.697  0.3920  0.4952  0.4857
  635TMC3    C3 9400   0.780   0.284  17.608 -0.3055 -0.4461  0.1846
  635TMC3    C4 9401   0.750   0.222   0.173 -0.1047 -0.1058  0.1435
  635TMC3    C5 9402   0.805   0.127   0.085 -0.0768  0.1557  0.0237
  635TMC3    C6 9403   0.824   0.166  17.657  0.0035  0.5157 -0.0077
  635TMC3     C 9404   0.681   0.454   0.208  0.4697 -0.1946  0.1417
  635TMC3     O 9405   0.662   0.567   0.160 -0.1956  0.2135  0.3793
  635TMC3     H 9406   0.728   0.480  17.664 -1.0611 -0.0834 -0.7740
  635TMC3    H1 9407   0.765   0.202   0.279 -1.4328 -0.1396  0.3263
  635TMC3    H2 9408   0.882   0.107  17.588  0.2431 -0.3641  0.9426
  635TMC3    C7 9409   0.856   4.722   0.134 -0.1405  0.0993  0.2723
  635TMC3    C8 9410   0.835   0.324  17.479  0.4587 -0.6211  0.3903
  635TMC3    O1 9411   0.842   4.706   0.254  0.1977  0.3084  0.2653
  635TMC3    O2 9412   0.882   0.437  17.482 -0.4258 -0.6270  0.0739
  636MPD2     C 9413   1.178   0.530  16.308 -0.6904  0.2223 -0.6685
  636MPD2    C1 9414   1.238   0.634  16.377 -0.0321  0.3657  0.3581
  636MPD2    C2 9415   1.343   0.607  16.467  0.4434  0.1308  0.2969
  636MPD2    C3 9416   1.393   0.476  16.486  0.2034 -0.0181 -0.3793
  636MPD2    C4 9417   1.334   0.373  16.412  0.2382  0.0101 -0.5855
  636MPD2    C5 9418   1.224   0.403  16.335  0.1752  0.0729 -0.2325
  636MPD2     H 9419   1.396   0.686  16.519 -1.8738  2.0356 -0.2560
  636MPD2    H1 9420   1.368   0.271  16.425 -0.4739 -0.1479  0.0570
  636MPD2    H2 9421   1.091   0.544  16.246 -0.9282 -1.8420 -0.8046
  636MPD2    H3 9422   1.177   0.320  16.283  0.2402 -0.6380  0.8369
  636MPD2     N 9423   1.507   0.459  16.571 -0.4425 -0.3312  0.3159
  636MPD2    H5 9424   1.552   0.535  16.620 -0.6875  1.0709 -1.6397
  636MPD2    N1 9425   1.205   0.769  16.364  0.2723  0.5154 -0.4943
  636MPD2    H7 9426   1.250   0.837  16.423  1.1263 -0.0854 -0.4577
  637TMC3    C1 9427   1.662   0.354  16.709  0.4634 -0.4290 -0.0675
  637TMC3    C2 9428   1.756   0.448  16.674 -0.6664 -0.1174 -0.1959
  637TMC3    C3 9429   1.884   0.428  16.725  0.1612 -0.2395 -0.0356
  637TMC3    C4 9430   1.687   0.239  16.779 -0.0417 -0.4410  0.1496
  637TMC3    C5 9431   1.811   0.224  16.834  0.4242  0.2529 -0.2270
  637TMC3    C6 9432   1.902   0.328  16.817 -0.0414  0.6615  0.0220
  637TMC3     C 9433   1.552   0.340  16.610 -0.2760 -0.4930  0.0157
  637TMC3     O 9434   1.509   0.228  16.600 -0.2121 -0.4444 -0.8011
  637TMC3     H 9435   1.733   0.526  16.603 -1.6861 -0.0331  0.2244
  637TMC3    H1 9436   1.613   0.163  16.801  1.0956 -1.5595  0.1376
  637TMC3    H2 9437   2.003   0.321  16.858 -0.4599 -0.6038  0.8304
  637TMC3    C7 9438   1.852   0.089  16.878 -0.3679 -1.4445 -0.4889
  637TMC3    C8 9439   1.992   0.479  16.639 -0.0055  0.8243  0.3392
  637TMC3    O1 9440   1.759   0.017  16.907  0.4387  0.0430  0.3365
  637TMC3    O2 9441   1.962   0.545  16.541  0.3798 -0.4067 -0.7003
  638MPD2     C 9442   1.438   3.723  15.572  0.6356 -0.2700 -0.1643
  638MPD2    C1 9443   1.374   3.665  15.464 -0.0928  0.5668 -0.2559
  638MPD2    C2 9444   1.241   3.619  15.473  0.1969 -0.7455  0.8282
  638MPD2    C3 9445   1.183   3.608  15.594 -0.2928  0.4674 -0.3583
  638MPD2    C4 9446   1.253   3.645  15.704  0.5490  0.6638 -0.0184
  638MPD2    C5 9447   1.376   3.704  15.693 -0.0791 -0.5963 -0.3901
  638MPD2     H 9448   1.186   3.587  15.385  3.2245 -1.0896 -0.9188
  638MPD2    H1 9449   1.208   3.637  15.802  0.9647 -0.2174  0.0984
  638MPD2    H2 9450   1.538   3.765  15.563 -0.7499  2.4786 -2.5626
  638MPD2    H3 9451   1.424   3.727  15.787  1.6584 -0.5625 -1.2891
  638MPD2     N 9452   1.060   3.547  15.616 -0.9540 -0.7958 -0.0159
  638MPD2    H5 9453   1.024   3.533  15.710  0.2087 -0.7821  0.4283
  638MPD2    N1 9454   1.453   3.653  15.349  0.1632 -0.0052  0.4644
  638MPD2    H7 9455   1.547   3.691  15.359 -0.5315  1.0028  2.9888
  639TMC3    C1 9456   0.916   3.376  15.550 -0.0690 -0.1116 -0.3120
  639TMC3    C2 9457   0.841   3.323  15.450 -0.0116 -0.0183 -0.2421
  639TMC3    C3 9458   0.872   3.192  15.403 -0.3542 -0.2980 -0.7648
  639TMC3    C4 9459   1.010   3.295  15.618  0.8800  0.2066  0.2502
  639TMC3    C5 9460   1.028   3.165  15.572 -0.3361 -0.0977  0.6907
  639TMC3    C6 9461   0.963   3.117  15.465  0.1782 -0.1848  0.2980
  639TMC3     C 9462   0.975   3.507  15.516  0.5728 -0.6372 -0.2244
  639TMC3     O 9463   0.961   3.563  15.409  0.2731  0.3453  0.2367
  639TMC3     H 9464   0.772   3.377  15.386  0.1181  1.9733  1.2919
  639TMC3    H1 9465   1.058   3.327  15.709 -1.2990  0.8547  1.1568
  639TMC3    H2 9466   1.001   3.026  15.421 -1.1404 -0.9197  0.7004
  639TMC3    C7 9467   1.153   3.106  15.607 -0.4350 -0.1632  0.1465
  639TMC3    C8 9468   0.836   3.160  15.269 -0.0669 -0.3931  0.2597
  639TMC3    O1 9469   1.179   2.990  15.587  0.5642  0.3712  0.2330
  639TMC3    O2 9470   0.915   3.101  15.201  0.1322 -0.1238 -0.2624
  640MPD2     C 9471   1.989   2.171   9.941  0.3455 -0.2247 -0.9391
  640MPD2    C1 9472   1.967   2.200   9.814 -0.1273 -0.1374 -0.1909
  640MPD2    C2 9473   1.903   2.315   9.776  0.4119 -0.2337  0.7508
  640MPD2    C3 9474   1.852   2.399   9.870  0.1852  0.8428 -0.3709
  640MPD2    C4 9475   1.856   2.359  10.001  0.1045  0.6954  0.0073
  640MPD2    C5 9476   1.928   2.249  10.036  0.1418 -0.1807 -0.5516
  640MPD2     H 9477   1.893   2.341   9.671  1.2131 -0.0468  0.7187
  640MPD2    H1 9478   1.818   2.427  10.076  0.0454  1.6395 -0.8701
  640MPD2    H2 9479   2.043   2.084   9.976  0.3108 -0.0977 -0.5668
  640MPD2    H3 9480   1.937   2.216  10.139  0.2501 -1.0430 -0.8348
  640MPD2     N 9481   1.770   2.509   9.838  0.0609 -0.3146  0.0382
  640MPD2    H5 9482   1.736   2.557   9.920 -1.6686 -0.4207 -0.6094
  640MPD2    N1 9483   2.008   2.101   9.727 -0.0396  0.1055 -0.1133
  640MPD2    H7 9484   2.058   2.022   9.766 -0.4140  0.3813  0.9233
  641TMC3    C1 9485   2.037   2.002   9.518 -0.0785 -0.3250  0.0414
  641TMC3    C2 9486   2.146   1.934   9.573 -0.4040 -0.5853  0.0328
  641TMC3    C3 9487   2.212   1.847   9.489 -0.4023 -0.3349  0.2366
  641TMC3    C4 9488   1.987   1.984   9.389  0.1090 -0.0394  0.3771
  641TMC3    C5 9489   2.054   1.886   9.314 -0.2976  0.0119  0.2739
  641TMC3    C6 9490   2.167   1.824   9.362 -0.4250 -0.1501  0.7318
  641TMC3     C 9491   1.977   2.109   9.594 -0.1919 -0.1017 -0.8307
  641TMC3     O 9492   1.931   2.193   9.519  0.1562  0.7991 -0.4101
  641TMC3     H 9493   2.192   1.959   9.668  0.9496 -0.3135 -0.6980
  641TMC3    H1 9494   1.903   2.042   9.354  0.0317 -1.4249 -1.7397
  641TMC3    H2 9495   2.217   1.751   9.299 -1.7709  1.0149 -1.7095
  641TMC3    C7 9496   1.969   1.804   9.226 -0.0534 -0.0636  0.3458
  641TMC3    C8 9497   2.308   1.752   9.536 -0.0745 -0.2660 -0.3487
  641TMC3    O1 9498   2.029   1.724   9.151  0.0423 -0.2219  0.1252
  641TMC3    O2 9499   2.295   1.652   9.471  0.2284  0.2860  0.1935
  642TMC3    C1 9500   3.421   3.889  11.804  0.6629  0.1055 -0.1796
  642TMC3    C2 9501   3.550   3.853  11.787 -0.2481  0.0533 -0.5261
  642TMC3    C3 9502   3.579   3.722  11.758  0.4773 -0.0635 -0.7226
  642TMC3    C4 9503   3.318   3.796  11.790 -0.4916  0.3423  0.6269
  642TMC3    C5 9504   3.354   3.673  11.749  0.1834  0.0199 -0.0842
  642TMC3    C6 9505   3.478   3.628  11.736 -0.2119 -0.1532 -0.0846
  642TMC3     C 9506   3.392   4.030  11.785  0.1442 -0.1692 -0.1724
  642TMC3     O 9507   3.436   4.083  11.684  0.3544  0.4709 -0.3122
  642TMC3     H 9508   3.630   3.924  11.798  1.1890 -1.6067 -0.2944
  642TMC3    H1 9509   3.211   3.811  11.783 -0.6254 -1.4189 -1.0167
  642TMC3    H2 9510   3.508   3.524  11.736 -0.6411 -0.2769  0.1236
  642TMC3    C7 9511   3.255   3.570  11.767 -0.0982 -0.7810 -0.3073
  642TMC3    C8 9512   3.718   3.666  11.771 -0.5005 -0.3696 -0.3593
  642TMC3    O1 9513   3.158   3.577  11.697 -0.5126 -0.3723 -0.4319
  642TMC3    O2 9514   3.759   3.586  11.690 -0.0505 -0.1610 -0.5007
  643TMC3    C1 9515   2.023   2.821   0.328 -0.2857 -0.3341 -0.0899
  643TMC3    C2 9516   1.942   2.756   0.238 -0.3442  0.0424  0.2073
  643TMC3    C3 9517   2.008   2.676   0.149 -0.1031  0.3705 -0.7439
  643TMC3    C4 9518   2.156   2.804   0.329 -0.1701 -0.8021  0.0716
  643TMC3    C5 9519   2.216   2.723   0.230  0.7939  0.1570 -0.2012
  643TMC3    C6 9520   2.142   2.654   0.140 -0.1315 -0.0174 -0.4218
  643TMC3     C 9521   1.954   2.874   0.446 -0.2759 -0.4067  0.3083
  643TMC3     O 9522   1.844   2.925   0.420  0.0675  0.3920  0.4684
  643TMC3     H 9523   1.834   2.761   0.240 -0.4772 -2.7470  0.3806
  643TMC3    H1 9524   2.221   2.863   0.393  0.7404 -1.0169 -0.6532
  643TMC3    H2 9525   2.192   2.595   0.065  0.4600  0.5739 -0.4962
  643TMC3    C7 9526   2.339   2.767   0.167 -0.2087 -0.0275 -0.0660
  643TMC3    C8 9527   1.961   2.681   0.015 -0.5531 -0.3810  0.3193
  643TMC3    O1 9528   2.381   2.883   0.184 -0.4237  0.0310  0.0412
  643TMC3    O2 9529   2.002   2.597  17.638 -0.0216 -0.6954 -0.1184
  644MPD2     C 9530   2.098   2.935   9.666 -0.0359  0.1107 -1.1073
  644MPD2    C1 9531   2.028   2.881   9.562 -0.8275 -0.7514  0.4814
  644MPD2    C2 9532   1.931   2.954   9.496  0.2830  1.0125 -0.0635
  644MPD2    C3 9533   1.919   3.088   9.531 -1.1279 -0.7134 -0.1571
  644MPD2    C4 9534   2.002   3.142   9.633 -0.4438 -0.1082  0.2046
  644MPD2    C5 9535   2.088   3.064   9.696  0.0827 -0.3443 -0.2806
  644MPD2     H 9536   1.862   2.906   9.427  0.3308  0.2334  0.4276
  644MPD2    H1 9537   2.003   3.243   9.671  1.3627  0.9545 -2.6278
  644MPD2    H2 9538   2.174   2.876   9.717 -2.9424 -1.8781  0.9252
  644MPD2    H3 9539   2.154   3.100   9.774  1.4888  0.1960 -1.7429
  644MPD2     N 9540   1.822   3.168   9.465 -0.4077  0.3325  0.2411
  644MPD2    H5 9541   1.753   3.124   9.405  1.4579 -1.9761 -0.2009
  644MPD2    N1 9542   2.061   2.746   9.541  0.2099 -0.4352 -0.1173
  644MPD2    H7 9543   2.140   2.702   9.587 -0.2597 -0.4003  0.7226
  645TMC3    C1 9544   1.734   3.374   9.396 -0.2869 -0.2008  0.3406
  645TMC3    C2 9545   1.615   3.304   9.367 -0.8882 -0.2289  0.3602
  645TMC3    C3 9546   1.529   3.347   9.272 -0.3464  0.0827 -0.0420
  645TMC3    C4 9547   1.774   3.482   9.331  0.3257 -0.6145  0.2444
  645TMC3    C5 9548   1.693   3.510   9.223  0.6208 -0.0586 -1.3556
  645TMC3    C6 9549   1.571   3.450   9.192  0.2410 -0.6237 -0.6689
  645TMC3     C 9550   1.837   3.303   9.468  0.2211  0.1723  0.2928
  645TMC3     O 9551   1.932   3.372   9.500 -0.3903 -0.1989 -0.3173
  645TMC3     H 9552   1.580   3.238   9.446  1.6872 -0.8510  0.9952
  645TMC3    H1 9553   1.865   3.538   9.352  0.6735 -0.0722 -2.7216
  645TMC3    H2 9554   1.509   3.474   9.107 -0.6365  1.6700  0.6198
  645TMC3    C7 9555   1.746   3.601   9.124 -0.2497 -0.0655 -0.3383
  645TMC3    C8 9556   1.383   3.331   9.274  0.2850  0.7607 -0.3988
  645TMC3    O1 9557   1.852   3.661   9.153 -0.1640 -0.4165 -0.0466
  645TMC3    O2 9558   1.312   3.386   9.188  0.3012 -0.1889 -0.3852
  646MPD2     C 9559   1.228   2.429  14.369 -0.1718  0.5750 -0.3674
  646MPD2    C1 9560   1.208   2.457  14.500  0.4191 -0.2043  0.8738
  646MPD2    C2 9561   1.128   2.566  14.531  0.2997 -0.1253  0.0360
  646MPD2    C3 9562   1.069   2.650  14.428 -0.6902  0.1519 -0.1980
  646MPD2    C4 9563   1.106   2.622  14.299 -0.0065 -0.0588 -0.0031
  646MPD2    C5 9564   1.171   2.509  14.275 -0.7727 -0.4222 -0.6665
  646MPD2     H 9565   1.109   2.597  14.632  0.9332 -2.2308  0.8065
  646MPD2    H1 9566   1.074   2.681  14.214  0.4554 -0.7734 -0.6770
  646MPD2    H2 9567   1.286   2.343  14.337 -2.8444 -2.2099  2.3477
  646MPD2    H3 9568   1.178   2.493  14.168  1.2628  0.3477 -0.6454
  646MPD2     N 9569   0.985   2.760  14.467 -0.2044 -0.0751  0.0156
  646MPD2    H5 9570   0.942   2.769  14.559 -2.0561  0.5217 -0.9058
  646MPD2    N1 9571   1.260   2.362  14.591 -0.1789 -0.5134 -0.2022
  646MPD2    H7 9572   1.328   2.295  14.555  1.3585  0.6518  0.5197
  647TMC3    C1 9573   1.330   2.266  14.799  0.9139 -0.1582 -0.6182
  647TMC3    C2 9574   1.321   2.267  14.938  0.2229  0.6073  0.2967
  647TMC3    C3 9575   1.428   2.219  15.006  0.3273 -0.6130  0.1752
  647TMC3    C4 9576   1.434   2.214  14.726 -0.0483 -0.4282  0.0562
  647TMC3    C5 9577   1.534   2.163  14.807  0.6626  0.1869  0.4200
  647TMC3    C6 9578   1.542   2.178  14.940  0.1226  0.1473  0.4654
  647TMC3     C 9579   1.239   2.359  14.724 -0.1283 -0.1099  0.4176
  647TMC3     O 9580   1.171   2.426  14.795 -0.4342  0.4824 -0.3965
  647TMC3     H 9581   1.227   2.296  14.983 -1.3577 -1.5347 -1.6351
  647TMC3    H1 9582   1.452   2.214  14.619 -0.5181  0.3413 -0.0174
  647TMC3    H2 9583   1.620   2.129  14.996  1.7684  0.9857 -1.0626
  647TMC3    C7 9584   1.654   2.107  14.745  0.0958  0.4142  0.7159
  647TMC3    C8 9585   1.399   2.125  15.102 -0.6825  0.6636  0.3879
  647TMC3    O1 9586   1.756   2.106  14.810 -0.3827  0.9455 -0.3903
  647TMC3    O2 9587   1.433   2.013  15.077  0.3412  0.3310 -1.1519
  648TMC3    C1 9588   0.586   0.084  16.411  0.4491 -0.0309  0.4483
  648TMC3    C2 9589   0.610   4.687  16.354 -0.1603  0.7290  0.6051
  648TMC3    C3 9590   0.595   4.667  16.221  0.4725 -0.2231 -0.9464
  648TMC3    C4 9591   0.533   0.190  16.337  0.0156  0.0194 -0.1522
  648TMC3    C5 9592   0.511   0.161  16.204  0.2511  0.8804  0.3348
  648TMC3    C6 9593   0.540   0.040  16.145  0.0995  0.1515 -0.3331
  648TMC3     C 9594   0.601   0.109  16.556 -0.8856 -0.9567 -0.1140
  648TMC3     O 9595   0.570   0.220  16.588  0.5012 -0.7227  0.3765
  648TMC3     H 9596   0.661   4.613  16.414  1.1933 -0.2258 -1.7642
  648TMC3    H1 9597   0.505   0.288  16.375  0.7503 -0.5406  1.8151
  648TMC3    H2 9598   0.530   0.033  16.038  0.1530 -0.6838 -0.2835
  648TMC3    C7 9599   0.449   0.258  16.120  0.5038 -0.6583  0.0851
  648TMC3    C8 9600   0.625   4.535  16.163  0.3104  0.0615  0.6856
  648TMC3    O1 9601   0.423   0.222  16.008 -0.2394 -0.0214  0.0359
  648TMC3    O2 9602   0.630   4.522  16.042  0.2842 -0.4937  0.0045
  649TMC3    C1 9603   0.067   1.355  12.725 -0.1400 -0.3068 -0.2117
  649TMC3    C2 9604   0.196   1.392  12.708 -0.3481  0.7466  0.4761
  649TMC3    C3 9605   0.300   1.319  12.762 -0.3781 -0.2250 -0.6091
  649TMC3    C4 9606   0.033   1.250  12.806 -0.1029  0.3663  0.4096
  649TMC3    C5 9607   0.141   1.172  12.852 -0.0548  0.7621 -0.1784
  649TMC3    C6 9608   0.271   1.208  12.836 -0.3954 -0.5496 -0.0418
  649TMC3     C 9609   4.701   1.443  12.656 -0.5350  0.1459 -0.4067
  649TMC3     O 9610   4.588   1.443  12.712 -0.0738  0.3932 -0.7464
  649TMC3     H 9611   0.228   1.487  12.666  0.9598  0.3318  0.5088
  649TMC3    H1 9612   4.660   1.205  12.789  0.2870  0.1315 -1.2470
  649TMC3    H2 9613   0.345   1.170  12.906 -0.9224 -1.9065 -0.2341
  649TMC3    C7 9614   0.099   1.065  12.937  0.2780  0.2683  0.0869
  649TMC3    C8 9615   0.432   1.359  12.721 -0.2053 -0.0089 -0.5875
  649TMC3    O1 9616   4.720   1.076  12.994  0.2072  0.1206  0.0831
  649TMC3    O2 9617   0.445   1.441  12.634  0.1656 -0.3123  0.1370
  650TMC3    C1 9618   2.652   3.260  12.488  0.3253  0.3888  1.0393
  650TMC3    C2 9619   2.680   3.390  12.505 -0.6565 -0.6655 -0.3405
  650TMC3    C3 9620   2.678   3.473  12.395  0.7192  0.1771  0.2121
  650TMC3    C4 9621   2.630   3.208  12.362 -0.2163 -0.3417 -0.2393
  650TMC3    C5 9622   2.622   3.294  12.247 -0.1844 -0.4051  0.9401
  650TMC3    C6 9623   2.654   3.427  12.264  0.3381 -0.5545  0.4919
  650TMC3     C 9624   2.619   3.185  12.605 -0.3283 -0.5731  0.3947
  650TMC3     O 9625   2.595   3.250  12.700 -0.4573  0.2379 -0.5744
  650TMC3     H 9626   2.703   3.432  12.602  0.7245 -0.2088 -0.8712
  650TMC3    H1 9627   2.595   3.107  12.342  0.4929 -0.7670  0.6668
  650TMC3    H2 9628   2.654   3.498  12.181 -0.4122  1.2292  2.0232
  650TMC3    C7 9629   2.542   3.244  12.130 -0.3691 -0.5318  0.3740
  650TMC3    C8 9630   2.656   3.619  12.417  0.1971  0.3936 -0.0461
  650TMC3    O1 9631   2.450   3.175  12.172 -0.5571 -0.2292 -0.0935
  650TMC3    O2 9632   2.667   3.694  12.326  0.4822  0.1495  0.3660
  651MPD2     C 9633   1.747   4.144  10.959 -0.2933 -0.2328  0.7511
  651MPD2    C1 9634   1.667   4.242  10.909 -0.4212 -0.5741 -0.3677
  651MPD2    C2 9635   1.733   4.346  10.841  0.2322 -0.1772 -0.3940
  651MPD2    C3 9636   1.867   4.337  10.815 -0.5319  0.4330 -0.1697
  651MPD2    C4 9637   1.939   4.227  10.854  0.2342 -0.0766 -0.7891
  651MPD2    C5 9638   1.879   4.135  10.925 -0.1555 -1.0310  0.7415
  651MPD2     H 9639   1.687   4.441  10.817  1.3598  0.7925  1.2596
  651MPD2    H1 9640   2.041   4.197  10.833  0.3562 -0.3561  0.1885
  651MPD2    H2 9641   1.707   4.057  11.010  0.6010 -0.9240  0.2733
  651MPD2    H3 9642   1.920   4.036  10.944 -0.0863 -1.2166 -0.3582
  651MPD2     N 9643   1.924   4.447  10.750 -0.0777  0.0429 -0.2663
  651MPD2    H5 9644   1.860   4.524  10.736 -0.7505 -0.6835 -1.1680
  651MPD2    N1 9645   1.527   4.252  10.920 -0.0158 -0.1050  0.4764
  651MPD2    H7 9646   1.487   4.329  10.867 -1.4065 -0.2552  1.3162
  652TMC3    C1 9647   2.233   0.032  10.603  0.2041  0.1665  1.4848
  652TMC3    C2 9648   2.217   4.633  10.654  0.2849 -0.3697  1.0619
  652TMC3    C3 9649   2.091   4.597  10.689 -0.9474 -0.4222 -0.0328
  652TMC3    C4 9650   2.149   0.141  10.622 -0.1288 -0.1132 -0.1086
  652TMC3    C5 9651   2.022   0.103  10.661 -0.3194  0.3153  0.7853
  652TMC3    C6 9652   1.999   4.702  10.703 -0.4305  0.5409  0.1711
  652TMC3     C 9653   2.370   0.065  10.568 -0.2831  0.7349  0.8911
  652TMC3     O 9654   2.458   4.717  10.612 -0.2528  0.0216  0.1266
  652TMC3     H 9655   2.283   4.550  10.633  1.2935  0.2650  1.7032
  652TMC3    H1 9656   2.159   0.239  10.576 -0.6386 -0.8433 -1.7833
  652TMC3    H2 9657   1.899   4.684  10.741  0.2284 -1.2357  1.0590
  652TMC3    C7 9658   1.930   0.207  10.702 -0.1949 -0.2151 -0.1445
  652TMC3    C8 9659   2.062   4.466  10.730  0.5830 -0.3091 -0.1688
  652TMC3    O1 9660   1.809   0.179  10.713  0.1725  0.5616 -0.0443
  652TMC3    O2 9661   2.156   4.390  10.756  0.2320 -0.0909 -0.4075
  653MPD2     C 9662   0.122   0.159   0.419  0.0096  0.0066  0.1196
  653MPD2    C1 9663   0.063   0.239   0.322 -0.6893 -0.5451  0.5427
  653MPD2    C2 9664   4.718   0.184   0.210  0.4531  0.8170 -0.0426
  653MPD2    C3 9665   4.720   0.049   0.188 -0.6037  1.1889 -0.1428
  653MPD2    C4 9666   0.047   4.698   0.290 -0.4629 -0.3441 -0.2222
  653MPD2    C5 9667   0.118   0.024   0.400  0.6733 -0.2089 -0.1856
  653MPD2     H 9668   4.666   0.253   0.144  1.0578  0.2111 -1.1486
  653MPD2    H1 9669   0.047   4.589   0.291  1.3201 -0.3592 -1.9647
  653MPD2    H2 9670   0.176   0.186   0.509  0.9520 -0.8742 -0.1841
  653MPD2    H3 9671   0.168   4.684   0.471  1.5146  0.7869  0.1350
  653MPD2     N 9672   4.651   4.723   0.078 -0.0309  0.4206 -0.2846
  653MPD2    H5 9673   4.598   0.065   0.023  0.2676  0.9599  0.0909
  653MPD2    N1 9674   0.060   0.383   0.337 -0.2510  0.5290 -0.2315
  653MPD2    H7 9675   4.712   0.426   0.282 -0.5132 -0.9473 -1.0558
  654TMC3    C1 9676   4.528   4.566  17.649  0.0035  0.0545 -0.4158
  654TMC3    C2 9677   4.432   4.661  17.622  0.4079  0.3336  0.5891
  654TMC3    C3 9678   4.346   4.654  17.520  0.3962  0.3216 -0.3765
  654TMC3    C4 9679   4.535   4.452  17.571  0.5232  0.1088  0.4733
  654TMC3    C5 9680   4.442   4.437  17.472 -0.2134 -0.3184 -0.0627
  654TMC3    C6 9681   4.350   4.534  17.451 -0.1324  0.2220 -0.0343
  654TMC3     C 9682   4.633   4.587   0.051 -0.4292  0.0969 -0.9068
  654TMC3     O 9683   4.679   4.483   0.101  0.1327 -0.5798  0.2317
  654TMC3     H 9684   4.413   0.016  17.693  0.6355  1.7800 -0.9931
  654TMC3    H1 9685   4.616   4.382  17.589 -0.3709 -1.5638 -2.0575
  654TMC3    H2 9686   4.274   4.518  17.375  0.2327 -2.9931  0.2814
  654TMC3    C7 9687   4.448   4.328  17.378 -0.4874 -0.0360  0.7156
  654TMC3    C8 9688   4.249   0.032  17.498  0.7177 -0.3453 -0.1355
  654TMC3    O1 9689   4.363   4.324  17.292 -0.1987 -0.6956  0.2184
  654TMC3    O2 9690   4.211   0.109  17.586  0.0028  0.6776  0.9417
  655MPD2     C 9691   1.171   0.049  15.769 -0.5864  0.1756  0.1584
  655MPD2    C1 9692   1.105   0.160  15.719  0.6495 -0.1979  0.7744
  655MPD2    C2 9693   1.077   0.155  15.581  0.0349 -0.5457 -0.7152
  655MPD2    C3 9694   1.118   0.050  15.502 -0.2067  0.1661 -0.6937
  655MPD2    C4 9695   1.179   4.668  15.557  0.1527  0.2880  0.2041
  655MPD2    C5 9696   1.208   4.665  15.691 -0.5549 -0.2928  0.0351
  655MPD2     H 9697   1.030   0.240  15.533 -1.5615 -0.1461  1.5778
  655MPD2    H1 9698   1.222   4.589  15.496 -0.5062 -1.3038  1.7969
  655MPD2    H2 9699   1.185   0.044  15.877 -0.0549 -0.7829  0.0517
  655MPD2    H3 9700   1.269   4.588  15.735  0.5791  1.5228  1.6657
  655MPD2     N 9701   1.080   0.036  15.368  0.4671 -0.4361  0.5079
  655MPD2    H5 9702   1.094   4.673  15.321  0.2580  0.5830 -1.4688
  655MPD2    N1 9703   1.051   0.266  15.798  0.6311  0.2007 -0.3034
  655MPD2    H7 9704   1.006   0.344  15.750 -2.6709 -1.2790  0.3977
  656TMC3    C1 9705   0.988   0.400  15.972 -0.5203 -0.1627  0.4247
  656TMC3    C2 9706   0.908   0.395  16.089 -0.0298  0.6080 -0.0097
  656TMC3    C3 9707   0.814   0.485  16.110  0.0628 -0.0442  0.6301
  656TMC3    C4 9708   0.967   0.501  15.883 -0.0105  0.4623 -0.6072
  656TMC3    C5 9709   0.872   0.596  15.911 -0.4783  0.4812 -0.7378
  656TMC3    C6 9710   0.790   0.585  16.021  0.4528  0.7899 -0.1611
  656TMC3     C 9711   1.046   0.273  15.931 -0.1959  0.2502 -0.9043
  656TMC3     O 9712   1.087   0.194  16.013  0.8840 -0.7301 -0.2761
  656TMC3     H 9713   0.918   0.305  16.149  1.0111  1.9578  1.8288
  656TMC3    H1 9714   1.042   0.518  15.807 -0.5906  0.4203 -1.1819
  656TMC3    H2 9715   0.715   0.658  16.048 -1.4865  0.5798 -4.9267
  656TMC3    C7 9716   0.861   0.696  15.807 -0.3336 -0.3960 -0.5752
  656TMC3    C8 9717   0.783   0.496  16.254  0.7530  0.5335  0.4257
  656TMC3    O1 9718   0.963   0.740  15.760  0.1034 -0.0072  0.0665
  656TMC3    O2 9719   0.743   0.403  16.322 -0.6580 -0.7204  0.0971
  657TMC3    C1 9720   0.013   4.320  14.625 -0.2274 -0.7377 -0.4159
  657TMC3    C2 9721   4.607   4.311  14.613 -0.3595 -0.0347 -0.3314
  657TMC3    C3 9722   4.527   4.345  14.720 -0.7739 -0.9202  0.5034
  657TMC3    C4 9723   0.074   4.364  14.739  0.7118 -0.3710  0.8828
  657TMC3    C5 9724   4.719   4.394  14.844  0.2463 -0.2910  0.5117
  657TMC3    C6 9725   4.586   4.383  14.837  0.1843  0.1275  0.0563
  657TMC3     C 9726   0.091   4.271  14.522 -0.8439 -0.5030 -0.4458
  657TMC3     O 9727   0.044   4.291  14.410  0.4130  0.1305  0.1419
  657TMC3     H 9728   4.554   4.287  14.521  0.1910  0.8250 -0.8652
  657TMC3    H1 9729   0.180   4.351  14.758  0.6398 -1.8329  0.2593
  657TMC3    H2 9730   4.527   4.415  14.921  1.0750  1.1720  0.2765
  657TMC3    C7 9731   0.056   4.406  14.973  0.1591  0.3266 -0.3431
  657TMC3    C8 9732   4.384   4.330  14.722  0.4938 -0.1810  0.2445
  657TMC3    O1 9733   0.171   4.375  14.971 -0.4276  0.0311 -0.5872
  657TMC3    O2 9734   4.330   4.322  14.614 -0.0222 -0.2948 -0.5030
  658MPD2     C 9735   1.478   0.041  14.733  0.1118 -0.2272 -0.0547
  658MPD2    C1 9736   1.354   0.112  14.724 -0.9196 -0.8795  0.5568
  658MPD2    C2 9737   1.353   0.208  14.625 -0.3161 -0.1972 -0.7258
  658MPD2    C3 9738   1.447   0.230  14.536  0.4463 -0.0407  0.7636
  658MPD2    C4 9739   1.556   0.148  14.532  0.1348  0.0034  0.1524
  658MPD2    C5 9740   1.569   0.056  14.629 -0.1383 -0.0162  0.7302
  658MPD2     H 9741   1.263   0.266  14.609  1.1706  2.7968  2.0616
  658MPD2    H1 9742   1.634   0.165  14.459 -1.1543  0.5872 -1.0786
  658MPD2    H2 9743   1.507   4.705  14.818 -1.7730 -0.6435  0.2858
  658MPD2    H3 9744   1.664   0.005  14.638  0.7628  1.5990  0.3674
  658MPD2     N 9745   1.409   0.328  14.434 -0.3207  0.6948 -0.5920
  658MPD2    H5 9746   1.318   0.372  14.446  0.0952  1.2736  0.3865
  658MPD2    N1 9747   1.244   0.095  14.812 -0.2870  0.2707 -0.0410
  658MPD2    H7 9748   1.178   0.170  14.794  0.6000  0.7880 -1.1492
  659TMC3    C1 9749   1.098   0.023  14.972 -0.3971  0.1660 -0.7254
  659TMC3    C2 9750   1.101   0.040  15.104  0.1346  0.1646 -0.3673
  659TMC3    C3 9751   0.980   0.066  15.165 -0.2817 -0.3587 -0.0144
  659TMC3    C4 9752   0.982   0.046  14.899  0.0542  0.9502  0.1446
  659TMC3    C5 9753   0.863   0.078  14.964  0.0966  0.9977 -0.0889
  659TMC3    C6 9754   0.863   0.096  15.102  0.2092 -0.2466 -0.2853
  659TMC3     C 9755   1.225   0.011  14.914  0.6247  0.3782 -0.6910
  659TMC3     O 9756   1.303   4.650  14.956  0.2459 -0.5637  0.0649
  659TMC3     H 9757   1.195   0.025  15.156 -0.5380 -1.4596  0.3471
  659TMC3    H1 9758   0.979   0.043  14.791  4.3339  1.4116 -0.0010
  659TMC3    H2 9759   0.779   0.123  15.165  0.0733  0.6573 -0.8576
  659TMC3    C7 9760   0.725   0.076  14.906 -0.6746  0.8221  0.3897
  659TMC3    C8 9761   0.994   0.118  15.303  0.1651  0.5575 -1.0342
  659TMC3    O1 9762   0.634   0.141  14.960 -0.8105  0.1836 -0.5425
  659TMC3    O2 9763   0.910   0.200  15.339  0.3100  0.0500 -0.7889
  660MPD2     C 9764   4.339   3.712  12.743  0.1930 -0.4201  0.5567
  660MPD2    C1 9765   4.231   3.737  12.660 -0.5379 -0.2467  0.0972
  660MPD2    C2 9766   4.111   3.682  12.702  1.1377 -0.1901  0.0870
  660MPD2    C3 9767   4.097   3.617  12.826  0.0110  0.4113 -0.2026
  660MPD2    C4 9768   4.205   3.601  12.907  0.3895 -0.3124 -0.1877
  660MPD2    C5 9769   4.326   3.645  12.858 -0.7281  0.6018  0.0228
  660MPD2     H 9770   4.026   3.698  12.638  1.3631 -0.4198 -0.2676
  660MPD2    H1 9771   4.207   3.540  12.996 -0.1404 -0.6718 -0.4230
  660MPD2    H2 9772   4.438   3.748  12.717  0.4511 -1.8174 -0.3972
  660MPD2    H3 9773   4.403   3.622  12.931 -0.2811  0.8683 -0.3660
  660MPD2     N 9774   3.976   3.557  12.864 -0.6596  0.3881 -0.1752
  660MPD2    H5 9775   3.978   3.513  12.956  1.4535  0.9410  0.0331
  660MPD2    N1 9776   4.247   3.819  12.545  0.3156 -0.2220 -0.7553
  660MPD2    H7 9777   4.338   3.857  12.523  0.1962  0.3525 -0.2562
  661TMC3    C1 9778   4.185   3.913  12.333  0.2325 -0.2727  0.5442
  661TMC3    C2 9779   4.304   3.872  12.272  0.5110  0.6164  0.3251
  661TMC3    C3 9780   4.325   3.911  12.139  0.2734 -0.5935 -0.2520
  661TMC3    C4 9781   4.083   3.972  12.255  0.3424  0.1336 -0.4393
  661TMC3    C5 9782   4.113   4.002  12.125 -0.2438  0.3535  1.1030
  661TMC3    C6 9783   4.230   3.975  12.060 -0.1910  0.1597  0.0158
  661TMC3     C 9784   4.146   3.840  12.453 -0.3359  0.5179 -0.7239
  661TMC3     O 9785   4.026   3.811  12.460 -0.5635  0.3889  0.1855
  661TMC3     H 9786   4.374   3.808  12.324  0.2206  2.6259  3.2024
  661TMC3    H1 9787   3.981   3.982  12.288  0.5624  1.0284 -0.0385
  661TMC3    H2 9788   4.269   4.026  11.973  0.2271 -1.6437 -0.8491
  661TMC3    C7 9789   4.003   4.046  12.041 -0.2382 -0.1008 -0.0806
  661TMC3    C8 9790   4.442   3.865  12.072 -0.1576 -0.2277 -0.6311
  661TMC3    O1 9791   3.902   4.082  12.098  0.5034 -0.2879  0.4707
  661TMC3    O2 9792   4.414   3.822  11.962 -0.1413  0.3753  0.0457
  662MPD2     C 9793   4.479   3.637  17.443 -0.0686  0.1408 -0.5630
  662MPD2    C1 9794   4.350   3.582  17.436  0.2178 -0.2334 -0.2126
  662MPD2    C2 9795   4.240   3.656  17.462 -0.1032  0.2921 -0.2220
  662MPD2    C3 9796   4.254   3.794  17.483 -0.1657  0.5877  0.8037
  662MPD2    C4 9797   4.377   3.851  17.485  0.2021  0.3545  0.6414
  662MPD2    C5 9798   4.485   3.765  17.469 -0.8257 -0.0189 -0.0112
  662MPD2     H 9799   4.136   3.623  17.471  0.6254 -1.8920  0.3304
  662MPD2    H1 9800   4.400   3.956  17.497 -2.5771  0.7945  1.9388
  662MPD2    H2 9801   4.575   3.586  17.438  0.7646  1.5619  0.8529
  662MPD2    H3 9802   4.578   3.815  17.495 -0.3266 -1.3572  0.7722
  662MPD2     N 9803   4.146   3.883  17.516  0.1996  0.4497  0.0084
  662MPD2    H5 9804   4.168   3.978  17.543  0.7158 -0.3952  2.5318
  662MPD2    N1 9805   4.327   3.446  17.417 -0.4032 -0.3184 -0.3138
  662MPD2    H7 9806   4.231   3.416  17.429 -1.1430  2.0092 -0.4794
  663TMC3    C1 9807   4.336   3.221  17.332  0.2986 -0.5297  0.4837
  663TMC3    C2 9808   4.206   3.222  17.358 -0.7161 -0.4419 -0.5031
  663TMC3    C3 9809   4.139   3.108  17.383 -0.1388 -0.0109 -0.2670
  663TMC3    C4 9810   4.414   3.111  17.347 -0.0656  0.0054 -0.5804
  663TMC3    C5 9811   4.353   2.996  17.402  0.2243 -0.4923  0.6829
  663TMC3    C6 9812   4.213   2.992  17.401  0.2823  0.0039 -0.5962
  663TMC3     C 9813   4.410   3.347  17.359  0.1797 -0.2080  0.6640
  663TMC3     O 9814   4.534   3.355  17.335 -0.4267 -0.2950 -0.3609
  663TMC3     H 9815   4.154   3.311  17.324  0.5696 -0.0652 -1.5214
  663TMC3    H1 9816   4.522   3.114  17.343 -0.0433 -0.5126 -0.3452
  663TMC3    H2 9817   4.156   2.908  17.440 -0.6496  1.5478  1.3916
  663TMC3    C7 9818   4.432   2.912  17.483  0.4714  0.1336 -0.2145
  663TMC3    C8 9819   4.023   3.118  17.476 -0.3253  0.4987  0.8878
  663TMC3    O1 9820   4.541   2.951  17.519 -0.1813  0.4813 -0.5366
  663TMC3    O2 9821   4.017   3.026  17.559 -0.0047  0.2687  1.1867
  664MPD2     C 9822   2.399   1.573  17.364  0.5448  0.7166  0.0910
  664MPD2    C1 9823   2.485   1.612  17.464 -0.6944 -0.3934 -0.4009
  664MPD2    C2 9824   2.469   1.556  17.591 -0.6865 -0.2459 -0.6560
  664MPD2    C3 9825   2.376   1.461  17.616  0.4251  0.0427 -0.5773
  664MPD2    C4 9826   2.292   1.417  17.510 -0.0601  0.0853 -0.5190
  664MPD2    C5 9827   2.311   1.476  17.391 -0.2443 -0.4451  0.3876
  664MPD2     H 9828   2.530   1.603  17.666 -1.8078 -0.3463  0.3175
  664MPD2    H1 9829   2.219   1.338  17.523 -0.1370 -0.0100 -1.5632
  664MPD2    H2 9830   2.409   1.603  17.261 -2.8887 -1.2129 -0.8048
  664MPD2    H3 9831   2.252   1.444  17.306 -1.1563  0.6846  0.6027
  664MPD2     N 9832   2.353   1.434   0.052 -0.0002 -1.2212 -0.4007
  664MPD2    H5 9833   2.419   1.477   0.116 -0.3782 -0.7890 -0.2957
  664MPD2    N1 9834   2.572   1.722  17.454 -0.8626  0.1482  0.1855
  664MPD2    H7 9835   2.642   1.738  17.526 -0.5944  0.3248 -0.1116
  665TMC3    C1 9836   2.259   1.336   0.253  0.0559  0.1674 -0.2630
  665TMC3    C2 9837   2.176   1.251   0.304  0.2625 -0.5028  0.4534
  665TMC3    C3 9838   2.118   1.275   0.431  0.0271 -0.5297 -0.3951
  665TMC3    C4 9839   2.292   1.443   0.326  0.4524 -0.4964  0.6871
  665TMC3    C5 9840   2.246   1.460   0.452  0.1675  0.8909  0.8821
  665TMC3    C6 9841   2.151   1.381   0.509 -0.1586  0.4577  0.3853
  665TMC3     C 9842   2.266   1.339   0.107 -0.4170  0.2226  0.2669
  665TMC3     O 9843   2.199   1.261   0.043  0.1683  0.3285  0.7652
  665TMC3     H 9844   2.142   1.173   0.237 -0.6168  1.0659 -0.9109
  665TMC3    H1 9845   2.350   1.522   0.279 -1.3394 -1.2690 -2.8148
  665TMC3    H2 9846   2.121   1.393   0.612  1.9244  2.1403  0.7932
  665TMC3    C7 9847   2.341   1.509   0.547  1.0548  0.3060  0.5297
  665TMC3    C8 9848   2.030   1.184   0.492  0.4255 -0.1531  0.0545
  665TMC3    O1 9849   2.456   1.482   0.517 -0.5704  0.0888  0.2702
  665TMC3    O2 9850   2.027   1.181   0.616 -0.2584 -0.6834  0.4174
  666TMC3    C1 9851   2.218   1.385  10.109 -0.9013 -0.1844  1.1088
  666TMC3    C2 9852   2.268   1.311  10.214  0.0938  0.0761  0.9370
  666TMC3    C3 9853   2.358   1.376  10.301 -0.2041  0.4959  0.7150
  666TMC3    C4 9854   2.260   1.506  10.077  0.0317  0.0401  0.6273
  666TMC3    C5 9855   2.338   1.570  10.170  0.1891  0.3588 -0.2295
  666TMC3    C6 9856   2.384   1.509  10.285 -0.0971  0.0477  0.6216
  666TMC3     C 9857   2.113   1.327  10.029  0.5134 -0.1026 -0.2051
  666TMC3     O 9858   2.089   1.374   9.919  0.1891  0.0322 -0.3278
  666TMC3     H 9859   2.244   1.205  10.211 -0.2698  0.1597  0.8769
  666TMC3    H1 9860   2.212   1.560   9.996  0.1166  0.7370  1.0363
  666TMC3    H2 9861   2.427   1.566  10.367 -0.4937  2.4369 -0.8369
  666TMC3    C7 9862   2.352   1.708  10.150  0.2245 -0.0997  0.4041
  666TMC3    C8 9863   2.398   1.304  10.417  0.6870 -0.2489 -0.4479
  666TMC3    O1 9864   2.267   1.768  10.085 -0.7907  0.3150  1.2356
  666TMC3    O2 9865   2.354   1.192  10.432 -0.3245  0.2235 -0.3330
  667MPD2     C 9866   3.173   1.546  14.303 -0.2037 -0.3019  0.7526
  667MPD2    C1 9867   3.063   1.574  14.384 -0.2681  0.8600 -0.6990
  667MPD2    C2 9868   2.943   1.501  14.358 -0.1981 -0.0935  0.0418
  667MPD2    C3 9869   2.939   1.421  14.246 -0.2778  0.3102 -0.0015
  667MPD2    C4 9870   3.049   1.397  14.177 -0.3945 -0.3708  0.5094
  667MPD2    C5 9871   3.168   1.452  14.204  0.2427  0.2604  0.2617
  667MPD2     H 9872   2.854   1.513  14.420 -0.8162 -3.2706 -0.2542
  667MPD2    H1 9873   3.048   1.331  14.090  0.9878  0.6542 -0.2773
  667MPD2    H2 9874   3.275   1.571  14.331  0.9460 -1.3650 -2.3921
  667MPD2    H3 9875   3.258   1.427  14.149  0.2168 -3.1543  1.7777
  667MPD2     N 9876   2.816   1.369  14.192  0.0253 -0.4061 -0.1203
  667MPD2    H5 9877   2.830   1.320  14.105  0.5380  0.3428 -0.4580
  667MPD2    N1 9878   3.070   1.652  14.496 -0.8004  0.0691  0.3812
  667MPD2    H7 9879   3.001   1.651  14.570 -2.7634 -0.7618 -1.4913
  668TMC3    C1 9880   3.139   1.809  14.644 -1.2402  0.4826  0.7425
  668TMC3    C2 9881   3.175   1.944  14.658 -0.0436 -0.0338  0.6245
  668TMC3    C3 9882   3.160   1.999  14.785 -0.2948  0.3116 -0.2610
  668TMC3    C4 9883   3.083   1.739  14.746  0.1578  0.1815  0.3259
  668TMC3    C5 9884   3.055   1.800  14.867 -0.0446  0.0815  0.5092
  668TMC3    C6 9885   3.094   1.931  14.886  1.1708  1.0390 -0.5135
  668TMC3     C 9886   3.171   1.745  14.524 -0.1184  0.4245 -0.1808
  668TMC3     O 9887   3.262   1.782  14.451  0.2163  0.0930 -0.0521
  668TMC3     H 9888   3.217   1.997  14.573  0.6350 -1.8760 -0.1893
  668TMC3    H1 9889   3.053   1.634  14.743 -1.3851  0.6107  0.7150
  668TMC3    H2 9890   3.077   1.969  14.986  1.7116 -1.8632  0.6787
  668TMC3    C7 9891   3.006   1.723  14.978 -0.1208 -0.2657 -0.1961
  668TMC3    C8 9892   3.231   2.120  14.821 -0.0015  0.2471 -0.1854
  668TMC3    O1 9893   3.037   1.608  14.981 -0.0521 -0.4873  0.0472
  668TMC3    O2 9894   3.200   2.180  14.923 -0.0366  0.5923 -0.0851
  669TMC3    C1 9895   1.157   1.384  14.515  0.1689  0.2872 -0.1589
  669TMC3    C2 9896   1.046   1.338  14.439 -0.0011  0.2550  0.1943
  669TMC3    C3 9897   1.029   1.372  14.308  0.2121  0.3512 -0.6409
  669TMC3    C4 9898   1.242   1.469  14.461  0.0201  0.0593  0.3271
  669TMC3    C5 9899   1.219   1.508  14.332  0.0710 -0.2008 -0.4192
  669TMC3    C6 9900   1.118   1.465  14.259  0.7542  0.2334  0.3401
  669TMC3     C 9901   1.135   1.384  14.661 -0.9723 -0.5982 -0.2764
  669TMC3     O 9902   1.020   1.351  14.702  0.1378 -0.2840  0.1030
  669TMC3     H 9903   0.970   1.282  14.493  0.3222 -2.3412 -2.0500
  669TMC3    H1 9904   1.327   1.505  14.517  1.7625 -1.4161 -1.3611
  669TMC3    H2 9905   1.079   1.526  14.178  0.7913  1.7293  1.4607
  669TMC3    C7 9906   1.292   1.625  14.292 -0.0934 -0.2353  0.5003
  669TMC3    C8 9907   0.944   1.294  14.221  0.9024 -0.0959  0.7355
  669TMC3    O1 9908   1.353   1.680  14.383  0.0273 -0.2983 -0.0857
  669TMC3    O2 9909   0.935   1.340  14.107  0.6652  0.5797  0.0220
  670MPD2     C 9910   3.903   4.288  13.186 -0.0526 -0.2873 -0.3122
  670MPD2    C1 9911   4.000   4.332  13.272 -0.1300  0.2275  0.4069
  670MPD2    C2 9912   4.005   4.304  13.409  0.3345  0.8051  0.5632
  670MPD2    C3 9913   3.889   4.258  13.466 -0.1451  0.2320 -0.4888
  670MPD2    C4 9914   3.777   4.241  13.387 -0.3588  1.0801  0.0797
  670MPD2    C5 9915   3.789   4.255  13.247  0.4011  0.1452  0.0482
  670MPD2     H 9916   4.086   4.333  13.475  0.1419  0.0690  1.1400
  670MPD2    H1 9917   3.686   4.204  13.431 -0.4374 -0.7990 -1.6257
  670MPD2    H2 9918   3.902   4.305  13.079 -1.1572 -2.1133 -0.5934
  670MPD2    H3 9919   3.701   4.236  13.187  1.7389 -0.8393 -1.6026
  670MPD2     N 9920   3.891   4.246  13.604 -0.1588  0.1043  0.2111
  670MPD2    H5 9921   3.977   4.274  13.651  0.2989  1.3690 -1.3599
  670MPD2    N1 9922   4.119   4.398  13.218 -0.4849  0.0431 -0.3213
  670MPD2    H7 9923   4.188   4.417  13.289 -1.0939  0.6381  0.1121
  671TMC3    C1 9924   3.824   4.210  13.820 -0.1006 -0.0604  0.3215
  671TMC3    C2 9925   3.949   4.160  13.841 -0.4350  0.1510 -0.3603
  671TMC3    C3 9926   3.955   4.094  13.955  0.1015 -0.3405  0.5450
  671TMC3    C4 9927   3.716   4.186  13.903  0.8279 -0.1140 -0.2895
  671TMC3    C5 9928   3.719   4.088  13.999  0.2424 -0.5765 -0.3052
  671TMC3    C6 9929   3.847   4.053  14.032  0.7114  0.2272 -0.2976
  671TMC3     C 9930   3.790   4.213  13.684 -0.0767  0.0375 -0.4679
  671TMC3     O 9931   3.672   4.205  13.654 -0.2153 -0.7348 -0.3343
  671TMC3     H 9932   4.037   4.207  13.800 -0.9479  2.2819  1.0000
  671TMC3    H1 9933   3.623   4.236  13.877 -0.7292 -2.5363  0.6018
  671TMC3    H2 9934   3.872   4.002  14.125  0.6710  1.2997  0.3113
  671TMC3    C7 9935   3.649   3.974  13.953 -0.3899 -0.4372  0.1689
  671TMC3    C8 9936   4.094   4.056  13.986 -0.1149  0.0536 -0.0498
  671TMC3    O1 9937   3.585   3.992  13.853  0.5845  0.0725 -0.1416
  671TMC3    O2 9938   4.168   4.033  13.890  0.4916 -0.1154 -0.0451
  672MPD2     C 9939   0.340   4.549   0.587  0.3773 -0.1503 -0.3029
  672MPD2    C1 9940   0.228   4.487   0.635 -0.4126  0.5100  0.1079
  672MPD2    C2 9941   0.182   4.526   0.763 -0.0511  0.1126 -0.0276
  672MPD2    C3 9942   0.249   4.622   0.841  0.2150  0.4372  0.2839
  672MPD2    C4 9943   0.374   4.669   0.791 -0.2459  0.8930 -0.5808
  672MPD2    C5 9944   0.422   4.623   0.672  0.4294 -0.7290  0.0802
  672MPD2     H 9945   0.089   4.486   0.802 -0.4056  1.7515  0.7864
  672MPD2    H1 9946   0.428   0.014   0.854  0.2925  1.2443 -1.4331
  672MPD2    H2 9947   0.389   4.528   0.493 -0.1644 -0.4972 -0.5106
  672MPD2    H3 9948   0.523   4.654   0.649  0.6563 -0.8765  0.8670
  672MPD2     N 9949   0.208   4.675   0.967  0.0820 -0.4582  0.0668
  672MPD2    H5 9950   0.285   4.718   1.018  0.0143 -0.0163 -0.2063
  672MPD2    N1 9951   0.145   4.396   0.570 -1.0264  0.1716 -0.3012
  672MPD2    H7 9952   0.068   4.366   0.628 -1.8061  0.0912 -1.3808
  673TMC3    C1 9953   0.056   4.260   0.408  0.5629 -0.0510 -0.1864
  673TMC3    C2 9954   0.103   4.132   0.404  0.7974 -0.0914  0.2146
  673TMC3    C3 9955   0.012   4.025   0.409  0.5720  0.3573  0.1354
  673TMC3    C4 9956   4.653   4.294   0.444 -0.3700  0.0234  0.4865
  673TMC3    C5 9957   4.565   4.184   0.466  0.4929 -0.1836 -0.6422
  673TMC3    C6 9958   4.604   4.054   0.440 -0.0499 -0.0917  0.2183
  673TMC3     C 9959   0.162   4.345   0.449  0.2734 -0.7238 -0.0376
  673TMC3     O 9960   0.261   4.354   0.372  0.2102  0.4962  0.1528
  673TMC3     H 9961   0.197   4.108   0.356 -1.2892 -0.7571 -3.5196
  673TMC3    H1 9962   4.628   4.398   0.454  0.1533  0.4788 -3.1204
  673TMC3    H2 9963   4.535   3.971   0.451 -0.9609  0.5625 -0.4664
  673TMC3    C7 9964   4.474   4.208   0.578 -0.4940  1.0872  0.2238
  673TMC3    C8 9965   0.061   3.894   0.444 -0.7723 -0.1501  0.5421
  673TMC3    O1 9966   4.461   4.111   0.652  0.1373 -0.6387 -0.6292
  673TMC3    O2 9967   0.004   3.792   0.411  0.7693 -0.1478 -0.0830
  674MPD2     C 9968   3.731   3.450   0.564  0.0056  0.3254 -0.2980
  674MPD2    C1 9969   3.751   3.556   0.486 -0.6117 -0.3539  0.4242
  674MPD2    C2 9970   3.697   3.675   0.522  0.6188  0.1095 -0.1335
  674MPD2    C3 9971   3.633   3.683   0.647 -0.3912  0.5053  0.0247
  674MPD2    C4 9972   3.585   3.570   0.713 -0.1889  0.2306  0.5036
  674MPD2    C5 9973   3.644   3.455   0.673  0.0496  0.4184 -0.1895
  674MPD2     H 9974   3.731   3.768   0.478  2.2066 -1.5721 -2.4754
  674MPD2    H1 9975   3.527   3.561   0.805  1.0162  0.3317  1.2678
  674MPD2    H2 9976   3.787   3.360   0.539  0.2169  0.4552 -0.2883
  674MPD2    H3 9977   3.629   3.366   0.733 -0.8712 -0.0527 -1.1332
  674MPD2     N 9978   3.612   3.809   0.710  0.1317  0.4858  0.5520
  674MPD2    H5 9979   3.635   3.888   0.651  0.8604  0.4653  0.8064
  674MPD2    N1 9980   3.845   3.550   0.380  0.0537  0.2230  0.2600
  674MPD2    H7 9981   3.899   3.464   0.382 -0.7415 -0.3081 -1.0067
  675TMC3    C1 9982   3.989   3.619   0.226  0.5200 -0.5021 -0.4211
  675TMC3    C2 9983   4.014   3.491   0.177  0.2638  0.1036  0.7587
  675TMC3    C3 9984   4.132   3.474   0.114 -0.2905 -0.3840 -0.1406
  675TMC3    C4 9985   4.063   3.725   0.205  0.4788 -0.0101  0.2888
  675TMC3    C5 9986   4.185   3.703   0.137 -0.1088 -0.3527 -0.4225
  675TMC3    C6 9987   4.216   3.585   0.085  0.4241 -0.2094 -0.4506
  675TMC3     C 9988   3.864   3.641   0.285  0.9820 -0.2955 -0.2807
  675TMC3     O 9989   3.806   3.747   0.255 -0.1985  0.2727  0.0710
  675TMC3     H 9990   3.936   3.416   0.181  0.5929 -0.3701 -1.3940
  675TMC3    H1 9991   4.046   3.820   0.254 -1.0330 -1.1167  1.9399
  675TMC3    H2 9992   4.306   3.563   0.029  1.0774  2.6149 -0.4665
  675TMC3    C7 9993   4.283   3.812   0.133  0.6581  0.3243  0.0397
  675TMC3    C8 9994   4.169   3.339   0.088 -0.3666  0.1687 -0.4675
  675TMC3    O1 9995   4.241   3.921   0.163  0.4483  0.1022 -0.5017
  675TMC3    O2 9996   4.230   3.314  17.689 -0.6602 -0.2808 -0.7900
  676MPD2     C 9997   2.547   2.773  10.794  0.3012  0.2711 -0.4966
  676MPD2    C1 9998   2.460   2.744  10.900 -0.1190  0.2697  0.2023
  676MPD2    C2 9999   2.421   2.612  10.918 -0.1607  0.6700  0.3840
  676MPD2    C310000   2.472   2.508  10.845  0.0910  0.4846  0.6423
  676MPD2    C410001   2.546   2.541  10.738  0.2716  0.1733  0.2557
  676MPD2    C510002   2.588   2.668  10.713  0.2902  0.5391  0.2799
  676MPD2     H10003   2.353   2.582  10.997 -0.2008  0.0586  0.1127
  676MPD2    H110004   2.586   2.461  10.676 -0.4528 -0.0689  0.0965
  676MPD2    H210005   2.585   2.873  10.776  2.1650 -0.7588 -2.2200
  676MPD2    H310006   2.653   2.682  10.628  0.3098 -0.3942  0.1426
  676MPD2     N10007   2.447   2.372  10.875  0.3207  0.0042  0.2652
  676MPD2    H510008   2.461   2.309  10.797 -1.8532 -1.7816  1.3532
  676MPD2    N110009   2.418   2.839  10.989  0.0757 -0.3310  0.4276
  676MPD2    H710010   2.350   2.821  11.063 -0.2762 -1.7291 -0.2500
  677TMC3    C110011   2.386   3.033  11.108  0.2726  0.7003 -0.9950
  677TMC3    C210012   2.259   2.998  11.125 -0.6249 -0.2303 -0.0317
  677TMC3    C310013   2.191   3.067  11.227 -0.1964 -0.6734 -0.7166
  677TMC3    C410014   2.453   3.137  11.178 -0.2954 -0.2769 -0.3460
  677TMC3    C510015   2.386   3.205  11.277 -0.4669 -0.7810 -0.3604
  677TMC3    C610016   2.250   3.169  11.301 -0.1955 -0.2995 -0.2039
  677TMC3     C10017   2.460   2.964  11.001 -1.1308 -0.4759  0.8774
  677TMC3     O10018   2.566   3.019  10.968  0.2555  0.1593  0.2816
  677TMC3     H10019   2.198   2.922  11.078  0.4738 -0.5152 -0.9929
  677TMC3    H110020   2.559   3.143  11.158 -0.0382 -1.4678  0.6273
  677TMC3    H210021   2.203   3.206  11.392 -1.6490  1.0758 -1.5303
  677TMC3    C710022   2.461   3.263  11.388 -0.0519  0.4449 -0.0939
  677TMC3    C810023   2.073   2.997  11.277 -0.3218 -0.1399 -0.5771
  677TMC3    O110024   2.400   3.312  11.483  0.5852  0.4757 -0.7181
  677TMC3    O210025   2.003   2.958  11.183 -0.3046  1.3659 -0.2990
  678MPD2     C10026   3.156   2.471   1.497 -0.6454  1.0017  0.5696
  678MPD2    C110027   3.129   2.466   1.357 -0.0623 -0.0333 -0.0032
  678MPD2    C210028   3.033   2.546   1.296 -0.3513  0.5991  0.0038
  678MPD2    C310029   2.957   2.620   1.372 -0.6724  0.2620 -0.1843
  678MPD2    C410030   2.972   2.613   1.510  0.0328  0.3138 -0.5955
  678MPD2    C510031   3.066   2.533   1.567 -0.3983 -0.6680 -0.0849
  678MPD2     H10032   3.007   2.544   1.191  1.0372 -0.2802 -0.3238
  678MPD2    H110033   2.906   2.667   1.577 -0.1551  1.1822 -1.4908
  678MPD2    H210034   3.246   2.435   1.544 -1.1330 -1.9563 -0.7703
  678MPD2    H310035   3.087   2.531   1.674  0.1753  1.1672 -0.1755
  678MPD2     N10036   2.861   2.698   1.300  0.3453  0.3632  0.1434
  678MPD2    H510037   2.867   2.698   1.198  1.5569  1.1417  0.2135
  678MPD2    N110038   3.214   2.386   1.276 -0.7324  0.7081  0.3310
  678MPD2    H710039   3.205   2.393   1.175 -0.4273  1.3579  0.3502
  679TMC3    C110040   3.527   2.058   1.165 -0.1980 -0.3012 -0.3142
  679TMC3    C210041   3.431   2.104   1.246 -1.1809  0.0250  0.1855
  679TMC3    C310042   3.371   2.221   1.216 -0.6174 -0.5271 -0.8994
  679TMC3    C410043   3.579   2.132   1.062  0.6248  0.6355 -0.6935
  679TMC3    C510044   3.521   2.252   1.031 -0.0001 -0.7172 -0.2156
  679TMC3    C610045   3.411   2.293   1.104 -0.5708 -0.2846 -0.3714
  679TMC3     C10046   3.579   1.925   1.196 -0.4946  0.1615 -0.8251
  679TMC3     O10047   3.699   1.915   1.189  0.2242 -0.3475 -0.2955
  679TMC3     H10048   3.405   2.050   1.337 -1.3312 -0.3464 -0.0744
  679TMC3    H110049   3.648   2.088   0.991  1.5530 -1.9886  1.8456
  679TMC3    H210050   3.362   2.385   1.076  1.9319  1.3079  0.4373
  679TMC3    C710051   3.544   2.322   0.905  0.8213  0.4891 -0.1415
  679TMC3    C810052   3.295   2.281   1.319  0.0425  1.1780 -0.1362
  679TMC3    O110053   3.449   2.390   0.878 -0.3462 -0.2520 -0.8315
  679TMC3    O210054   3.285   2.232   1.431  0.4936 -0.4498 -0.4123
  680MPD2     C10055   0.229   0.861  14.260  0.0552  0.6904  0.0761
  680MPD2    C110056   0.137   0.919  14.173 -0.8161  0.1917  0.0208
  680MPD2    C210057   0.099   1.053  14.200  0.0819  0.6666 -0.2657
  680MPD2    C310058   0.125   1.111  14.322  0.6571 -0.8863  0.0519
  680MPD2    C410059   0.207   1.042  14.412  0.4682 -0.0167  0.2465
  680MPD2    C510060   0.255   0.918  14.377 -0.0574 -0.5423  0.0222
  680MPD2     H10061   0.039   1.103  14.125 -1.7462 -0.8068  0.2415
  680MPD2    H110062   0.250   1.086  14.501  1.3785 -0.1516 -0.1160
  680MPD2    H210063   0.279   0.766  14.245 -0.3774  0.3536  0.7863
  680MPD2    H310064   0.324   0.853  14.429  2.3670  1.1138 -1.1646
  680MPD2     N10065   0.083   1.244  14.356  0.5739 -0.2400  0.2725
  680MPD2    H510066   0.125   1.290  14.436  0.1628 -1.2903  1.0971
  680MPD2    N110067   0.094   0.878  14.047 -0.0355 -0.0844 -0.6147
  680MPD2    H710068   0.049   0.940  13.981 -0.9849  0.8501  0.9110
  681TMC3    C110069   0.044   0.741  13.861  0.0733 -0.5395  0.2572
  681TMC3    C210070   4.638   0.776  13.865 -0.3285 -0.7690  0.0976
  681TMC3    C310071   4.579   0.805  13.749 -0.3692 -0.6415  0.6286
  681TMC3    C410072   0.108   0.713  13.745  0.0372  0.2449  0.3325
  681TMC3    C510073   0.048   0.749  13.629  1.3008  0.1786  0.0762
  681TMC3    C610074   4.641   0.798  13.627 -0.5214 -0.0690  0.6042
  681TMC3     C10075   0.118   0.758  13.987  0.8472 -0.6743  0.7472
  681TMC3     O10076   0.161   0.661  14.036  0.1404  0.3847  0.0787
  681TMC3     H10077   4.598   0.795  13.964  0.3921  2.0203 -0.1325
  681TMC3    H110078   0.209   0.673  13.745 -0.1259 -0.1420 -0.3296
  681TMC3    H210079   4.586   0.840  13.544 -0.3023 -2.3018 -0.6783
  681TMC3    C710080   0.114   0.716  13.504  0.1156  0.6035 -0.8608
  681TMC3    C810081   4.464   0.879  13.752 -0.3189 -0.5157 -0.2146
  681TMC3    O110082   0.217   0.648  13.525  0.0250 -0.2109 -0.1398
  681TMC3    O210083   4.453   0.969  13.669 -0.7874 -0.3809 -0.7379
  682MPD2     C10084   1.926   2.962  10.415 -0.0978  0.4193 -0.2046
  682MPD2    C110085   1.887   2.850  10.486  0.4509  0.1132  0.4319
  682MPD2    C210086   1.837   2.872  10.606  0.1457  0.8723  0.1819
  682MPD2    C310087   1.822   2.995  10.665  0.0760 -0.4224  0.3033
  682MPD2    C410088   1.880   3.103  10.597 -0.0930 -0.1231  0.1037
  682MPD2    C510089   1.930   3.083  10.469  0.5138  0.6966 -1.0314
  682MPD2     H10090   1.807   2.787  10.667 -0.1483  2.0323  1.6371
  682MPD2    H110091   1.894   3.204  10.633 -0.4285 -0.7014  1.8598
  682MPD2    H210092   1.960   2.959  10.312 -2.1561 -1.1383 -0.8515
  682MPD2    H310093   1.960   3.168  10.407  0.5468  1.0108 -0.5823
  682MPD2     N10094   1.751   3.007  10.781  0.1719  0.3747 -0.1300
  682MPD2    H510095   1.716   2.922  10.824 -1.6432 -0.7913 -3.9374
  682MPD2    N110096   1.895   2.718  10.439  0.0488  0.0070 -0.1834
  682MPD2    H710097   1.854   2.648  10.500 -0.1007  1.1932  1.0650
  683TMC3    C110098   1.596   2.989  11.186 -0.3224  0.4054 -0.0256
  683TMC3    C210099   1.493   2.909  11.142 -0.1178  0.9464  0.1151
  683TMC3    C310100   1.461   2.903  11.007 -0.4153 -0.1825 -0.5400
  683TMC3    C410101   1.668   3.071  11.101 -0.1637 -0.1831  0.0454
  683TMC3    C510102   1.633   3.062  10.968 -0.2454  1.0580 -0.4064
  683TMC3    C610103   1.529   2.988  10.921 -0.0658  0.5001 -0.3243
  683TMC3     C10104   1.656   2.971  11.321 -0.3894  0.5014 -0.0919
  683TMC3     O10105   1.737   3.052  11.356  0.2629 -0.0551 -0.4404
  683TMC3     H10106   1.444   2.840  11.210 -3.9257  2.8111 -0.7516
  683TMC3    H110107   1.754   3.127  11.134 -0.3653 -0.4504  1.0086
  683TMC3    H210108   1.526   2.974  10.813 -2.4677  1.8280 -0.4241
  683TMC3    C710109   1.721   3.113  10.857  1.4054  0.3525  0.1762
  683TMC3    C810110   1.395   2.788  10.946 -0.0183 -0.5072  0.3053
  683TMC3    O110111   1.769   3.224  10.862 -0.6924  0.1009  0.1324
  683TMC3    O210112   1.331   2.818  10.845  0.4772  0.2345  0.5056
  684MPD2     C10113   3.975   2.345  15.997  0.2129 -0.3445  0.2909
  684MPD2    C110114   4.013   2.351  16.132 -0.4140 -0.7135 -0.6825
  684MPD2    C210115   4.063   2.472  16.189 -0.5047  0.2218  0.0383
  684MPD2    C310116   4.072   2.587  16.114  0.5914 -0.1921  0.1768
  684MPD2    C410117   4.044   2.579  15.978 -0.1785 -0.0162 -0.2726
  684MPD2    C510118   3.986   2.462  15.927 -0.1011  0.7499 -0.4118
  684MPD2     H10119   4.095   2.469  16.292  0.3480  0.4708 -0.2202
  684MPD2    H110120   4.053   2.666  15.914  1.3161  1.6972  2.2798
  684MPD2    H210121   3.938   2.256  15.948  2.0492 -1.1675  0.4071
  684MPD2    H310122   3.973   2.455  15.819  1.0567  0.3827 -0.5267
  684MPD2     N10123   4.133   2.713  16.167  0.0091  0.3239  0.5498
  684MPD2    H510124   4.142   2.788  16.099  0.5430  1.2456  1.6303
  684MPD2    N110125   4.012   2.234  16.220 -0.0127 -0.1864 -0.0752
  684MPD2    H710126   4.041   2.250  16.316  2.6982  0.5559 -1.0109
  685TMC3    C110127   4.017   2.007  16.280  0.3274  0.0104  0.3403
  685TMC3    C210128   3.960   1.884  16.260 -0.1786  0.3019  0.0450
  685TMC3    C310129   4.028   1.772  16.301  0.2543  0.3994 -0.1672
  685TMC3    C410130   4.133   2.022  16.352  0.4371  0.2135  0.1922
  685TMC3    C510131   4.192   1.908  16.403 -0.6378  0.0849 -0.2010
  685TMC3    C610132   4.141   1.783  16.373 -0.2642 -0.1198  0.1838
  685TMC3     C10133   3.977   2.104  16.187 -0.9898 -0.7180 -0.0021
  685TMC3     O10134   3.898   2.069  16.098  0.4476 -0.0124  0.0602
  685TMC3     H10135   3.877   1.860  16.195  0.3788 -0.4296 -0.3938
  685TMC3    H110136   4.172   2.115  16.394 -0.4400 -0.0644  1.6407
  685TMC3    H210137   4.202   1.699  16.404 -0.1359  0.4777  1.5514
  685TMC3    C710138   4.324   1.905  16.464  0.0109 -0.3938 -0.7661
  685TMC3    C810139   4.008   1.656  16.209  0.3502  0.1259  0.5253
  685TMC3    O110140   4.357   1.806  16.526 -0.0973 -0.0059  0.0584
  685TMC3    O210141   4.110   1.595  16.184  0.3213  0.2095 -0.2596
  686MPD2     C10142   0.828   2.088  15.550 -0.8344  0.0001  0.1541
  686MPD2    C110143   0.869   2.003  15.649  0.5104 -0.0667  0.2187
  686MPD2    C210144   0.936   1.881  15.617  0.3666  0.3719 -0.0264
  686MPD2    C310145   0.944   1.836  15.484  0.1077  0.5600  0.0782
  686MPD2    C410146   0.902   1.930  15.390  0.7332 -0.0171  0.0178
  686MPD2    C510147   0.854   2.056  15.416 -0.1669 -1.0395 -0.1382
  686MPD2     H10148   0.978   1.815  15.693 -0.7842 -0.0560  0.2481
  686MPD2    H110149   0.910   1.899  15.287 -0.9441 -2.2442  0.5516
  686MPD2    H210150   0.779   2.182  15.573 -3.4352 -0.9637 -1.3905
  686MPD2    H310151   0.819   2.113  15.331 -0.4413 -1.0286 -0.0206
  686MPD2     N10152   0.998   1.711  15.433  0.3763  0.5295 -0.1010
  686MPD2    H510153   1.028   1.708  15.336 -1.3783 -2.6306 -0.5623
  686MPD2    N110154   0.836   2.043  15.782 -0.3906 -0.3878 -0.0356
  686MPD2    H710155   0.791   2.133  15.796 -1.8889 -1.3590  1.4052
  687TMC3    C110156   0.976   1.566  15.632 -0.1732  0.1967  0.5900
  687TMC3    C210157   0.846   1.600  15.667  0.1247  0.1491  0.5437
  687TMC3    C310158   0.798   1.565  15.791 -0.2073  0.1032 -0.3757
  687TMC3    C410159   1.046   1.490  15.713  0.9337  0.5793 -0.9897
  687TMC3    C510160   0.999   1.462  15.844 -1.0817  1.0686 -0.7055
  687TMC3    C610161   0.874   1.498  15.886 -0.0061 -0.5574 -0.0858
  687TMC3     C10162   1.027   1.593  15.499 -0.5142  0.0222 -0.5513
  687TMC3     O10163   1.104   1.505  15.455 -0.2589  0.5658 -0.4734
  687TMC3     H10164   0.776   1.635  15.592 -0.6903 -1.1174  0.7281
  687TMC3    H110165   1.146   1.466  15.678  0.8326  0.6674 -1.3388
  687TMC3    H210166   0.837   1.468  15.983  2.8255  1.0020  1.4719
  687TMC3    C710167   1.089   1.415  15.945  0.5932  1.6034  0.6167
  687TMC3    C810168   0.671   1.614  15.841  1.0996  0.3959  0.3728
  687TMC3    O110169   1.071   1.471  16.054 -0.1010  0.5678 -0.5627
  687TMC3    O210170   0.630   1.561  15.947 -0.2062 -0.2292 -0.6777
  688MPD2     C10171   0.182   0.993  17.634 -0.3775  0.2572  0.1155
  688MPD2    C110172   0.207   0.863  17.674 -0.5044  0.0479  0.1706
  688MPD2    C210173   0.289   0.787  17.598 -0.0791  0.1696  0.4727
  688MPD2    C310174   0.347   0.839  17.480 -0.1771 -0.2569  0.0312
  688MPD2    C410175   0.310   0.963  17.439  0.7669 -0.2027 -0.0445
  688MPD2    C510176   0.242   1.046  17.525  0.2047 -0.4344 -1.0709
  688MPD2     H10177   0.308   0.685  17.631  2.0411  1.1365  2.1734
  688MPD2    H110178   0.358   1.002  17.350 -1.2758  0.3779 -0.8968
  688MPD2    H210179   0.124   1.065  17.691  1.4955  1.1512  0.8948
  688MPD2    H310180   0.221   1.144  17.484 -0.1146  0.2037  0.5897
  688MPD2     N10181   0.452   0.771  17.411  0.2406  0.1183  0.7461
  688MPD2    H510182   0.489   0.822  17.331  0.2735 -0.4594  0.3921
  688MPD2    N110183   0.157   0.801   0.088 -0.4447 -0.2194 -0.3073
  688MPD2    H710184   0.172   0.702   0.101 -0.0403 -0.0142  0.7266
  689TMC3    C110185   0.019   0.773   0.276  0.3035 -0.1640 -0.3098
  689TMC3    C210186   4.671   0.831   0.383  0.2136  0.9971  1.0994
  689TMC3    C310187   4.676   0.774   0.513  0.3005  0.1531 -0.6201
  689TMC3    C410188   0.087   0.654   0.298  0.8983  0.1371 -0.1086
  689TMC3    C510189   0.089   0.599   0.421  0.8125 -0.4698  0.5393
  689TMC3    C610190   0.036   0.664   0.531 -0.1714 -0.6395  0.2715
  689TMC3     C10191   0.060   0.862   0.166  0.1310  0.2623  0.5033
  689TMC3     O10192   0.021   0.980   0.166 -0.0660  0.7226 -0.5203
  689TMC3     H10193   4.611   0.919   0.360  0.3271  0.5805 -0.7801
  689TMC3    H110194   0.144   0.596   0.226  0.6391 -0.1576 -0.0761
  689TMC3    H210195   0.034   0.607   0.624 -1.8320 -1.1267 -0.0498
  689TMC3    C710196   0.111   0.452   0.440 -0.0777 -0.4790  0.4056
  689TMC3    C810197   4.576   0.798   0.617 -0.2853 -0.2772 -0.2158
  689TMC3    O110198   0.166   0.416   0.544 -0.3604  0.2374 -0.0819
  689TMC3    O210199   4.573   0.713   0.705 -0.0078 -0.7863 -0.6075
  690MPD2     C10200   2.250   2.528  15.635  0.1192 -0.3878  0.7865
  690MPD2    C110201   2.181   2.585  15.530  0.0351  0.1564  0.0241
  690MPD2    C210202   2.245   2.662  15.441 -0.4016  0.2223  0.4164
  690MPD2    C310203   2.382   2.674  15.440  0.0739  0.5208  0.4781
  690MPD2    C410204   2.452   2.625  15.542  0.0877 -0.0105  0.2027
  690MPD2    C510205   2.391   2.544  15.631 -0.4879  0.6497 -0.0366
  690MPD2     H10206   2.189   2.704  15.358 -1.5145  1.1716  1.6347
  690MPD2    H110207   2.556   2.649  15.563 -0.4229  0.6688  1.9368
  690MPD2    H210208   2.211   2.473  15.720 -0.3128 -2.0724 -0.5107
  690MPD2    H310209   2.458   2.499  15.703 -2.7743 -2.0093  0.4600
  690MPD2     N10210   2.451   2.751  15.343 -0.1003  0.1307 -0.3380
  690MPD2    H510211   2.393   2.804  15.278 -1.7407 -1.2655 -0.0225
  690MPD2    N110212   2.051   2.558  15.506  0.0554 -0.1849 -0.9310
  690MPD2    H710213   2.004   2.595  15.424 -0.1970 -1.9172 -1.5669
  691TMC3    C110214   1.832   2.462  15.542  0.2252 -0.1269 -0.8789
  691TMC3    C210215   1.738   2.429  15.637 -0.2474 -0.0958 -0.4181
  691TMC3    C310216   1.656   2.326  15.609  0.2853 -0.0006  0.0628
  691TMC3    C410217   1.844   2.389  15.432  0.1155 -0.0065  0.6144
  691TMC3    C510218   1.751   2.293  15.403  0.0348  0.7431  0.2470
  691TMC3    C610219   1.656   2.256  15.491  0.1591 -0.3669  0.7860
  691TMC3     C10220   1.965   2.496  15.596  0.3182 -0.0471  0.1865
  691TMC3     O10221   1.983   2.482  15.717 -0.5081 -0.4290 -0.2873
  691TMC3     H10222   1.737   2.489  15.727  0.6472 -0.0821 -0.4222
  691TMC3    H110223   1.931   2.400  15.368 -0.5316 -0.4140 -0.3394
  691TMC3    H210224   1.589   2.173  15.470  0.4177 -0.0346 -1.3565
  691TMC3    C710225   1.782   2.207  15.284 -0.2062  0.2378  0.1531
  691TMC3    C810226   1.550   2.291  15.695 -0.2507  0.1781 -0.0350
  691TMC3    O110227   1.830   2.258  15.181  0.1526 -0.4504 -0.5553
  691TMC3    O210228   1.536   2.170  15.700 -0.5671  0.1492 -0.5160
  692TMC3    C110229   4.078   4.076  15.861 -0.4623  0.7853  1.0949
  692TMC3    C210230   4.199   4.100  15.911 -0.4905 -0.7306  0.0960
  692TMC3    C310231   4.286   4.001  15.945 -0.3772 -0.1695  0.1386
  692TMC3    C410232   4.043   3.946  15.832 -0.3499 -0.1346  0.4298
  692TMC3    C510233   4.125   3.846  15.867  0.8111  0.3610  0.2078
  692TMC3    C610234   4.250   3.873  15.918  0.1420 -0.0208  0.3406
  692TMC3     C10235   3.979   4.148  15.938 -0.4655 -0.2628 -0.4963
  692TMC3     O10236   3.880   4.081  15.961 -0.2567 -0.4191 -0.1232
  692TMC3     H10237   4.228   4.204  15.901  0.2274 -0.9093  0.3509
  692TMC3    H110238   3.945   3.925  15.791 -0.6940 -1.2897  1.8351
  692TMC3    H210239   4.311   3.794  15.961 -1.9703 -2.6197 -1.4072
  692TMC3    C710240   4.081   3.713  15.836 -0.5596  0.1318 -0.0207
  692TMC3    C810241   4.314   4.014  16.081 -0.6039  0.5788  0.0899
  692TMC3    O110242   3.999   3.706  15.747  0.1179  0.4876  0.5060
  692TMC3    O210243   4.299   3.917  16.154 -0.8768  0.3257  0.2344
  693MPD2     C10244   3.445   2.114  10.648 -0.4389  0.5276  0.0332
  693MPD2    C110245   3.452   1.993  10.589  0.2288 -0.1864 -0.3835
  693MPD2    C210246   3.582   1.945  10.556  0.0501 -0.5960 -0.6257
  693MPD2    C310247   3.698   2.016  10.589  0.4333 -0.4727  0.0840
  693MPD2    C410248   3.685   2.136  10.648 -0.5093  0.6114  0.0783
  693MPD2    C510249   3.560   2.180  10.682 -0.4175 -0.3060  0.3423
  693MPD2     H10250   3.599   1.848  10.510  2.4154 -0.0802 -0.8406
  693MPD2    H110251   3.770   2.201  10.668 -1.4434  0.8417  3.2647
  693MPD2    H210252   3.349   2.154  10.678 -2.0296 -1.3703 -2.5473
  693MPD2    H310253   3.559   2.267  10.746 -0.1886  0.0624 -0.1621
  693MPD2     N10254   3.828   1.965  10.564  0.8570 -0.0863 -0.5690
  693MPD2    H510255   3.900   2.033  10.581  1.3210 -1.1977  1.8691
  693MPD2    N110256   3.332   1.915  10.591  1.0597 -0.1229 -0.4785
  693MPD2    H710257   3.254   1.945  10.648  1.2020 -3.0209  1.2437
  694TMC3    C110258   3.221   1.703  10.607 -1.1534 -0.1309  0.1436
  694TMC3    C210259   3.163   1.600  10.538 -0.8276 -0.1751  0.0517
  694TMC3    C310260   3.123   1.489  10.614  0.0737 -0.2923  0.3734
  694TMC3    C410261   3.247   1.696  10.746 -0.6115  0.3682  0.2823
  694TMC3    C510262   3.208   1.586  10.810  0.1395  0.4159 -0.3335
  694TMC3    C610263   3.144   1.480  10.751  0.1181 -0.3307 -0.0683
  694TMC3     C10264   3.322   1.787  10.540 -0.7312 -0.0829 -0.5890
  694TMC3     O10265   3.398   1.734  10.454 -0.7005  1.0260  0.1899
  694TMC3     H10266   3.139   1.616  10.434 -0.2454 -1.5701 -0.2866
  694TMC3    H110267   3.292   1.783  10.794  0.2184  0.5741 -0.8779
  694TMC3    H210268   3.104   1.401  10.813 -1.7571 -1.2240 -2.4194
  694TMC3    C710269   3.276   1.561  10.935 -0.6772  0.1966 -0.2522
  694TMC3    C810270   3.039   1.385  10.552 -0.7813  0.0564 -0.6361
  694TMC3    O110271   3.386   1.616  10.959 -0.2413 -0.5106 -0.1077
  694TMC3    O210272   2.963   1.324  10.628 -0.3540 -0.6394 -0.7643
  695MPD2     C10273   4.417   3.338  13.373 -0.0611  0.0782  0.0890
  695MPD2    C110274   4.345   3.378  13.484  0.3234  0.3090  0.3346
  695MPD2    C210275   4.209   3.402  13.481 -0.4276 -0.3186  0.2504
  695MPD2    C310276   4.145   3.398  13.364  0.1256 -0.2850  0.3394
  695MPD2    C410277   4.215   3.372  13.241 -0.0891 -0.1728 -0.1008
  695MPD2    C510278   4.348   3.334  13.253 -0.4145  0.6082  0.9222
  695MPD2     H10279   4.157   3.422  13.574 -1.1797 -2.5412  0.3110
  695MPD2    H110280   4.169   3.352  13.146  2.7305 -0.9081 -1.3146
  695MPD2    H210281   4.525   3.334  13.374 -0.0070  1.3720 -1.1362
  695MPD2    H310282   4.400   3.303  13.163 -1.9976 -1.0177  0.5694
  695MPD2     N10283   4.008   3.441  13.372 -0.0279 -0.2843  0.7937
  695MPD2    H510284   3.980   3.470  13.465 -0.2965  0.7670  0.3846
  695MPD2    N110285   4.410   3.396  13.608 -0.2032  0.2976 -0.0168
  695MPD2    H710286   4.350   3.434  13.681  0.8592  1.7870  0.0663
  696TMC3    C110287   3.802   3.533  13.294  0.3223  0.6142  0.1105
  696TMC3    C210288   3.742   3.521  13.420 -0.2849 -0.1289 -0.1666
  696TMC3    C310289   3.618   3.583  13.434  0.2550  0.1934  0.4672
  696TMC3    C410290   3.741   3.603  13.190  0.0114 -0.4384  0.1671
  696TMC3    C510291   3.617   3.656  13.211  0.1082 -0.4126  0.4828
  696TMC3    C610292   3.549   3.637  13.332  0.5795  0.1728  0.2489
  696TMC3     C10293   3.936   3.479  13.257 -0.2606 -0.4333  0.2210
  696TMC3     O10294   3.962   3.455  13.139  0.3103 -0.1244 -0.1730
  696TMC3     H10295   3.793   3.470  13.501  1.5272  0.8011 -0.7165
  696TMC3    H110296   3.794   3.628  13.099  2.1933  3.9871  2.6641
  696TMC3    H210297   3.447   3.672  13.346  0.2012 -0.7232 -0.2792
  696TMC3    C710298   3.593   3.783  13.144 -0.3086  0.1911 -0.8838
  696TMC3    C810299   3.577   3.618  13.571  0.0495 -0.0963 -0.3257
  696TMC3    O110300   3.642   3.798  13.032 -0.0209 -0.4448 -0.3059
  696TMC3    O210301   3.516   3.721  13.581 -0.0877  0.0385 -0.6798
  697MPD2     C10302   3.762   0.870  15.724  0.1780  0.4327  0.1489
  697MPD2    C110303   3.754   0.795  15.606  0.7143 -0.1087 -0.2567
  697MPD2    C210304   3.766   0.862  15.487  0.7643 -0.5600 -0.0790
  697MPD2    C310305   3.793   0.997  15.480 -0.5927 -0.4521  0.2513
  697MPD2    C410306   3.787   1.067  15.600 -0.0822 -0.3278 -0.6711
  697MPD2    C510307   3.787   1.005  15.722  0.4018  0.4140 -0.0011
  697MPD2     H10308   3.749   0.809  15.394  0.7960 -0.2699 -0.2476
  697MPD2    H110309   3.794   1.175  15.610 -0.6493 -0.3129 -0.4463
  697MPD2    H210310   3.765   0.812  15.815  0.7185  0.1809 -0.0265
  697MPD2    H310311   3.786   1.063  15.814  1.1874 -0.9531  0.8850
  697MPD2     N10312   3.798   1.058  15.355 -0.1372  0.0231 -0.0951
  697MPD2    H510313   3.793   0.998  15.273 -0.5823  1.0028 -0.7825
  697MPD2    N110314   3.738   0.658  15.599  0.2563  0.1475  0.2983
  697MPD2    H710315   3.722   0.619  15.507  0.8221  2.0586 -0.6213
  698TMC3    C110316   3.780   1.241  15.198 -0.5514  0.1288 -0.1955
  698TMC3    C210317   3.774   1.379  15.185  0.2009  0.4578  0.2742
  698TMC3    C310318   3.713   1.427  15.077  0.5072 -0.3394 -0.9352
  698TMC3    C410319   3.749   1.159  15.090 -0.1369  0.5933  0.3439
  698TMC3    C510320   3.696   1.216  14.976  0.0583  0.8667  0.1889
  698TMC3    C610321   3.681   1.350  14.969 -0.0978 -0.1631  0.8639
  698TMC3     C10322   3.820   1.193  15.333 -0.4874 -0.5698  0.7676
  698TMC3     O10323   3.838   1.289  15.408 -0.5614 -0.0497 -0.3072
  698TMC3     H10324   3.789   1.443  15.270 -0.9290  0.1617  0.6901
  698TMC3    H110325   3.750   1.051  15.096 -1.3556  0.4108 -2.3396
  698TMC3    H210326   3.640   1.399  14.882  0.5487  0.6180  1.0028
  698TMC3    C710327   3.674   1.144  14.854  0.5726 -1.1200  0.1465
  698TMC3    C810328   3.706   1.567  15.081  0.0413  0.3737 -0.1097
  698TMC3    O110329   3.593   1.195  14.775  0.1686 -0.3032  0.0365
  698TMC3    O210330   3.630   1.624  15.003  0.3203 -0.0613  0.2368
  699TMC3    C110331   3.748   3.491  12.853 -0.0581  0.6271 -0.1466
  699TMC3    C210332   3.783   3.381  12.923 -0.4730  0.2894  0.5150
  699TMC3    C310333   3.680   3.313  12.981 -0.1018 -0.1104  0.4202
  699TMC3    C410334   3.624   3.534  12.822  0.4238  0.0642  0.8136
  699TMC3    C510335   3.523   3.465  12.878 -0.9846 -0.1233 -0.1160
  699TMC3    C610336   3.549   3.357  12.957 -0.0724  0.3254 -0.5044
  699TMC3     C10337   3.854   3.579  12.806  0.2117  0.0495  0.1983
  699TMC3     O10338   3.817   3.668  12.727  0.0499 -0.8901  0.9281
  699TMC3     H10339   3.880   3.334  12.918 -0.5981 -0.0865  1.6507
  699TMC3    H110340   3.608   3.625  12.766  0.0534 -1.1135 -1.0028
  699TMC3    H210341   3.459   3.304  12.989  0.7319 -0.5487  0.3151
  699TMC3    C710342   3.410   3.545  12.916 -0.3094  0.4640  0.1748
  699TMC3    C810343   3.687   3.180  13.041  0.3148 -0.7220 -0.1192
  699TMC3    O110344   3.369   3.523  13.029  0.0721 -0.7339 -0.2888
  699TMC3    O210345   3.578   3.133  13.075  0.1913  0.2770  0.2235
  700TMC3    C110346   2.698   1.233  17.458 -0.1436  0.1207 -0.1097
  700TMC3    C210347   2.767   1.112  17.453  0.4638  0.2608 -0.2408
  700TMC3    C310348   2.849   1.083  17.559  0.0892  0.3208  0.3998
  700TMC3    C410349   2.735   1.320  17.552 -0.2756  0.0142 -0.2392
  700TMC3    C510350   2.804   1.282  17.659 -0.1036 -0.0393 -0.3820
  700TMC3    C610351   2.864   1.164  17.660  0.0842  0.0794 -0.3969
  700TMC3     C10352   2.680   1.303  17.336 -0.1594  0.8976 -0.0037
  700TMC3     O10353   2.572   1.280  17.283  0.3881  0.5673 -0.3803
  700TMC3     H10354   2.746   1.056  17.363  1.0164  0.6049 -0.5860
  700TMC3    H110355   2.696   1.420  17.540 -0.8871 -0.1577  0.2790
  700TMC3    H210356   2.902   1.119   0.050  1.6172  0.7028 -0.7266
  700TMC3    C710357   2.842   1.391   0.044 -0.3275 -0.2473  0.0879
  700TMC3    C810358   2.921   0.961  17.571  0.4591 -0.1706  0.1719
  700TMC3    O110359   2.818   1.508   0.016  0.0943 -0.1469  0.4455
  700TMC3    O210360   2.999   0.949  17.665  0.6405 -0.6440 -0.2509
  701TMC3    C110361   2.964   0.204  15.680 -0.3223 -0.3503  0.3487
  701TMC3    C210362   2.956   0.141  15.562 -0.5727  0.2854 -0.1795
  701TMC3    C310363   3.019   0.208  15.458  0.2253  0.8209 -0.3407
  701TMC3    C410364   3.025   0.328  15.698 -0.3171  0.7168 -0.2228
  701TMC3    C510365   3.091   0.384  15.592 -0.8071  0.0816  0.8860
  701TMC3    C610366   3.090   0.326  15.474  0.0559 -0.0004  0.1665
  701TMC3     C10367   2.868   0.154  15.782 -0.2031  0.0443 -0.1278
  701TMC3     O10368   2.821   0.046  15.768  0.4552 -0.0096  0.1081
  701TMC3     H10369   2.928   0.036  15.563 -1.0887  0.4106 -1.0480
  701TMC3    H110370   3.029   0.385  15.790  0.4409 -1.9473  1.3767
  701TMC3    H210371   3.139   0.373  15.389  1.2865  2.2999  2.1467
  701TMC3    C710372   3.180   0.495  15.608 -0.3335 -0.2862 -0.1133
  701TMC3    C810373   3.017   0.147  15.329 -0.3986 -0.4348  0.5227
  701TMC3    O110374   3.219   0.547  15.502  0.2118  0.2507 -0.6186
  701TMC3    O210375   3.107   0.167  15.253  0.7432  0.0831 -0.1885
  702MPD2     C10376   2.746   1.781  10.649 -0.2789  0.9395 -0.2928
  702MPD2    C110377   2.733   1.917  10.669 -0.3011  0.3184  0.3155
  702MPD2    C210378   2.814   1.998  10.596  0.7288 -0.8575  0.7254
  702MPD2    C310379   2.911   1.947  10.508  0.6805 -0.7156  0.3268
  702MPD2    C410380   2.923   1.813  10.493 -0.2320 -0.2361 -0.4810
  702MPD2    C510381   2.840   1.731  10.563  0.1403 -0.2336 -0.5480
  702MPD2     H10382   2.791   2.104  10.600  0.1984 -0.9339 -0.4781
  702MPD2    H110383   2.996   1.761  10.433  0.1872  0.5433 -0.6475
  702MPD2    H210384   2.687   1.710  10.706  0.8881  0.8785  0.8510
  702MPD2    H310385   2.842   1.623  10.557  1.6711 -0.2745  0.5071
  702MPD2     N10386   3.003   2.032  10.441 -0.1430 -0.2037  0.0501
  702MPD2    H510387   3.054   1.985  10.367  2.2396  1.5311  0.5846
  702MPD2    N110388   2.627   1.970  10.751  0.5368 -0.5900 -0.0468
  702MPD2    H710389   2.603   2.068  10.734 -1.5959 -1.0352  0.4084
  703TMC3    C110390   3.101   2.239  10.366  0.1427 -0.0830  0.5055
  703TMC3    C210391   3.058   2.362  10.317 -0.4146 -0.3269 -0.5771
  703TMC3    C310392   3.132   2.432  10.226 -0.1648  0.1150  0.2794
  703TMC3    C410393   3.213   2.176  10.317  0.5950  0.3763  0.2412
  703TMC3    C510394   3.286   2.257  10.228  0.3184  0.4309  0.1449
  703TMC3    C610395   3.247   2.381  10.174 -0.2130  0.2706 -0.1338
  703TMC3     C10396   3.005   2.169  10.449  0.0755 -0.2059  0.3787
  703TMC3     O10397   2.936   2.248  10.513  0.0059 -0.1666 -0.4566
  703TMC3     H10398   2.962   2.391  10.356  0.4491  2.6777 -0.6889
  703TMC3    H110399   3.248   2.085  10.364 -2.5797 -0.2960  1.2924
  703TMC3    H210400   3.312   2.429  10.102 -0.8853  1.3833  0.0197
  703TMC3    C710401   3.431   2.236  10.230  0.6061  0.3145 -0.1737
  703TMC3    C810402   3.075   2.548  10.158 -0.2578 -0.1984 -0.4384
  703TMC3    O110403   3.476   2.124  10.219  0.0469  0.0766 -0.0014
  703TMC3    O210404   3.133   2.587  10.058 -0.3335  0.5356 -0.5504
  704TMC3    C110405   0.389   0.611  12.080 -0.1995 -0.1052 -0.2919
  704TMC3    C210406   0.522   0.620  12.040 -0.3763 -0.2726  0.5623
  704TMC3    C310407   0.612   0.566  12.126 -0.3487  0.1960 -0.5540
  704TMC3    C410408   0.358   0.572  12.213  0.1701  1.5683 -0.4389
  704TMC3    C510409   0.456   0.530  12.298  0.2426  0.1209 -0.1197
  704TMC3    C610410   0.586   0.527  12.254  0.0955 -0.0494  0.0314
  704TMC3     C10411   0.285   0.659  11.989  0.4712 -0.4834  0.1663
  704TMC3     O10412   0.186   0.714  12.036 -0.2256 -0.1154  0.6482
  704TMC3     H10413   0.559   0.638  11.939 -0.7628  1.1614  0.6678
  704TMC3    H110414   0.252   0.567  12.238  0.2144  1.5757 -0.2518
  704TMC3    H210415   0.667   0.489  12.315  0.0588  2.3112  1.5223
  704TMC3    C710416   0.426   0.431  12.399 -0.1589 -0.8897  0.4978
  704TMC3    C810417   0.736   0.509  12.067 -0.0151 -0.6097 -0.0288
  704TMC3    O110418   0.518   0.356  12.429 -0.6682 -0.1940 -0.3892
  704TMC3    O210419   0.742   0.498  11.945  0.0379  0.1686 -0.0751
  705MPD2     C10420   4.668   3.933  16.545 -0.9711  1.1139 -0.5004
  705MPD2    C110421   4.569   3.924  16.448  0.0926 -0.3859 -1.1904
  705MPD2    C210422   4.441   3.884  16.480 -0.3809 -0.6343  0.6147
  705MPD2    C310423   4.404   3.873  16.616  0.0005 -0.2050  0.0065
  705MPD2    C410424   4.500   3.901  16.705  0.4887 -0.4193 -0.1463
  705MPD2    C510425   4.629   3.923  16.670 -0.9058  0.3490  0.2476
  705MPD2     H10426   4.372   3.878  16.397  1.4026 -0.1983 -0.8725
  705MPD2    H110427   4.489   3.903  16.812 -0.7237  0.8324 -0.2933
  705MPD2    H210428   0.045   3.964  16.523 -0.3044 -1.0420 -0.4374
  705MPD2    H310429   4.692   3.963  16.749 -1.2798  1.0838  0.1643
  705MPD2     N10430   4.270   3.856  16.668 -0.0718 -0.3690 -0.0233
  705MPD2    H510431   4.262   3.872  16.768  0.5365 -1.0381  0.1259
  705MPD2    N110432   4.597   3.966  16.316  0.1276  0.3696 -0.2412
  705MPD2    H710433   4.515   3.954  16.257  0.0113 -2.8063  0.5462
  706TMC3    C110434   4.635   4.063  15.914 -0.5053  0.5470 -0.5839
  706TMC3    C210435   4.616   4.197  15.887  0.9217  0.3862  0.2434
  706TMC3    C310436   4.638   4.287  15.984  0.0520 -0.1705 -0.1524
  706TMC3    C410437   4.681   4.015  16.036  0.0471 -0.1567  0.2017
  706TMC3    C510438   4.678   4.108  16.135 -0.2335 -0.1772  0.3464
  706TMC3    C610439   4.672   4.247  16.109  0.6412  0.0403  0.4922
  706TMC3     C10440   4.597   3.979  15.807  0.2294 -0.0185 -0.7391
  706TMC3     O10441   4.553   4.031  15.705 -0.0473  0.2290 -0.2130
  706TMC3     H10442   4.588   4.239  15.792 -0.3529 -1.6507 -0.2812
  706TMC3    H110443   4.692   3.911  16.063  2.1453 -0.5761 -2.2456
  706TMC3    H210444   4.665   4.312  16.195  1.4160 -0.6904  1.1106
  706TMC3    C710445   4.684   4.063  16.272  0.8383  0.2899 -0.6844
  706TMC3    C810446   4.528   4.388  15.985  0.8573  0.3040  1.4182
  706TMC3    O110447   0.033   4.127  16.347 -0.6238  0.0284 -0.4189
  706TMC3    O210448   4.425   4.370  15.914  0.6928 -0.2862  0.2336
  707TMC3    C110449   0.891   1.792   0.971  0.0435  0.0607 -0.2076
  707TMC3    C210450   0.893   1.668   1.040  0.2546 -0.0938 -0.3852
  707TMC3    C310451   0.785   1.617   1.101  0.2969  0.1363 -0.0704
  707TMC3    C410452   0.782   1.873   0.979  0.4815 -0.1358  0.1880
  707TMC3    C510453   0.672   1.815   1.046 -0.2014  0.3211  0.1982
  707TMC3    C610454   0.671   1.696   1.122  0.5479 -0.1467 -0.4685
  707TMC3     C10455   1.026   1.850   0.955 -0.2422  0.1895 -0.0126
  707TMC3     O10456   1.093   1.768   0.891 -0.1255 -0.4708 -1.1161
  707TMC3     H10457   0.990   1.621   1.042  0.8061  1.0311 -0.4872
  707TMC3    H110458   0.780   1.969   0.930  0.1933  0.3559  1.1534
  707TMC3    H210459   0.581   1.647   1.157  0.7781  1.0101  1.7020
  707TMC3    C710460   0.539   1.861   1.017 -0.5578 -0.0718 -0.4672
  707TMC3    C810461   0.803   1.511   1.198  0.5245  0.0667 -0.0854
  707TMC3    O110462   0.450   1.797   1.072 -0.0963  0.8633 -0.0556
  707TMC3    O210463   0.718   1.509   1.284 -0.1227  0.1554  0.0592
  708MPD2     C10464   2.805   2.307  13.687 -0.6243  0.0130  0.4620
  708MPD2    C110465   2.777   2.171  13.672  0.3445  0.0096  0.1708
  708MPD2    C210466   2.877   2.077  13.700  0.4697 -0.0735  0.2262
  708MPD2    C310467   3.009   2.121  13.729  0.5264 -0.1275  0.2996
  708MPD2    C410468   3.026   2.254  13.749 -0.4547 -0.0928  0.5875
  708MPD2    C510469   2.925   2.345  13.727 -0.2694 -0.0016  0.2504
  708MPD2     H10470   2.859   1.972  13.685  0.4083  0.1440 -1.1854
  708MPD2    H110471   3.119   2.301  13.780  0.9487 -2.6728  0.2945
  708MPD2    H210472   2.725   2.380  13.692 -1.4923 -0.8357 -1.1346
  708MPD2    H310473   2.940   2.451  13.745  1.2530  0.0169 -1.1729
  708MPD2     N10474   3.114   2.032  13.760  0.1704  0.3822  0.3221
  708MPD2    H510475   3.194   2.067  13.812  1.3366 -0.1649 -1.1206
  708MPD2    N110476   2.650   2.113  13.645 -0.1918 -0.2248  0.1645
  708MPD2    H710477   2.636   2.013  13.649 -1.7821  0.0390  1.0257
  709TMC3    C110478   2.417   2.095  13.614 -0.0114 -0.1533  0.7301
  709TMC3    C210479   2.340   2.082  13.505 -0.3900 -0.6825 -0.4409
  709TMC3    C310480   2.252   1.979  13.505  0.1003 -0.3921  0.5638
  709TMC3    C410481   2.425   1.987  13.704 -0.5343 -0.2702  0.1456
  709TMC3    C510482   2.335   1.889  13.705  0.2588 -0.6092  0.2229
  709TMC3    C610483   2.251   1.878  13.596 -0.2710 -0.2879 -0.1062
  709TMC3     C10484   2.538   2.183  13.609 -0.4422 -0.0777 -0.6531
  709TMC3     O10485   2.528   2.297  13.581  0.3674 -0.1015 -0.2745
  709TMC3     H10486   2.338   2.174  13.448  3.3243 -0.9901 -1.0186
  709TMC3    H110487   2.485   2.011  13.791 -1.0870  0.3901  0.3490
  709TMC3    H210488   2.164   1.814  13.607 -1.3963  1.4779  1.1675
  709TMC3    C710489   2.385   1.772  13.778  0.8739 -0.1872  0.2837
  709TMC3    C810490   2.153   1.973  13.400  0.1282  0.3518  0.4693
  709TMC3    O110491   2.407   1.797  13.895 -0.6257  0.2840 -0.0125
  709TMC3    O210492   2.049   1.914  13.422  0.1944  0.3610 -0.0272
  710TMC3    C110493   3.473   3.064   0.529  0.2507 -0.1505 -0.0551
  710TMC3    C210494   3.552   3.114   0.429  0.1583 -0.8763  0.4216
  710TMC3    C310495   3.630   3.019   0.365 -0.1406  0.6502  0.2042
  710TMC3    C410496   3.472   2.928   0.555  0.1715  0.1869  0.2479
  710TMC3    C510497   3.555   2.840   0.490  0.6937 -0.2773  0.0361
  710TMC3    C610498   3.637   2.887   0.395  0.2542 -0.2634 -0.6778
  710TMC3     C10499   3.454   3.147   0.648 -0.3695  0.1763  0.4000
  710TMC3     O10500   3.425   3.262   0.629 -0.3214  0.3187  0.1404
  710TMC3     H10501   3.564   3.222   0.420  1.6138 -0.9577  1.2988
  710TMC3    H110502   3.410   2.890   0.635  0.0454 -4.0723 -1.8660
  710TMC3    H210503   3.692   2.816   0.335  1.5145  1.7162 -1.8871
  710TMC3    C710504   3.543   2.695   0.527 -0.0353 -0.0055 -0.3501
  710TMC3    C810505   3.701   3.055   0.243  0.0720 -0.8503 -0.3508
  710TMC3    O110506   3.444   2.662   0.585  0.1615  0.5602 -0.4055
  710TMC3    O210507   3.781   2.975   0.193  0.1546 -0.4083  0.5415
  711TMC3    C110508   3.415   4.464  14.886  0.4136 -0.0766 -0.1278
  711TMC3    C210509   3.325   4.506  14.983  0.0792  1.1899 -0.1017
  711TMC3    C310510   3.374   4.575  15.090 -0.6483  0.7655 -0.5481
  711TMC3    C410511   3.545   4.512  14.881  0.0436  0.3920  0.7540
  711TMC3    C510512   3.577   4.603  14.980 -0.7852 -0.5509 -0.0176
  711TMC3    C610513   3.498   4.637  15.091  0.4316  0.8006  0.3281
  711TMC3     C10514   3.384   4.341  14.811 -0.3685  0.1222 -0.8334
  711TMC3     O10515   3.266   4.314  14.790  0.1807  0.4759 -0.1020
  711TMC3     H10516   3.235   4.446  14.993 -0.4113  2.3595  2.5141
  711TMC3    H110517   3.608   4.483  14.798 -0.4133 -0.1525  0.6057
  711TMC3    H210518   3.537   4.716  15.154 -1.8376 -0.0297  2.7434
  711TMC3    C710519   3.718   4.598  15.018 -0.2276 -0.9847  1.0478
  711TMC3    C810520   3.338   4.529  15.218 -0.0773 -0.4518 -0.5039
  711TMC3    O110521   3.741   4.622  15.136  0.2614  0.4426  0.1188
  711TMC3    O210522   3.239   4.458  15.233  0.5351  0.5067  0.7204
  712MPD2     C10523   0.576   0.412  13.781  0.0568 -0.1254  0.6024
  712MPD2    C110524   0.488   0.440  13.684 -0.5844  0.0204  0.2941
  712MPD2    C210525   0.526   0.511  13.572  0.4180 -0.5110  0.1157
  712MPD2    C310526   0.659   0.532  13.540 -0.0322  0.1281  0.1271
  712MPD2    C410527   0.753   0.508  13.648  0.4862 -0.0239 -1.3048
  712MPD2    C510528   0.709   0.451  13.772  1.2717 -0.2607 -0.1213
  712MPD2     H10529   0.445   0.535  13.505 -1.1423 -0.2710  2.0910
  712MPD2    H110530   0.860   0.529  13.643  0.7723 -0.7338  1.6350
  712MPD2    H210531   0.550   0.375  13.880 -0.2550  0.8949  0.9011
  712MPD2    H310532   0.776   0.429  13.854  0.9600  0.9154  0.4451
  712MPD2     N10533   0.706   0.595  13.425  0.0081  0.0221  0.1456
  712MPD2    H510534   0.796   0.641  13.436  0.7297 -1.1454 -0.8126
  712MPD2    N110535   0.347   0.411  13.701 -0.4901  0.4448  0.8647
  712MPD2    H710536   0.290   0.462  13.634  1.1631  0.6521 -0.3751
  713TMC3    C110537   0.675   0.723  13.240 -0.4951 -0.3661 -0.2877
  713TMC3    C210538   0.807   0.743  13.213  0.8076 -0.3699 -0.9962
  713TMC3    C310539   0.842   0.821  13.109  0.5405  0.6201  0.0906
  713TMC3    C410540   0.577   0.790  13.181 -0.1874 -0.3511 -0.8751
  713TMC3    C510541   0.610   0.870  13.082 -0.2798 -0.0073  0.5228
  713TMC3    C610542   0.738   0.885  13.048 -0.4840  0.0052 -0.3569
  713TMC3     C10543   0.629   0.614  13.311 -0.3930  0.1427 -0.1132
  713TMC3     O10544   0.535   0.546  13.274  0.1533 -0.0262 -0.4856
  713TMC3     H10545   0.881   0.685  13.266 -2.0823  0.7155  4.1862
  713TMC3    H110546   0.475   0.766  13.211  1.6872 -3.6863  2.7774
  713TMC3    H210547   0.762   0.942  12.959  0.4920 -0.2264 -0.2430
  713TMC3    C710548   0.533   0.993  13.064  0.0439  0.3611  0.3532
  713TMC3    C810549   0.961   0.904  13.119  0.4598  0.5172 -0.2629
  713TMC3    O110550   0.555   1.066  12.968 -0.3925  0.5854 -0.4541
  713TMC3    O210551   0.939   1.024  13.103  0.4692 -0.0292 -0.1403
  714MPD2     C10552   1.135   3.819   1.350 -0.2912 -0.0823 -0.3169
  714MPD2    C110553   1.164   3.692   1.326 -0.7848  0.3538 -0.0992
  714MPD2    C210554   1.114   3.627   1.213 -0.2459 -0.6770 -0.0643
  714MPD2    C310555   1.050   3.701   1.112 -0.0411 -0.5354 -0.4372
  714MPD2    C410556   1.028   3.833   1.136  0.4803  0.2583  0.0626
  714MPD2    C510557   1.064   3.892   1.252  0.3500  0.1547  0.9708
  714MPD2     H10558   1.136   3.522   1.197  2.3122 -0.3501  1.4465
  714MPD2    H110559   0.972   3.896   1.068  0.6344 -1.3596 -1.5720
  714MPD2    H210560   1.169   3.870   1.439 -2.3237 -1.5338  1.2873
  714MPD2    H310561   1.050   3.999   1.259  0.1938  0.3966 -3.1304
  714MPD2     N10562   1.007   3.624   0.994  0.2120  0.4009  0.0288
  714MPD2    H510563   1.020   3.524   0.991 -0.3466  0.3579 -0.8911
  714MPD2    N110564   1.243   3.622   1.420  0.1725 -0.6680 -0.2194
  714MPD2    H710565   1.281   3.671   1.501 -2.2378  1.4535 -0.3766
  715TMC3    C110566   1.375   3.454   1.518  0.6219  0.4009 -0.2603
  715TMC3    C210567   1.439   3.342   1.494  0.6718 -0.3807 -0.0412
  715TMC3    C310568   1.511   3.282   1.588 -0.9077 -0.2458 -0.8410
  715TMC3    C410569   1.398   3.526   1.630 -0.1175 -0.7885 -0.3316
  715TMC3    C510570   1.485   3.474   1.720  0.5885 -0.8182  0.8718
  715TMC3    C610571   1.526   3.347   1.705  0.4490 -0.0650  0.4056
  715TMC3     C10572   1.277   3.491   1.411 -0.2416  0.2077 -0.2430
  715TMC3     O10573   1.242   3.402   1.329  0.0802  0.4050  0.2285
  715TMC3     H10574   1.435   3.306   1.392 -0.3686 -0.7536  0.1271
  715TMC3    H110575   1.357   3.625   1.650  0.6100 -0.7196  0.8130
  715TMC3    H210576   1.592   3.296   1.776 -1.1033  0.6177  2.3417
  715TMC3    C710577   1.591   3.562   1.773  0.5380  0.1383 -0.5497
  715TMC3    C810578   1.629   3.208   1.537  0.2415 -0.4535 -0.1006
  715TMC3    O110579   1.706   3.521   1.757 -0.2691  1.0943 -0.2807
  715TMC3    O210580   1.712   3.263   1.464  0.2568  0.8372  0.8095
  716MPD2     C10581   2.492   1.695   9.851  0.2049  0.4752 -0.4990
  716MPD2    C110582   2.444   1.670   9.726  0.2299  0.4714  1.0969
  716MPD2    C210583   2.485   1.554   9.666 -0.0736 -0.0133  0.3494
  716MPD2    C310584   2.565   1.457   9.732 -0.2448  0.2698 -0.2756
  716MPD2    C410585   2.614   1.489   9.858 -1.2019 -0.0739 -0.0954
  716MPD2    C510586   2.576   1.614   9.905  0.1107  0.2954  0.1795
  716MPD2     H10587   2.470   1.539   9.559  1.5015  1.2788 -0.0521
  716MPD2    H110588   2.666   1.422   9.926 -1.3196  1.0240  1.0945
  716MPD2    H210589   2.469   1.789   9.901  2.4837 -0.9536  3.2686
  716MPD2    H310590   2.611   1.638  10.005  1.8619 -0.4309 -0.2560
  716MPD2     N10591   2.587   1.336   9.659  0.0016 -0.2078  0.2428
  716MPD2    H510592   2.521   1.323   9.583  0.2605 -2.1408  0.3664
  716MPD2    N110593   2.362   1.762   9.665 -0.2629  0.2274 -0.2086
  716MPD2    H710594   2.348   1.850   9.714  1.1963  0.6259 -0.5039
  717TMC3    C110595   2.673   1.125   9.590  0.1974  0.5919 -0.0106
  717TMC3    C210596   2.550   1.116   9.524  0.3462  0.2848  0.0383
  717TMC3    C310597   2.541   1.037   9.414 -0.3737  0.4357  0.0189
  717TMC3    C410598   2.786   1.054   9.552 -0.6572  0.0373 -0.1314
  717TMC3    C510599   2.765   0.977   9.436  0.4720  0.1317 -0.1089
  717TMC3    C610600   2.646   0.959   9.368  0.1587 -0.1550  0.7007
  717TMC3     C10601   2.687   1.237   9.683 -0.2181 -0.3434 -0.1860
  717TMC3     O10602   2.791   1.238   9.750 -0.2321  0.0315 -0.7142
  717TMC3     H10603   2.465   1.161   9.574 -0.7739 -1.2746 -0.4631
  717TMC3    H110604   2.885   1.083   9.585 -0.7762 -0.0855  0.3297
  717TMC3    H210605   2.641   0.898   9.278 -0.8367 -0.4035  0.9218
  717TMC3    C710606   2.882   0.909   9.384 -0.3525 -0.1763 -1.5057
  717TMC3    C810607   2.427   1.073   9.334 -0.9054  0.5310  0.6919
  717TMC3    O110608   2.879   0.855   9.273 -0.6597  0.2977 -0.4762
  717TMC3    O210609   2.379   1.183   9.359  0.7068  0.0998  0.2487
  718MPD2     C10610   1.980   0.539  13.229 -0.3297 -0.5510 -0.1979
  718MPD2    C110611   1.963   0.557  13.093 -0.1799  0.6135 -0.9411
  718MPD2    C210612   1.848   0.506  13.036 -0.4994 -0.2397 -0.4897
  718MPD2    C310613   1.754   0.446  13.114  0.1762 -0.4129 -0.2152
  718MPD2    C410614   1.770   0.430  13.248 -0.2415 -0.1311  0.6135
  718MPD2    C510615   1.884   0.481  13.305 -0.9117 -0.3715  0.4299
  718MPD2     H10616   1.834   0.497  12.929 -1.5875  1.0732 -0.4531
  718MPD2    H110617   1.698   0.382  13.314  0.4110  0.1010  1.4979
  718MPD2    H210618   2.065   0.581  13.281  0.0100  0.3666 -1.5030
  718MPD2    H310619   1.907   0.471  13.410 -1.1913  1.7786  0.6935
  718MPD2     N10620   1.661   0.386  13.038  0.4197  0.2700 -0.3203
  718MPD2    H510621   1.670   0.404  12.938 -2.7828 -3.8099 -1.3361
  718MPD2    N110622   2.072   0.609  13.021  0.1026  0.2940  0.4604
  718MPD2    H710623   2.165   0.606  13.061  1.1023  1.9876 -1.7092
  719TMC3    C110624   2.201   0.639  12.835  0.5733  0.0809 -0.5553
  719TMC3    C210625   2.210   0.539  12.741  0.2543 -0.3451  0.2772
  719TMC3    C310626   2.268   0.561  12.618  0.2178  0.5100 -0.5280
  719TMC3    C410627   2.254   0.761  12.804  0.6331  0.8542  0.1447
  719TMC3    C510628   2.323   0.778  12.691 -0.3038 -0.9734 -0.5533
  719TMC3    C610629   2.330   0.682  12.595 -0.0533 -0.5040  0.2367
  719TMC3     C10630   2.069   0.640  12.889 -0.8383  0.1402  0.5335
  719TMC3     O10631   1.985   0.625  12.806 -0.0524 -0.3958  1.0643
  719TMC3     H10632   2.167   0.442  12.763 -0.1623 -0.2766 -0.2213
  719TMC3    H110633   2.250   0.838  12.879 -1.5978  2.5243 -1.6843
  719TMC3    H210634   2.349   0.705  12.491  0.8884 -0.1214  0.5013
  719TMC3    C710635   2.393   0.900  12.657 -0.1715  0.7224  0.1378
  719TMC3    C810636   2.198   0.484  12.525 -0.5739  0.3230  0.5069
  719TMC3    O110637   2.450   0.888  12.550  0.2700  0.0094  0.3442
  719TMC3    O210638   2.259   0.435  12.428 -0.0079  0.0171 -0.0043
  720MPD2     C10639   4.664   2.741  14.032  0.0873 -0.1453 -0.5081
  720MPD2    C110640   0.028   2.699  13.935  0.1462  0.3524 -0.2193
  720MPD2    C210641   0.105   2.589  13.961 -1.1295  0.1503  0.6199
  720MPD2    C310642   0.090   2.519  14.083 -0.5147  0.0485 -0.1659
  720MPD2    C410643   4.718   2.558  14.178 -0.0436 -0.3918 -0.1747
  720MPD2    C510644   4.645   2.664  14.147  0.4914 -0.2572  0.0837
  720MPD2     H10645   0.182   2.573  13.887 -1.4464  0.5200  0.2133
  720MPD2    H110646   4.711   2.502  14.271  2.7529 -1.7191 -0.7896
  720MPD2    H210647   4.589   2.818  14.019  1.4809  1.3116  0.1025
  720MPD2    H310648   4.565   2.695  14.215 -0.3205 -3.1303  0.4194
  720MPD2     N10649   0.181   2.417  14.108 -0.4069 -0.4098 -0.1138
  720MPD2    H510650   0.246   2.394  14.034 -0.3899  1.3570 -0.6393
  720MPD2    N110651   0.053   2.770  13.815 -0.3688  0.5889 -0.6146
  720MPD2    H710652   0.107   2.718  13.746  1.8786  1.0097  0.8227
  721TMC3    C110653   0.325   2.261  14.217 -0.0603  0.4220  0.0301
  721TMC3    C210654   0.348   2.159  14.306  0.4178 -0.1583  0.6857
  721TMC3    C310655   0.468   2.093  14.299  0.3718 -0.1150 -0.2548
  721TMC3    C410656   0.415   2.299  14.117 -0.2219 -0.1418  0.5952
  721TMC3    C510657   0.532   2.229  14.124  0.1020 -0.0972 -0.2134
  721TMC3    C610658   0.567   2.131  14.213  0.6931 -0.8203 -0.2404
  721TMC3     C10659   0.207   2.348  14.227  0.1732  0.2010 -0.0600
  721TMC3     O10660   0.146   2.353  14.334  0.6168  0.3517 -0.3375
  721TMC3     H10661   0.269   2.120  14.368 -1.9648  1.7021 -1.1854
  721TMC3    H110662   0.399   2.368  14.035 -0.8415  1.2652  1.8956
  721TMC3    H210663   0.661   2.077  14.207  0.8528 -0.4579 -0.9574
  721TMC3    C710664   0.642   2.285  14.045  0.3738  0.2679 -0.3075
  721TMC3    C810665   0.503   2.003  14.406  0.3652  0.2003 -0.1068
  721TMC3    O110666   0.720   2.207  13.996 -0.4104 -0.7324 -0.5683
  721TMC3    O210667   0.615   1.951  14.393 -0.5771  0.3824  0.8276
  722MPD2     C10668   4.291   0.713  13.493 -0.9851 -0.5191  0.1523
  722MPD2    C110669   4.206   0.800  13.425 -0.0228 -0.3486 -0.5422
  722MPD2    C210670   4.073   0.776  13.409 -0.2646  0.4760 -0.3460
  722MPD2    C310671   4.015   0.666  13.473 -0.4361  0.3642 -0.2933
  722MPD2    C410672   4.092   0.583  13.552 -0.2607 -0.7939  0.1329
  722MPD2    C510673   4.226   0.608  13.561  0.9368 -0.2343 -0.4562
  722MPD2     H10674   4.018   0.847  13.349 -2.0886  1.0313  2.0234
  722MPD2    H110675   4.046   0.497  13.601  1.3782 -1.7979 -0.1080
  722MPD2    H210676   4.395   0.737  13.505 -0.6283 -1.9551 -0.0776
  722MPD2    H310677   4.289   0.548  13.627  3.6030  3.3329  0.2387
  722MPD2     N10678   3.875   0.652  13.452 -0.0502 -0.1642  0.3836
  722MPD2    H510679   3.840   0.715  13.382  2.5914  2.1471  1.1281
  722MPD2    N110680   4.256   0.913  13.355 -0.2654  0.1043 -0.8554
  722MPD2    H710681   4.193   0.946  13.283 -1.6052 -0.2876  0.1381
  723TMC3    C110682   3.653   0.637  13.498 -0.3538  0.3344  0.4283
  723TMC3    C210683   3.630   0.664  13.367  0.4186 -0.0423 -0.3679
  723TMC3    C310684   3.564   0.783  13.331 -0.5439  0.3344 -0.6842
  723TMC3    C410685   3.604   0.720  13.591  0.0581 -0.8906  0.4462
  723TMC3    C510686   3.541   0.839  13.553  0.1320  0.1743 -0.1773
  723TMC3    C610687   3.520   0.873  13.424 -0.7652 -0.0898  0.1983
  723TMC3     C10688   3.787   0.588  13.529  0.2859 -0.0975  1.0222
  723TMC3     O10689   3.814   0.547  13.640  0.6592 -0.1174 -0.0460
  723TMC3     H10690   3.684   0.620  13.284 -0.3439  0.7678 -1.2790
  723TMC3    H110691   3.639   0.706  13.692 -0.8417 -0.1070  0.8563
  723TMC3    H210692   3.452   0.950  13.392 -0.6288  0.2296  0.6766
  723TMC3    C710693   3.527   0.942  13.655  0.3168  0.4718 -0.0661
  723TMC3    C810694   3.547   0.819  13.190 -0.5818  0.7894  0.3566
  723TMC3    O110695   3.544   0.900  13.771  0.3123  0.1026  0.8292
  723TMC3    O210696   3.506   0.932  13.165  0.2399 -0.2957 -0.1371
  724TMC3    C110697   0.140   0.299   9.031 -0.1657  0.0437  0.0961
  724TMC3    C210698   0.076   0.180   9.039 -0.3752 -0.0924 -0.3774
  724TMC3    C310699   0.147   0.073   9.080 -0.5626  0.3221 -0.0207
  724TMC3    C410700   0.265   0.315   9.092 -0.6060 -0.2171  0.3272
  724TMC3    C510701   0.329   0.207   9.142  0.2123 -0.3246  0.4996
  724TMC3    C610702   0.266   0.087   9.137  0.0974 -0.0547  0.2518
  724TMC3     C10703   0.082   0.424   8.971  0.1839  0.4130  0.7258
  724TMC3     O10704   0.133   0.530   9.008  0.3645 -0.2791 -0.0398
  724TMC3     H10705   4.704   0.168   8.991  0.0228  0.1366 -1.2464
  724TMC3    H110706   0.304   0.415   9.101  1.6841 -1.4410  4.0245
  724TMC3    H210707   0.315   0.002   9.182  0.2071  0.6507  1.4804
  724TMC3    C710708   0.448   0.208   9.226  0.6446  0.4296  0.2856
  724TMC3    C810709   0.053   4.695   9.134 -0.3201  0.4480 -0.3342
  724TMC3    O110710   0.499   0.101   9.255 -0.3587 -0.3764  0.2350
  724TMC3    O210711   4.668   4.683   9.078 -0.7239  0.1502  0.3300
  725TMC3    C110712   0.859   2.742  13.034 -0.2907  0.0189  0.0397
  725TMC3    C210713   0.804   2.775  12.916  0.2416 -0.5550  0.2886
  725TMC3    C310714   0.767   2.675  12.827 -0.1654  0.2161  0.0273
  725TMC3    C410715   0.858   2.618  13.078  0.6877 -0.5127  0.7872
  725TMC3    C510716   0.808   2.519  12.998 -0.4419 -0.8895  0.4847
  725TMC3    C610717   0.768   2.544  12.870  0.6956 -0.5870  0.7236
  725TMC3     C10718   0.906   2.848  13.118  0.1568  0.0371  0.4820
  725TMC3     O10719   0.943   2.953  13.067 -0.1685 -0.4493 -0.4074
  725TMC3     H10720   0.810   2.878  12.883 -2.0517 -0.9014 -1.2190
  725TMC3    H110721   0.926   2.588  13.157 -0.8114 -2.7968  1.2176
  725TMC3    H210722   0.727   2.471  12.802 -0.8393 -0.8782  1.9579
  725TMC3    C710723   0.859   2.387  13.020 -0.1842 -0.4397  0.3364
  725TMC3    C810724   0.702   2.712  12.706  0.0508 -0.2860  0.7681
  725TMC3    O110725   0.886   2.350  13.134 -0.0024 -0.5763 -0.2393
  725TMC3    O210726   0.637   2.633  12.641  1.1066 -0.2004 -0.2023
  726MPD2     C10727   4.039   4.359   9.988  0.4756  0.3563 -0.9968
  726MPD2    C110728   3.939   4.456  10.011  0.7136  0.3318  0.5032
  726MPD2    C210729   3.865   4.430  10.122 -0.5277  1.0521 -0.2885
  726MPD2    C310730   3.863   4.307  10.193  0.0363 -0.1407 -0.3256
  726MPD2    C410731   3.954   4.212  10.157 -0.2282  0.3202  0.3542
  726MPD2    C510732   4.036   4.239  10.051 -0.3129  0.0123 -0.0982
  726MPD2     H10733   3.789   4.504  10.147 -0.5105  1.3415 -1.0897
  726MPD2    H110734   3.966   4.118  10.211  2.0311 -0.4648 -1.5026
  726MPD2    H210735   4.127   4.381   9.928  0.9149 -0.2548 -0.5697
  726MPD2    H310736   4.124   4.176  10.038 -0.6890 -0.6639  0.5857
  726MPD2     N10737   3.771   4.278  10.295  0.3223  0.2559 -0.2247
  726MPD2    H510738   3.790   4.198  10.355  1.1439  0.6873  0.0890
  726MPD2    N110739   3.934   4.578   9.946  0.2733  0.1266 -0.2560
  726MPD2    H710740   3.905   4.658  10.000  0.6540 -0.7788  1.2787
  727TMC3    C110741   3.982   0.016   9.778 -0.2674 -0.0211 -0.2915
  727TMC3    C210742   4.004   0.119   9.858 -0.2872 -0.1012 -0.6200
  727TMC3    C310743   4.007   0.249   9.808  0.5171  0.7845 -0.4304
  727TMC3    C410744   3.955   0.036   9.642  0.1134  0.2629  0.0234
  727TMC3    C510745   3.940   0.165   9.596 -0.2838 -0.4498 -0.1679
  727TMC3    C610746   3.971   0.280   9.675 -0.2480 -0.1904 -0.2078
  727TMC3     C10747   3.989   4.597   9.823  0.2563  0.2972 -0.0373
  727TMC3     O10748   4.031   4.515   9.745 -0.1846  0.1645  0.0181
  727TMC3     H10749   4.043   0.099   9.958 -1.6975 -0.7403 -0.1912
  727TMC3    H110750   3.925   4.676   9.581 -1.8336 -0.3466  1.8268
  727TMC3    H210751   3.978   0.382   9.638  0.3750  0.5014  1.8388
  727TMC3    C710752   3.929   0.182   9.451 -0.2015  0.2655  0.4254
  727TMC3    C810753   4.085   0.354   9.881  0.1046 -0.3083 -0.7144
  727TMC3    O110754   3.991   0.110   9.381  0.4582 -0.0867  0.0023
  727TMC3    O210755   4.166   0.319   9.966 -0.1224  0.8449 -0.1943
  728TMC3    C110756   2.641   2.826  15.205 -0.6834  0.2930  0.3491
  728TMC3    C210757   2.751   2.781  15.139 -0.3436 -0.4295 -0.2413
  728TMC3    C310758   2.798   2.856  15.035  0.2391 -0.3637 -0.5083
  728TMC3    C410759   2.565   2.937  15.165  0.2795 -0.5408 -0.4702
  728TMC3    C510760   2.612   3.001  15.052  0.5539 -0.1651 -0.6823
  728TMC3    C610761   2.725   2.965  14.983 -0.6738 -1.0701 -0.1266
  728TMC3     C10762   2.586   2.735  15.310 -0.3890  0.4809 -0.1883
  728TMC3     O10763   2.668   2.656  15.354 -0.5108  0.5645  0.3210
  728TMC3     H10764   2.792   2.682  15.155 -0.6571 -0.7722 -1.5875
  728TMC3    H110765   2.480   2.972  15.223  0.2461  0.0215 -0.8623
  728TMC3    H210766   2.760   3.023  14.898 -1.2745 -1.8077 -0.8806
  728TMC3    C710767   2.532   3.121  15.027  0.8951 -0.3783 -0.0799
  728TMC3    C810768   2.913   2.809  14.973  0.0869 -0.1564 -0.1292
  728TMC3    O110769   2.450   3.154  15.112 -0.5682 -0.2354 -0.2194
  728TMC3    O210770   2.951   2.695  14.998  0.1087  0.1509  0.3849
  729MPD2     C10771   0.115   4.382  17.281  0.1599  0.2147  0.8163
  729MPD2    C110772   0.175   4.255  17.259  0.5000  0.4456 -0.3844
  729MPD2    C210773   0.238   4.190  17.366 -0.1448 -0.6160 -0.0979
  729MPD2    C310774   0.246   4.252  17.488  0.0964 -0.4222  0.0941
  729MPD2    C410775   0.204   4.385  17.494 -0.1711  0.4661 -0.5703
  729MPD2    C510776   0.135   4.445  17.393  0.0318 -0.0718  0.3764
  729MPD2     H10777   0.277   4.090  17.361  0.3464 -0.3074 -2.4885
  729MPD2    H110778   0.226   4.450  17.578 -1.8327 -2.9524  2.5177
  729MPD2    H210779   0.070   4.447  17.207 -0.0850  0.6954  1.3895
  729MPD2    H310780   0.100   4.547  17.407  0.7014  0.0112  1.4908
  729MPD2     N10781   0.326   4.211  17.602 -0.0234 -0.0607 -0.0244
  729MPD2    H510782   0.321   4.267  17.686 -3.7913  1.4928 -1.2487
  729MPD2    N110783   0.172   4.190  17.133 -0.0165 -0.2338  0.2752
  729MPD2    H710784   0.097   4.225  17.075 -0.2981  0.3003  0.9722
  730TMC3    C110785   0.524   4.114  17.682  0.4773  0.5947 -0.0883
  730TMC3    C210786   0.622   4.072  17.589 -0.3012  0.0249 -0.6696
  730TMC3    C310787   0.720   4.160  17.550  0.1191 -0.2697 -0.0500
  730TMC3    C410788   0.538   4.233   0.040  0.1897 -0.0707 -0.9314
  730TMC3    C510789   0.632   4.322  17.694 -0.2832  0.0337 -0.3910
  730TMC3    C610790   0.714   4.285  17.598 -0.1254 -0.1681 -0.5960
  730TMC3     C10791   0.398   4.091  17.611  0.3046  0.0595 -0.5038
  730TMC3     O10792   0.397   4.005  17.528 -0.3342  0.4217  0.0863
  730TMC3     H10793   0.620   3.968  17.556 -2.2182  0.1868 -1.0981
  730TMC3    H110794   0.460   4.283   0.096  0.3711 -3.1170  2.0753
  730TMC3    H210795   0.779   4.358  17.551  0.1310 -0.4725 -0.7107
  730TMC3    C710796   0.562   4.447  17.657  0.6124  0.3477  0.2580
  730TMC3    C810797   0.710   4.166  17.410  0.2742  0.4205 -0.4781
  730TMC3    O110798   0.549   4.468  17.540 -0.0993  0.7167  0.5312
  730TMC3    O210799   0.767   4.079  17.343 -0.0559  0.0061 -0.7414
  731MPD2     C10800   0.977   2.730  12.161 -0.0478  0.3301  0.4537
  731MPD2    C110801   0.886   2.650  12.104 -0.1292 -0.8977 -0.2605
  731MPD2    C210802   0.794   2.582  12.181  0.4884  0.1028 -0.3667
  731MPD2    C310803   0.794   2.585  12.323  0.2874  0.8041  0.3977
  731MPD2    C410804   0.876   2.683  12.379  0.0652  0.3326 -0.1073
  731MPD2    C510805   0.959   2.754  12.294 -0.3230  0.0927  0.3193
  731MPD2     H10806   0.724   2.517  12.128  0.0599 -1.0923  1.6645
  731MPD2    H110807   0.882   2.714  12.482 -0.3158 -0.5675  0.1832
  731MPD2    H210808   1.057   2.779  12.107  0.1805 -0.2063  0.3123
  731MPD2    H310809   1.025   2.822  12.347  0.1303 -0.2481  0.1934
  731MPD2     N10810   0.693   2.520  12.399  0.1082 -0.4136 -0.4036
  731MPD2    H510811   0.687   2.548  12.496  1.1082 -3.5638  0.5832
  731MPD2    N110812   0.896   2.627  11.967 -0.3142  0.0362 -0.8387
  731MPD2    H710813   0.965   2.685  11.919 -0.7309  1.7180  0.5841
  732TMC3    C110814   0.870   2.543  11.747 -0.1377 -0.3131  0.3479
  732TMC3    C210815   0.779   2.484  11.662 -0.5193  0.8854  0.2746
  732TMC3    C310816   0.832   2.424  11.548  0.4046 -0.2590  0.0923
  732TMC3    C410817   1.006   2.544  11.732  0.5711  0.5013 -0.2731
  732TMC3    C510818   1.057   2.487  11.616 -0.0149 -0.0774 -0.1458
  732TMC3    C610819   0.971   2.427  11.522  0.8223  0.9164  0.1338
  732TMC3     C10820   0.817   2.558  11.878 -0.2556  0.2151  0.2102
  732TMC3     O10821   0.716   2.496  11.902 -0.5050 -0.0410  0.1131
  732TMC3     H10822   0.674   2.511  11.666 -1.0052 -1.3044  2.3576
  732TMC3    H110823   1.077   2.588  11.801  0.0258 -0.2060  0.7410
  732TMC3    H210824   1.006   2.376  11.433 -0.5736 -1.4072  0.9107
  732TMC3    C710825   1.193   2.449  11.608  0.1445  0.2457 -0.5929
  732TMC3    C810826   0.775   2.297  11.522  0.3947  0.7261  0.3217
  732TMC3    O110827   1.245   2.443  11.498 -0.5132  0.3305  0.3746
  732TMC3    O210828   0.847   2.214  11.467  0.1713 -0.1965  0.0299
  733TMC3    C110829   1.311   0.156  12.869 -0.0003  0.5546 -0.2358
  733TMC3    C210830   1.379   0.187  12.982 -0.4785 -0.6605  0.4570
  733TMC3    C310831   1.508   0.233  12.964 -0.1204 -0.5323 -0.6293
  733TMC3    C410832   1.363   0.152  12.748 -0.0231  0.1353  0.5605
  733TMC3    C510833   1.492   0.202  12.738 -0.0395 -0.0235  0.2058
  733TMC3    C610834   1.569   0.236  12.843 -0.3078 -0.1149 -0.5710
  733TMC3     C10835   1.168   0.122  12.861  0.4911 -0.1659 -0.7487
  733TMC3     O10836   1.098   0.150  12.767 -0.1970 -0.4454 -0.4656
  733TMC3     H10837   1.329   0.193  13.077 -0.7086 -0.0362  0.2960
  733TMC3    H110838   1.301   0.133  12.661 -1.6302  0.5524  1.6296
  733TMC3    H210839   1.676   0.247  12.829  0.0068  1.2827  2.9843
  733TMC3    C710840   1.545   0.215  12.600  0.0225  0.1077  0.3468
  733TMC3    C810841   1.575   0.289  13.077 -0.1616 -0.0940 -0.5575
  733TMC3    O110842   1.521   0.127  12.515  0.1278  0.2890 -0.1686
  733TMC3    O210843   1.507   0.302  13.175 -1.1660 -0.7559  0.5561
  734MPD2     C10844   4.116   3.123  12.310  0.0711 -0.6595  0.5019
  734MPD2    C110845   3.979   3.105  12.303 -0.1574  0.3728 -0.7954
  734MPD2    C210846   3.901   3.158  12.207  0.1942 -1.1850  0.4342
  734MPD2    C310847   3.953   3.247  12.117  0.7440  0.5017  0.7905
  734MPD2    C410848   4.092   3.282  12.126  0.0397 -0.5364  0.0135
  734MPD2    C510849   4.162   3.220  12.222  0.7078 -0.8096  0.1600
  734MPD2     H10850   3.793   3.149  12.207  0.2127 -1.4077  0.7440
  734MPD2    H110851   4.139   3.350  12.055 -4.1477  2.2717 -0.0258
  734MPD2    H210852   4.176   3.070  12.384 -0.0412 -3.3934 -1.3794
  734MPD2    H310853   4.263   3.257  12.226 -0.1431  1.7773 -2.0890
  734MPD2     N10854   3.881   3.309  12.005  0.1546 -0.0332  0.1404
  734MPD2    H510855   3.925   3.364  11.932  2.0468  3.2715  3.7704
  734MPD2    N110856   3.915   3.016  12.395 -0.4000 -0.2367 -0.1202
  734MPD2    H710857   3.981   2.967  12.455 -1.1786 -0.3724  0.6211
  735TMC3    C110858   3.762   2.841  12.461 -0.5245  0.4087 -0.7371
  735TMC3    C210859   3.637   2.792  12.439  0.3913 -0.6691  0.3333
  735TMC3    C310860   3.631   2.661  12.412  0.6208 -0.5985  0.8442
  735TMC3    C410861   3.873   2.752  12.474  0.1771 -0.1658 -0.4048
  735TMC3    C510862   3.860   2.618  12.457  0.3532  0.2091 -0.3555
  735TMC3    C610863   3.736   2.569  12.425 -0.0438  0.8233  0.2923
  735TMC3     C10864   3.783   2.970  12.387 -0.0899 -0.2679  0.1248
  735TMC3     O10865   3.690   3.003  12.318  0.1229  0.4856 -0.2266
  735TMC3     H10866   3.550   2.857  12.448  0.7812 -0.1832  0.6154
  735TMC3    H110867   3.976   2.784  12.488  0.2764 -1.0243  0.7982
  735TMC3    H210868   3.721   2.462  12.420 -0.8381  1.0479 -2.0096
  735TMC3    C710869   3.980   2.547  12.446  0.1712 -0.3186 -0.2159
  735TMC3    C810870   3.555   2.649  12.292  0.2456  0.1645 -0.6763
  735TMC3    O110871   4.057   2.598  12.364  0.5570 -0.4425  0.0077
  735TMC3    O210872   3.519   2.534  12.261  0.1118  0.6546 -0.3837
  736MPD2     C10873   4.082   2.249  12.631 -0.3624  0.0279  0.2814
  736MPD2    C110874   4.103   2.365  12.559  0.2535  0.4638 -0.0579
  736MPD2    C210875   4.223   2.381  12.497 -0.7384  0.4460  0.0030
  736MPD2    C310876   4.321   2.285  12.490 -0.2049  0.5303  0.5216
  736MPD2    C410877   4.295   2.175  12.569 -0.4236 -0.5153  0.1412
  736MPD2    C510878   4.180   2.158  12.639  0.8063  0.8640 -0.0944
  736MPD2     H10879   4.243   2.474  12.444  1.5628 -0.1875 -0.2522
  736MPD2    H110880   4.366   2.093  12.565  1.3512  0.9580  1.7293
  736MPD2    H210881   3.991   2.217  12.680  1.5938 -1.1840  3.1521
  736MPD2    H310882   4.164   2.074  12.706  3.1438 -0.1012 -0.7250
  736MPD2     N10883   4.443   2.291  12.424  0.7309  0.4187 -0.7302
  736MPD2    H510884   4.509   2.214  12.433  0.6064  0.3629 -0.2852
  736MPD2    N110885   3.991   2.450  12.544  0.3515 -0.2181  0.4689
  736MPD2    H710886   3.914   2.422  12.604  0.2317 -1.1158 -0.1182
  737TMC3    C110887   4.578   2.373  12.241 -0.5299 -0.3453 -0.6205
  737TMC3    C210888   4.619   2.490  12.175 -0.0778 -0.5379  0.1633
  737TMC3    C310889   4.695   2.477  12.059  0.9802  0.4042  0.2852
  737TMC3    C410890   4.606   2.249  12.182  1.3756 -0.2275 -0.2809
  737TMC3    C510891   4.670   2.242  12.064 -0.0421 -0.0949  0.0884
  737TMC3    C610892   4.719   2.351  12.001  0.2980  0.1978  0.4596
  737TMC3     C10893   4.469   2.386  12.325  0.5616  0.2393  0.7448
  737TMC3     O10894   4.399   2.484  12.296 -0.2899  0.5718 -0.4946
  737TMC3     H10895   4.597   2.588  12.214 -2.3673 -0.2777 -1.8048
  737TMC3    H110896   4.538   2.167  12.206  0.2543  0.8820  0.3221
  737TMC3    H210897   0.062   2.345  11.917  0.6836 -1.8207  0.9299
  737TMC3    C710898   4.694   2.107  12.007 -0.3559  0.1838  0.3103
  737TMC3    C810899   0.035   2.596  12.008  0.5445 -0.0433  0.2624
  737TMC3    O110900   4.646   2.014  12.075 -0.0857  0.2498  0.2643
  737TMC3    O210901   0.012   2.700  12.067  0.0936  0.0953  0.3184
  738MPD2     C10902   3.759   1.832  15.208 -0.1077  0.6944  0.3534
  738MPD2    C110903   3.859   1.737  15.179  0.1950 -0.0998  0.6027
  738MPD2    C210904   3.989   1.773  15.206 -0.0289  0.6180 -0.1200
  738MPD2    C310905   4.030   1.891  15.267  0.1441  1.1690 -0.2510
  738MPD2    C410906   3.928   1.973  15.301 -0.5845 -0.8863  0.4147
  738MPD2    C510907   3.794   1.943  15.272  0.2703  0.1149 -0.5216
  738MPD2     H10908   4.070   1.704  15.186 -2.0372 -1.4073 -1.2065
  738MPD2    H110909   3.943   2.064  15.357  2.3874 -1.3433  0.3786
  738MPD2    H210910   3.656   1.812  15.179  0.5838 -0.5473 -1.2670
  738MPD2    H310911   3.718   2.013  15.307 -0.8925 -0.4379 -1.9560
  738MPD2     N10912   4.172   1.912  15.284 -0.0066 -0.2238  0.4871
  738MPD2    H510913   4.238   1.846  15.244 -1.4162  0.4983 -3.0613
  738MPD2    N110914   3.831   1.612  15.116  0.0500 -0.5055 -0.2107
  738MPD2    H710915   3.902   1.540  15.125  1.6630  0.9078 -1.3443
  739TMC3    C110916   4.370   1.993  15.370 -0.5109 -0.0787 -0.2892
  739TMC3    C210917   4.434   1.965  15.252  0.3121 -0.8927  0.2434
  739TMC3    C310918   4.567   1.944  15.264 -0.7780  0.2127 -0.1061
  739TMC3    C410919   4.440   2.011  15.493 -0.3473  0.0647 -0.5877
  739TMC3    C510920   4.572   1.990  15.498  0.3236 -0.1177  0.1355
  739TMC3    C610921   4.639   1.953  15.380 -0.4408  0.7796  0.0435
  739TMC3     C10922   4.223   1.999  15.370  0.3812 -0.2469  0.4251
  739TMC3     O10923   4.160   2.046  15.462 -0.6636  0.2368 -0.1047
  739TMC3     H10924   4.395   1.943  15.154  1.1544 -1.4391  0.0307
  739TMC3    H110925   4.375   2.062  15.563  0.7384  0.2892  0.2476
  739TMC3    H210926   0.018   1.922  15.380 -0.7697 -0.3365 -1.2558
  739TMC3    C710927   4.654   2.040  15.608  0.0397 -0.0155 -0.3511
  739TMC3    C810928   4.621   1.865  15.148 -0.0734  0.2156  0.6663
  739TMC3    O110929   0.038   2.094  15.592  0.5338 -0.4711 -0.3634
  739TMC3    O210930   4.574   1.894  15.037  0.2301 -0.5929  0.0193
  740TMC3    C110931   0.154   2.836  14.388 -0.1671  0.0691 -0.3614
  740TMC3    C210932   0.217   2.809  14.506 -0.1476 -0.2569 -0.4809
  740TMC3    C310933   0.326   2.736  14.503  0.4691 -0.2139  0.2466
  740TMC3    C410934   0.211   2.813  14.264  0.6565 -0.3499 -0.1098
  740TMC3    C510935   0.316   2.730  14.267 -0.1608 -0.1839  0.3288
  740TMC3    C610936   0.375   2.686  14.381  0.1929  0.2279  0.6578
  740TMC3     C10937   0.017   2.872  14.386  0.6731 -0.0711 -0.3423
  740TMC3     O10938   4.719   2.951  14.298 -0.4142  0.3940  0.0355
  740TMC3     H10939   0.165   2.841  14.596 -0.7223  0.7490 -1.1736
  740TMC3    H110940   0.160   2.833  14.170 -2.0685 -1.0260  1.2293
  740TMC3    H210941   0.439   2.599  14.392  1.0948  0.6638 -1.0680
  740TMC3    C710942   0.368   2.681  14.140 -0.5276  0.0671 -0.1656
  740TMC3    C810943   0.387   2.711  14.633 -0.2981 -0.4626 -0.3309
  740TMC3    O110944   0.438   2.579  14.142 -0.0756  0.5794 -1.0494
  740TMC3    O210945   0.333   2.723  14.741 -0.2457 -0.6954 -0.3701
  741TMC3    C110946   4.557   2.328  13.886 -0.9443 -0.4722 -0.1566
  741TMC3    C210947   4.433   2.308  13.948 -0.2443 -0.0610  0.7480
  741TMC3    C310948   4.423   2.214  14.046 -0.5216  0.9278 -0.2989
  741TMC3    C410949   4.668   2.251  13.924 -0.1979 -0.0819 -0.4760
  741TMC3    C510950   4.649   2.156  14.028  0.2941  0.2234 -0.1212
  741TMC3    C610951   4.527   2.132  14.090  0.5832 -0.2664 -0.3972
  741TMC3     C10952   4.568   2.410  13.765  0.8451 -0.1523 -0.0292
  741TMC3     O10953   4.639   2.381  13.669 -0.4130  0.6698  0.1013
  741TMC3     H10954   4.344   2.356  13.910  0.8582  1.4891  0.1165
  741TMC3    H110955   0.030   2.274  13.863  1.4261 -1.7142  1.2714
  741TMC3    H210956   4.521   2.047  14.157  0.6664 -1.3574 -1.7960
  741TMC3    C710957   0.043   2.081  14.059  0.3112  0.1423 -0.1829
  741TMC3    C810958   4.296   2.194  14.104  0.2030  0.8582  0.3278
  741TMC3    O110959   0.130   2.100  13.972 -0.5069  0.5172  0.3703
  741TMC3    O210960   4.205   2.237  14.037  0.5936 -0.3169 -0.0516
  742TMC3    C110961   4.076   0.753  15.079 -0.9939 -0.3179  0.1439
  742TMC3    C210962   3.984   0.676  15.010 -0.1020  0.3798  0.2378
  742TMC3    C310963   3.992   0.545  15.017 -0.4596  0.0345  0.4341
  742TMC3    C410964   4.186   0.703  15.142  0.6928  0.4847  0.7917
  742TMC3    C510965   4.199   0.568  15.127 -0.0521 -0.3797 -0.2613
  742TMC3    C610966   4.098   0.489  15.075 -0.4233 -0.1440  0.2865
  742TMC3     C10967   4.052   0.900  15.081  0.2411  0.1388 -0.1245
  742TMC3     O10968   3.964   0.948  15.009  0.2214 -0.3532  0.6033
  742TMC3     H10969   3.894   0.724  14.973  0.6859  0.2717 -1.8052
  742TMC3    H110970   4.272   0.766  15.162  0.6023  0.1198  2.3283
  742TMC3    H210971   4.113   0.383  15.057  0.8998 -0.1026  1.1169
  742TMC3    C710972   4.330   0.507  15.150 -0.0348  0.2627  0.8102
  742TMC3    C810973   3.953   0.490  14.889  1.0835  0.1541  0.0172
  742TMC3    O110974   4.346   0.388  15.126 -0.1314 -0.2986 -0.2251
  742TMC3    O210975   4.018   0.403  14.836  0.2470 -0.3974 -0.0718
  743MPD2     C10976   2.031   0.723   1.103  0.5552  0.3356 -0.2375
  743MPD2    C110977   1.950   0.823   1.149  0.7840  0.2126 -0.0286
  743MPD2    C210978   2.010   0.931   1.210  0.4822 -0.1742 -0.2415
  743MPD2    C310979   2.150   0.949   1.212 -0.6315  0.6019  0.2125
  743MPD2    C410980   2.228   0.847   1.161 -0.1346  0.1956 -0.5072
  743MPD2    C510981   2.168   0.733   1.112  0.1755  0.9625 -0.2761
  743MPD2     H10982   1.951   1.009   1.255  1.8587  0.9020 -0.3012
  743MPD2    H110983   2.336   0.849   1.164 -0.1632  0.7882  0.1796
  743MPD2    H210984   1.972   0.641   1.063  1.6492  0.4889 -2.1852
  743MPD2    H310985   2.229   0.644   1.100 -0.0836  0.5344  1.6155
  743MPD2     N10986   2.202   1.061   1.272  0.3629  0.6388  0.1686
  743MPD2    H510987   2.134   1.123   1.315 -1.7559 -1.0764 -0.7317
  743MPD2    N110988   1.807   0.808   1.140  0.1408 -0.4700  0.2504
  743MPD2    H710989   1.769   0.719   1.108 -0.0015 -0.3031 -0.0427
  744TMC3    C110990   1.587   0.885   1.099 -0.0644 -0.4447 -0.5466
  744TMC3    C210991   1.484   0.967   1.126 -0.0075  0.2130  0.1353
  744TMC3    C310992   1.394   0.991   1.029  0.6147  0.0252 -0.4087
  744TMC3    C410993   1.595   0.819   0.973  0.1890  0.4556 -0.6357
  744TMC3    C510994   1.504   0.848   0.881  0.6766  0.2865  0.4017
  744TMC3    C610995   1.398   0.935   0.908 -0.2546  0.0692  0.4338
  744TMC3     C10996   1.714   0.900   1.170  0.7676 -0.0947 -0.6034
  744TMC3     O10997   1.736   1.004   1.234 -0.1313  0.1645  0.3147
  744TMC3     H10998   1.483   1.025   1.218 -1.5679 -0.5829  0.6170
  744TMC3    H110999   1.679   0.754   0.950 -1.5750 -0.4211 -4.5690
  744TMC3    H211000   1.331   0.961   0.827 -0.7925 -1.7041  0.2895
  744TMC3    C711001   1.534   0.841   0.743  0.6069 -0.2150  0.1413
  744TMC3    C811002   1.285   1.090   1.058 -0.1075  0.4156  0.0833
  744TMC3    O111003   1.443   0.803   0.669  0.7923 -0.3832 -0.0210
  744TMC3    O211004   1.248   1.157   0.961  0.0970 -0.2943  0.5579
  745TMC3    C111005   0.156   0.319  13.778 -0.1129  0.3058  0.1548
  745TMC3    C211006   0.094   0.351  13.890 -0.0438  0.0886  0.2589
  745TMC3    C311007   4.686   0.386  13.873 -0.2108 -0.4218 -0.7079
  745TMC3    C411008   0.102   0.329  13.656  0.3405  0.1872  1.1559
  745TMC3    C511009   4.693   0.361  13.638  0.2047  0.0784 -0.0573
  745TMC3    C611010   4.623   0.392  13.747 -0.8728  0.0366  0.8718
  745TMC3     C11011   0.295   0.325  13.791 -1.0321 -0.7369  0.3831
  745TMC3     O11012   0.357   0.253  13.872 -0.3472 -0.4482 -0.2406
  745TMC3     H11013   0.149   0.350  13.984 -1.4284 -1.8003  1.0501
  745TMC3    H111014   0.162   0.308  13.567  1.6881  1.0999  1.8549
  745TMC3    H211015   4.526   0.440  13.736 -0.4122  0.9959  1.0482
  745TMC3    C711016   4.625   0.380  13.509  0.4103  1.1342  0.7949
  745TMC3    C811017   4.600   0.387  13.989  0.4232  0.8105 -0.0066
  745TMC3    O111018   4.503   0.399  13.506  1.1377 -0.0845  0.1292
  745TMC3    O211019   4.485   0.406  13.969  0.7273  0.0178  0.0473
  746TMC3    C111020   2.401   2.189  10.989  0.3055 -0.7677 -0.3905
  746TMC3    C211021   2.492   2.116  10.925 -0.2152 -0.6310  0.2228
  746TMC3    C311022   2.480   1.982  10.929 -1.5389  0.0949 -0.1237
  746TMC3    C411023   2.293   2.127  11.053 -0.2884  0.3623 -0.2224
  746TMC3    C511024   2.283   1.985  11.062  0.2975  0.1831 -0.4277
  746TMC3    C611025   2.372   1.915  10.985  0.3668  0.0592 -0.7006
  746TMC3     C11026   2.393   2.329  10.990 -0.0289 -0.4846  0.0691
  746TMC3     O11027   2.370   2.383  11.096  0.1723  0.0775  0.3009
  746TMC3     H11028   2.578   2.172  10.891  0.0109 -0.8222  0.4786
  746TMC3    H111029   2.220   2.196  11.093 -0.5795 -0.6021  0.8838
  746TMC3    H211030   2.356   1.808  10.970  0.3604 -0.0624  0.1749
  746TMC3    C711031   2.165   1.916  11.111  0.6203  0.9742  0.3149
  746TMC3    C811032   2.576   1.900  10.859 -0.3981 -0.3474 -0.5348
  746TMC3    O111033   2.163   1.800  11.081 -0.4612  0.6561  0.4663
  746TMC3    O211034   2.592   1.788  10.904  0.5606  0.0793  0.3514
  747TMC3    C111035   0.449   1.945  11.085  0.4495  0.6539 -0.1018
  747TMC3    C211036   0.373   1.877  11.175 -0.3863  0.4374  0.1666
  747TMC3    C311037   0.342   1.938  11.290 -0.6860 -0.0094 -0.6585
  747TMC3    C411038   0.498   2.071  11.117  0.4825 -0.0273  0.1234
  747TMC3    C511039   0.470   2.123  11.238 -0.0977  0.2288 -0.2845
  747TMC3    C611040   0.379   2.064  11.326  0.4467  0.1168  0.4686
  747TMC3     C11041   0.440   1.902  10.946 -0.0833 -0.5747 -0.2667
  747TMC3     O11042   0.339   1.840  10.911  0.1761  0.0872  0.3432
  747TMC3     H11043   0.343   1.774  11.156  0.4011  0.7184 -2.5251
  747TMC3    H111044   0.540   2.129  11.036  0.8818 -0.6503 -0.1164
  747TMC3    H211045   0.373   2.109  11.424  2.2937 -0.3562  0.8061
  747TMC3    C711046   0.508   2.262  11.259  0.0680  0.0486  0.2328
  747TMC3    C811047   0.239   1.867  11.368 -0.2955  0.2743 -0.1680
  747TMC3    O111048   0.441   2.328  11.335 -0.8057  0.0778  0.4760
  747TMC3    O211049   0.218   1.750  11.354 -0.4018  0.3425  0.3219
  748MPD2     C11050   0.554   2.321   1.044 -0.3867 -0.0044  0.2837
  748MPD2    C111051   0.674   2.269   1.090 -0.1891 -0.7913 -0.4083
  748MPD2    C211052   0.797   2.322   1.037 -0.3794 -0.0644  0.2508
  748MPD2    C311053   0.790   2.419   0.939 -0.3634  0.3858  0.5917
  748MPD2    C411054   0.666   2.463   0.893 -0.9097 -0.3931  0.0683
  748MPD2    C511055   0.550   2.422   0.945  0.2183 -0.6226  0.3622
  748MPD2     H11056   0.897   2.295   1.071  0.3677  1.2611 -0.9026
  748MPD2    H111057   0.658   2.523   0.803 -0.2455  0.8741  0.8638
  748MPD2    H211058   0.461   2.279   1.081  0.1092 -0.1044  1.4124
  748MPD2    H311059   0.454   2.434   0.895 -0.2715  1.0226  1.6741
  748MPD2     N11060   0.905   2.496   0.913 -0.4306  0.1420 -0.2691
  748MPD2    H511061   0.980   2.466   0.975 -0.0881 -2.2845 -1.8816
  748MPD2    N111062   0.680   2.172   1.198 -0.0466 -0.2882  0.3062
  748MPD2    H711063   0.590   2.148   1.239  0.2041 -1.1172  0.3734
  749TMC3    C111064   1.034   2.689   0.869  0.3768  1.1796  0.1882
  749TMC3    C211065   1.138   2.634   0.940 -0.4326 -0.1469 -0.7692
  749TMC3    C311066   1.250   2.703   0.948 -0.1686  0.0708  0.6907
  749TMC3    C411067   1.049   2.815   0.828  0.2271  1.0497 -1.0086
  749TMC3    C511068   1.152   2.894   0.858 -0.5179  0.5571  0.3601
  749TMC3    C611069   1.265   2.838   0.912  0.0919  0.2566  0.5748
  749TMC3     C11070   0.919   2.605   0.831 -0.0960 -0.8657 -0.3449
  749TMC3     O11071   0.837   2.659   0.761  0.9861  0.5602 -0.3291
  749TMC3     H11072   1.142   2.531   0.974 -0.4809  0.5771  1.4567
  749TMC3    H111073   0.966   2.862   0.777 -0.4924 -0.5684 -1.3260
  749TMC3    H211074   1.352   2.891   0.950  1.0352 -0.4062 -0.6676
  749TMC3    C711075   1.157   3.039   0.828  0.5250  0.4839 -0.0851
  749TMC3    C811076   1.324   2.666   1.067  0.8289  0.7355  0.2324
  749TMC3    O111077   1.240   3.109   0.885 -0.4987 -0.9562 -0.6313
  749TMC3    O211078   1.245   2.636   1.156 -0.8366  0.0287  0.4141
  750MPD2     C11079   3.058   4.249  11.018  0.4453 -1.0322 -0.1786
  750MPD2    C111080   2.927   4.221  10.987  0.2018  0.1381 -1.3260
  750MPD2    C211081   2.894   4.087  10.965  0.9945  0.4736 -0.2287
  750MPD2    C311082   2.987   3.983  10.982 -0.3542  0.6944 -0.7714
  750MPD2    C411083   3.117   4.017  11.018  0.1309  0.0124  0.1937
  750MPD2    C511084   3.147   4.147  11.034  0.2064 -0.1884 -0.5761
  750MPD2     H11085   2.791   4.070  10.935  2.0381  0.8038 -4.0519
  750MPD2    H111086   3.190   3.939  11.035 -2.5844 -2.2920  1.3174
  750MPD2    H211087   3.102   4.344  11.047 -1.0376 -0.7357  1.0774
  750MPD2    H311088   3.248   4.174  11.061  0.5033 -0.6905 -1.1785
  750MPD2     N11089   2.956   3.848  10.950 -0.3493  0.3555  0.2520
  750MPD2    H511090   3.034   3.783  10.951 -0.3343  0.3882  2.0199
  750MPD2    N111091   2.846   4.338  10.958  0.0217 -0.0316 -0.2758
  750MPD2    H711092   2.886   4.430  10.971  1.3699 -0.3840 -1.9590
  751TMC3    C111093   2.818   3.666  10.915 -0.2121 -0.7790 -0.1174
  751TMC3    C211094   2.708   3.598  10.967  0.0897 -0.0846 -0.7398
  751TMC3    C311095   2.715   3.457  10.974 -0.0630 -0.1041 -0.5282
  751TMC3    C411096   2.916   3.594  10.850  1.0701  0.6492  0.8102
  751TMC3    C511097   2.908   3.461  10.860  0.0017  0.6764 -0.5013
  751TMC3    C611098   2.825   3.393  10.937 -0.0292 -0.2986 -0.5089
  751TMC3     C11099   2.826   3.806  10.944 -0.3589  0.4655 -0.0133
  751TMC3     O11100   2.720   3.868  10.957 -0.1687 -0.1397  0.6000
  751TMC3     H11101   2.617   3.652  10.991 -0.0801 -1.7519  2.3643
  751TMC3    H111102   2.975   3.639  10.771  0.2210 -1.2102 -0.8660
  751TMC3    H211103   2.825   3.285  10.940  1.6913 -0.2778  0.1314
  751TMC3    C711104   2.970   3.395  10.750  0.0898 -0.2404 -0.2981
  751TMC3    C811105   2.607   3.389  10.908  0.0337 -0.1811 -0.1151
  751TMC3    O111106   3.070   3.447  10.709 -0.1917 -0.1315 -0.1971
  751TMC3    O211107   2.638   3.305  10.827  0.1686  0.4544 -0.0863
  752TMC3    C111108   0.832   3.231  17.097  0.1959 -0.0912  0.2769
  752TMC3    C211109   0.841   3.102  17.076 -0.7474  0.3696 -0.3130
  752TMC3    C311110   0.820   3.028  17.187  0.5174  0.9599  0.4589
  752TMC3    C411111   0.805   3.296  17.215 -0.0878  0.7325 -0.2671
  752TMC3    C511112   0.774   3.214  17.324  0.3863  0.3254 -0.3458
  752TMC3    C611113   0.779   3.080  17.311  0.5986  0.1798  0.0925
  752TMC3     C11114   0.835   3.310  16.973  1.3416 -0.8316 -0.3922
  752TMC3     O11115   0.913   3.271  16.888  0.0669  0.1512 -0.5684
  752TMC3     H11116   0.873   3.061  16.981 -0.8952 -0.0736 -0.1687
  752TMC3    H111117   0.817   3.404  17.211 -1.4356  0.8262 -1.4264
  752TMC3    H211118   0.750   3.015  17.392  0.2169  0.6575  0.3359
  752TMC3    C711119   0.714   3.292  17.441  0.4904  0.1635  0.2097
  752TMC3    C811120   0.809   2.881  17.161  0.0556  0.0264  0.4642
  752TMC3    O111121   0.730   3.416  17.441  0.4652  0.2136 -0.7390
  752TMC3    O211122   0.853   2.845  17.051 -0.4032  0.2226  0.2038
  753TMC3    C111123   3.140   0.204  13.555  0.0709 -0.2707  0.1567
  753TMC3    C211124   3.133   0.200  13.697 -0.1598 -0.2247 -0.3137
  753TMC3    C311125   3.070   0.092  13.753  0.8806  0.1677 -0.6388
  753TMC3    C411126   3.089   0.102  13.479  0.2389 -0.2356  0.0472
  753TMC3    C511127   3.020   0.001  13.549 -1.0355 -0.3434 -0.3618
  753TMC3    C611128   3.020   4.713  13.685  1.0403  0.0651 -0.1244
  753TMC3     C11129   3.133   0.339  13.488 -0.0040 -0.2609  0.4995
  753TMC3     O11130   3.102   0.337  13.370 -0.5059 -0.1015 -0.4613
  753TMC3     H11131   3.180   0.276  13.759 -0.4272 -1.1065  0.9721
  753TMC3    H111132   3.093   0.096  13.371  0.5804 -0.7552  0.0923
  753TMC3    H211133   2.966   4.633  13.734  1.4666 -0.0552  0.1480
  753TMC3    C711134   3.026   4.599  13.475 -0.4727  0.6141 -0.0762
  753TMC3    C811135   3.067   0.085  13.893  0.1312 -0.1001  0.6303
  753TMC3    O111136   3.058   4.495  13.534  0.0627 -0.0221  0.4256
  753TMC3    O211137   3.060   4.701  13.948  0.8278  0.6644  0.1477
  754MPD2     C11138   1.923   3.437  12.786 -0.1546  0.6312  0.2605
  754MPD2    C111139   1.845   3.329  12.822  0.8431 -0.3786 -0.7834
  754MPD2    C211140   1.737   3.341  12.904 -0.0949 -0.6495  0.2337
  754MPD2    C311141   1.710   3.460  12.973  0.1127  0.7246 -0.1157
  754MPD2    C411142   1.786   3.570  12.929 -0.4028 -0.1061  0.2176
  754MPD2    C511143   1.895   3.555  12.848 -0.3473 -0.2543 -0.3514
  754MPD2     H11144   1.678   3.254  12.929  0.0354 -0.7534  0.1828
  754MPD2    H111145   1.755   3.667  12.963  0.5976  0.0229  0.7736
  754MPD2    H211146   2.016   3.435  12.730 -0.6899  0.2829 -0.6258
  754MPD2    H311147   1.957   3.643  12.834  0.0420 -0.7187 -1.4684
  754MPD2     N11148   1.608   3.479  13.068 -0.6302 -0.3180 -0.2124
  754MPD2    H511149   1.598   3.575  13.098  1.6804  0.1636 -0.9163
  754MPD2    N111150   1.884   3.206  12.760  0.1968  0.1835 -0.2689
  754MPD2    H711151   1.966   3.216  12.700 -1.3799 -0.8130 -2.5714
  755MPD2     C11152   1.212   4.219  13.257 -0.1652 -0.2151 -0.3465
  755MPD2    C111153   1.133   4.127  13.319 -0.3919  0.9514  0.4543
  755MPD2    C211154   1.176   3.998  13.343 -0.5816  0.3622  0.7484
  755MPD2    C311155   1.302   3.964  13.307  0.6526  0.6441  0.0634
  755MPD2    C411156   1.387   4.054  13.246  0.4190 -0.3143 -0.1295
  755MPD2    C511157   1.341   4.179  13.223  0.1340 -0.1069  0.4924
  755MPD2     H11158   1.114   3.922  13.390 -0.0651 -0.6302 -0.1648
  755MPD2    H111159   1.491   4.031  13.223  0.1228 -2.4319  0.6587
  755MPD2    H211160   1.182   4.321  13.237 -1.3001 -0.4597  0.1098
  755MPD2    H311161   1.414   4.238  13.169 -2.1781  0.8974 -1.5226
  755MPD2     N11162   1.357   3.833  13.322  0.5900  0.5141  0.1002
  755MPD2    H511163   1.451   3.818  13.286  1.7724  0.7605  3.0696
  755MPD2    N111164   0.999   4.168  13.357  0.0183 -0.8016 -0.4310
  755MPD2    H711165   0.955   4.094  13.411  0.7480 -3.0863 -3.0286
  756MPD2     C11166   2.360   0.170   9.333  0.5026 -0.4028  0.5346
  756MPD2    C111167   2.367   0.094   9.449  0.4355 -0.0805 -0.9441
  756MPD2    C211168   2.302   4.701   9.446  0.9655 -0.3893  0.0470
  756MPD2    C311169   2.219   4.657   9.350 -0.4871 -0.3173  0.2892
  756MPD2    C411170   2.202   0.016   9.239 -0.2538  0.1953 -0.4367
  756MPD2    C511171   2.282   0.129   9.233 -0.8156 -0.2897 -0.3518
  756MPD2     H11172   2.314   4.631   9.528  1.5080  2.1222  2.1092
  756MPD2    H111173   2.145   4.720   9.149 -0.0620  0.6533 -0.6668
  756MPD2    H211174   2.422   0.256   9.311 -0.2176 -0.5072 -1.9928
  756MPD2    H311175   2.271   0.196   9.148 -0.0129  0.4451  0.1240
  756MPD2     N11176   2.164   4.527   9.349 -0.0508 -0.3211 -0.2962
  756MPD2    H511177   2.156   4.483   9.440  0.7616 -1.9494 -1.0254
  756MPD2    N111178   2.461   0.107   9.556  1.0857  0.2403  0.8768
  756MPD2    H711179   2.465   0.023   9.613  2.4843 -1.2179 -1.3774
  757MPD2     C11180   1.347   3.820   9.192 -1.0456  0.3136 -0.8597
  757MPD2    C111181   1.418   3.793   9.311  0.3487 -0.2607 -0.1459
  757MPD2    C211182   1.541   3.844   9.338  0.2295 -0.8232 -0.0829
  757MPD2    C311183   1.600   3.926   9.242  0.5378  0.6742 -0.4937
  757MPD2    C411184   1.528   3.957   9.125 -0.8227 -0.2903 -0.2572
  757MPD2    C511185   1.405   3.904   9.096  0.8555  0.4747 -0.2066
  757MPD2     H11186   1.592   3.826   9.432  0.2315  1.2201  0.2911
  757MPD2    H111187   1.564   4.019   9.044 -1.8955 -0.8934 -1.1900
  757MPD2    H211188   1.249   3.776   9.181 -1.5919  1.0414  1.1224
  757MPD2    H311189   1.366   3.919   8.996 -0.6940  1.8871  0.6080
  757MPD2     N11190   1.723   3.995   9.278 -0.1230  0.1949  0.5092
  757MPD2    H511191   1.776   3.968   9.360  0.5811  0.3223  0.0920
  757MPD2    N111192   1.359   3.698   9.396 -0.4559 -0.5445 -0.2953
  757MPD2    H711193   1.274   3.656   9.360 -1.3298  0.3961  0.6791
  758MPD2     C11194   2.060   2.932  15.629  0.3470  0.0115  0.1413
  758MPD2    C111195   2.176   2.947  15.700 -0.8482 -0.2076 -0.2808
  758MPD2    C211196   2.179   2.966  15.838  0.6064  0.6094 -0.3245
  758MPD2    C311197   2.061   2.965  15.910  0.8415  0.4667  0.4996
  758MPD2    C411198   1.941   2.959  15.837  0.3672  0.0212  0.8699
  758MPD2    C511199   1.937   2.932  15.701  0.8718  0.0053 -0.3137
  758MPD2     H11200   2.270   2.981  15.896  0.9329  0.9034 -0.9136
  758MPD2    H111201   1.849   2.971  15.894 -0.6694  2.8238 -1.3918
  758MPD2    H211202   2.060   2.902  15.525 -1.0550  1.3082 -0.2256
  758MPD2    H311203   1.839   2.923  15.656  0.7235  0.5997 -0.1116
  758MPD2     N11204   2.048   2.987  16.048  0.6140 -0.7782  0.2666
  758MPD2    H511205   1.957   3.012  16.084 -0.6262 -1.0150 -2.6814
  758MPD2    N111206   2.293   2.956  15.625 -0.3397  0.5151 -0.3851
  758MPD2    H711207   2.284   2.972  15.525 -0.0683 -1.3394 -0.7056
  759MPD2     C11208   1.122   2.002  10.670  0.2537 -0.0897  0.3030
  759MPD2    C111209   1.194   1.897  10.611 -0.5156 -0.4372  0.0014
  759MPD2    C211210   1.284   1.934  10.503  0.0884 -0.5492  0.1741
  759MPD2    C311211   1.307   2.068  10.470  0.0504  0.2918 -0.3672
  759MPD2    C411212   1.237   2.165  10.536  0.4125  0.2599 -0.0669
  759MPD2    C511213   1.143   2.132  10.626  0.3729 -0.3556  0.2579
  759MPD2     H11214   1.349   1.860  10.457  0.1836 -0.4391  0.1317
  759MPD2    H111215   1.250   2.271  10.516 -1.6527  0.0415 -2.5677
  759MPD2    H211216   1.039   1.994  10.740 -0.8799  0.3635 -0.9883
  759MPD2    H311217   1.085   2.209  10.674  0.9482 -0.4754  1.1455
  759MPD2     N11218   1.397   2.099  10.366  0.2327 -0.0889  0.3373
  759MPD2    H511219   1.433   2.016  10.321 -0.4928  0.1275 -0.6255
  759MPD2    N111220   1.181   1.762  10.649 -0.0444  0.0493 -0.3391
  759MPD2    H711221   1.255   1.701  10.616 -0.6453  0.5772 -2.6438
  760MPD2     C11222   0.727   3.826  11.628 -0.2890 -0.5995 -0.2345
  760MPD2    C111223   0.848   3.788  11.680  0.3642 -0.5632 -0.3589
  760MPD2    C211224   0.864   3.764  11.814 -0.5323 -0.1221 -0.3442
  760MPD2    C311225   0.758   3.762  11.901  0.4329 -0.4871  0.4309
  760MPD2    C411226   0.632   3.795  11.856  0.4175 -0.4853  0.6262
  760MPD2    C511227   0.615   3.820  11.715 -1.0635  0.7743  0.0696
  760MPD2     H11228   0.965   3.734  11.839 -0.7732 -0.3806  0.3367
  760MPD2    H111229   0.539   3.802  11.911 -0.6674  1.3944 -1.4560
  760MPD2    H211230   0.704   3.866  11.530 -2.6878  2.9468  1.7623
  760MPD2    H311231   0.514   3.837  11.680  0.0042  0.9272 -2.9256
  760MPD2     N11232   0.772   3.724  12.034 -0.2625  0.6013 -0.0217
  760MPD2    H511233   0.692   3.723  12.096  1.1439 -1.1323  1.7837
  760MPD2    N111234   0.962   3.790  11.589  0.2434 -0.2199 -0.0597
  760MPD2    H711235   1.053   3.782  11.634  0.7986 -1.6514 -1.4321
  761MPD2     C11236   2.122   3.225  10.887  0.1244  0.0338 -0.5897
  761MPD2    C111237   2.225   3.194  10.807  0.8206 -0.5072 -1.0772
  761MPD2    C211238   2.347   3.265  10.818  0.9167 -0.8407 -0.3561
  761MPD2    C311239   2.361   3.362  10.919  0.5128  0.4077 -0.4197
  761MPD2    C411240   2.257   3.388  11.006 -0.4256 -0.8192  0.2735
  761MPD2    C511241   2.135   3.316  10.988 -0.2201 -0.6083  0.0441
  761MPD2     H11242   2.434   3.258  10.755  0.0827 -2.6334 -1.3219
  761MPD2    H111243   2.253   3.461  11.086  1.2531  0.9998 -1.3144
  761MPD2    H211244   2.029   3.170  10.881  0.5263 -0.7198 -0.0332
  761MPD2    H311245   2.054   3.347  11.052  1.1566  1.1374  0.9640
  761MPD2     N11246   2.484   3.424  10.956  0.5720  0.0627 -0.0514
  761MPD2    H511247   2.486   3.483  11.039  0.7243 -0.2346  0.1595
  761MPD2    N111248   2.204   3.087  10.718  0.0244 -0.8098  0.6448
  761MPD2    H711249   2.114   3.042  10.732 -0.0392 -0.0704  2.7437
  762MPD2     C11250   2.686   2.875  10.085  0.1326 -0.1791  0.4691
  762MPD2    C111251   2.655   2.799  10.192 -0.2506 -0.6162 -0.0936
  762MPD2    C211252   2.744   2.706  10.240  0.4449 -0.1022  0.5676
  762MPD2    C311253   2.864   2.679  10.171 -0.2270  0.3141 -0.4773
  762MPD2    C411254   2.898   2.762  10.063  0.0419 -0.1964 -0.5035
  762MPD2    C511255   2.808   2.856  10.022  0.5189 -0.0819 -0.1620
  762MPD2     H11256   2.726   2.638  10.322 -0.7331 -1.5973 -0.9164
  762MPD2    H111257   2.990   2.754  10.007 -0.0971 -0.5428 -0.6813
  762MPD2    H211258   2.610   2.937  10.040  2.0274  1.1916 -0.8728
  762MPD2    H311259   2.835   2.911   9.932  2.7875 -0.1417  0.4647
  762MPD2     N11260   2.957   2.586  10.216 -0.4564  0.4878 -0.2546
  762MPD2    H511261   2.939   2.530  10.299 -0.8725 -1.3056 -1.5634
  762MPD2    N111262   2.529   2.818  10.251 -0.9896  0.2958 -0.1106
  762MPD2    H711263   2.471   2.896  10.222 -0.1850 -0.4729 -3.8670
  763MPD2     C11264   3.637   3.312  16.444  0.1656 -0.2562 -0.5092
  763MPD2    C111265   3.674   3.400  16.346 -0.4998  0.0550 -0.0648
  763MPD2    C211266   3.664   3.533  16.365  0.1779  0.1607 -0.4407
  763MPD2    C311267   3.604   3.583  16.474 -0.4024 -0.3185 -0.5561
  763MPD2    C411268   3.560   3.498  16.572  0.7315 -0.5188 -0.4405
  763MPD2    C511269   3.591   3.361  16.558  1.3801 -0.7224  0.3349
  763MPD2     H11270   3.700   3.610  16.298 -0.3354 -1.0417 -2.1169
  763MPD2    H111271   3.510   3.531  16.662  0.7051 -1.7746  0.0020
  763MPD2    H211272   3.649   3.205  16.439 -1.4839 -0.4469 -0.2767
  763MPD2    H311273   3.554   3.281  16.621 -0.4094 -0.6815 -0.6624
  763MPD2     N11274   3.592   3.721  16.479  0.4831 -0.0362 -0.0701
  763MPD2    H511275   3.610   3.773  16.394 -0.8270  1.4339  0.5404
  763MPD2    N111276   3.740   3.363  16.222  0.9889 -0.0019  0.0803
  763MPD2    H711277   3.776   3.441  16.168  1.5505  0.3120  0.9006
  764MPD2     C11278   1.526   4.611  17.264  0.1879 -0.0560 -0.5653
  764MPD2    C111279   1.469   4.506  17.187 -0.1032  0.0641 -0.0622
  764MPD2    C211280   1.451   4.384  17.249  0.4830 -0.2578 -0.2489
  764MPD2    C311281   1.507   4.356  17.373 -0.1464 -0.6156  0.1351
  764MPD2    C411282   1.563   4.456  17.453  0.3482 -0.5945 -0.1009
  764MPD2    C511283   1.561   4.586  17.399  0.4162 -0.5362  0.1042
  764MPD2     H11284   1.395   4.306  17.198 -0.5107  0.6372 -0.5215
  764MPD2    H111285   1.603   4.438  17.552  1.1071  0.5001 -0.2080
  764MPD2    H211286   1.527   4.712  17.224  1.4447 -0.0835 -0.5967
  764MPD2    H311287   1.602   4.670  17.455 -1.4054  0.8095 -0.6030
  764MPD2     N11288   1.469   4.231  17.430 -0.2645 -0.5007  0.0244
  764MPD2    H511289   1.401   4.179  17.375 -1.0268 -0.3797  0.8467
  764MPD2    N111290   1.427   4.523  17.051  0.4267 -0.9828  0.1635
  764MPD2    H711291   1.378   4.450  17.001 -0.0282 -0.9403  0.5499
  765MPD2     C11292   1.151   2.412  16.003 -0.1494  0.1622 -0.8753
  765MPD2    C111293   1.207   2.526  15.965  0.3923 -0.0235 -0.1333
  765MPD2    C211294   1.310   2.518  15.878  0.5884 -0.6446  0.0998
  765MPD2    C311295   1.366   2.396  15.825  1.0320 -0.1989  0.0591
  765MPD2    C411296   1.302   2.282  15.867  0.0628 -0.2526  0.2231
  765MPD2    C511297   1.195   2.290  15.953  0.6145  0.0669  0.1600
  765MPD2     H11298   1.358   2.613  15.857 -0.6296 -0.2939 -1.1528
  765MPD2    H111299   1.333   2.184  15.830  1.7311 -0.4773  2.2217
  765MPD2    H211300   1.057   2.421  16.057 -0.2684 -0.8376 -0.9146
  765MPD2    H311301   1.145   2.198  15.979 -0.6386  0.4832 -0.7716
  765MPD2     N11302   1.483   2.400  15.744 -0.5646  0.1447 -0.0169
  765MPD2    H511303   1.523   2.489  15.717  1.7272 -1.3356 -1.4445
  765MPD2    N111304   1.155   2.646  16.012 -0.1830 -0.2949  0.3898
  765MPD2    H711305   1.062   2.632  16.048  0.1043  2.2467  2.0773
  766MPD2     C11306   0.640   2.910  15.608  0.4726  1.0825  0.4116
  766MPD2    C111307   0.770   2.864  15.618 -0.0554 -0.0104 -0.6231
  766MPD2    C211308   0.846   2.824  15.508  0.1192  0.0002 -0.6982
  766MPD2    C311309   0.788   2.816  15.386 -0.3678 -0.1256 -0.0899
  766MPD2    C411310   0.664   2.864  15.374  0.0880  0.2756  0.3990
  766MPD2    C511311   0.587   2.908  15.476  0.2744 -0.5878 -0.3103
  766MPD2     H11312   0.946   2.786  15.525  0.5866  1.2626 -0.6068
  766MPD2    H111313   0.621   2.872  15.275 -2.4019 -1.6696  1.3147
  766MPD2    H211314   0.575   2.957  15.681  0.3505 -0.6586  1.4352
  766MPD2    H311315   0.490   2.950  15.451  0.7369  1.0010  0.5379
  766MPD2     N11316   0.859   2.784  15.270  0.0126 -0.3953  0.3065
  766MPD2    H511317   0.805   2.797  15.186 -0.0345 -1.6519  0.1369
  766MPD2    N111318   0.854   2.883  15.737 -0.2109 -0.0971  0.1346
  766MPD2    H711319   0.949   2.848  15.729 -0.4703 -1.0341  1.1852
  767MPD2     C11320   0.482   3.160  15.159 -0.0937 -0.2357 -0.5455
  767MPD2    C111321   0.618   3.140  15.142 -0.6153  0.0266 -0.2417
  767MPD2    C211322   0.672   3.095  15.021  0.0367  0.1152 -1.1733
  767MPD2    C311323   0.585   3.060  14.916  0.9759  0.2062 -0.6506
  767MPD2    C411324   0.449   3.080  14.935 -0.0026 -0.2617  0.4885
  767MPD2    C511325   0.400   3.138  15.050 -0.3126  0.1073  0.7161
  767MPD2     H11326   0.777   3.083  14.998  0.5079  0.5335  0.7151
  767MPD2    H111327   0.379   3.057  14.855 -0.0859  0.4001  0.3703
  767MPD2    H211328   0.443   3.210  15.247  0.4544 -2.9227  1.2449
  767MPD2    H311329   0.292   3.153  15.048 -0.1502  1.1169 -0.6562
  767MPD2     N11330   0.647   3.018  14.797  0.1849  0.4264  0.0222
  767MPD2    H511331   0.749   3.016  14.804  0.2459  2.1023 -0.3398
  767MPD2    N111332   0.699   3.184  15.251  0.1112  0.0410 -0.9105
  767MPD2    H711333   0.649   3.216  15.333 -0.2361 -1.2088 -0.6232
  768MPD2     C11334   2.167   1.535  10.673  0.2357  0.3561 -0.1432
  768MPD2    C111335   2.114   1.497  10.792 -0.4234 -0.8522 -0.4791
  768MPD2    C211336   2.199   1.491  10.903  0.5570 -0.5805 -0.2241
  768MPD2    C311337   2.326   1.543  10.899  0.0084 -0.3963 -0.1010
  768MPD2    C411338   2.375   1.585  10.778 -0.0594  0.1662 -0.9927
  768MPD2    C511339   2.299   1.576  10.665  0.1543 -0.5190 -0.3845
  768MPD2     H11340   2.146   1.483  10.998 -0.1373 -0.6236 -0.6211
  768MPD2    H111341   2.472   1.635  10.770  0.0758  0.2095  0.9848
  768MPD2    H211342   2.110   1.548  10.582  0.6805  1.0749 -0.3288
  768MPD2    H311343   2.336   1.603  10.567 -0.5647 -0.9287 -0.7705
  768MPD2     N11344   2.414   1.553  11.013 -0.5854  0.4835  0.1477
  768MPD2    H511345   2.508   1.589  11.004 -0.4652 -0.3446 -1.9800
  768MPD2    N111346   1.971   1.482  10.813 -0.3613  0.6675  0.6364
  768MPD2    H711347   1.934   1.478  10.907 -2.7801  2.3147 -0.2672
  769MPD2     C11348   2.813   4.529  14.998  0.5588 -0.2041  0.0540
  769MPD2    C111349   2.720   4.569  15.086  0.0270  0.5264 -0.7231
  769MPD2    C211350   2.754   4.659  15.193  0.2473 -0.5280  0.3511
  769MPD2    C311351   2.885   4.700  15.208  0.1405  0.7393  0.4090
  769MPD2    C411352   2.983   4.639  15.132  0.2185 -0.1165  0.2943
  769MPD2    C511353   2.940   4.562  15.025 -0.2690  0.2452 -0.1137
  769MPD2     H11354   2.671   4.708  15.243  0.7296 -0.1618  0.7979
  769MPD2    H111355   3.089   4.651  15.151  0.2753 -0.3533  0.1125
  769MPD2    H211356   2.793   4.466  14.913 -2.9149 -0.1283  0.8143
  769MPD2    H311357   3.017   4.521  14.961  1.3327  1.8628  0.7805
  769MPD2     N11358   2.907   0.060  15.317  0.2796  1.0611  0.3678
  769MPD2    H511359   2.833   0.090  15.379 -0.9060  0.3338 -0.7108
  769MPD2    N111360   2.588   4.519  15.058  0.1483  0.0095  0.4143
  769MPD2    H711361   2.585   4.441  14.992  3.2681  0.3657 -0.1439
  770MPD2     C11362   1.759   4.209  15.677  0.2293  0.0198  0.3637
  770MPD2    C111363   1.859   4.120  15.645  0.4713  0.3849 -0.5716
  770MPD2    C211364   1.947   4.155  15.545  0.4845 -0.0669  0.1010
  770MPD2    C311365   1.941   4.280  15.480 -0.2684  0.0718 -0.0525
  770MPD2    C411366   1.853   4.376  15.532  0.5768  0.3611  0.1441
  770MPD2    C511367   1.763   4.336  15.628  1.1590 -0.6659  0.0106
  770MPD2     H11368   2.032   4.093  15.519  1.6432  0.4581  2.6757
  770MPD2    H111369   1.846   4.474  15.487  0.8245 -0.1122 -0.9252
  770MPD2    H211370   1.684   4.178  15.749 -1.0718 -1.3807 -1.6036
  770MPD2    H311371   1.689   4.407  15.661  2.6493  0.9776 -0.1836
  770MPD2     N11372   2.032   4.301  15.372  0.2424 -0.1269  0.7262
  770MPD2    H511373   2.091   4.221  15.354  0.3156  0.4126 -1.5295
  770MPD2    N111374   1.871   3.996  15.699 -0.2895 -0.1191 -0.4531
  770MPD2    H711375   1.964   3.958  15.685 -0.0796  0.2724 -0.1155
  771MPD2     C11376   3.227   2.293  13.416 -0.6868 -0.7599  0.4243
  771MPD2    C111377   3.355   2.340  13.442  0.0471  0.0142 -0.3861
  771MPD2    C211378   3.461   2.262  13.426 -0.2856 -0.7740  0.0784
  771MPD2    C311379   3.452   2.139  13.363  0.2580 -0.2428  0.6524
  771MPD2    C411380   3.326   2.092  13.325  0.5580  0.4804 -0.0351
  771MPD2    C511381   3.220   2.168  13.367 -0.2884  0.2355  0.2830
  771MPD2     H11382   3.554   2.308  13.456 -0.2856 -0.2533 -0.7112
  771MPD2    H111383   3.294   1.997  13.284  1.2874  0.5064 -0.6621
  771MPD2    H211384   3.136   2.351  13.424  0.9344  1.9358 -0.8718
  771MPD2    H311385   3.127   2.122  13.338  0.8383 -1.1441 -1.1274
  771MPD2     N11386   3.567   2.056  13.370 -0.1809  0.1149  0.1002
  771MPD2    H511387   3.654   2.096  13.405  0.1063 -0.0200 -0.4508
  771MPD2    N111388   3.384   2.468  13.493 -0.3802  0.0708  0.5572
  771MPD2    H711389   3.482   2.493  13.495 -0.2799 -0.2447 -1.1041
  772MPD2     C11390   3.133   2.989  14.115  0.2307 -0.8077  0.1416
  772MPD2    C111391   3.077   2.930  14.004  0.2297 -0.1081 -0.3378
  772MPD2    C211392   2.941   2.929  13.991  0.1988  0.1299  0.0295
  772MPD2    C311393   2.859   3.002  14.079  0.7408  0.0882  0.0208
  772MPD2    C411394   2.920   3.062  14.184  0.3806  0.0645  0.1988
  772MPD2    C511395   3.055   3.059  14.197 -0.2416 -0.6541  0.5834
  772MPD2     H11396   2.899   2.880  13.904 -1.1329  1.1002  0.1263
  772MPD2    H111397   2.855   3.119  14.250  1.4747 -0.8142  2.0217
  772MPD2    H211398   3.238   2.998  14.140  0.3133 -0.0322 -0.5030
  772MPD2    H311399   3.100   3.109  14.283  0.4821  0.5254 -0.4745
  772MPD2     N11400   2.718   3.025  14.063 -0.4140 -0.0259  0.1968
  772MPD2    H511401   2.676   3.086  14.132 -0.0227  0.2308  0.2086
  772MPD2    N111402   3.152   2.863  13.905  0.2775  0.1533  0.1052
  772MPD2    H711403   3.100   2.837  13.821  0.3097  1.1475 -0.2181
  773MPD2     C11404   2.148   3.597   0.321 -0.1431 -0.2717 -0.0156
  773MPD2    C111405   2.200   3.515   0.225 -0.2499  0.2855 -1.0496
  773MPD2    C211406   2.291   3.424   0.258  0.6505  0.1939  0.1003
  773MPD2    C311407   2.321   3.409   0.395  0.2094  0.2671 -0.1172
  773MPD2    C411408   2.270   3.486   0.495 -0.5747  0.3826  0.3769
  773MPD2    C511409   2.184   3.584   0.453  0.0725 -0.3364 -0.0441
  773MPD2     H11410   2.316   3.344   0.189  1.5762  0.9347 -0.4180
  773MPD2    H111411   2.286   3.475   0.602  0.1152  0.7140  0.3008
  773MPD2    H211412   2.070   3.669   0.298 -0.7772 -0.5237  1.3717
  773MPD2    H311413   2.148   3.650   0.531  0.5985  2.3948 -2.1222
  773MPD2     N11414   2.412   3.299   0.430  0.1734  0.0389  0.5653
  773MPD2    H511415   2.441   3.248   0.346 -0.2400  2.3815 -0.9937
  773MPD2    N111416   2.148   3.515   0.098 -0.1081  0.4379  0.3273
  773MPD2    H711417   2.182   3.449   0.029  1.1317  1.7222 -0.2679
  774MPD2     C11418   1.235   2.429  13.186  0.2372 -0.2990  0.1297
  774MPD2    C111419   1.321   2.470  13.293  0.1567 -0.1785 -0.2309
  774MPD2    C211420   1.401   2.576  13.257  0.3178 -0.0617 -0.4493
  774MPD2    C311421   1.417   2.619  13.126  0.5514 -0.3070 -0.5653
  774MPD2    C411422   1.330   2.570  13.032 -0.2999 -0.3625 -1.1710
  774MPD2    C511423   1.234   2.480  13.058  0.4484 -0.5630 -0.2658
  774MPD2     H11424   1.460   2.633  13.329 -0.0588 -1.3930  0.9217
  774MPD2    H111425   1.336   2.605  12.930  1.4460 -1.0457 -1.2889
  774MPD2    H211426   1.173   2.342  13.207  1.8259 -1.9690 -1.9732
  774MPD2    H311427   1.159   2.449  12.986 -1.0811 -1.6849  1.8030
  774MPD2     N11428   1.506   2.728  13.105  0.1058  0.1104  0.4830
  774MPD2    H511429   1.550   2.759  13.191  0.4928 -1.0478  0.6941
  774MPD2    N111430   1.329   2.411  13.423 -1.1318  0.5417  0.1774
  774MPD2    H711431   1.249   2.360  13.459 -0.0627 -1.1828  0.1329
  775MPD2     C11432   3.083   4.564  15.716 -0.7086 -0.5036  0.1156
  775MPD2    C111433   3.139   4.638  15.819 -0.0719  0.1888  0.5965
  775MPD2    C211434   3.234   0.013  15.785 -0.2473  0.1591  0.3220
  775MPD2    C311435   3.266   0.031  15.653 -0.0017 -0.2326  0.1836
  775MPD2    C411436   3.213   4.679  15.554  0.4691  0.3120  0.5462
  775MPD2    C511437   3.122   4.581  15.581  0.4046  0.4817 -0.5187
  775MPD2     H11438   3.269   0.068  15.872  2.4139 -2.1648  0.7009
  775MPD2    H111439   3.227   4.698  15.448 -0.3864  1.8924  0.7043
  775MPD2    H211440   3.004   4.494  15.741 -0.1643 -0.8745  0.8053
  775MPD2    H311441   3.078   4.521  15.502 -1.8149  1.3617  0.0369
  775MPD2     N11442   3.355   0.133  15.611  0.1782  0.0173 -0.4738
  775MPD2    H511443   3.379   0.116  15.514 -1.1763  2.1639 -1.1733
  775MPD2    N111444   3.108   4.605  15.953 -0.5086  0.0610  0.5427
  775MPD2    H711445   3.052   4.521  15.965 -0.9416  0.3863  0.8537
  776MPD2     C11446   2.860   0.100  11.321 -0.7016  0.2059 -0.4565
  776MPD2    C111447   2.823   0.155  11.203  0.3903  0.1600 -0.3191
  776MPD2    C211448   2.818   0.295  11.186  0.0541  0.6073  0.4553
  776MPD2    C311449   2.854   0.383  11.290 -0.1383 -1.0564 -0.7341
  776MPD2    C411450   2.897   0.320  11.404 -0.3694  0.1204  0.5517
  776MPD2    C511451   2.898   0.181  11.418  0.8941  0.4399  0.1187
  776MPD2     H11452   2.783   0.330  11.090 -1.2184 -3.8552 -0.7072
  776MPD2    H111453   2.935   0.375  11.489  1.6992 -1.8991  0.9187
  776MPD2    H211454   2.866   4.717  11.330 -2.6915  0.0370 -1.1513
  776MPD2    H311455   2.939   0.139  11.509 -0.0794  0.0158  0.3597
  776MPD2     N11456   2.842   0.528  11.283 -0.0353  0.4419 -0.4661
  776MPD2    H511457   2.867   0.586  11.362  2.1048  0.6891 -1.3127
  776MPD2    N111458   2.783   0.059  11.106  0.1933 -0.4157 -0.7438
  776MPD2    H711459   2.782   4.689  11.144 -3.2141 -0.2522 -0.4850
  777MPD2     C11460   2.519   1.868   0.832 -0.0220  0.0466 -0.0199
  777MPD2    C111461   2.382   1.884   0.833 -0.2690 -0.4668  0.0218
  777MPD2    C211462   2.303   1.792   0.767 -0.2044  0.6014  0.1460
  777MPD2    C311463   2.366   1.681   0.715  0.6502 -0.5689  0.2944
  777MPD2    C411464   2.507   1.661   0.714  0.6438 -0.7305 -0.4207
  777MPD2    C511465   2.583   1.759   0.777 -0.5594  0.2250  0.6760
  777MPD2     H11466   2.198   1.808   0.746 -0.7115  0.6649  2.7263
  777MPD2    H111467   2.567   1.576   0.684  0.8285  0.1218 -2.4362
  777MPD2    H211468   2.582   1.951   0.862 -0.3521  0.6128 -0.8867
  777MPD2    H311469   2.690   1.743   0.779 -0.5647  0.0924 -0.1660
  777MPD2     N11470   2.288   1.584   0.644  0.5365  0.0423  0.0023
  777MPD2    H511471   2.191   1.612   0.634  0.1882 -1.3095 -0.4242
  777MPD2    N111472   2.341   2.000   0.896 -0.0811  0.1765  0.1358
  777MPD2    H711473   2.416   2.051   0.943 -0.3721  0.5735  0.1737
  778MPD2     C11474   3.431   2.338  14.858 -0.0535 -0.2134  0.3455
  778MPD2    C111475   3.434   2.238  14.757 -1.0223 -0.1114 -0.2507
  778MPD2    C211476   3.537   2.228  14.673  0.5706 -0.1365 -0.1961
  778MPD2    C311477   3.635   2.328  14.666 -0.7434  0.3205 -0.3938
  778MPD2    C411478   3.638   2.424  14.764 -0.0437  0.2235 -0.6964
  778MPD2    C511479   3.540   2.429  14.861 -0.1277  0.4926  0.2796
  778MPD2     H11480   3.538   2.148  14.600  0.0261  0.5217 -0.9319
  778MPD2    H111481   3.719   2.496  14.763 -1.1969  1.5254  0.3448
  778MPD2    H211482   3.360   2.343  14.939 -1.0860 -2.2648 -0.4228
  778MPD2    H311483   3.542   2.502  14.941 -0.2543 -1.6448  2.2184
  778MPD2     N11484   3.730   2.322  14.563 -0.0354  0.4130  0.2149
  778MPD2    H511485   3.732   2.239  14.504 -1.4657 -2.0641  3.6046
  778MPD2    N111486   3.336   2.142  14.739 -0.6846 -0.5216 -0.0583
  778MPD2    H711487   3.357   2.065  14.677 -2.3424  0.7890 -2.2425
  779MPD2     C11488   3.342   1.284  13.742 -0.2128  0.6290 -0.0813
  779MPD2    C111489   3.399   1.304  13.868  0.3430  0.0326 -0.1356
  779MPD2    C211490   3.456   1.428  13.898 -0.5104 -0.6248  0.3129
  779MPD2    C311491   3.454   1.529  13.805  0.8083  0.0791 -1.1211
  779MPD2    C411492   3.402   1.509  13.678  0.3290  0.2783  0.7936
  779MPD2    C511493   3.349   1.382  13.647 -0.4456  0.2553 -0.0609
  779MPD2     H11494   3.493   1.442  13.999  0.8530  1.6147 -0.4958
  779MPD2    H111495   3.410   1.576  13.594  0.1105 -1.3686 -0.5522
  779MPD2    H211496   3.313   1.183  13.716  0.5152  0.3474  0.1765
  779MPD2    H311497   3.323   1.358  13.545 -2.8484  1.3501  0.3070
  779MPD2     N11498   3.519   1.648  13.836  0.4466 -0.4146  0.0933
  779MPD2    H511499   3.541   1.647  13.936 -1.7253  1.0043  0.5855
  779MPD2    N111500   3.385   1.209  13.970  0.6213 -0.0354 -0.2564
  779MPD2    H711501   3.439   1.228  14.054  0.2934 -0.3533  0.0287
  780MPD2     C11502   2.880   1.238   1.410 -0.2638 -0.1186 -0.3102
  780MPD2    C111503   2.841   1.154   1.312 -0.5981 -0.2730 -0.0347
  780MPD2    C211504   2.861   1.194   1.176  0.8912  0.0669  0.0181
  780MPD2    C311505   2.927   1.314   1.149  0.4512  0.9394  0.3132
  780MPD2    C411506   2.983   1.384   1.258  0.1871 -0.2026 -1.0773
  780MPD2    C511507   2.960   1.341   1.386  0.2928  0.5672 -0.0890
  780MPD2     H11508   2.814   1.137   1.097 -0.9463  0.5089  0.7740
  780MPD2    H111509   3.035   1.479   1.253 -1.3076  0.7213  0.8095
  780MPD2    H211510   2.852   1.216   1.513  0.4751  0.5536  0.0377
  780MPD2    H311511   2.971   1.409   1.470  1.6456 -1.6873  1.5457
  780MPD2     N11512   2.936   1.345   1.010  0.1631  0.4969 -0.9593
  780MPD2    H511513   2.900   1.275   0.945 -1.6940 -2.2559  3.0793
  780MPD2    N111514   2.778   1.036   1.342  0.4625 -0.2779  1.0268
  780MPD2    H711515   2.758   1.018   1.440  0.5981 -0.4891  1.0160
  781MPD2     C11516   0.173   3.308  12.048  0.0977 -0.2176 -0.6110
  781MPD2    C111517   0.257   3.200  12.051  0.6983  0.1282 -0.1177
  781MPD2    C211518   0.306   3.155  11.936 -0.3522  0.1933  0.2789
  781MPD2    C311519   0.273   3.218  11.815 -0.2896 -0.1440 -0.3597
  781MPD2    C411520   0.184   3.325  11.814  0.3585 -0.1561 -0.8026
  781MPD2    C511521   0.130   3.368  11.933  0.2856  1.0021  0.5209
  781MPD2     H11522   0.363   3.063  11.944  1.9967  1.6949  0.5398
  781MPD2    H111523   0.154   3.369  11.719 -1.5144 -0.7410 -0.4877
  781MPD2    H211524   0.126   3.342  12.140  0.0813  0.6860 -0.9459
  781MPD2    H311525   0.063   3.452  11.947 -3.2079 -1.6965  0.0714
  781MPD2     N11526   0.322   3.172  11.685  0.4453  0.5789  0.1245
  781MPD2    H511527   0.284   3.214  11.601 -0.6506  1.6329  1.1320
  781MPD2    N111528   0.275   3.128  12.170 -0.7099 -0.0789 -0.6272
  781MPD2    H711529   0.319   3.038  12.153 -2.6244 -0.5753 -3.0208
  782MPD2     C11530   3.045   3.704  10.013 -0.2579 -0.0268  0.4515
  782MPD2    C111531   3.166   3.652  10.056 -0.4060  0.7255 -0.7801
  782MPD2    C211532   3.244   3.737  10.139  0.0492  0.1340  0.1379
  782MPD2    C311533   3.204   3.865  10.175  0.0689  0.3087  0.5931
  782MPD2    C411534   3.079   3.910  10.139 -0.1546  0.2447 -0.2036
  782MPD2    C511535   3.001   3.830  10.055  0.7570  0.6477 -0.0421
  782MPD2     H11536   3.341   3.705  10.176 -0.2084 -2.6213 -1.5608
  782MPD2    H111537   3.031   4.006  10.158 -2.6754 -0.6970 -1.6439
  782MPD2    H211538   2.986   3.658   9.934 -1.6498 -0.0139  1.4910
  782MPD2    H311539   2.901   3.864  10.033  0.9667  0.9103 -0.5960
  782MPD2     N11540   3.293   3.942  10.251 -0.2649 -0.9464 -0.2080
  782MPD2    H511541   3.381   3.906  10.285  1.7623  4.0636 -0.1662
  782MPD2    N111542   3.205   3.523  10.011 -0.3344  0.2359 -0.3142
  782MPD2    H711543   3.139   3.479   9.949 -1.7641  2.1539 -0.1381
  783MPD2     C11544   2.790   3.139  10.572 -0.0419 -0.8896 -0.2988
  783MPD2    C111545   2.899   3.218  10.595  0.4789  0.5454 -0.0844
  783MPD2    C211546   2.999   3.226  10.496  0.3164  0.5820 -0.5301
  783MPD2    C311547   2.983   3.165  10.374 -0.1074 -0.8498  0.3487
  783MPD2    C411548   2.871   3.092  10.343 -0.1558 -0.3569  0.6117
  783MPD2    C511549   2.780   3.084  10.442 -1.2803  0.0349  0.1354
  783MPD2     H11550   3.084   3.290  10.514  0.4014  0.2932  0.1132
  783MPD2    H111551   2.850   3.043  10.249  1.3958 -2.4344  1.3467
  783MPD2    H211552   2.705   3.149  10.639  1.3236 -0.3035  1.3263
  783MPD2    H311553   2.690   3.028  10.416  1.2301 -3.3933 -1.2235
  783MPD2     N11554   3.091   3.162  10.285  0.1027  0.2961 -0.2845
  783MPD2    H511555   3.178   3.200  10.320  0.2672  0.9861 -1.4628
  783MPD2    N111556   2.887   3.297  10.709  0.0379  0.2972  0.4868
  783MPD2    H711557   2.804   3.283  10.766 -0.2512  0.7555  0.1788
  784MPD2     C11558   0.385   3.609   0.712  0.6063 -0.9283  0.0443
  784MPD2    C111559   0.393   3.731   0.767  0.7959 -0.6484 -0.5041
  784MPD2    C211560   0.313   3.827   0.714  0.9050 -0.1912  0.6328
  784MPD2    C311561   0.239   3.799   0.599 -0.1034 -0.4744 -0.1685
  784MPD2    C411562   0.231   3.671   0.551  0.2735 -0.2095  0.1914
  784MPD2    C511563   0.306   3.574   0.612  0.8651  0.2632  0.0224
  784MPD2     H11564   0.309   3.922   0.765 -1.5405 -1.0758  2.0641
  784MPD2    H111565   0.181   3.651   0.457  0.3157  3.4663 -0.6139
  784MPD2    H211566   0.442   3.525   0.750 -0.8332 -1.0516  1.8991
  784MPD2    H311567   0.310   3.474   0.572  0.8225 -0.6330  2.2187
  784MPD2     N11568   0.173   3.904   0.529 -0.7966  0.0846  0.6827
  784MPD2    H511569   0.203   3.998   0.549 -3.2775  1.3356 -1.5741
  784MPD2    N111570   0.484   3.761   0.870 -0.0039  0.9071  0.5575
  784MPD2    H711571   0.509   3.859   0.879  1.5590  0.6175 -0.5992
  785MPD2     C11572   1.118   2.738  10.574  0.2725 -0.5369 -0.4915
  785MPD2    C111573   1.015   2.652  10.612  0.3405  1.1895 -0.3607
  785MPD2    C211574   0.999   2.532  10.544  0.0155  1.3687  0.4991
  785MPD2    C311575   1.075   2.498  10.429 -0.5501 -0.5173 -0.0024
  785MPD2    C411576   1.166   2.594  10.387  0.1612  0.2736  0.2172
  785MPD2    C511577   1.189   2.711  10.459 -0.2362  0.4930 -0.3390
  785MPD2     H11578   0.914   2.470  10.569 -0.5960  1.6215 -0.9420
  785MPD2    H111579   1.230   2.568  10.304 -0.9188  0.2029 -0.5934
  785MPD2    H211580   1.142   2.824  10.635  1.3378 -0.8216 -0.5203
  785MPD2    H311581   1.273   2.773  10.429 -0.2593  0.3507 -0.7040
  785MPD2     N11582   1.040   2.376  10.361 -0.0272  0.3971  0.4633
  785MPD2    H511583   0.991   2.305  10.415  1.2644 -0.9863 -0.1825
  785MPD2    N111584   0.921   2.681  10.717  0.2914 -0.2971 -0.8804
  785MPD2    H711585   0.849   2.614  10.740  0.7191 -0.8461 -1.1405
  786MPD2     C11586   3.619   0.455  14.496 -0.2460  0.3296 -0.0586
  786MPD2    C111587   3.756   0.434  14.501  0.2627 -0.3463  0.1965
  786MPD2    C211588   3.821   0.447  14.624  0.4682  0.5942  0.5816
  786MPD2    C311589   3.753   0.494  14.736  0.2686 -0.0637  0.1423
  786MPD2    C411590   3.618   0.515  14.723 -0.7719  0.0775 -0.1170
  786MPD2    C511591   3.554   0.493  14.604  0.4036  1.0369  0.4270
  786MPD2     H11592   3.928   0.432  14.635  0.9191  3.3639 -0.0290
  786MPD2    H111593   3.567   0.547  14.813  0.7266  2.1825 -0.0259
  786MPD2    H211594   3.553   0.438  14.411  1.0060 -0.3740 -0.8886
  786MPD2    H311595   3.447   0.507  14.593  0.0604 -0.6097  1.8268
  786MPD2     N11596   3.823   0.519  14.855 -0.5361 -0.6738  0.4853
  786MPD2    H511597   3.764   0.558  14.927  0.2098 -0.6242  1.0579
  786MPD2    N111598   3.829   0.391  14.391 -0.1928  0.3690 -0.3884
  786MPD2    H711599   3.929   0.377  14.405 -0.6474 -3.0888 -0.7129
  787MPD2     C11600   4.282   4.709  14.498  0.4558  0.1037  0.5095
  787MPD2    C111601   4.294   0.000  14.363 -0.3443  0.3329  0.0465
  787MPD2    C211602   4.413   4.703  14.301  0.0492 -0.8689 -0.5469
  787MPD2    C311603   4.519   4.658  14.370  0.5929  0.2760 -0.6089
  787MPD2    C411604   4.511   4.641  14.511  0.3345 -0.3181  0.5742
  787MPD2    C511605   4.392   4.673  14.569  0.1167  0.0221  0.3663
  787MPD2     H11606   4.422   4.714  14.193 -0.7105  0.1022 -0.5045
  787MPD2    H111607   4.592   4.604  14.574  1.2245  2.0285  0.8174
  787MPD2    H211608   4.198   0.014  14.559  0.6521 -0.2367  0.9426
  787MPD2    H311609   4.374   4.660  14.675  6.1081  1.1694  1.5494
  787MPD2     N11610   4.632   4.625  14.298 -0.2800 -0.2635 -0.1036
  787MPD2    H511611   4.624   4.635  14.197 -0.2553 -0.2156 -0.1010
  787MPD2    N111612   4.170   0.041  14.296 -0.0487 -0.4100  0.2638
  787MPD2    H711613   4.088   0.040  14.356  1.5098  0.9295  2.4325
  788MPD2     C11614   1.625   2.613   0.724 -0.3482 -0.1186 -0.4864
  788MPD2    C111615   1.498   2.570   0.694  0.1615  0.6752  0.6345
  788MPD2    C211616   1.411   2.662   0.645 -0.3358  1.0141 -0.0055
  788MPD2    C311617   1.442   2.794   0.620  0.5022 -0.0036 -0.5121
  788MPD2    C411618   1.563   2.840   0.655  0.1181  0.1909 -0.2325
  788MPD2    C511619   1.651   2.748   0.710 -0.1532  0.6800 -0.4094
  788MPD2     H11620   1.312   2.622   0.626  0.7676 -1.4509 -0.5527
  788MPD2    H111621   1.584   2.945   0.640  1.0877  0.1721  1.0143
  788MPD2    H211622   1.705   2.556   0.769 -2.1673 -3.5839 -1.6347
  788MPD2    H311623   1.753   2.783   0.722  0.3831 -0.6788 -1.0802
  788MPD2     N11624   1.355   2.886   0.558  0.2229 -0.2013  0.0869
  788MPD2    H511625   1.398   2.972   0.526 -1.0646  1.0328  1.6473
  788MPD2    N111626   1.477   2.427   0.697  0.5548 -0.0240  0.1797
  788MPD2    H711627   1.556   2.366   0.717 -0.3205 -1.0425  0.5007
  789MPD2     C11628   1.443   3.000  16.336 -0.2381  0.4525  0.2505
  789MPD2    C111629   1.347   2.899  16.340  0.4879  0.5265 -0.6530
  789MPD2    C211630   1.217   2.931  16.376 -0.4686  0.1880 -0.0737
  789MPD2    C311631   1.182   3.056  16.411  0.4337 -0.2966  0.1898
  789MPD2    C411632   1.275   3.157  16.394  0.6756 -0.6028 -0.3397
  789MPD2    C511633   1.402   3.126  16.364 -0.4418 -0.6688 -0.3298
  789MPD2     H11634   1.143   2.853  16.368  0.0441 -0.5812  2.4506
  789MPD2    H111635   1.257   3.262  16.413 -1.7407 -0.6505 -2.4451
  789MPD2    H211636   1.546   2.996  16.304 -0.5007 -1.4810 -0.3663
  789MPD2    H311637   1.467   3.208  16.337 -1.5042  0.6477  1.1031
  789MPD2     N11638   1.049   3.096  16.443 -0.0821 -0.3234  0.6433
  789MPD2    H511639   1.027   3.189  16.476 -1.8693 -1.0227  1.4269
  789MPD2    N111640   1.372   2.760  16.329 -0.2494 -0.1267 -0.8310
  789MPD2    H711641   1.289   2.702  16.333  1.1179 -1.8340  2.3579
  790MPD2     C11642   2.508   0.298  13.478 -0.1928 -0.2307  0.0118
  790MPD2    C111643   2.469   0.165  13.480 -0.6333 -0.6821 -0.2253
  790MPD2    C211644   2.461   0.098  13.358  0.4461  0.1428  0.5999
  790MPD2    C311645   2.494   0.162  13.239 -0.3875  1.1223 -0.0292
  790MPD2    C411646   2.536   0.292  13.243 -0.3838  0.6629 -0.5986
  790MPD2    C511647   2.550   0.354  13.363 -0.0267  0.1901 -0.5266
  790MPD2     H11648   2.419   0.001  13.334  2.0188 -0.7512  1.5543
  790MPD2    H111649   2.535   0.353  13.153 -0.0884  0.4300 -0.7572
  790MPD2    H211650   2.509   0.367  13.562  1.4394  0.6387 -0.7443
  790MPD2    H311651   2.582   0.457  13.366 -1.5409  0.6832 -1.1539
  790MPD2     N11652   2.487   0.091  13.118  0.0129  0.2992  0.2254
  790MPD2    H511653   2.444   4.724  13.126 -0.3444  0.3356 -1.3187
  790MPD2    N111654   2.431   0.117  13.606  0.0653 -0.1062  0.3833
  790MPD2    H711655   2.432   0.180  13.686 -0.8950  1.8271 -1.1347
  791MPD2     C11656   2.176   4.285  12.533 -0.2667  0.6646  0.0738
  791MPD2    C111657   2.155   4.369  12.641 -0.2356 -0.3316 -0.1232
  791MPD2    C211658   2.036   4.366  12.709 -0.2578 -0.1614  0.2931
  791MPD2    C311659   1.938   4.279  12.665  0.3794  0.6656  0.2945
  791MPD2    C411660   1.959   4.188  12.568 -0.2943  0.0177  0.1117
  791MPD2    C511661   2.086   4.186  12.505 -0.3897 -0.4360 -1.1378
  791MPD2     H11662   2.014   4.438  12.786  1.0992  0.6837 -0.1027
  791MPD2    H111663   1.895   4.102  12.551 -0.7667  0.4193 -0.1401
  791MPD2    H211664   2.266   4.293  12.472 -0.4703  2.2250  0.0030
  791MPD2    H311665   2.109   4.111  12.430  1.9096  1.2059 -2.0793
  791MPD2     N11666   1.817   4.276  12.730  0.9813 -0.4791  0.8240
  791MPD2    H511667   1.815   4.309  12.826  0.6999 -0.5938  0.8558
  791MPD2    N111668   2.258   4.460  12.678  0.4988 -0.1742 -0.1688
  791MPD2    H711669   2.335   4.444  12.614  0.6123  0.2449 -0.1322
  792MPD2     C11670   3.368   4.572  11.123 -0.1874  0.2040  0.5267
  792MPD2    C111671   3.281   4.614  11.021  0.2990 -0.5893  0.4766
  792MPD2    C211672   3.264   4.543  10.908  0.4190 -0.8718 -0.6624
  792MPD2    C311673   3.324   4.419  10.894 -0.2003  0.4144  0.5801
  792MPD2    C411674   3.408   4.370  10.994  0.0643  0.5511  0.2884
  792MPD2    C511675   3.431   4.451  11.104  0.3008  0.4254  0.0702
  792MPD2     H11676   3.208   4.579  10.822 -1.4258  0.4015  1.0726
  792MPD2    H111677   3.471   4.282  10.994  2.4628  2.2667 -0.6286
  792MPD2    H211678   3.386   4.637  11.208 -1.4890  1.9749 -0.5388
  792MPD2    H311679   3.509   4.423  11.174 -1.6002 -1.3497  1.4883
  792MPD2     N11680   3.288   4.331  10.790 -1.0099 -0.8757 -0.7717
  792MPD2    H511681   3.310   4.233  10.806 -0.1414 -0.6748 -0.7438
  792MPD2    N111682   3.214   0.013  11.034  0.7505 -0.2571  0.2443
  792MPD2    H711683   3.241   0.071  11.113 -3.0648  0.8658  0.7207
  793MPD2     C11684   2.500   4.579  10.231 -0.7267  0.4854 -0.1375
  793MPD2    C111685   2.630   4.576  10.182  0.5910  0.0485 -0.0758
  793MPD2    C211686   2.713   4.486  10.247 -0.5441 -0.2783  0.2015
  793MPD2    C311687   2.687   4.413  10.358 -0.2212 -0.5520  0.2823
  793MPD2    C411688   2.562   4.418  10.401  0.1618 -0.1116 -0.1861
  793MPD2    C511689   2.471   4.497  10.338 -0.2300 -0.5354  0.0190
  793MPD2     H11690   2.812   4.485  10.204 -1.9952  0.4425 -3.1827
  793MPD2    H111691   2.528   4.358  10.485  1.5087 -1.1763 -0.3928
  793MPD2    H211692   2.420   4.642  10.194 -2.3972 -0.8999  1.1402
  793MPD2    H311693   2.367   4.491  10.369 -0.1629 -0.6395  0.2247
  793MPD2     N11694   2.792   4.329  10.398 -0.8482 -0.1156 -0.6374
  793MPD2    H511695   2.882   4.345  10.355 -0.5520 -1.1768 -0.4099
  793MPD2    N111696   2.672   4.661  10.084 -0.3820 -0.3723 -0.4361
  793MPD2    H711697   2.766   4.644  10.050 -0.5500  0.2943 -1.2439
  794MPD2     C11698   1.993   3.993  17.094 -0.1111  0.4810 -0.1654
  794MPD2    C111699   1.989   3.854  17.073 -0.6527 -0.1627 -0.2601
  794MPD2    C211700   1.945   3.799  16.955 -0.1643 -0.2970 -0.7417
  794MPD2    C311701   1.901   3.883  16.858 -0.1609 -0.2536 -0.2798
  794MPD2    C411702   1.897   4.020  16.878  0.5335  0.0836  0.3053
  794MPD2    C511703   1.948   4.071  16.991 -0.0799 -0.3110  0.2658
  794MPD2     H11704   1.946   3.692  16.942 -1.6071 -0.4545  0.4690
  794MPD2    H111705   1.879   4.091  16.799 -0.1560 -0.6713 -0.2100
  794MPD2    H211706   2.026   4.039  17.186  1.7338  0.6456 -0.9236
  794MPD2    H311707   1.957   4.179  16.998 -3.1013 -0.0682  0.2264
  794MPD2     N11708   1.857   3.832  16.726  0.0936 -0.1586  0.1048
  794MPD2    H511709   1.819   3.901  16.662 -0.6051 -0.0234  0.6656
  794MPD2    N111710   2.021   3.759  17.169 -0.5979  0.2716  0.4679
  794MPD2    H711711   1.998   3.666  17.137  0.3730  0.0388  0.4314
  795MPD2     C11712   0.237   1.380  13.172 -0.4647  0.2226 -0.5079
  795MPD2    C111713   0.181   1.266  13.237  0.0733 -0.4817  0.1532
  795MPD2    C211714   0.266   1.161  13.247  0.4209  0.0172 -0.4276
  795MPD2    C311715   0.390   1.158  13.189 -0.0953  0.4522  0.0752
  795MPD2    C411716   0.437   1.264  13.126  0.6462  0.0453 -0.0766
  795MPD2    C511717   0.359   1.372  13.119 -0.8806 -0.4828 -0.3222
  795MPD2     H11718   0.225   1.074  13.297 -1.2269  0.1258 -1.5854
  795MPD2    H111719   0.540   1.266  13.092  0.2110  0.3135 -1.3689
  795MPD2    H211720   0.185   1.475  13.161 -2.5620 -0.9173 -0.5596
  795MPD2    H311721   0.395   1.459  13.065  0.5217 -0.5229  0.5578
  795MPD2     N11722   0.457   1.035  13.170 -0.4922 -0.5505  0.0411
  795MPD2    H511723   0.433   0.967  13.242 -0.9132 -1.0917 -0.6068
  795MPD2    N111724   0.040   1.242  13.263 -0.0363 -0.0246  0.0639
  795MPD2    H711725   0.011   1.147  13.284  1.2937 -0.3945  0.2455
  796MPD2     C11726   4.208   3.222  15.794  0.6317  0.4819 -0.1461
  796MPD2    C111727   4.230   3.259  15.930  0.5777  0.0634  0.5821
  796MPD2    C211728   4.197   3.389  15.969  0.0378  0.1953 -0.0709
  796MPD2    C311729   4.154   3.482  15.876  0.2807  0.4551 -0.6397
  796MPD2    C411730   4.136   3.447  15.743 -0.1350  0.2718 -0.0390
  796MPD2    C511731   4.162   3.317  15.703 -0.7157 -0.1695  0.5723
  796MPD2     H11732   4.220   3.418  16.071 -0.0974  1.2608 -0.3515
  796MPD2    H111733   4.104   3.513  15.662 -0.3512 -1.2936 -1.2319
  796MPD2    H211734   4.221   3.119  15.763 -0.2477  0.7579 -1.4369
  796MPD2    H311735   4.151   3.277  15.603 -1.6684  1.1157  0.1677
  796MPD2     N11736   4.126   3.614  15.921 -0.1591  0.8149 -0.0346
  796MPD2    H511737   4.175   3.646  16.005  0.6931 -0.9770  0.1546
  796MPD2    N111738   4.265   3.160  16.034  0.2826  0.3457  0.5937
  796MPD2    H711739   4.276   3.067  15.995 -1.8988  0.4192 -0.2169
  797MPD2     C11740   0.647   2.396  16.955 -0.2689  0.1602  0.0049
  797MPD2    C111741   0.566   2.351  17.053  0.7691  0.0594 -0.6701
  797MPD2    C211742   0.447   2.420  17.069 -0.4422  0.6861  0.4187
  797MPD2    C311743   0.397   2.518  16.989 -0.3202 -0.6093  0.0751
  797MPD2    C411744   0.477   2.549  16.880 -0.3450  0.0491  0.8398
  797MPD2    C511745   0.601   2.492  16.872  0.0106  0.5487 -0.2660
  797MPD2     H11746   0.387   2.396  17.156  0.4734  0.6867  1.0574
  797MPD2    H111747   0.456   2.621  16.802  0.4351 -1.8336 -1.1098
  797MPD2    H211748   0.746   2.352  16.943  0.8252  2.6903 -0.2777
  797MPD2    H311749   0.667   2.531  16.795 -0.8014  2.2210 -0.1139
  797MPD2     N11750   0.269   2.582  17.008  0.0318  0.1257  0.2966
  797MPD2    H511751   0.243   2.656  16.943  0.6010  0.9887  1.0618
  797MPD2    N111752   0.596   2.258  17.151 -0.0582 -0.1389  0.1629
  797MPD2    H711753   0.526   2.232  17.219  1.6166  0.4087  2.1093
  798MPD2     C11754   0.212   2.563   0.015 -0.0773  0.2312  0.9959
  798MPD2    C111755   0.213   2.533  17.583  0.0345  0.0310 -0.4208
  798MPD2    C211756   0.279   2.418  17.539 -1.2450 -0.7704  0.2005
  798MPD2    C311757   0.359   2.347  17.629  0.0093  1.0041 -0.3720
  798MPD2    C411758   0.351   2.373   0.059  0.2764  0.4839  0.6963
  798MPD2    C511759   0.276   2.477   0.102  1.0170 -0.1096 -0.0606
  798MPD2     H11760   0.276   2.392  17.434 -0.3400 -0.1918  0.0322
  798MPD2    H111761   0.401   2.324   0.142 -0.3831 -2.5087 -0.6915
  798MPD2    H211762   0.136   2.631   0.052 -0.2679 -0.4745  1.9177
  798MPD2    H311763   0.268   2.496   0.209 -2.5964 -2.6201  0.1227
  798MPD2     N11764   0.443   2.254  17.568  0.0667  0.2494  0.1913
  798MPD2    H511765   0.418   2.237  17.471 -0.2572  0.1675  0.2876
  798MPD2    N111766   0.147   2.603  17.478 -0.0064 -0.3161 -0.2996
  798MPD2    H711767   0.150   2.564  17.385 -0.0055 -1.5123  0.2028
  799MPD2     C11768   3.487   4.640  14.340  0.5159  0.5588  0.6337
  799MPD2    C111769   3.475   4.532  14.254 -0.1110  0.4446  0.3597
  799MPD2    C211770   3.424   4.544  14.129 -0.2546 -0.0060  0.8715
  799MPD2    C311771   3.410   4.667  14.072 -0.0108  0.7893  0.1754
  799MPD2    C411772   3.431   0.050  14.149 -0.4138 -0.4750 -0.6858
  799MPD2    C511773   3.471   0.038  14.282 -0.2653 -0.0137 -0.3038
  799MPD2     H11774   3.407   4.456  14.067 -2.7875  0.7528  0.4826
  799MPD2    H111775   3.425   0.148  14.104  1.0657 -1.2272 -2.5012
  799MPD2    H211776   3.521   4.635  14.443  2.4199  0.1564 -0.0093
  799MPD2    H311777   3.490   0.129  14.337  1.6761  1.0003 -2.6279
  799MPD2     N11778   3.385   4.684  13.933 -0.4008  0.1929  0.4564
  799MPD2    H511779   3.354   0.049  13.900 -2.1495 -0.0557  1.4109
  799MPD2    N111780   3.511   4.399  14.296 -0.3029  0.2503  0.1131
  799MPD2    H711781   3.486   4.332  14.224  0.9240  1.1467 -1.1629
  800MPD2     C11782   4.491   0.283  14.478 -0.3956  1.1345 -0.1663
  800MPD2    C111783   4.621   0.271  14.462 -0.4979  0.6193 -0.2097
  800MPD2    C211784   4.673   0.293  14.342  0.0313  0.1402  0.3703
  800MPD2    C311785   4.594   0.325  14.231 -0.4857  1.6164  0.3047
  800MPD2    C411786   4.455   0.324  14.242  0.1839  0.6394 -0.0597
  800MPD2    C511787   4.405   0.311  14.372  0.1549 -0.3870  0.0343
  800MPD2     H11788   0.054   0.313  14.330 -0.1313  0.3744 -0.7352
  800MPD2    H111789   4.385   0.335  14.160  0.0051 -0.8177 -0.1033
  800MPD2    H211790   4.446   0.276  14.576 -1.4494  1.8590 -0.6026
  800MPD2    H311791   4.297   0.306  14.381  0.1673 -0.1329  0.3381
  800MPD2     N11792   4.662   0.343  14.103  0.1771 -0.6389  0.8889
  800MPD2    H511793   0.037   0.334  14.114  0.5009  1.7601 -0.0649
  800MPD2    N111794   4.696   0.279  14.579 -0.2535 -0.6671  0.4106
  800MPD2    H711795   4.643   0.281  14.666 -0.8585  0.6828  0.0043
  801MPD2     C11796   4.565   0.825  15.053 -0.6677 -0.3162 -0.4763
  801MPD2    C111797   4.551   0.767  14.930 -0.0593  0.8037  0.3797
  801MPD2    C211798   4.456   0.816  14.839 -0.0098  0.0897  0.6721
  801MPD2    C311799   4.393   0.930  14.875  0.2402 -0.0155 -0.2756
  801MPD2    C411800   4.418   1.002  14.989 -0.8511  0.1276 -0.5065
  801MPD2    C511801   4.500   0.941  15.084  0.0835  0.2729  0.5094
  801MPD2     H11802   4.433   0.760  14.749 -1.5076  1.4544  0.1984
  801MPD2    H111803   4.382   1.101  15.014 -1.1331  0.0415 -0.5709
  801MPD2    H211804   4.630   0.790  15.133 -0.8916 -0.5814 -0.4139
  801MPD2    H311805   4.513   0.997  15.175 -0.3544  1.4419 -0.1378
  801MPD2     N11806   4.295   0.993  14.799 -0.2339  0.3223  0.2101
  801MPD2    H511807   4.260   1.081  14.837  1.4265 -0.2384  3.0131
  801MPD2    N111808   4.638   0.661  14.888  0.4797  0.4697 -0.6679
  801MPD2    H711809   4.617   0.624  14.796 -0.7151 -0.2898 -0.0948
  802MPD2     C11810   3.651   2.025  17.560 -0.5305  0.5724  0.2384
  802MPD2    C111811   3.670   2.009  17.696  0.3819  0.2080  1.2208
  802MPD2    C211812   3.751   1.902   0.034  0.8666 -0.0189 -0.2015
  802MPD2    C311813   3.775   1.793  17.651 -0.2347 -0.5898  0.4204
  802MPD2    C411814   3.729   1.804  17.520  0.2915  0.2321  0.0138
  802MPD2    C511815   3.672   1.918  17.478 -0.0259 -0.4306 -0.5624
  802MPD2     H11816   3.777   1.909   0.139 -0.9069 -0.6851  0.2861
  802MPD2    H111817   3.752   1.731  17.443  2.4370  1.4995 -0.5390
  802MPD2    H211818   3.590   2.105  17.519 -0.9803  1.7490  3.1953
  802MPD2    H311819   3.640   1.923  17.375 -0.8863  0.9727 -0.2319
  802MPD2     N11820   3.844   1.676  17.686 -0.3539 -0.1395 -0.1618
  802MPD2    H511821   3.888   1.674   0.075 -2.6713 -0.6243  0.9525
  802MPD2    N111822   3.621   2.106   0.089  0.2269 -0.4286 -0.4383
  802MPD2    H711823   3.649   2.101   0.186  1.7466 -1.6522 -0.9452
  803MPD2     C11824   0.513   4.485  11.772  0.4486  0.7939 -0.1559
  803MPD2    C111825   0.631   4.478  11.852  0.1410 -0.4048  0.1304
  803MPD2    C211826   0.622   4.466  11.982 -0.2398  0.0331  0.2643
  803MPD2    C311827   0.496   4.474  12.042  0.6382 -0.5325  0.0636
  803MPD2    C411828   0.387   4.487  11.967 -0.1656 -0.4343 -0.2508
  803MPD2    C511829   0.392   4.483  11.832  0.1705  0.6921  0.0916
  803MPD2     H11830   0.711   4.469  12.043 -0.5183  0.0525  0.6712
  803MPD2    H111831   0.286   4.478  12.004  0.4910  0.7363  1.7902
  803MPD2    H211832   0.525   4.465  11.666  1.7950  0.3103  0.0854
  803MPD2    H311833   0.309   4.487  11.763 -0.1289 -0.1989  0.4076
  803MPD2     N11834   0.480   4.470  12.179 -0.3630  0.4313  0.1169
  803MPD2    H511835   0.384   4.493  12.203 -0.1688 -1.9376  3.1678
  803MPD2    N111836   0.762   4.487  11.802  0.4869  0.3244  0.3362
  803MPD2    H711837   0.841   4.493  11.866 -0.6052 -0.0216  1.7107
  804MPD2     C11838   4.566   1.283  17.389 -0.3244 -0.0565 -0.5624
  804MPD2    C111839   4.570   1.202  17.501  0.5794 -0.3037  0.5597
  804MPD2    C211840   4.664   1.227  17.592 -0.0017  0.8703  0.0732
  804MPD2    C311841   0.025   1.329  17.584 -0.0240  0.3676 -0.0604
  804MPD2    C411842   0.018   1.418  17.476  0.4736 -0.2302  0.6486
  804MPD2    C511843   4.662   1.389  17.371  0.1148 -1.0096 -0.2318
  804MPD2     H11844   4.676   1.169  17.682 -0.2101  0.2077 -0.3300
  804MPD2    H111845   0.078   1.508  17.470  1.1397 -0.4890  3.0965
  804MPD2    H211846   4.492   1.268  17.312  0.8563  0.8802 -1.8735
  804MPD2    H311847   4.677   1.435  17.274 -2.2108 -0.7310 -0.4624
  804MPD2     N11848   0.120   1.333  17.690 -0.0581  0.2732  0.4684
  804MPD2    H511849   0.115   1.261   0.059 -2.0431  0.5028  0.5587
  804MPD2    N111850   4.490   1.090  17.527 -1.5126  0.8605  0.5172
  804MPD2    H711851   4.503   1.051  17.619  0.0404  0.2154  0.0236
  805MPD2     C11852   3.369   4.383  15.491  0.3622  0.1725  0.3946
  805MPD2    C111853   3.451   4.486  15.438  0.1329  0.2106 -0.0089
  805MPD2    C211854   3.543   4.548  15.521  0.3267  0.0896 -0.0509
  805MPD2    C311855   3.547   4.495  15.653  0.3619  0.5173 -0.5453
  805MPD2    C411856   3.474   4.390  15.700 -0.2630  0.3043  0.1651
  805MPD2    C511857   3.380   4.333  15.613 -0.1635  0.2108  0.0216
  805MPD2     H11858   3.613   4.621  15.484  1.1582 -0.4911  0.3753
  805MPD2    H111859   3.492   4.329  15.788 -0.6004 -1.0969 -0.7384
  805MPD2    H211860   3.292   4.338  15.430 -0.5215  1.7092  0.3923
  805MPD2    H311861   3.315   4.255  15.650  0.3690 -0.0518  0.4179
  805MPD2     N11862   3.648   4.549  15.727 -0.3500 -0.0943  0.8574
  805MPD2    H511863   3.699   4.628  15.690 -2.6049  1.6520  1.4646
  805MPD2    N111864   3.449   4.532  15.301  0.1067 -0.3187 -0.2908
  805MPD2    H711865   3.534   4.565  15.257 -0.1138 -0.6882 -0.9883
  806MPD2     C11866   4.236   2.838   0.218  0.1714  0.4258 -1.0158
  806MPD2    C111867   4.146   2.893   0.312  0.3096  0.1971 -0.2478
  806MPD2    C211868   4.102   3.029   0.292  0.1055  0.1476  0.4170
  806MPD2    C311869   4.162   3.113   0.192  0.7760 -0.2046  0.3420
  806MPD2    C411870   4.229   3.047   0.096  0.5084 -0.5343  0.6273
  806MPD2    C511871   4.260   2.909   0.102  0.2053 -0.2281 -0.7350
  806MPD2     H11872   4.031   3.069   0.364 -0.0285 -0.6645  0.7368
  806MPD2    H111873   4.271   3.095   0.008  1.1529  0.6115  1.5619
  806MPD2    H211874   4.284   2.742   0.230 -0.0120  0.8782  3.1362
  806MPD2    H311875   4.321   2.867   0.022 -0.1058 -0.4406 -0.8612
  806MPD2     N11876   4.126   3.248   0.189 -0.3495 -0.1538 -0.8689
  806MPD2    H511877   4.075   3.287   0.267 -1.1421 -1.0326 -0.9488
  806MPD2    N111878   4.111   2.802   0.416  0.4019 -0.2619 -0.1049
  806MPD2    H711879   4.172   2.721   0.415  0.8947  0.1032  0.1257
  807MPD2     C11880   3.635   2.588   1.146 -0.5132  0.3729  0.3723
  807MPD2    C111881   3.734   2.503   1.118  0.1747 -0.4518  0.2743
  807MPD2    C211882   3.756   2.402   1.199 -0.5764  1.1979 -0.2829
  807MPD2    C311883   3.680   2.373   1.313 -0.0324 -0.1246  0.4180
  807MPD2    C411884   3.582   2.467   1.340 -0.4972  0.6526  0.3157
  807MPD2    C511885   3.559   2.571   1.250  0.7126  0.0503  0.3367
  807MPD2     H11886   3.836   2.334   1.174  0.1935  2.0576 -0.2004
  807MPD2    H111887   3.520   2.457   1.428 -1.8049 -0.7179 -0.7735
  807MPD2    H211888   3.624   2.671   1.077 -1.3893  0.8701  1.0996
  807MPD2    H311889   3.476   2.640   1.263  0.1052 -0.5313 -0.4439
  807MPD2     N11890   3.717   2.270   1.405  0.0526 -0.2329  0.9836
  807MPD2    H511891   3.798   2.215   1.378  0.2814  0.6445 -0.1170
  807MPD2    N111892   3.831   2.521   1.012  0.4465 -0.0309 -0.3508
  807MPD2    H711893   3.912   2.462   1.025 -1.6838 -3.2304 -1.4040
  808MPD2     C11894   0.236   0.112  10.434  0.4860 -0.5594  0.5346
  808MPD2    C111895   0.219   0.148  10.299 -0.6518 -0.0987  0.5491
  808MPD2    C211896   0.290   0.252  10.240  0.0403 -0.0275  1.0725
  808MPD2    C311897   0.382   0.317  10.317 -0.4113  0.4371  0.0822
  808MPD2    C411898   0.413   0.262  10.443 -0.0003  0.1942  0.4007
  808MPD2    C511899   0.345   0.160  10.500  0.1658 -0.2472  0.2823
  808MPD2     H11900   0.273   0.280  10.137  1.2035  0.4078  0.9971
  808MPD2    H111901   0.493   0.311  10.498  2.0107 -3.8271  1.0181
  808MPD2    H211902   0.172   0.039  10.482 -1.2166 -0.1847 -1.1352
  808MPD2    H311903   0.359   0.129  10.603 -1.8842  1.1648  0.9959
  808MPD2     N11904   0.449   0.431  10.264 -0.4409 -0.5820  0.0097
  808MPD2    H511905   0.436   0.451  10.165  1.0307  1.2987  0.1878
  808MPD2    N111906   0.124   0.069  10.223  0.1427  0.0185 -0.4812
  808MPD2    H711907   0.113   0.097  10.127 -0.2972 -1.5731 -0.8996
  809MPD2     C11908   0.863   0.774   9.465  0.1987 -0.3494 -0.5645
  809MPD2    C111909   0.916   0.684   9.555 -0.1873 -0.0153 -0.0307
  809MPD2    C211910   0.881   0.689   9.694 -0.3995 -0.5347  0.1334
  809MPD2    C311911   0.799   0.792   9.738  0.3366 -0.0550  0.3213
  809MPD2    C411912   0.760   0.888   9.648 -0.4269  0.3488  0.2306
  809MPD2    C511913   0.789   0.877   9.518  0.8232 -0.1289  0.3464
  809MPD2     H11914   0.907   0.599   9.748  1.6443  0.6069  1.0593
  809MPD2    H111915   0.696   0.970   9.679 -1.3190  0.0995 -0.9317
  809MPD2    H211916   0.876   0.768   9.358  1.1812 -0.4016 -0.4418
  809MPD2    H311917   0.755   0.946   9.442 -0.2103 -0.8578  0.1601
  809MPD2     N11918   0.744   0.798   9.871 -0.4395  0.2457  0.3174
  809MPD2    H511919   0.700   0.887   9.892  1.3627  1.0473  0.7106
  809MPD2    N111920   0.996   0.572   9.505 -0.6309 -0.1335  0.5622
  809MPD2    H711921   1.031   0.510   9.578 -0.8800 -0.0130  0.7867
  810MPD2     C11922   4.720   0.124  10.701 -0.2706 -0.2610 -0.0495
  810MPD2    C111923   4.625   0.144  10.609 -0.1243 -0.1200  0.3076
  810MPD2    C211924   4.619   0.263  10.539 -0.0114  0.3138  0.3700
  810MPD2    C311925   4.720   0.365  10.554 -0.1382  0.5597  0.1607
  810MPD2    C411926   0.100   0.337  10.644 -0.1164  0.1354  1.1694
  810MPD2    C511927   0.095   0.225  10.719  0.1107  0.1128 -0.2821
  810MPD2     H11928   4.537   0.276  10.469  1.1418 -1.1560 -1.2284
  810MPD2    H111929   0.168   0.420  10.654 -2.0968  1.9265 -0.1084
  810MPD2    H211930   4.717   0.046  10.776 -1.5235  0.0517  0.2224
  810MPD2    H311931   0.167   0.216  10.801 -2.0219 -0.7643  1.4929
  810MPD2     N11932   0.012   0.487  10.485  0.7232 -0.3643 -0.0215
  810MPD2    H511933   0.083   0.556  10.506  0.1644  0.0318  0.5759
  810MPD2    N111934   4.530   0.047  10.585  0.2619  0.1522  0.4201
  810MPD2    H711935   4.467   0.079  10.513  2.2146  1.7981 -0.5479
  811MPD2     C11936   4.365   4.470   9.884  0.4837  0.0117  0.1038
  811MPD2    C111937   4.343   4.563   9.982  0.0982  0.3010  0.1080
  811MPD2    C211938   4.340   4.692   9.936  0.4014  0.2112  0.0125
  811MPD2    C311939   4.352   0.011   9.808  0.5501 -0.9336  0.6504
  811MPD2    C411940   4.367   4.638   9.710 -0.3771 -0.4590  0.7683
  811MPD2    C511941   4.374   4.502   9.754  0.9515 -0.2587  0.8021
  811MPD2     H11942   4.342   0.049  10.006 -1.3468 -0.8113  1.2513
  811MPD2    H111943   4.385   4.661   9.606 -4.1384 -0.8303  0.0181
  811MPD2    H211944   4.372   4.363   9.901  0.2484  0.4022  2.5940
  811MPD2    H311945   4.393   4.430   9.675 -0.6203 -0.1572  0.3345
  811MPD2     N11946   4.358   0.149   9.777  0.0642 -0.8855 -0.4941
  811MPD2    H511947   4.367   0.218   9.851 -1.4433 -0.6572 -0.5366
  811MPD2    N111948   4.341   4.531  10.122  0.5830  0.1852 -0.7273
  811MPD2    H711949   4.383   4.444  10.151 -3.4884 -1.8706 -1.1375
  812MPD2     C11950   3.533   4.696  11.807 -0.2935  0.4456 -0.7940
  812MPD2    C111951   3.476   0.014  11.925  0.7692  0.2127  0.8866
  812MPD2    C211952   3.446   4.642  12.022  0.4170  0.0222  0.0689
  812MPD2    C311953   3.488   4.511  12.010 -0.1316 -0.0039  0.2362
  812MPD2    C411954   3.561   4.473  11.897  0.8534  0.6700  0.5450
  812MPD2    C511955   3.582   4.565  11.797  0.0818 -0.1879  0.5146
  812MPD2     H11956   3.398   4.668  12.115 -0.1120  1.3964 -0.5892
  812MPD2    H111957   3.599   4.373  11.886  0.5465  0.3959  1.9773
  812MPD2    H211958   3.559   0.032  11.721 -2.9952 -0.3068 -2.1638
  812MPD2    H311959   3.625   4.540  11.701 -2.4123  0.4459 -0.7621
  812MPD2     N11960   3.457   4.427  12.123 -0.4811  0.4742  0.4021
  812MPD2    H511961   3.403   4.473  12.194 -0.3713  0.1927  0.6680
  812MPD2    N111962   3.445   0.149  11.943 -0.2925 -0.1967  1.0152
  812MPD2    H711963   3.478   0.215  11.874  1.1425  0.3491  2.2349
  813MPD2     C11964   1.877   1.941  12.508 -0.3883 -0.5609 -0.1251
  813MPD2    C111965   1.898   2.077  12.523 -0.3524 -1.0980  0.1603
  813MPD2    C211966   1.815   2.145  12.608  0.6933 -0.7382  0.2405
  813MPD2    C311967   1.720   2.079  12.690 -0.4981 -0.2028  0.2383
  813MPD2    C411968   1.702   1.947  12.675  0.9267  0.1584 -0.1003
  813MPD2    C511969   1.773   1.880  12.574  0.1674 -0.6777 -0.4015
  813MPD2     H11970   1.828   2.251  12.631  1.5186 -0.8266  0.1859
  813MPD2    H111971   1.648   1.885  12.746  0.2344 -2.2449 -2.7690
  813MPD2    H211972   1.936   1.881  12.440  0.1198  1.4545 -1.4843
  813MPD2    H311973   1.745   1.777  12.551 -1.2409 -0.7611  1.6752
  813MPD2     N11974   1.656   2.154  12.789  0.2388  0.1396 -0.3553
  813MPD2    H511975   1.684   2.252  12.793 -0.7349  0.4467 -1.0433
  813MPD2    N111976   2.012   2.127  12.471  0.1615  0.1561  0.4543
  813MPD2    H711977   2.078   2.063  12.427  1.8809  0.3293  2.8276
  814MPD2     C11978   3.143   3.102  11.949  0.2309  0.1886 -0.2730
  814MPD2    C111979   3.111   3.164  11.826 -0.3399  0.6955  0.6131
  814MPD2    C211980   3.160   3.288  11.799  0.4433  0.0347 -0.1878
  814MPD2    C311981   3.248   3.349  11.894 -0.4654  0.2872  0.5171
  814MPD2    C411982   3.287   3.289  12.014 -0.3666  0.5717  0.3362
  814MPD2    C511983   3.235   3.161  12.035 -0.0138  0.5842 -0.0693
  814MPD2     H11984   3.151   3.334  11.702  0.5808  0.5703  0.0546
  814MPD2    H111985   3.362   3.331  12.080  0.5315 -1.5975  0.6868
  814MPD2    H211986   3.111   3.002  11.976  0.1990  0.0412 -0.8371
  814MPD2    H311987   3.257   3.106  12.125  0.4550 -1.7397 -1.6251
  814MPD2     N11988   3.302   3.475  11.863 -0.0270 -0.2888 -0.1401
  814MPD2    H511989   3.383   3.495  11.921 -0.3454 -1.0413  0.5667
  814MPD2    N111990   3.030   3.113  11.725  0.3637  0.0886  0.1298
  814MPD2    H711991   3.004   3.166  11.643 -1.6273 -0.7913  0.1993
  815MPD2     C11992   3.644   1.386  12.180  0.0649 -0.6340 -0.8357
  815MPD2    C111993   3.563   1.386  12.067 -0.4876  0.2042 -0.4589
  815MPD2    C211994   3.429   1.425  12.071 -0.2420  0.2860  0.0041
  815MPD2    C311995   3.381   1.458  12.196 -0.0466 -0.2783 -0.0081
  815MPD2    C411996   3.461   1.463  12.309  0.5544 -0.2586  0.6127
  815MPD2    C511997   3.587   1.419  12.298  0.2506  0.1401 -0.3670
  815MPD2     H11998   3.371   1.441  11.982  0.6697 -0.8698 -0.8036
  815MPD2    H111999   3.422   1.484  12.407  0.8677 -0.9072  0.8722
  815MPD2    H212000   3.748   1.358  12.170  0.9730  2.5014 -0.0780
  815MPD2    H312001   3.647   1.425  12.389 -0.7594  3.0612  0.0856
  815MPD2     N12002   3.241   1.483  12.199 -0.1920 -0.2425  0.3207
  815MPD2    H512003   3.199   1.469  12.108 -0.1656  0.5954  0.1811
  815MPD2    N112004   3.621   1.336  11.951  0.1905  0.2374  0.5232
  815MPD2    H712005   3.717   1.306  11.959  0.2460  0.2689  0.0028
  816MPD2     C12006   2.849   0.634  17.405  0.4113  0.4143  0.1357
  816MPD2    C112007   2.926   0.729  17.468 -0.2039  0.0476  0.4605
  816MPD2    C212008   3.055   0.695  17.517 -0.0957 -0.1902  0.6989
  816MPD2    C312009   3.121   0.572  17.486 -0.0592  0.6666 -0.7413
  816MPD2    C412010   3.036   0.476  17.431 -0.5133 -0.4134  0.4935
  816MPD2    C512011   2.902   0.510  17.395  0.2160 -0.7117 -0.7746
  816MPD2     H12012   3.116   0.768  17.569 -0.4733  0.2378  0.5398
  816MPD2    H112013   3.074   0.377  17.410 -1.2777 -0.2062 -1.7880
  816MPD2    H212014   2.748   0.642  17.368  0.3521 -0.4162  0.1059
  816MPD2    H312015   2.836   0.436  17.352  1.3894 -1.6347 -0.9945
  816MPD2     N12016   3.261   0.559  17.498 -0.5565 -0.3631  0.6494
  816MPD2    H512017   3.308   0.637  17.542 -1.0346  0.2748  0.0469
  816MPD2    N112018   2.876   0.865  17.484 -0.3017  0.0212 -0.3994
  816MPD2    H712019   2.786   0.882  17.440 -0.0551  2.5302  0.0684
  817MPD2     C12020   2.597   2.052   9.938  0.2426 -0.3665 -0.5542
  817MPD2    C112021   2.625   2.035   9.800 -0.2863  1.1410 -0.6007
  817MPD2    C212022   2.553   2.103   9.709  0.4926 -0.1246 -0.1456
  817MPD2    C312023   2.455   2.192   9.750  0.5156  0.1607  0.3071
  817MPD2    C412024   2.448   2.228   9.880  0.4473  0.2391  0.4741
  817MPD2    C512025   2.521   2.161   9.972  0.1906  0.2039 -0.5180
  817MPD2     H12026   2.567   2.075   9.605 -1.1369  0.9585 -0.6595
  817MPD2    H112027   2.377   2.303   9.912  1.6461  1.3352  0.5549
  817MPD2    H212028   2.654   2.001  10.015  0.9603  0.5954 -0.4388
  817MPD2    H312029   2.498   2.181  10.076  1.8055  1.3196 -0.3814
  817MPD2     N12030   2.368   2.251   9.658 -0.0539 -0.6219  0.2721
  817MPD2    H512031   2.369   2.220   9.562  1.9749  2.8341 -0.8147
  817MPD2    N112032   2.720   1.937   9.757  0.7081 -0.6131  0.4225
  817MPD2    H712033   2.736   1.937   9.657  2.6471  1.9206  0.7327
  818MPD2     C12034   2.485   2.166  10.327  0.1392 -0.5798  0.3469
  818MPD2    C112035   2.367   2.113  10.274 -0.5772  0.2002  0.0415
  818MPD2    C212036   2.367   1.984  10.237 -0.2965 -0.4387 -0.0370
  818MPD2    C312037   2.476   1.901  10.246  0.4942  0.2409  0.2048
  818MPD2    C412038   2.595   1.960  10.288  0.3970  0.2001 -0.5234
  818MPD2    C512039   2.594   2.087  10.334 -0.1696  0.0418 -0.5163
  818MPD2     H12040   2.269   1.940  10.218 -0.0219 -0.5613 -1.1816
  818MPD2    H112041   2.691   1.909  10.299  0.7487  1.1812  0.9112
  818MPD2    H212042   2.487   2.271  10.354  1.9975 -0.5559  0.1356
  818MPD2    H312043   2.677   2.126  10.393 -0.0001  1.7184 -1.8625
  818MPD2     N12044   2.462   1.763  10.217  0.1607 -0.3228  0.0043
  818MPD2    H512045   2.537   1.705  10.255 -0.1187 -0.9855 -0.4507
  818MPD2    N112046   2.240   2.177  10.278  0.1993  0.0289  0.1960
  818MPD2    H712047   2.162   2.113  10.267  1.1893 -1.0510 -0.4966
  819MPD2     C12048   0.094   4.643  15.850 -0.2623 -1.1414 -0.0155
  819MPD2    C112049   0.043   4.534  15.776 -0.4736  0.6517  0.3251
  819MPD2    C212050   0.107   4.411  15.776 -0.4000 -0.8171  0.0476
  819MPD2    C312051   0.220   4.394  15.854 -0.5142  0.3405  0.5926
  819MPD2    C412052   0.269   4.502  15.918 -0.0955  0.2896  0.0133
  819MPD2    C512053   0.212   4.620  15.916 -0.3448  0.9123 -0.5544
  819MPD2     H12054   0.067   4.321  15.730  1.1519 -1.7838  0.5767
  819MPD2    H112055   0.355   4.493  15.983  0.3423 -2.1457 -0.8816
  819MPD2    H212056   0.052   0.018  15.852  2.5979  0.0726 -0.3189
  819MPD2    H312057   0.267   4.694  15.973 -0.1036 -1.1494  1.8742
  819MPD2     N12058   0.277   4.266  15.861 -0.4237  0.0539 -0.1356
  819MPD2    H512059   0.247   4.189  15.803 -0.7347 -1.4113  1.9446
  819MPD2    N112060   4.652   4.562  15.701 -0.0195 -0.3587 -0.2790
  819MPD2    H712061   4.616   4.657  15.705 -0.2067 -0.4355 -0.1377
  820MPD2     C12062   4.029   4.572  14.806 -0.7983  0.2575 -1.0266
  820MPD2    C112063   3.958   4.571  14.922  0.6377  0.4960  0.6472
  820MPD2    C212064   4.021   4.577  15.041  0.2200 -0.2552 -0.2689
  820MPD2    C312065   4.158   4.563  15.046 -0.2444  0.4195 -0.4101
  820MPD2    C412066   4.235   4.563  14.927  0.0848 -0.2427 -0.4726
  820MPD2    C512067   4.171   4.570  14.807 -0.0690 -0.7545  0.2598
  820MPD2     H12068   3.965   4.561  15.133 -1.1330 -3.1521 -1.6034
  820MPD2    H112069   4.343   4.554  14.929  0.2053  1.6068  1.4552
  820MPD2    H212070   3.978   4.579  14.711 -0.6413  2.1352 -0.9609
  820MPD2    H312071   4.218   4.570  14.709  0.1515  2.4931  0.3387
  820MPD2     N12072   4.213   4.545  15.169 -0.1070 -0.6854  0.3715
  820MPD2    H512073   4.157   4.544  15.253  0.8875  1.2117  1.0400
  820MPD2    N112074   3.813   4.574  14.915  0.2713 -0.4330 -0.6631
  820MPD2    H712075   3.775   4.574  14.821  2.7486  4.2557 -1.6872
  821MPD2     C12076   4.576   0.492  13.235  0.0839  0.2174  0.2235
  821MPD2    C112077   4.675   0.404  13.273  0.7511  0.6198 -0.3872
  821MPD2    C212078   0.035   0.351  13.177  0.0241  0.1961  0.0491
  821MPD2    C312079   0.031   0.411  13.046 -0.1109 -0.8627  0.3141
  821MPD2    C412080   4.661   0.508  13.018  0.2442  0.4398 -0.0106
  821MPD2    C512081   4.564   0.547  13.107  0.7804  0.4531  0.3348
  821MPD2     H12082   0.113   0.281  13.203  1.4522  1.5796 -0.4690
  821MPD2    H112083   4.659   0.569  12.928  0.1044 -1.7005 -1.4569
  821MPD2    H212084   4.510   0.523  13.315  0.7641  0.5565  0.6547
  821MPD2    H312085   4.496   0.626  13.079 -0.3001 -1.2919 -1.9970
  821MPD2     N12086   0.125   0.391  12.941 -0.0101  0.7425 -0.3697
  821MPD2    H512087   0.127   0.465  12.872 -0.7320 -0.2751 -1.4833
  821MPD2    N112088   4.713   0.368  13.403 -0.0012  0.9276  0.1542
  821MPD2    H712089   0.078   0.329  13.427 -0.9088 -1.6293 -0.5478
  822MPD2     C12090   0.338   0.517  15.990  0.4763 -0.2152  0.2463
  822MPD2    C112091   0.399   0.502  16.114  0.2005  0.1011  0.1963
  822MPD2    C212092   0.410   0.616  16.189 -0.2216 -0.2623 -0.3959
  822MPD2    C312093   0.353   0.736  16.153 -0.1760  0.1433 -0.1897
  822MPD2    C412094   0.289   0.748  16.030  0.3755 -0.1399  0.0547
  822MPD2    C512095   0.292   0.639  15.944 -0.3753  0.1056  0.1432
  822MPD2     H12096   0.465   0.611  16.282  0.1613 -0.5049 -0.6377
  822MPD2    H112097   0.233   0.833  15.993  2.9616  2.4205  2.0302
  822MPD2    H212098   0.307   0.435  15.927 -0.4860 -1.1391  1.9359
  822MPD2    H312099   0.240   0.646  15.849 -0.8758  2.0652  0.5473
  822MPD2     N12100   0.351   0.829  16.254  0.3663 -0.6782  0.2513
  822MPD2    H512101   0.383   0.794  16.344 -0.6993 -2.5011 -0.0817
  822MPD2    N112102   0.450   0.384  16.177 -0.0647  0.4694 -0.3208
  822MPD2    H712103   0.489   0.385  16.271  0.6147 -0.1560 -0.5973
  823MPD2     C12104   0.064   1.058  17.055  0.3526  0.6934 -0.0934
  823MPD2    C112105   0.121   0.970  16.964  0.0713  0.5532  0.1936
  823MPD2    C212106   0.163   0.844  17.004 -0.1670  0.1668 -0.1103
  823MPD2    C312107   0.148   0.810  17.139  0.0744 -0.0647 -0.8605
  823MPD2    C412108   0.095   0.905  17.227 -0.0855 -0.0744 -0.0303
  823MPD2    C512109   0.056   1.031  17.190 -0.0851 -0.6644  0.3766
  823MPD2     H12110   0.197   0.773  16.930 -2.4637  1.0430 -1.9992
  823MPD2    H112111   0.073   0.875  17.329  1.6343  2.5060  1.0732
  823MPD2    H212112   0.040   1.159  17.023 -1.0496  0.4197  0.0788
  823MPD2    H312113   0.025   1.100  17.267  1.2418  0.2281  0.1100
  823MPD2     N12114   0.169   0.683  17.193  0.6422  0.2199  0.0139
  823MPD2    H512115   0.127   0.666  17.284  1.9291 -0.6795  0.4401
  823MPD2    N112116   0.127   1.012  16.825 -0.4122  0.5967  0.3270
  823MPD2    H712117   0.091   1.104  16.803  0.0305  0.4057 -1.2472
  824MPD2     C12118   0.618   4.211  16.323  0.0217  0.3416 -0.1801
  824MPD2    C112119   0.661   4.307  16.232 -0.1902  0.1716 -0.3674
  824MPD2    C212120   0.768   4.280  16.152  0.9479 -0.0304 -0.1098
  824MPD2    C312121   0.815   4.153  16.135  0.2319 -0.1882  0.0604
  824MPD2    C412122   0.746   4.048  16.202  0.3508  0.2951  0.4339
  824MPD2    C512123   0.659   4.083  16.302 -0.0905 -0.0314 -1.3121
  824MPD2     H12124   0.817   4.361  16.099  1.3531  0.0841  0.4432
  824MPD2    H112125   0.771   3.942  16.195  0.2301  0.2304  0.9554
  824MPD2    H212126   0.547   4.230  16.403  0.8530 -0.2474  0.6997
  824MPD2    H312127   0.621   4.003  16.365  3.7160  0.7416  1.9640
  824MPD2     N12128   0.938   4.143  16.063  0.1684  0.4113  0.3015
  824MPD2    H512129   0.968   4.232  16.025 -0.5134  0.6059  0.2086
  824MPD2    N112130   0.614   4.438  16.255 -0.2115 -0.3410 -0.0352
  824MPD2    H712131   0.570   4.464  16.343  2.2155  1.7674  0.5485
  825MPD2     C12132   1.473   4.096  15.438  0.5772 -0.8190  0.2321
  825MPD2    C112133   1.434   4.186  15.540 -1.2200  0.3219  0.0723
  825MPD2    C212134   1.450   4.325  15.514 -0.5015  0.1219 -1.0732
  825MPD2    C312135   1.481   4.359  15.383 -0.0985  0.9060  0.1122
  825MPD2    C412136   1.512   4.268  15.284 -1.1127  0.3655  0.2615
  825MPD2    C512137   1.504   4.139  15.308 -0.3557 -0.3266  0.6717
  825MPD2     H12138   1.418   4.406  15.578  1.7473 -1.1479  1.7018
  825MPD2    H112139   1.537   4.303  15.184  1.8055 -0.1306  0.8124
  825MPD2    H212140   1.475   3.989  15.454  0.7238 -0.8201  0.2111
  825MPD2    H312141   1.543   4.070  15.233  0.4314  3.1484 -2.1463
  825MPD2     N12142   1.484   4.498  15.343  0.2231 -0.1011  0.1277
  825MPD2    H512143   1.490   4.529  15.247 -2.5265 -1.3974 -0.4487
  825MPD2    N112144   1.391   4.134  15.665  0.5506  0.2226 -0.3579
  825MPD2    H712145   1.401   4.034  15.679 -0.8852  0.0303 -0.6844
  826MPD2     C12146   1.397   4.001  13.778 -0.0762  0.3507  0.3865
  826MPD2    C112147   1.427   4.101  13.681 -0.0278 -0.6980  0.4543
  826MPD2    C212148   1.345   4.204  13.652 -0.1934  0.5314  0.0450
  826MPD2    C312149   1.232   4.217  13.731 -0.3555 -0.1782  0.7635
  826MPD2    C412150   1.194   4.128  13.824  0.5920  0.5997  0.1579
  826MPD2    C512151   1.280   4.026  13.843 -0.0198 -0.0206 -0.1248
  826MPD2     H12152   1.366   4.282  13.580  1.6109  2.5578  2.7702
  826MPD2    H112153   1.113   4.144  13.894  0.0589 -1.0318 -0.0971
  826MPD2    H212154   1.460   3.919  13.812  0.3146  0.3291 -0.3751
  826MPD2    H312155   1.244   3.959  13.920 -2.0290  1.1658 -0.0221
  826MPD2     N12156   1.145   4.328  13.719 -0.1247 -0.0855 -0.3486
  826MPD2    H512157   1.059   4.323  13.772  0.4576 -0.4624  0.5680
  826MPD2    N112158   1.544   4.077  13.606  0.2339 -0.5164 -0.3159
  826MPD2    H712159   1.591   3.989  13.621  0.7761 -0.0583  0.7461
  827MPD2     C12160   2.144   0.888   9.985 -0.4883 -0.5681 -1.2738
  827MPD2    C112161   2.185   0.779  10.052  0.0990 -0.0776  0.2340
  827MPD2    C212162   2.131   0.654  10.016  0.6631 -0.1053  0.6654
  827MPD2    C312163   2.041   0.636   9.912 -0.3742 -0.1017 -0.5213
  827MPD2    C412164   2.012   0.751   9.837 -0.5794 -0.2397 -1.1132
  827MPD2    C512165   2.051   0.873   9.881  0.6899 -0.3101  0.5943
  827MPD2     H12166   2.152   0.571  10.083 -0.8861 -0.8048  0.2800
  827MPD2    H112167   1.932   0.740   9.765 -1.5102  0.2834 -0.1636
  827MPD2    H212168   2.177   0.989  10.005  1.9039 -1.5959 -0.0167
  827MPD2    H312169   2.009   0.963   9.838  2.0401  0.3944  0.7482
  827MPD2     N12170   1.985   0.507   9.902  0.6985  0.5826 -0.3663
  827MPD2    H512171   2.038   0.438   9.954  0.2879  1.9400  1.8374
  827MPD2    N112172   2.281   0.802  10.158 -0.3571 -0.0794  0.5920
  827MPD2    H712173   2.319   0.896  10.169  0.4026 -0.3097 -0.1117
  828MPD2     C12174   1.064   0.800  12.225 -1.0952 -0.3228 -0.5388
  828MPD2    C112175   1.001   0.789  12.102  0.1251 -0.2844 -0.2070
  828MPD2    C212176   1.063   0.732  11.991  0.1061 -0.3325 -0.3163
  828MPD2    C312177   1.188   0.680  12.008  0.5801  0.0218 -0.0943
  828MPD2    C412178   1.267   0.709  12.124 -0.1296 -0.6967  0.2197
  828MPD2    C512179   1.199   0.772  12.233 -0.5934  0.9733  0.3438
  828MPD2     H12180   1.018   0.712  11.895 -0.6529  2.2346 -0.4889
  828MPD2    H112181   1.373   0.688  12.122  0.3348  1.4548  1.2954
  828MPD2    H212182   1.017   0.843  12.313 -0.6726  1.7147 -1.3039
  828MPD2    H312183   1.238   0.784  12.334 -1.9392 -3.3348  1.3928
  828MPD2     N12184   1.263   0.608  11.907 -0.2302  0.4260 -0.2744
  828MPD2    H512185   1.351   0.569  11.940  0.1282  0.7506 -0.8477
  828MPD2    N112186   0.874   0.852  12.081 -0.3328 -0.1878  0.6013
  828MPD2    H712187   0.848   0.861  11.983  1.4204 -0.3826  0.1089
  829MPD2     C12188   0.602   1.011  11.310 -0.4774 -1.1519  0.5602
  829MPD2    C112189   0.505   1.082  11.382  1.2038 -0.0919  0.2005
  829MPD2    C212190   0.504   1.077  11.518  0.0834  0.3911  0.1939
  829MPD2    C312191   0.598   1.007  11.587  0.0258  0.6079  1.0717
  829MPD2    C412192   0.690   0.928  11.517 -0.0340  0.2393 -0.5401
  829MPD2    C512193   0.688   0.928  11.381  0.3037  0.2313 -0.6743
  829MPD2     H12194   0.424   1.121  11.576  2.1249  2.8134  1.1610
  829MPD2    H112195   0.765   0.863  11.560  0.7292  1.4763  0.0031
  829MPD2    H212196   0.597   1.009  11.202  0.2679 -1.3088  0.5292
  829MPD2    H312197   0.764   0.869  11.330  0.2796  0.2155 -0.6921
  829MPD2     N12198   0.596   0.986  11.726  0.5307  0.2477  0.8915
  829MPD2    H512199   0.662   0.918  11.762  1.6915  1.2147  0.5830
  829MPD2    N112200   0.420   1.163  11.314  0.0135  0.3735 -0.3988
  829MPD2    H712201   0.443   1.170  11.215 -2.6647 -0.5652 -1.0841
  830MPD2     C12202   0.266   3.898  15.375 -1.0702  0.4508 -0.4202
  830MPD2    C112203   0.397   3.896  15.421  0.0054 -0.1766  0.1527
  830MPD2    C212204   0.503   3.872  15.329  0.5125  0.1926  0.3809
  830MPD2    C312205   0.478   3.867  15.192  0.2179 -0.8787  0.8158
  830MPD2    C412206   0.348   3.873  15.149 -0.2608  0.3978 -0.1353
  830MPD2    C512207   0.248   3.881  15.242 -0.8420 -0.4732  0.8611
  830MPD2     H12208   0.604   3.861  15.365  0.1332 -0.0326  1.3540
  830MPD2    H112209   0.330   3.858  15.043  1.8836 -0.7612 -0.3466
  830MPD2    H212210   0.185   3.897  15.447 -0.4293 -3.3427  0.2348
  830MPD2    H312211   0.151   3.875  15.193 -0.7009  2.5169  0.2110
  830MPD2     N12212   0.581   3.874  15.099 -1.0622 -0.4166 -0.5278
  830MPD2    H512213   0.550   3.882  15.002 -0.9616 -2.9814 -0.7715
  830MPD2    N112214   0.407   3.899  15.562  0.4687  1.0499  0.9608
  830MPD2    H712215   0.325   3.922  15.617 -0.1503  1.8620 -0.3096
  831MPD2     C12216   0.755   0.830  16.424  0.3507  0.1548  0.0294
  831MPD2    C112217   0.735   0.694  16.400  0.4941 -0.3379  0.5053
  831MPD2    C212218   0.627   0.638  16.469  0.1803  0.1704 -0.0986
  831MPD2    C312219   0.532   0.713  16.542  0.0144 -0.1302  0.5155
  831MPD2    C412220   0.570   0.841  16.581 -0.0379  0.0550  0.2463
  831MPD2    C512221   0.678   0.903  16.516 -1.3466 -0.2543  0.6924
  831MPD2     H12222   0.611   0.531  16.466 -0.8692  0.3508 -0.7889
  831MPD2    H112223   0.507   0.899  16.647  0.1780  0.1879  0.3369
  831MPD2    H212224   0.834   0.880  16.368 -1.5292  1.0847 -1.8180
  831MPD2    H312225   0.708   1.006  16.530  2.0864 -0.7788 -2.6880
  831MPD2     N12226   0.407   0.661  16.581 -0.0926 -0.2504 -0.0276
  831MPD2    H512227   0.344   0.721  16.634  0.6814 -0.1907  0.8417
  831MPD2    N112228   0.792   0.628  16.287 -0.3541 -0.2654 -0.2789
  831MPD2    H712229   0.854   0.688  16.235  1.1034  0.0678  1.8393
  832MPD2     C12230   4.052   1.496  17.331  0.5614  0.0524 -0.4433
  832MPD2    C112231   4.011   1.628  17.303  0.0701  0.8067 -0.0341
  832MPD2    C212232   3.912   1.642  17.206  0.1716  0.3018  0.1081
  832MPD2    C312233   3.842   1.527  17.164 -0.2234  0.1896 -0.3630
  832MPD2    C412234   3.877   1.400  17.211  0.0343  0.0978 -0.5476
  832MPD2    C512235   3.990   1.387  17.285  0.0305  0.0844 -0.7950
  832MPD2     H12236   3.862   1.738  17.195  0.2966  0.0491 -2.5836
  832MPD2    H112237   3.822   1.310  17.185  0.5442 -0.3100 -0.2072
  832MPD2    H212238   4.133   1.479  17.401  0.4895  0.4163 -0.2708
  832MPD2    H312239   4.027   1.287  17.305  1.1134  0.4610 -0.8984
  832MPD2     N12240   3.721   1.534  17.097  0.2049  0.0992  0.2630
  832MPD2    H512241   3.666   1.449  17.100  0.2905 -0.0176 -2.0637
  832MPD2    N112242   4.069   1.728  17.384  0.2867 -0.2568  0.0030
  832MPD2    H712243   4.144   1.702  17.447  0.4805 -0.8916 -0.4798
  833MPD2     C12244   1.421   3.278  12.699 -0.1923  0.0565 -0.0978
  833MPD2    C112245   1.509   3.376  12.656 -0.1544  0.1411  0.6203
  833MPD2    C212246   1.612   3.332  12.566  0.3600  0.4417 -0.4098
  833MPD2    C312247   1.624   3.200  12.526 -0.3580 -1.0312  0.6011
  833MPD2    C412248   1.533   3.112  12.573  0.5858 -0.6251  0.3181
  833MPD2    C512249   1.437   3.149  12.664  0.1338  0.0414  0.0353
  833MPD2     H12250   1.689   3.397  12.526 -0.1646  0.1303 -1.9198
  833MPD2    H112251   1.526   3.005  12.554  0.0452 -0.5370  0.0209
  833MPD2    H212252   1.335   3.306  12.758 -0.0957 -0.8917  0.4875
  833MPD2    H312253   1.369   3.076  12.707  1.6445 -0.8914  0.8100
  833MPD2     N12254   1.723   3.146  12.430  0.7284 -0.1247  0.1241
  833MPD2    H512255   1.724   3.048  12.405 -0.3916  0.4141 -1.9658
  833MPD2    N112256   1.485   3.512  12.682  0.0962 -0.4434  0.0583
  833MPD2    H712257   1.411   3.542  12.745  1.3522  1.6492  0.5377
  834MPD2     C12258   1.497   2.759  11.578 -0.0570  0.6481 -0.2089
  834MPD2    C112259   1.576   2.862  11.528  0.5075 -0.8423  0.3017
  834MPD2    C212260   1.640   2.950  11.615  0.7585  0.6784 -0.2741
  834MPD2    C312261   1.624   2.933  11.749 -0.4405  0.7352 -0.2276
  834MPD2    C412262   1.544   2.825  11.799 -0.7649  0.2855  0.3082
  834MPD2    C512263   1.480   2.741  11.716  0.0187 -1.1019  0.2543
  834MPD2     H12264   1.703   3.034  11.587  1.6316  0.1702  0.1593
  834MPD2    H112265   1.540   2.792  11.902 -1.5086  0.8364  0.4606
  834MPD2    H212266   1.457   2.685  11.509  0.8325  2.1224 -2.2643
  834MPD2    H312267   1.416   2.665  11.759 -0.2429 -0.9985  0.0507
  834MPD2     N12268   1.707   3.014  11.835  0.7024  0.4937 -0.3139
  834MPD2    H512269   1.770   3.077  11.787 -1.7846  1.3740 -2.3937
  834MPD2    N112270   1.589   2.871  11.387 -0.3120 -0.3122  0.0377
  834MPD2    H712271   1.529   2.810  11.332 -0.1791 -0.3837 -0.0278
  835MPD2     C12272   1.549   0.502  11.181 -0.6572 -0.3576 -0.4479
  835MPD2    C112273   1.429   0.567  11.194 -0.5911  0.1353  0.3686
  835MPD2    C212274   1.409   0.662  11.294  0.4616  0.3180  0.7935
  835MPD2    C312275   1.520   0.692  11.370  0.3567 -0.2965  0.1945
  835MPD2    C412276   1.645   0.637  11.356 -0.2958  0.2478  0.7435
  835MPD2    C512277   1.655   0.540  11.257  0.4519  1.0634  0.2704
  835MPD2     H12278   1.320   0.723  11.305 -1.2450 -1.9009 -0.7784
  835MPD2    H112279   1.730   0.654  11.421 -0.4145  1.8710  0.4632
  835MPD2    H212280   1.568   0.428  11.104 -1.9444  1.2254 -2.2967
  835MPD2    H312281   1.753   0.493  11.248  0.1019  0.3321  0.3254
  835MPD2     N12282   1.515   0.782  11.480  0.3179 -0.3190  0.9389
  835MPD2    H512283   1.598   0.796  11.536  0.0850 -2.7050  1.8703
  835MPD2    N112284   1.322   0.550  11.107 -0.4117  0.0885  0.7012
  835MPD2    H712285   1.236   0.602  11.123 -0.9837 -1.1111  1.5000
  836MPD2     C12286   0.889   1.185  11.689 -0.2603  0.7113  0.1572
  836MPD2    C112287   0.978   1.173  11.790 -0.0584 -0.2013 -0.0456
  836MPD2    C212288   0.940   1.234  11.907 -0.0748  0.1582 -0.5043
  836MPD2    C312289   0.827   1.304  11.928  0.4993 -0.5802 -0.0501
  836MPD2    C412290   0.749   1.325  11.819  0.0210  0.2150  0.8800
  836MPD2    C512291   0.783   1.263  11.700  0.1387  0.0665 -0.8569
  836MPD2     H12292   1.001   1.216  11.995 -0.1434  2.0313 -0.0607
  836MPD2    H112293   0.659   1.384  11.819 -1.9440 -2.7728  0.4317
  836MPD2    H212294   0.905   1.128  11.598  0.1538  1.5587 -0.3056
  836MPD2    H312295   0.724   1.283  11.611  0.5204  0.1557 -1.0954
  836MPD2     N12296   0.776   1.342  12.053 -0.1558  0.3426 -0.1109
  836MPD2    H512297   0.687   1.391  12.051  0.7835  1.9431 -2.4853
  836MPD2    N112298   1.098   1.101  11.778 -0.7708  0.3053  0.0593
  836MPD2    H712299   1.100   1.052  11.689 -0.2935  0.2979  0.0752
  837MPD2     C12300   0.020   0.857   9.913 -0.1537  0.3021  0.2507
  837MPD2    C112301   4.706   0.835   9.783 -0.3367 -0.4970 -0.4286
  837MPD2    C212302   4.719   0.942   9.696  0.2090  0.8713  0.6921
  837MPD2    C312303   0.028   1.068   9.743  0.2873 -0.0750  0.2044
  837MPD2    C412304   0.055   1.094   9.880  0.2132  0.2773 -0.0667
  837MPD2    C512305   0.052   0.983   9.958 -0.3283  0.9332 -0.2354
  837MPD2     H12306   4.684   0.935   9.593  0.4834  0.5625  0.6171
  837MPD2    H112307   0.058   1.195   9.919 -0.8340  1.2194 -2.4079
  837MPD2    H212308   0.007   0.770   9.977  0.5303 -0.5422 -0.7642
  837MPD2    H312309   0.082   0.998  10.061 -0.1921 -1.3114  0.0536
  837MPD2     N12310   0.025   1.163   9.641 -0.0743 -0.2447 -0.2142
  837MPD2    H512311   0.020   1.130   9.545  1.0347  0.9727 -0.6936
  837MPD2    N112312   4.634   0.725   9.729  0.5293 -0.1893 -0.2336
  837MPD2    H712313   4.612   0.722   9.630  0.0836  1.8031 -0.1884
  838MPD2     C12314   2.946   4.173  11.669  0.1560  0.0389  0.1297
  838MPD2    C112315   2.904   4.053  11.621  0.0702  0.5708 -0.6102
  838MPD2    C212316   2.767   4.022  11.639  0.6718 -0.1273  0.4746
  838MPD2    C312317   2.675   4.106  11.704  0.6245 -0.0737 -0.3996
  838MPD2    C412318   2.717   4.226  11.753  0.2747 -0.3851 -0.5325
  838MPD2    C512319   2.857   4.257  11.735 -0.0439 -0.5134  0.4677
  838MPD2     H12320   2.724   3.931  11.598  0.0497 -1.0244  3.1369
  838MPD2    H112321   2.653   4.304  11.794  0.7454 -0.5599  0.5551
  838MPD2    H212322   3.052   4.196  11.660  0.9759 -3.9695 -0.3834
  838MPD2    H312323   2.891   4.355  11.768  1.9830 -0.7679 -0.8991
  838MPD2     N12324   2.543   4.063  11.724 -0.4898  0.4679  0.5219
  838MPD2    H512325   2.512   3.984  11.668 -0.1570 -0.7886  2.1171
  838MPD2    N112326   2.989   3.960  11.555  0.3728  0.3137  0.2508
  838MPD2    H712327   2.953   3.866  11.545 -1.3865  0.8457  1.6044
  839MPD2     C12328   2.662   3.310  11.590  0.4242 -0.0094 -0.1082
  839MPD2    C112329   2.689   3.312  11.449  0.4929 -0.4001 -0.7363
  839MPD2    C212330   2.809   3.365  11.405  0.0949 -0.0628 -0.4680
  839MPD2    C312331   2.900   3.419  11.500  0.0238 -0.2536  0.1234
  839MPD2    C412332   2.875   3.406  11.636  0.3151  0.3808 -0.4459
  839MPD2    C512333   2.755   3.355  11.676  0.0820 -0.4728 -0.4165
  839MPD2     H12334   2.833   3.377  11.300  4.5790 -0.4854  0.5225
  839MPD2    H112335   2.953   3.437  11.704  0.4681 -1.6677  0.2977
  839MPD2    H212336   2.573   3.263  11.632 -0.8493  2.1294 -0.3878
  839MPD2    H312337   2.734   3.354  11.783  0.4988 -0.8579 -0.3376
  839MPD2     N12338   3.012   3.499  11.469  0.0090  0.1552  0.6361
  839MPD2    H512339   3.064   3.529  11.550  0.3956  0.0163  0.4388
  839MPD2    N112340   2.598   3.271  11.354  0.7294 -0.6030  1.0041
  839MPD2    H712341   2.630   3.253  11.259 -4.1851 -2.0829 -0.3552
  840MPD2     C12342   2.770   1.212  10.155  0.1696  0.1948 -0.9142
  840MPD2    C112343   2.747   1.187  10.287  0.2111 -0.2068  0.3798
  840MPD2    C212344   2.838   1.247  10.373  0.4811  0.1354  0.8106
  840MPD2    C312345   2.943   1.331  10.333  0.2847  0.5265  0.8596
  840MPD2    C412346   2.952   1.365  10.196  0.5942 -0.2018  0.2939
  840MPD2    C512347   2.864   1.299  10.105 -0.3129 -0.1217  0.6260
  840MPD2     H12348   2.812   1.240  10.478 -2.3065 -0.1275  0.1000
  840MPD2    H112349   3.034   1.423  10.156 -2.6675  1.2142 -4.2478
  840MPD2    H212350   2.708   1.164  10.080  0.9076 -0.4143 -1.1292
  840MPD2    H312351   2.877   1.295   9.998 -0.3170 -0.9675  0.6542
  840MPD2     N12352   3.039   1.390  10.418 -0.6330  0.6857 -0.9630
  840MPD2    H512353   3.129   1.420  10.380  1.1703 -2.0842  1.1485
  840MPD2    N112354   2.642   1.095  10.325 -0.2130 -0.6524  0.0953
  840MPD2    H712355   2.576   1.064  10.254 -1.8358  0.7195  0.9901
  841MPD2     C12356   1.975   0.963  14.535  0.9613 -0.0530 -0.2155
  841MPD2    C112357   2.039   0.903  14.442  0.8086 -0.0914 -0.4657
  841MPD2    C212358   2.123   0.978  14.357 -0.0337  0.2823  0.3409
  841MPD2    C312359   2.140   1.110  14.371 -0.5893 -0.4372  0.0873
  841MPD2    C412360   2.069   1.176  14.472  0.0311 -0.3044 -0.7894
  841MPD2    C512361   2.002   1.094  14.557 -0.0711  0.3825  0.6597
  841MPD2     H12362   2.181   0.920  14.286  0.8235 -0.2454  1.4691
  841MPD2    H112363   2.090   1.282  14.483 -1.3045  0.0263 -1.5508
  841MPD2    H212364   1.902   0.906  14.591  2.0717 -1.0822  0.1958
  841MPD2    H312365   1.965   1.150  14.642  0.4073 -0.7202  1.5903
  841MPD2     N12366   2.229   1.173  14.285  0.3157 -0.5743  0.5508
  841MPD2    H512367   2.279   1.111  14.221  0.8619  0.1753  0.2577
  841MPD2    N112368   2.019   0.770  14.411  0.4237  0.2740  0.1048
  841MPD2    H712369   2.062   0.729  14.328  0.2601 -0.0937  0.2031
  842MPD2     C12370   3.258   1.906  16.894  0.4012 -0.1255 -0.1744
  842MPD2    C112371   3.127   1.885  16.934  0.2889 -0.5859 -0.0292
  842MPD2    C212372   3.097   1.881  17.072  0.0141 -0.0303 -0.0846
  842MPD2    C312373   3.197   1.884  17.172 -0.3782  0.2258 -0.4181
  842MPD2    C412374   3.321   1.909  17.127  0.1262 -0.5446 -0.3179
  842MPD2    C512375   3.352   1.914  16.991  0.9823  0.0416 -0.5242
  842MPD2     H12376   2.995   1.849  17.089 -0.7268  1.9911 -0.6158
  842MPD2    H112377   3.400   1.923  17.201  0.4650 -0.8803 -0.6163
  842MPD2    H212378   3.282   1.894  16.789 -2.8838  1.8659 -1.1791
  842MPD2    H312379   3.457   1.914  16.962  1.4483 -1.0705  1.1891
  842MPD2     N12380   3.175   1.866  17.312  0.0271  0.1224 -0.0971
  842MPD2    H512381   3.261   1.846  17.363 -0.3440 -0.9633  0.0928
  842MPD2    N112382   3.028   1.880  16.834 -0.1283  0.1489 -0.4505
  842MPD2    H712383   3.045   1.905  16.737  1.7577  1.2566  0.1799
  843MPD2     C12384   0.541   1.651   0.737 -0.0366  0.2674  0.3082
  843MPD2    C112385   0.474   1.725   0.637 -0.5484  0.4633  0.2591
  843MPD2    C212386   0.541   1.747   0.518 -0.3249 -0.9113 -0.6153
  843MPD2    C312387   0.676   1.713   0.503  0.4463  0.5145  0.5538
  843MPD2    C412388   0.738   1.649   0.607  0.5000  0.1546 -0.9386
  843MPD2    C512389   0.669   1.619   0.721 -0.2395 -0.3983  0.2303
  843MPD2     H12390   0.482   1.785   0.436  1.1441  2.7516  0.0222
  843MPD2    H112391   0.846   1.638   0.603  0.5917  1.4224 -1.8911
  843MPD2    H212392   0.493   1.608   0.824  1.5494 -2.7236 -0.2902
  843MPD2    H312393   0.711   1.551   0.795  1.0569  0.8175  0.6135
  843MPD2     N12394   0.757   1.749   0.392  0.4417 -0.1791 -0.0301
  843MPD2    H512395   0.857   1.743   0.407  0.2406  0.8136  1.7040
  843MPD2    N112396   0.338   1.760   0.657 -0.2431 -0.2439  0.4037
  843MPD2    H712397   0.305   1.733   0.749  0.4098  0.4994  0.8589
  844MPD2     C12398   3.885   1.835  16.609 -0.1430  0.3094 -0.2736
  844MPD2    C112399   3.938   1.741  16.695  0.3046 -0.4680 -0.6644
  844MPD2    C212400   4.031   1.775  16.793  0.1211  0.1923 -0.2367
  844MPD2    C312401   4.063   1.908  16.805 -0.2782  0.2827  0.1480
  844MPD2    C412402   4.005   2.005  16.721 -0.2145  0.0504  0.7238
  844MPD2    C512403   3.912   1.965  16.622 -0.1940  0.2203  0.8730
  844MPD2     H12404   4.065   1.703  16.866 -2.5288  0.4728  1.2841
  844MPD2    H112405   4.014   2.113  16.728  0.7391  0.0167 -0.0282
  844MPD2    H212406   3.805   1.801  16.543 -0.4015  1.3005 -0.4636
  844MPD2    H312407   3.852   2.039  16.571  1.6920  0.6460 -0.7128
  844MPD2     N12408   4.153   1.938  16.913  0.2952 -0.1525  0.4112
  844MPD2    H512409   4.193   1.856  16.957 -0.4323 -1.1190 -0.7379
  844MPD2    N112410   3.893   1.608  16.694  0.2976 -0.7774  0.5531
  844MPD2    H712411   3.915   1.547  16.772 -1.0412 -2.4988 -0.4112
  845MPD2     C12412   4.354   2.808  17.126 -0.5462 -0.1143 -0.0482
  845MPD2    C112413   4.253   2.729  17.171 -0.4434 -0.2167  0.5714
  845MPD2    C212414   4.275   2.604  17.216 -0.5791 -0.0533  0.1221
  845MPD2    C312415   4.399   2.549  17.198 -0.3985  0.0406  0.2681
  845MPD2    C412416   4.500   2.620  17.139 -0.0195 -0.0625 -0.1369
  845MPD2    C512417   4.473   2.753  17.108 -0.0637 -0.0754  0.0989
  845MPD2     H12418   4.194   2.544  17.255 -0.2929 -0.4188  0.1597
  845MPD2    H112419   4.596   2.575  17.114  0.4608  0.9054 -0.0569
  845MPD2    H212420   4.343   2.914  17.104  1.4729 -0.2414 -1.6307
  845MPD2    H312421   4.560   2.813  17.086 -1.9320  1.9133 -1.8187
  845MPD2     N12422   4.409   2.409  17.219 -0.2221  0.3406  0.3827
  845MPD2    H512423   4.327   2.359  17.252 -0.4623 -0.3067 -1.1971
  845MPD2    N112424   4.126   2.787  17.196  0.3493 -0.8899  0.2477
  845MPD2    H712425   4.093   2.862  17.135  2.1062 -0.7077 -0.4822
  846MPD2     C12426   0.516   2.762  13.652  0.1487 -0.2469 -0.2746
  846MPD2    C112427   0.492   2.879  13.717 -0.1412  0.2876  0.3968
  846MPD2    C212428   0.441   2.879  13.845 -0.0604  0.6231 -0.0785
  846MPD2    C312429   0.419   2.763  13.918 -0.5707  0.2058 -0.6887
  846MPD2    C412430   0.434   2.644  13.852  0.4166 -0.2852 -0.4150
  846MPD2    C512431   0.485   2.643  13.724 -0.2740 -1.0488 -0.3990
  846MPD2     H12432   0.439   2.967  13.908 -0.6033 -0.5275  1.5010
  846MPD2    H112433   0.395   2.551  13.891 -0.4885 -0.2564 -1.2411
  846MPD2    H212434   0.562   2.763  13.554 -0.5612  2.1705 -0.5919
  846MPD2    H312435   0.498   2.557  13.659 -0.2250 -2.7917  1.9312
  846MPD2     N12436   0.377   2.784  14.048 -0.0503  0.0145 -0.2283
  846MPD2    H512437   0.342   2.875  14.077  0.2215  0.4187 -1.1730
  846MPD2    N112438   0.545   2.999  13.665  0.1944  0.1213  0.7261
  846MPD2    H712439   0.556   3.069  13.737 -0.4332  0.3833  0.5666
  847MPD2     C12440   0.817   3.827  14.420  0.3982 -0.3809  0.0260
  847MPD2    C112441   0.919   3.825  14.519 -0.4575 -0.6338  1.0128
  847MPD2    C212442   0.923   3.721  14.606 -0.0046  0.2630 -0.0004
  847MPD2    C312443   0.825   3.625  14.608  0.5602 -1.1546  0.1833
  847MPD2    C412444   0.729   3.629  14.511 -0.4567  0.1984 -0.1572
  847MPD2    C512445   0.722   3.723  14.418  0.5598  0.6151  0.7232
  847MPD2     H12446   1.005   3.733  14.675 -1.2681 -0.1758  1.5885
  847MPD2    H112447   0.648   3.557  14.508  0.0600 -0.4345  1.1476
  847MPD2    H212448   0.800   3.910  14.353  0.4030  0.3417  0.9238
  847MPD2    H312449   0.640   3.722  14.348  2.2473  0.7628 -1.2342
  847MPD2     N12450   0.829   3.522  14.710  0.8104 -0.0413 -0.0601
  847MPD2    H512451   0.903   3.532  14.779  1.0874 -0.5970 -0.2791
  847MPD2    N112452   1.015   3.929  14.528  0.0812  0.0788  0.7917
  847MPD2    H712453   1.107   3.898  14.556  1.2254  0.5331 -2.5063
  848MPD2     C12454   3.489   1.709  16.339 -0.0818 -0.7178 -0.3078
  848MPD2    C112455   3.523   1.800  16.436 -0.2589  0.3381 -0.4398
  848MPD2    C212456   3.578   1.920  16.406  0.2230 -0.7446 -0.2460
  848MPD2    C312457   3.589   1.958  16.270 -0.6172  1.5739  0.6926
  848MPD2    C412458   3.567   1.860  16.173 -0.2494 -0.6059 -0.6183
  848MPD2    C512459   3.519   1.740  16.206 -0.8536 -0.5738 -0.1605
  848MPD2     H12460   3.599   1.992  16.484 -1.4286 -1.7108  1.0794
  848MPD2    H112461   3.571   1.886  16.068  1.4150  3.0432  0.3451
  848MPD2    H212462   3.441   1.614  16.359 -0.2057 -0.4356  0.7224
  848MPD2    H312463   3.500   1.668  16.128  3.0199  0.2582 -1.8568
  848MPD2     N12464   3.632   2.087  16.230 -0.1550  0.7364  0.3777
  848MPD2    H512465   3.629   2.099  16.129  1.2664 -1.3179  0.1033
  848MPD2    N112466   3.511   1.769  16.573  0.4103 -0.1396  0.1935
  848MPD2    H712467   3.570   1.823  16.636  0.5188  0.8785 -0.7782
  849MPD2     C12468   2.503   1.438  13.675  0.1033 -0.1950 -0.1682
  849MPD2    C112469   2.503   1.558  13.739  0.2596 -0.4891 -0.1654
  849MPD2    C212470   2.606   1.595  13.821 -0.0750  0.4460 -0.2190
  849MPD2    C312471   2.719   1.516  13.838 -0.2549  0.1727  0.4341
  849MPD2    C412472   2.718   1.395  13.769  0.1027 -0.2223 -0.3941
  849MPD2    C512473   2.611   1.361  13.690 -0.1598  0.0068  0.6082
  849MPD2     H12474   2.610   1.693  13.867  1.1205  0.6082 -0.6782
  849MPD2    H112475   2.808   1.335  13.774  0.9905  1.1115 -0.4097
  849MPD2    H212476   2.432   1.418  13.595 -0.2821 -1.1572  0.4122
  849MPD2    H312477   2.621   1.266  13.639 -0.2116  0.7300 -0.7535
  849MPD2     N12478   2.844   1.552  13.899  0.6410  0.5623 -0.3748
  849MPD2    H512479   2.924   1.496  13.872  0.6893  1.6686 -2.5055
  849MPD2    N112480   2.404   1.656  13.700 -0.2684 -0.8556  0.0276
  849MPD2    H712481   2.347   1.644  13.617 -0.8690  0.9015  0.1750
  850MPD2     C12482   0.380   4.528  14.626  0.0016  0.4207 -0.0731
  850MPD2    C112483   0.361   4.636  14.711 -0.7698 -0.2795 -0.5965
  850MPD2    C212484   0.475   4.707  14.756 -0.1086  0.5426 -0.1509
  850MPD2    C312485   0.599   4.642  14.749 -0.1677 -0.1655  0.9003
  850MPD2    C412486   0.610   4.528  14.672 -0.6743 -0.6843 -0.5921
  850MPD2    C512487   0.499   4.461  14.621 -0.6243 -0.1145 -0.4064
  850MPD2     H12488   0.469   0.079  14.804 -0.6937 -0.4897  1.8710
  850MPD2    H112489   0.708   4.488  14.651 -0.2152  0.5851 -0.8517
  850MPD2    H212490   0.290   4.480  14.589  0.4655 -0.4389 -0.0933
  850MPD2    H312491   0.504   4.364  14.574  0.5833 -0.2227 -0.0539
  850MPD2     N12492   0.718   4.704  14.803 -0.2553 -0.0284  0.2817
  850MPD2    H512493   0.800   4.649  14.778  0.6702  0.2423  2.7371
  850MPD2    N112494   0.224   4.678  14.719  0.1834  0.7684  0.4798
  850MPD2    H712495   0.169   4.634  14.647  0.5125  0.5867  0.3373
  851MPD2     C12496   0.763   4.581  15.345 -0.3025  0.0405  0.1669
  851MPD2    C112497   0.685   4.557  15.235 -0.1741  0.3414  0.0959
  851MPD2    C212498   0.728   4.465  15.143 -0.6101 -0.0360 -0.3302
  851MPD2    C312499   0.846   4.400  15.165  0.5980  0.3994  0.5309
  851MPD2    C412500   0.920   4.419  15.275  0.0568  0.3410 -0.7759
  851MPD2    C512501   0.882   4.515  15.365  0.3522  0.2858 -0.5262
  851MPD2     H12502   0.662   4.452  15.058  0.0486 -1.0268 -0.6795
  851MPD2    H112503   1.012   4.366  15.297  0.0475  0.0985 -1.3097
  851MPD2    H212504   0.729   4.651  15.420  1.7742  0.1667  0.9891
  851MPD2    H312505   0.941   4.535  15.453 -1.1292  2.8207 -0.1270
  851MPD2     N12506   0.896   4.302  15.081  0.8151 -0.2689  1.0023
  851MPD2    H512507   0.981   4.256  15.112  0.9766 -2.3660 -2.6072
  851MPD2    N112508   0.561   4.628  15.233 -0.4127 -0.7647 -0.1963
  851MPD2    H712509   0.540   4.712  15.286  0.4145  0.9162 -2.5279
  852MPD2     C12510   0.473   2.366   9.859 -0.1649 -0.2401 -0.3186
  852MPD2    C112511   0.503   2.432   9.976  0.3838 -0.0836 -0.1015
  852MPD2    C212512   0.423   2.530  10.028  0.0796 -0.3500 -0.4556
  852MPD2    C312513   0.326   2.578   9.951 -0.2628  0.3286  0.2340
  852MPD2    C412514   0.297   2.518   9.832  0.3202  1.4318 -0.9099
  852MPD2    C512515   0.368   2.410   9.793  0.2921  0.1613 -0.7659
  852MPD2     H12516   0.449   2.573  10.124  0.1353 -2.1489  0.3403
  852MPD2    H112517   0.211   2.547   9.772  0.0716 -0.3569 -1.4374
  852MPD2    H212518   0.518   2.271   9.830 -0.7892 -0.2008 -1.4203
  852MPD2    H312519   0.343   2.354   9.704  1.4696 -0.2393 -0.8454
  852MPD2     N12520   0.278   2.704   9.985 -0.2386 -0.5042  0.2433
  852MPD2    H512521   0.328   2.743  10.065 -1.3402 -0.7065  1.0380
  852MPD2    N112522   0.600   2.375  10.066 -0.1431  1.0365 -0.6296
  852MPD2    H712523   0.612   2.399  10.164  0.4417  0.3203 -0.5211
  853MPD2     C12524   1.831   2.680  12.107  0.4355 -0.2982 -0.0088
  853MPD2    C112525   1.967   2.712  12.109 -0.0184 -0.0629  0.2067
  853MPD2    C212526   2.036   2.689  11.992 -0.7447 -0.1398  0.5373
  853MPD2    C312527   1.980   2.630  11.883 -0.6073 -0.1898 -0.1444
  853MPD2    C412528   1.845   2.599  11.882  0.4508  1.2795  0.0317
  853MPD2    C512529   1.771   2.626  11.995 -0.5241  0.4185  0.1151
  853MPD2     H12530   2.142   2.708  11.996 -0.8022  0.3854 -0.5658
  853MPD2    H112531   1.789   2.571  11.793  0.3487 -0.8517  0.7637
  853MPD2    H212532   1.766   2.705  12.190  1.2051  2.0149 -0.0900
  853MPD2    H312533   1.664   2.613  11.987 -0.4537 -0.5134  0.6905
  853MPD2     N12534   2.061   2.617  11.770 -0.4878 -0.1402  0.4693
  853MPD2    H512535   2.014   2.619  11.679  0.1769 -3.2507  0.0433
  853MPD2    N112536   2.016   2.782  12.217  0.3016  0.2269 -0.3336
  853MPD2    H712537   1.955   2.783  12.297 -2.1537 -1.1308 -2.1876
  854MPD2     C12538   3.997   2.158  12.984 -0.7289  0.0641 -0.2341
  854MPD2    C112539   4.109   2.237  12.986 -0.9861  0.3887  0.3572
  854MPD2    C212540   4.219   2.181  13.043  0.3579 -0.1555  0.4460
  854MPD2    C312541   4.226   2.052  13.102 -0.5399 -0.2237  0.3131
  854MPD2    C412542   4.113   1.978  13.093  0.0841 -0.3221  0.6790
  854MPD2    C512543   4.002   2.030  13.028 -0.1715 -0.9930 -0.0869
  854MPD2     H12544   4.313   2.235  13.048 -0.8992  2.2791 -2.5868
  854MPD2    H112545   4.103   1.877  13.131  1.0419 -0.9599 -0.7494
  854MPD2    H212546   3.899   2.190  12.950 -1.7183 -1.6248  1.0415
  854MPD2    H312547   3.916   1.964  13.023 -0.1081 -0.9965 -1.1244
  854MPD2     N12548   4.343   1.996  13.165 -0.3248 -0.2632 -0.6563
  854MPD2    H512549   4.335   1.905  13.210 -0.9117  0.2590  0.3016
  854MPD2    N112550   4.098   2.363  12.932  0.1403  0.0008  0.0634
  854MPD2    H712551   4.003   2.393  12.914  0.3666  1.7915  1.8705
  855MPD2     C12552   4.345   1.852  13.995  0.1723 -0.0032  0.1903
  855MPD2    C112553   4.475   1.802  13.976  0.4672  0.4330 -0.0444
  855MPD2    C212554   4.525   1.808  13.848  0.6308  0.2882  0.2277
  855MPD2    C312555   4.459   1.867  13.741 -0.1577 -0.0294  0.7314
  855MPD2    C412556   4.338   1.921  13.769  0.4111 -0.3621  0.3051
  855MPD2    C512557   4.279   1.910  13.891  0.4290 -0.1196  0.8080
  855MPD2     H12558   4.624   1.768  13.828 -0.3239 -2.7239  1.5373
  855MPD2    H112559   4.287   1.960  13.682  1.1427  0.3947  0.2180
  855MPD2    H212560   4.287   1.847  14.086  1.1313  0.0834  0.8049
  855MPD2    H312561   4.183   1.957  13.909  1.5008  1.2020  3.0400
  855MPD2     N12562   4.507   1.884  13.611 -0.0393 -0.2621 -0.1652
  855MPD2    H512563   4.443   1.916  13.538 -0.0916 -0.4788 -0.2149
  855MPD2    N112564   4.554   1.744  14.081 -0.0160 -0.0217 -0.3879
  855MPD2    H712565   4.638   1.693  14.056 -0.3602 -1.3427  1.1317
  856MPD2     C12566   1.571   3.052  13.928  0.2277  0.4595 -0.6064
  856MPD2    C112567   1.654   3.151  13.973 -0.4868  0.5794 -0.5139
  856MPD2    C212568   1.598   3.248  14.060 -0.1905  0.1509  0.4606
  856MPD2    C312569   1.468   3.243  14.103 -0.7110 -0.6940  0.3673
  856MPD2    C412570   1.382   3.151  14.044 -0.5036  0.6326  0.4515
  856MPD2    C512571   1.433   3.059  13.955 -0.3002  0.1157 -0.4264
  856MPD2     H12572   1.669   3.321  14.097 -0.5443 -0.2374  1.9067
  856MPD2    H112573   1.274   3.154  14.052 -0.4250  1.5644  1.0586
  856MPD2    H212574   1.603   2.977  13.857 -0.2677 -0.5895  0.2923
  856MPD2    H312575   1.366   2.982  13.918 -1.2805  0.4969  0.5363
  856MPD2     N12576   1.421   3.341  14.191  0.1773  0.3794  0.0492
  856MPD2    H512577   1.321   3.349  14.206  0.2736 -0.8743  1.2899
  856MPD2    N112578   1.779   3.171  13.921  0.8078  0.1263  0.8132
  856MPD2    H712579   1.838   3.251  13.943  2.6223 -0.8718 -0.4083
  857MPD2     C12580   3.583   0.733  12.683 -0.1366 -0.3784 -0.7362
  857MPD2    C112581   3.559   0.611  12.742 -0.1297 -0.5839  0.3141
  857MPD2    C212582   3.548   0.604  12.887  1.2099  0.2086  0.3225
  857MPD2    C312583   3.551   0.721  12.959  0.3439  0.0078  0.2132
  857MPD2    C412584   3.585   0.842  12.896  0.2948 -0.1874  0.6600
  857MPD2    C512585   3.600   0.844  12.762 -0.7397  0.2977  1.1491
  857MPD2     H12586   3.540   0.505  12.931 -3.5568 -0.3786 -1.8890
  857MPD2    H112587   3.615   0.926  12.957 -0.3749  0.3516  0.2399
  857MPD2    H212588   3.603   0.736  12.576 -2.0107  0.1967 -1.0663
  857MPD2    H312589   3.641   0.936  12.721  0.2324 -1.5555 -2.0077
  857MPD2     N12590   3.546   0.712  13.102 -0.1123  0.4631 -0.0822
  857MPD2    H512591   3.542   0.616  13.134 -2.0428 -0.3439 -2.7307
  857MPD2    N112592   3.546   0.497  12.654  0.2454 -0.0289 -0.1175
  857MPD2    H712593   3.554   0.512  12.554  2.3574  0.3181  0.0884
  858MPD2     C12594   3.304   4.362  16.920  0.1398 -0.2619 -0.6567
  858MPD2    C112595   3.440   4.344  16.909 -0.3020  0.6449 -0.7272
  858MPD2    C212596   3.527   4.423  16.985  0.2964 -0.2342 -0.0847
  858MPD2    C312597   3.475   4.512  17.080  0.4308  0.3126  0.7613
  858MPD2    C412598   3.336   4.531  17.088  0.5964 -0.3409  0.9527
  858MPD2    C512599   3.253   4.452  17.011 -0.0291 -0.3182 -0.0006
  858MPD2     H12600   3.632   4.395  16.989  1.3190  3.7420  0.8578
  858MPD2    H112601   3.288   4.608  17.147 -2.6119 -0.9205 -0.8829
  858MPD2    H212602   3.234   4.302  16.863 -0.8013 -1.1062  1.3624
  858MPD2    H312603   3.148   4.477  17.003  0.3476  0.7623 -1.5251
  858MPD2     N12604   3.555   4.595  17.163  0.0332  0.3217  0.6061
  858MPD2    H512605   3.511   4.656  17.231 -0.5846  0.3294  0.1959
  858MPD2    N112606   3.498   4.249  16.822  0.4275  0.1153  0.3882
  858MPD2    H712607   3.424   4.201  16.771  1.5194  0.0787 -1.1717
  859MPD2     C12608   2.005   1.293  14.918  0.6705 -0.0544 -0.3759
  859MPD2    C112609   2.130   1.273  14.863 -0.4858 -0.0462 -0.5258
  859MPD2    C212610   2.192   1.147  14.867  0.0791  0.4441  0.2909
  859MPD2    C312611   2.115   1.040  14.914  0.0027 -0.1793 -0.2933
  859MPD2    C412612   1.992   1.063  14.966 -0.3050  0.7036 -0.6795
  859MPD2    C512613   1.943   1.186  14.974  0.1889 -0.9738 -0.3503
  859MPD2     H12614   2.293   1.124  14.834 -1.4036 -1.4681 -2.9096
  859MPD2    H112615   1.931   0.984  15.008  0.1912  1.3810  1.2862
  859MPD2    H212616   1.951   1.387  14.925 -0.2046 -0.5796 -0.1856
  859MPD2    H312617   1.851   1.194  15.031  1.2079 -0.6154  1.2534
  859MPD2     N12618   2.162   0.904  14.905  0.5747 -0.3852 -0.6712
  859MPD2    H512619   2.088   0.839  14.929 -1.4401  1.8458 -0.9043
  859MPD2    N112620   2.179   1.390  14.805  0.3531 -0.1702  0.1002
  859MPD2    H712621   2.128   1.477  14.816 -0.5437 -0.9139  1.7955
  860MPD2     C12622   0.624   2.032  11.573  0.1132 -0.1269  1.0477
  860MPD2    C112623   0.613   2.152  11.653 -0.0370  0.3991  0.5492
  860MPD2    C212624   0.550   2.152  11.776 -0.1609  0.2009 -0.4436
  860MPD2    C312625   0.495   2.034  11.818 -0.5362  0.3827  0.6462
  860MPD2    C412626   0.507   1.920  11.743  0.1112 -0.3202 -0.3028
  860MPD2    C512627   0.569   1.917  11.618 -0.6320  0.0036 -0.5883
  860MPD2     H12628   0.522   2.241  11.831 -0.2351  1.1394 -1.9950
  860MPD2    H112629   0.453   1.830  11.770  0.5461  0.3075  2.6533
  860MPD2    H212630   0.673   2.044  11.477 -2.8906 -2.0540 -0.7041
  860MPD2    H312631   0.557   1.835  11.549 -0.0729  1.3901 -2.3399
  860MPD2     N12632   0.426   2.031  11.943 -0.1457  0.2034 -0.1570
  860MPD2    H512633   0.422   2.118  11.995 -1.2836  1.0896 -1.7430
  860MPD2    N112634   0.677   2.275  11.620  0.0724  0.5923  0.7993
  860MPD2    H712635   0.658   2.349  11.686 -1.0140  1.3446 -0.3729
  861MPD2     C12636   3.481   0.200  10.913 -0.5816  0.6215  0.8291
  861MPD2    C112637   3.525   0.305  10.981  0.5816  0.2134  0.1146
  861MPD2    C212638   3.479   0.433  10.956  0.1134  0.8561 -0.1056
  861MPD2    C312639   3.394   0.454  10.849 -0.8128 -0.1736  0.3460
  861MPD2    C412640   3.331   0.342  10.790  0.9578  0.6570 -0.0202
  861MPD2    C512641   3.383   0.216  10.819 -0.0654  0.7430  0.3081
  861MPD2     H12642   3.515   0.513  11.021  1.0039 -1.2417  1.9851
  861MPD2    H112643   3.242   0.353  10.730  1.7970  1.3192 -1.1303
  861MPD2    H212644   3.534   0.106  10.922 -1.8956 -0.3561 -1.7360
  861MPD2    H312645   3.358   0.134  10.751  1.1200 -0.9249  1.8854
  861MPD2     N12646   3.338   0.586  10.823  0.1252  0.2341 -0.0796
  861MPD2    H512647   3.268   0.596  10.750  0.5959 -0.5141 -0.6321
  861MPD2    N112648   3.617   0.282  11.095 -0.1358 -0.1591 -0.1348
  861MPD2    H712649   3.674   0.363  11.119  1.4812 -1.3346 -0.0561
  862MPD2     C12650   3.221   0.982  10.251  0.3112  0.0535  0.1693
  862MPD2    C112651   3.299   0.888  10.314  0.4032  0.0828  0.8126
  862MPD2    C212652   3.341   0.773  10.257  0.7020 -0.5281  0.1728
  862MPD2    C312653   3.313   0.753  10.120 -0.5106 -0.2072  0.3373
  862MPD2    C412654   3.237   0.849  10.057 -0.3106  0.1833 -0.1615
  862MPD2    C512655   3.196   0.960  10.122  0.4482  0.3068  0.7043
  862MPD2     H12656   3.407   0.707  10.312 -1.5852 -1.4320  1.8612
  862MPD2    H112657   3.201   0.827   9.958  2.0532 -1.3362 -0.6688
  862MPD2    H212658   3.178   1.071  10.295 -0.2929 -0.6206  0.9370
  862MPD2    H312659   3.135   1.025  10.061 -0.6726  2.4959  4.1703
  862MPD2     N12660   3.371   0.647  10.043  0.3120  0.7125  0.2224
  862MPD2    H512661   3.383   0.658   9.943 -0.5281  1.2665  0.1861
  862MPD2    N112662   3.306   0.901  10.457 -0.3626  0.2828  0.1890
  862MPD2    H712663   3.332   0.820  10.512 -0.5108 -0.8269 -1.4142
  863MPD2     C12664   2.655   3.096  16.533 -0.0348 -1.0216 -0.4714
  863MPD2    C112665   2.537   3.113  16.603 -0.1663 -0.1576  0.1797
  863MPD2    C212666   2.540   3.120  16.741  0.1279 -1.2016 -0.0288
  863MPD2    C312667   2.661   3.123  16.809  0.4150  0.6811  0.3446
  863MPD2    C412668   2.779   3.107  16.736  0.3064 -0.7066  0.1031
  863MPD2    C512669   2.777   3.091  16.600  0.5489  0.0011  0.0103
  863MPD2     H12670   2.444   3.117  16.793  0.5619 -1.0631  0.7822
  863MPD2    H112671   2.876   3.114  16.784 -0.9940 -0.5481  2.7112
  863MPD2    H212672   2.661   3.069  16.428 -3.0302 -0.4671 -0.7901
  863MPD2    H312673   2.870   3.085  16.544 -0.8454  0.7915 -2.3794
  863MPD2     N12674   2.674   3.140  16.948  0.0159 -0.1040 -0.4010
  863MPD2    H512675   2.771   3.135  16.979 -0.5326 -0.8176  1.1978
  863MPD2    N112676   2.423   3.114  16.523 -0.0484  0.0426  0.3638
  863MPD2    H712677   2.433   3.074  16.430  1.7501 -1.1648  1.0774
  864MPD2     C12678   2.392   4.430  17.416 -0.1128 -0.1712 -0.3208
  864MPD2    C112679   2.497   4.397  17.331 -0.0215  0.1205  0.0392
  864MPD2    C212680   2.600   4.487  17.311 -0.7680  0.1413  0.0963
  864MPD2    C312681   2.589   4.614  17.361 -0.6986  0.2107 -0.2734
  864MPD2    C412682   2.483   4.656  17.434  0.3025 -0.7160  0.6232
  864MPD2    C512683   2.383   4.565  17.466 -0.0226  0.6011  0.3216
  864MPD2     H12684   2.688   4.460  17.255 -0.8168 -0.7253  0.4470
  864MPD2    H112685   2.466   0.037  17.448 -1.8960 -0.8758 -0.8942
  864MPD2    H212686   2.328   4.349  17.448  1.6738 -1.1105  0.8954
  864MPD2    H312687   2.290   4.602  17.508 -1.1904 -0.6276 -1.1721
  864MPD2     N12688   2.683   4.710  17.330 -0.1166  0.3526 -0.5217
  864MPD2    H512689   2.670   0.083  17.355 -1.6420 -0.5939  2.3492
  864MPD2    N112690   2.510   4.269  17.278 -0.9263 -0.7314  0.1984
  864MPD2    H712691   2.446   4.201  17.317 -0.3103 -1.1703  0.4433
  865MPD2     C12692   2.874   0.408  16.485 -0.1419  0.0346 -0.2328
  865MPD2    C112693   2.885   0.290  16.553 -0.0154  0.6954 -0.0211
  865MPD2    C212694   2.855   0.287  16.693 -0.6631 -0.1251  0.1474
  865MPD2    C312695   2.808   0.403  16.754  0.3297  0.2770  0.2508
  865MPD2    C412696   2.793   0.517  16.679  0.2817  0.6932  0.1797
  865MPD2    C512697   2.828   0.519  16.546 -0.4420  0.8305  0.3769
  865MPD2     H12698   2.885   0.200  16.749  1.4531 -0.0609 -0.8763
  865MPD2    H112699   2.755   0.606  16.727 -2.1513 -0.3765  0.2237
  865MPD2    H212700   2.912   0.417  16.384 -3.2049 -0.8141 -1.4535
  865MPD2    H312701   2.828   0.608  16.484  2.5993  1.6051  1.5283
  865MPD2     N12702   2.781   0.411  16.892  0.0709  0.3753  0.6835
  865MPD2    H512703   2.776   0.501  16.938 -0.9255  0.9421 -0.5417
  865MPD2    N112704   2.941   0.184  16.477 -0.4125  0.2545  0.1771
  865MPD2    H712705   2.961   0.200  16.378 -0.0927 -3.5759 -0.3692
  866MPD2     C12706   4.438   1.088  11.532 -0.0491  0.5934  0.4231
  866MPD2    C112707   4.417   0.995  11.430  0.3805 -0.1216 -0.0663
  866MPD2    C212708   4.325   1.018  11.330  0.0443 -0.5781 -0.1567
  866MPD2    C312709   4.233   1.125  11.348 -0.3951 -0.3352 -0.1713
  866MPD2    C412710   4.247   1.212  11.458  0.5289 -0.5805 -0.0498
  866MPD2    C512711   4.359   1.200  11.539 -1.0379  0.6821 -0.3035
  866MPD2     H12712   4.327   0.955  11.242  1.1802 -0.3043 -0.3199
  866MPD2    H112713   4.180   1.296  11.472  0.1866 -0.5465 -1.8762
  866MPD2    H212714   4.517   1.081  11.606  0.5747  2.8204 -0.0529
  866MPD2    H312715   4.384   1.279  11.609  0.2140 -1.5186  1.7458
  866MPD2     N12716   4.117   1.144  11.275  0.2974  1.0386  0.0595
  866MPD2    H512717   4.041   1.192  11.321  0.6643  0.9750  0.7234
  866MPD2    N112718   4.516   0.888  11.429 -0.1322 -0.3072  0.6873
  866MPD2    H712719   4.580   0.883  11.507 -1.2186 -0.7177  1.5557
  867MPD2     C12720   1.574   4.189  16.134 -0.1017  0.6565  0.3542
  867MPD2    C112721   1.585   4.145  16.261  0.2504  0.4259 -0.0972
  867MPD2    C212722   1.531   4.219  16.362  0.0993 -0.3183 -0.2557
  867MPD2    C312723   1.475   4.342  16.337  0.6904 -0.0454 -0.0765
  867MPD2    C412724   1.475   4.389  16.208  0.3063  0.1014  0.6316
  867MPD2    C512725   1.509   4.301  16.107 -0.4412  0.8081  0.1889
  867MPD2     H12726   1.535   4.185  16.465  1.9957 -0.4522 -0.3904
  867MPD2    H112727   1.434   4.483  16.174 -1.2472 -0.1140  1.9203
  867MPD2    H212728   1.611   4.128  16.053  2.3465  2.3839  0.1718
  867MPD2    H312729   1.484   4.326  16.004 -2.3311  0.8018  0.6346
  867MPD2     N12730   1.424   4.430  16.438  0.2700 -0.3447 -0.1739
  867MPD2    H512731   1.406   4.525  16.407  0.6327 -0.4030 -0.5610
  867MPD2    N112732   1.633   4.013  16.268  0.0319 -0.2933  0.0795
  867MPD2    H712733   1.665   3.967  16.183  1.1604  2.1383 -0.8125
  868MPD2     C12734   3.271   3.824  12.741 -0.0972 -0.1997  0.3402
  868MPD2    C112735   3.301   3.756  12.850  0.0042 -0.4026  0.5591
  868MPD2    C212736   3.261   3.798  12.978  0.3990 -0.0977  0.0912
  868MPD2    C312737   3.195   3.912  12.996  0.4109 -0.2298  0.4062
  868MPD2    C412738   3.165   3.986  12.881 -0.1290 -0.2719  0.0674
  868MPD2    C512739   3.210   3.940  12.766 -0.0664 -0.1888 -0.3365
  868MPD2     H12740   3.273   3.755  13.077  0.5613  1.1614  0.6160
  868MPD2    H112741   3.111   4.080  12.883  1.9148  0.8796  2.2362
  868MPD2    H212742   3.301   3.805  12.639 -1.1783 -1.5241  0.2645
  868MPD2    H312743   3.202   4.007  12.682 -0.2041  0.1309 -0.0695
  868MPD2     N12744   3.151   3.952  13.126 -0.5451  0.1393  0.3398
  868MPD2    H512745   3.193   3.907  13.207 -0.8542 -0.2973  0.2589
  868MPD2    N112746   3.379   3.637  12.821 -0.4819  0.7055 -0.3147
  868MPD2    H712747   3.418   3.631  12.727 -1.2967  0.5498 -0.6400
  869MPD2     C12748   3.952   0.902   1.938  0.1377  0.1920 -0.7076
  869MPD2    C112749   4.080   0.937   1.901  0.8303  0.6152 -0.0999
  869MPD2    C212750   4.098   0.973   1.767  0.3399 -0.6333 -0.6638
  869MPD2    C312751   3.987   1.000   1.686  0.5535  0.4671  0.5642
  869MPD2    C412752   3.857   0.985   1.739  0.2927  0.5365  0.1030
  869MPD2    C512753   3.844   0.927   1.860 -0.4183  0.4199 -0.2454
  869MPD2     H12754   4.191   1.024   1.744  1.5871 -1.2589  2.9253
  869MPD2    H112755   3.765   0.997   1.683 -0.3641 -0.8110  0.8804
  869MPD2    H212756   3.937   0.869   2.040  1.0165 -0.9199 -0.9320
  869MPD2    H312757   3.747   0.895   1.896  0.4862 -1.9263  0.1001
  869MPD2     N12758   3.999   1.058   1.560 -0.2204 -0.8109 -0.1988
  869MPD2    H512759   3.916   1.095   1.515  0.2983 -1.0854 -1.3898
  869MPD2    N112760   4.184   0.923   1.995  0.1474  0.9188 -0.0253
  869MPD2    H712761   4.151   0.916   2.091  0.6156 -0.1868  0.0494
  870MPD2     C12762   3.113   0.195   2.056  1.1991 -0.5328 -0.4408
  870MPD2    C112763   3.249   0.174   2.039 -0.2090  0.7014  0.1670
  870MPD2    C212764   3.316   0.246   1.939  0.0701 -0.1485 -0.7643
  870MPD2    C312765   3.247   0.320   1.842  0.5636 -0.7561  0.1953
  870MPD2    C412766   3.117   0.343   1.863  0.1333  0.2269 -0.2015
  870MPD2    C512767   3.049   0.277   1.970  0.4868 -0.0965  0.4265
  870MPD2     H12768   3.418   0.217   1.919 -0.2887  0.0332 -2.8840
  870MPD2    H112769   3.052   0.395   1.794  0.1422  0.8179  0.2333
  870MPD2    H212770   3.055   0.139   2.129  2.7445  2.7758  3.3476
  870MPD2    H312771   2.944   0.304   1.973  0.2598 -1.2118  2.3886
  870MPD2     N12772   3.320   0.378   1.728  0.2475 -0.2605  0.1082
  870MPD2    H512773   3.415   0.350   1.703  0.2533 -0.6991  0.6266
  870MPD2    N112774   3.307   0.073   2.119  0.4140 -0.6808 -0.2213
  870MPD2    H712775   3.243   0.015   2.173 -3.8650  3.7877 -0.4364
  871MPD2     C12776   0.238   0.082  16.694 -0.2568  0.7662  0.3282
  871MPD2    C112777   0.222   0.036  16.825  0.7495  0.1705 -0.5781
  871MPD2    C212778   0.217   4.623  16.850 -0.7477  0.1986  0.5850
  871MPD2    C312779   0.225   4.529  16.749 -0.5583 -0.1082  0.5626
  871MPD2    C412780   0.239   4.578  16.621 -0.1033  0.1894  0.2954
  871MPD2    C512781   0.240   4.712  16.590 -0.0548  0.0847  0.3570
  871MPD2     H12782   0.199   4.583  16.950  1.3548 -0.8824  0.5368
  871MPD2    H112783   0.224   4.511  16.537  2.4412 -2.4787  2.0042
  871MPD2    H212784   0.249   0.187  16.668  0.4910  1.0167  1.6018
  871MPD2    H312785   0.250   0.010  16.485 -1.3626 -0.9320  0.0190
  871MPD2     N12786   0.211   4.395  16.780 -0.3717 -0.2746 -0.5419
  871MPD2    H512787   0.189   4.365  16.874  0.4065 -0.2350 -0.3479
  871MPD2    N112788   0.244   0.130  16.927  0.0319  0.0134 -0.2713
  871MPD2    H712789   0.266   0.226  16.901  0.4309 -0.0677 -0.2356
  872MPD2     C12790   0.970   2.689  13.956  0.3795 -0.2460 -0.7450
  872MPD2    C112791   0.976   2.554  13.917  0.2529 -0.2236 -0.6548
  872MPD2    C212792   0.868   2.462  13.944 -0.2410 -0.2157 -0.3114
  872MPD2    C312793   0.758   2.500  14.010 -0.4940  0.1914 -0.2305
  872MPD2    C412794   0.757   2.633  14.056  0.7003 -0.3180 -0.0728
  872MPD2    C512795   0.858   2.722  14.030  0.6979 -0.5244 -0.5087
  872MPD2     H12796   0.874   2.360  13.908  1.6838 -0.7337  1.4980
  872MPD2    H112797   0.673   2.671  14.113  1.0196  0.5009 -0.1494
  872MPD2    H212798   1.050   2.758  13.933 -1.4458  2.5317  1.2024
  872MPD2    H312799   0.868   2.828  14.050  0.8504 -0.6160 -0.1048
  872MPD2     N12800   0.649   2.423  14.047  0.7372 -0.8892 -0.2842
  872MPD2    H512801   0.570   2.472  14.088  1.9614 -0.1271  1.1953
  872MPD2    N112802   1.099   2.507  13.865 -0.0796  0.1523 -0.0362
  872MPD2    H712803   1.088   2.421  13.812  1.3322 -0.8818  1.3660
  873MPD2     C12804   2.816   2.644   0.707  0.5417 -0.1751 -0.2607
  873MPD2    C112805   2.758   2.573   0.812 -0.3101 -0.2288  0.7120
  873MPD2    C212806   2.806   2.452   0.851 -0.7714  0.3365  0.6550
  873MPD2    C312807   2.912   2.396   0.772 -0.1654 -0.4461 -0.2034
  873MPD2    C412808   2.947   2.449   0.651  0.1934 -0.4407  0.1405
  873MPD2    C512809   2.898   2.571   0.625  0.1068 -1.0069  0.3112
  873MPD2     H12810   2.774   2.400   0.940  2.4926 -1.2306  0.9330
  873MPD2    H112811   3.027   2.401   0.596 -1.0157  0.0004 -2.0145
  873MPD2    H212812   2.787   2.744   0.676  2.1126 -0.8817 -4.0264
  873MPD2    H312813   2.933   2.617   0.533 -1.9637 -0.1726 -0.0532
  873MPD2     N12814   2.963   2.265   0.803 -0.1546 -0.3320 -0.1642
  873MPD2    H512815   3.049   2.233   0.759  0.3276 -0.8783  1.1585
  873MPD2    N112816   2.657   2.635   0.885 -0.3604 -0.6374  0.0069
  873MPD2    H712817   2.635   2.734   0.876  0.3641 -0.4382  0.3784
  874MPD2     C12818   2.857   2.310  16.148  0.1143  0.0668 -0.2984
  874MPD2    C112819   2.929   2.256  16.251  0.0740 -0.6802  0.4609
  874MPD2    C212820   3.062   2.289  16.257 -0.0478 -0.3161 -0.0278
  874MPD2    C312821   3.125   2.375  16.165 -0.1618 -0.6340 -0.2992
  874MPD2    C412822   3.039   2.432  16.074 -0.1008  0.5261 -0.0549
  874MPD2    C512823   2.911   2.394  16.065  0.0562 -0.0260  1.2264
  874MPD2     H12824   3.121   2.241  16.335 -1.2276 -1.6868  0.0263
  874MPD2    H112825   3.074   2.503  16.001  0.4309  0.2446 -0.0730
  874MPD2    H212826   2.754   2.277  16.137  0.0895 -0.5839  2.0673
  874MPD2    H312827   2.852   2.422  15.979  0.3871  0.7571  1.2534
  874MPD2     N12828   3.262   2.394  16.167  0.1240  0.3108  0.0198
  874MPD2    H512829   3.311   2.358  16.248  0.3078  2.4350  0.8687
  874MPD2    N112830   2.866   2.175  16.344 -0.3706  0.3367 -1.1369
  874MPD2    H712831   2.764   2.177  16.345 -0.3493 -0.5313  1.2326
  875MPD2     C12832   3.771   0.790  14.489 -0.4138 -0.0833 -0.3595
  875MPD2    C112833   3.665   0.879  14.505 -0.1618  0.4696  0.0761
  875MPD2    C212834   3.667   0.963  14.618 -0.2301  0.5325 -0.3386
  875MPD2    C312835   3.753   0.941  14.726  0.3410 -0.2494  0.6476
  875MPD2    C412836   3.846   0.839  14.713  0.6162  0.4424 -0.4992
  875MPD2    C512837   3.859   0.775  14.591 -0.1929 -0.4726  0.3785
  875MPD2     H12838   3.583   1.031  14.624  0.7453  1.6203  0.9666
  875MPD2    H112839   3.926   0.822  14.785 -1.8702 -2.2226  1.6495
  875MPD2    H212840   3.786   0.725  14.403  0.2997 -4.4532  3.1163
  875MPD2    H312841   3.926   0.690  14.582 -1.6222 -1.4445 -1.2548
  875MPD2     N12842   3.746   1.026  14.844  0.3356 -0.1892  0.0179
  875MPD2    H512843   3.807   1.000  14.921  0.6694 -1.7906 -0.7917
  875MPD2    N112844   3.573   0.888  14.403 -1.0831  0.6154  0.0419
  875MPD2    H712845   3.575   0.820  14.328 -1.0931 -0.4722  1.0405
  876MPD2     C12846   2.482   2.226  15.686 -0.0645  1.0048  0.4194
  876MPD2    C112847   2.618   2.210  15.644 -0.4110 -0.8912 -0.3980
  876MPD2    C212848   2.719   2.157  15.726 -0.0481 -0.7171  0.1003
  876MPD2    C312849   2.683   2.126  15.857 -0.0007 -0.5496  0.0066
  876MPD2    C412850   2.555   2.142  15.900  0.5609 -0.2231  0.0401
  876MPD2    C512851   2.452   2.191  15.816 -0.5749  0.2603 -0.5731
  876MPD2     H12852   2.816   2.140  15.681 -0.6960 -0.2053 -1.4946
  876MPD2    H112853   2.518   2.112  15.998 -0.3125  2.1835  0.4279
  876MPD2    H212854   2.402   2.256  15.619  0.5202  1.4297 -0.0797
  876MPD2    H312855   2.356   2.205  15.863 -0.7549  0.2398 -0.9351
  876MPD2     N12856   2.787   2.062  15.931 -0.2794  0.0644  0.4949
  876MPD2    H512857   2.879   2.056  15.888 -1.1537 -1.1589 -1.1842
  876MPD2    N112858   2.631   2.243  15.505  0.5880  0.5930 -0.5222
  876MPD2    H712859   2.550   2.286  15.461  0.4632  1.9309  1.0212
  877MPD2     C12860   2.419   2.745  14.959 -0.1613  0.1533 -0.4351
  877MPD2    C112861   2.524   2.672  14.915 -0.0639 -0.1616  0.0679
  877MPD2    C212862   2.575   2.710  14.792 -0.3293 -0.4543  0.0777
  877MPD2    C312863   2.537   2.818  14.717 -0.2187 -0.3953 -0.0384
  877MPD2    C412864   2.423   2.879  14.753  0.4097 -0.1452 -0.1691
  877MPD2    C512865   2.367   2.848  14.879  0.2727  0.4749  0.5658
  877MPD2     H12866   2.655   2.645  14.756 -0.6191 -1.0856  0.5774
  877MPD2    H112867   2.378   2.954  14.689 -0.7231 -1.5716 -1.0259
  877MPD2    H212868   2.368   2.720  15.052  1.7061  0.4618  0.6696
  877MPD2    H312869   2.273   2.893  14.909 -0.0805  1.9856 -2.8075
  877MPD2     N12870   2.604   2.854  14.597  1.1662 -0.1688 -0.2529
  877MPD2    H512871   2.566   2.923  14.534  0.9761  0.7408  0.8654
  877MPD2    N112872   2.572   2.556  14.977  0.4383  0.7431 -0.1504
  877MPD2    H712873   2.655   2.520  14.932  1.9995  2.7123  1.1437
  878MPD2     C12874   1.988   2.104  12.950  0.1250 -0.4402 -0.0830
  878MPD2    C112875   2.122   2.123  12.944 -0.0285  0.5922 -0.4954
  878MPD2    C212876   2.196   2.102  13.066 -0.3611 -0.1942 -0.3280
  878MPD2    C312877   2.130   2.069  13.180 -0.2687  0.1323 -0.6392
  878MPD2    C412878   1.994   2.051  13.176 -0.1286 -0.0204 -0.4108
  878MPD2    C512879   1.924   2.068  13.061 -0.4310 -0.1196 -0.2687
  878MPD2     H12880   2.303   2.120  13.068 -0.4504  0.1898  1.4005
  878MPD2    H112881   1.936   2.029  13.265 -0.9781 -0.9264 -1.1909
  878MPD2    H212882   1.933   2.137  12.863  0.1703 -3.2014 -1.1561
  878MPD2    H312883   1.815   2.067  13.056 -0.4978  1.0223  0.9601
  878MPD2     N12884   2.205   2.036  13.292  1.5151  0.1141  0.1661
  878MPD2    H512885   2.296   2.081  13.292  1.2746  0.5998 -1.4256
  878MPD2    N112886   2.171   2.165  12.821  0.1302 -0.3064  0.2516
  878MPD2    H712887   2.102   2.178  12.747 -2.2440 -0.5544  2.4390
  879MPD2     C12888   3.250   3.298  16.832  0.1775  0.9667 -0.5591
  879MPD2    C112889   3.176   3.214  16.901 -0.5785  0.4742  0.4950
  879MPD2    C212890   3.126   3.099  16.837 -0.5041  0.6224  0.2809
  879MPD2    C312891   3.158   3.073  16.706 -0.1158  0.0502  0.7216
  879MPD2    C412892   3.240   3.156  16.642  0.3552  0.0260  0.2934
  879MPD2    C512893   3.281   3.271  16.705 -0.0037  1.0032  0.2342
  879MPD2     H12894   3.058   3.031  16.886 -0.7851  0.7006 -0.0023
  879MPD2    H112895   3.280   3.136  16.544  2.3147 -2.7556  1.6585
  879MPD2    H212896   3.291   3.388  16.877  3.2234 -0.3266 -0.7397
  879MPD2    H312897   3.354   3.331  16.650  1.7138 -2.8705 -1.6847
  879MPD2     N12898   3.115   2.956  16.638  0.2952 -0.7071 -0.0800
  879MPD2    H512899   3.156   2.950  16.545 -1.9253 -2.4904 -0.9451
  879MPD2    N112900   3.141   3.261  17.028  0.3437 -0.4302  0.3203
  879MPD2    H712901   3.196   3.340  17.060  3.5002 -2.2091 -0.7166
  880MPD2     C12902   4.277   4.513   0.941 -0.0618  0.1263 -0.2864
  880MPD2    C112903   4.291   4.582   0.823  1.5133 -0.6469 -0.8812
  880MPD2    C212904   4.318   4.518   0.708  0.3421 -0.3732 -0.4720
  880MPD2    C312905   4.367   4.390   0.704 -0.3262 -0.4053 -0.7059
  880MPD2    C412906   4.367   4.323   0.826 -0.8219 -0.7119 -0.0584
  880MPD2    C512907   4.313   4.380   0.939  0.3723  0.4323  0.3930
  880MPD2     H12908   4.311   4.572   0.614 -0.3417 -1.5827 -1.1047
  880MPD2    H112909   4.408   4.223   0.837 -1.1451 -0.6545  1.5372
  880MPD2    H212910   4.254   4.556   1.038 -0.2921 -0.6835  0.0148
  880MPD2    H312911   4.336   4.325   1.029  0.0745 -1.9593 -0.9955
  880MPD2     N12912   4.426   4.340   0.586  0.1907  0.1774 -0.7814
  880MPD2    H512913   4.422   4.399   0.503  2.0960 -0.3011 -1.2263
  880MPD2    N112914   4.274   4.721   0.828  0.0161 -0.2766 -0.6488
  880MPD2    H712915   4.277   0.045   0.916  1.7411 -1.4200 -0.0816
  881MPD2     C12916   4.153   0.983   0.350  0.8611  0.2201  0.6815
  881MPD2    C112917   4.226   0.872   0.311  0.1555  0.0836 -0.2958
  881MPD2    C212918   4.227   0.763   0.396  0.4084  0.1722  1.0336
  881MPD2    C312919   4.165   0.760   0.524 -0.4631  0.5174 -0.1896
  881MPD2    C412920   4.092   0.871   0.561  0.1942 -0.5863  0.0670
  881MPD2    C512921   4.090   0.981   0.474 -0.3680 -0.7584  0.1065
  881MPD2     H12922   4.265   0.670   0.356  1.6714  1.8001 -1.5209
  881MPD2    H112923   4.037   0.881   0.654  1.8966  3.3805  0.6308
  881MPD2    H212924   4.142   1.067   0.282  0.0940  0.7262  1.4276
  881MPD2    H312925   4.033   1.070   0.496  3.1653  1.5859 -0.2365
  881MPD2     N12926   4.173   0.647   0.610  0.0557 -0.6651  0.2511
  881MPD2    H512927   4.128   0.647   0.701  0.5322 -1.4295  0.4917
  881MPD2    N112928   4.268   0.851   0.177  0.2597  0.7364 -0.7576
  881MPD2    H712929   4.237   0.917   0.106  0.9626  0.5773 -1.2127
  882MPD2     C12930   2.402   2.549  13.825  0.5736 -0.3447 -0.5129
  882MPD2    C112931   2.379   2.582  13.960  0.2452  0.1543  0.0186
  882MPD2    C212932   2.262   2.544  14.024  0.1677 -0.0867  0.4788
  882MPD2    C312933   2.169   2.462  13.965  0.0622 -0.2524  0.0293
  882MPD2    C412934   2.198   2.416  13.841  0.5008 -0.5722 -0.1750
  882MPD2    C512935   2.308   2.465  13.771  0.0517  0.1305 -0.0017
  882MPD2     H12936   2.265   2.556  14.132 -2.9087 -2.3456  0.8202
  882MPD2    H112937   2.127   2.360  13.781  0.0024  0.1395 -0.2452
  882MPD2    H212938   2.488   2.572  13.764 -0.1297  0.1663 -1.3168
  882MPD2    H312939   2.317   2.435  13.667 -1.4468 -1.6674  0.3723
  882MPD2     N12940   2.057   2.408  14.032  0.7172  0.0335 -0.0329
  882MPD2    H512941   2.003   2.341  13.979  2.4236  0.0211 -1.7516
  882MPD2    N112942   2.481   2.660  14.023 -0.2445 -0.3817 -0.0547
  882MPD2    H712943   2.566   2.682  13.972  2.0032 -0.4631  3.6024
  883MPD2     C12944   4.428   2.438  16.371  0.7633 -0.3470  0.3145
  883MPD2    C112945   4.511   2.434  16.259 -0.1992 -0.2541  0.0332
  883MPD2    C212946   4.648   2.454  16.276  0.4491  0.2116 -0.1880
  883MPD2    C312947   4.697   2.494  16.403 -0.3010  0.2910 -0.4257
  883MPD2    C412948   4.608   2.514  16.502  0.3557  0.3400  0.3009
  883MPD2    C512949   4.474   2.482  16.488 -0.3885  0.1059 -0.6212
  883MPD2     H12950   4.723   2.438  16.199 -0.1990  1.2134 -1.0203
  883MPD2    H112951   4.636   2.542  16.603  0.8187 -0.4287  0.3861
  883MPD2    H212952   4.325   2.404  16.368  0.2082  1.5837 -2.1274
  883MPD2    H312953   4.406   2.484  16.572 -0.2205 -1.5689 -0.4485
  883MPD2     N12954   0.112   2.523  16.416  0.1754  0.6003  0.0332
  883MPD2    H512955   0.165   2.535  16.330  0.9938  0.2953  0.4912
  883MPD2    N112956   4.458   2.395  16.137  0.2942 -0.5301  0.2800
  883MPD2    H712957   4.504   2.422  16.050  1.3157 -1.2450  0.6056
  884MPD2     C12958   1.653   3.180  15.734  0.0084  0.8006 -0.5688
  884MPD2    C112959   1.598   3.308  15.708  0.6297  0.0960 -0.1451
  884MPD2    C212960   1.461   3.311  15.664 -0.1399  0.4312 -0.0845
  884MPD2    C312961   1.385   3.194  15.650 -0.5808  0.1486 -0.5693
  884MPD2    C412962   1.447   3.075  15.672 -0.2416 -0.4477 -0.0982
  884MPD2    C512963   1.578   3.066  15.714 -0.4304  0.4179  0.6200
  884MPD2     H12964   1.414   3.408  15.649  0.1926  0.6151  0.0759
  884MPD2    H112965   1.400   2.978  15.661 -2.3606  0.4726  0.8046
  884MPD2    H212966   1.751   3.170  15.781  0.4746 -1.5026 -2.0260
  884MPD2    H312967   1.627   2.970  15.726  0.0478  0.4277 -1.1918
  884MPD2     N12968   1.245   3.202  15.631  0.1558 -0.7042 -0.2592
  884MPD2    H512969   1.216   3.298  15.618  0.6263 -0.6254 -0.7235
  884MPD2    N112970   1.668   3.431  15.715  0.4646  0.1058 -0.0464
  884MPD2    H712971   1.619   3.517  15.692 -1.9382 -1.7393 -1.8159
  885MPD2     C12972   0.095   3.181   0.380 -0.0127  0.2939 -0.7878
  885MPD2    C112973   0.189   3.119   0.301  0.9855  0.4701 -0.1656
  885MPD2    C212974   0.231   3.166   0.175 -0.9423 -0.2531 -0.3661
  885MPD2    C312975   0.184   3.287   0.131  0.1283 -0.3881  0.1712
  885MPD2    C412976   0.102   3.361   0.212 -0.3100 -0.2278  1.1345
  885MPD2    C512977   0.061   3.308   0.330  0.3812  0.2643  0.4872
  885MPD2     H12978   0.293   3.109   0.107 -1.4932 -1.3466  0.0470
  885MPD2    H112979   0.058   3.456   0.185  1.3049 -0.1882 -1.3540
  885MPD2    H212980   0.055   3.144   0.473  2.2949  0.3979  0.2583
  885MPD2    H312981   0.003   3.366   0.401 -2.1834 -0.7543 -0.7896
  885MPD2     N12982   0.230   3.332  17.698 -0.7383  0.3603 -0.2349
  885MPD2    H512983   0.271   3.265  17.634 -0.8734 -0.4583  0.5235
  885MPD2    N112984   0.226   2.997   0.361  0.8429 -0.7127  0.5810
  885MPD2    H712985   0.188   2.978   0.453 -1.7707  1.2307 -0.1085
  886MPD2     C12986   1.287   1.957  15.568  0.4304  0.2684 -0.4365
  886MPD2    C112987   1.360   1.902  15.465  0.1804 -0.1267 -0.3136
  886MPD2    C212988   1.375   1.974  15.350 -0.6228  0.4823  0.6117
  886MPD2    C312989   1.327   2.102  15.335 -0.4379 -0.0154  0.3077
  886MPD2    C412990   1.268   2.164  15.445 -1.3973 -0.2710  0.0788
  886MPD2    C512991   1.254   2.086  15.557 -0.4174  1.0410 -0.3014
  886MPD2     H12992   1.424   1.923  15.268 -1.4197 -2.1620  1.7750
  886MPD2    H112993   1.235   2.267  15.453 -2.3382 -0.5542 -0.1926
  886MPD2    H212994   1.276   1.914  15.666  1.2504  0.7672 -0.1256
  886MPD2    H312995   1.196   2.128  15.638 -0.9021  0.4070 -0.3203
  886MPD2     N12996   1.344   2.180  15.215 -0.0955  0.7475  0.1777
  886MPD2    H512997   1.315   2.277  15.219 -0.0182  0.8091 -0.7510
  886MPD2    N112998   1.398   1.763  15.463 -0.2577  0.1790 -0.1123
  886MPD2    H712999   1.450   1.733  15.381 -3.5204 -1.5638 -1.5152
  887MPD2     C13000   1.756   1.730  15.093 -0.0830 -0.0748  0.1133
  887MPD2    C113001   1.723   1.726  15.229  0.0854 -0.0272 -0.6476
  887MPD2    C213002   1.722   1.844  15.295  0.1608  0.3243  0.1474
  887MPD2    C313003   1.750   1.968  15.231 -0.1369 -0.4593 -0.6019
  887MPD2    C413004   1.779   1.964  15.097  0.0440 -0.1387  0.4325
  887MPD2    C513005   1.799   1.845  15.030  0.0547  0.0233  0.3136
  887MPD2     H13006   1.686   1.848  15.397  1.0534 -1.5605  0.5431
  887MPD2    H113007   1.801   2.059  15.050 -0.1481 -0.7658 -0.9271
  887MPD2    H213008   1.761   1.642  15.030 -0.7016  0.0648 -0.1291
  887MPD2    H313009   1.826   1.832  14.925 -0.0576  3.1649 -0.1010
  887MPD2     N13010   1.748   2.082  15.316 -0.8227 -0.4195  0.0940
  887MPD2    H513011   1.718   2.066  15.412 -1.2274  2.9560  0.5211
  887MPD2    N113012   1.674   1.613  15.297 -0.2502  0.1712  0.8810
  887MPD2    H713013   1.658   1.611  15.397 -1.1202 -2.4123  0.7036
  888MPD2     C13014   3.613   2.001  14.948  0.3163 -0.2130 -0.1892
  888MPD2    C113015   3.581   2.083  15.050  0.9724 -0.3726 -0.3112
  888MPD2    C213016   3.670   2.191  15.069 -0.6806 -0.3150 -0.3038
  888MPD2    C313017   3.780   2.221  14.983 -0.0142  0.2974  0.0680
  888MPD2    C413018   3.799   2.132  14.873  0.1075  0.4649 -0.9103
  888MPD2    C513019   3.712   2.030  14.853  0.3846  0.4541 -1.2281
  888MPD2     H13020   3.642   2.252  15.155  0.8590 -1.2865  0.8803
  888MPD2    H113021   3.873   2.162  14.800  0.2562 -1.0211 -1.3668
  888MPD2    H213022   3.544   1.920  14.927  2.3356 -1.6727 -1.2042
  888MPD2    H313023   3.719   1.964  14.768  0.2696  0.5077 -1.2793
  888MPD2     N13024   3.835   2.350  14.983  0.5262  0.3281  0.3910
  888MPD2    H513025   3.793   2.412  15.053  1.3319  0.2859  0.9152
  888MPD2    N113026   3.489   2.051  15.155  0.3697  0.3754 -0.0940
  888MPD2    H713027   3.495   2.118  15.231 -1.5886 -0.2287  0.5962
  889MPD2     C13028   3.677   1.171  13.805  0.4803  0.4691  0.0711
  889MPD2    C113029   3.628   1.170  13.672  0.2593  0.0693  0.7508
  889MPD2    C213030   3.676   1.270  13.580 -0.1031  0.3459 -0.0275
  889MPD2    C313031   3.738   1.381  13.632  0.0921 -0.5243  1.1023
  889MPD2    C413032   3.784   1.378  13.761 -0.1080 -0.3088  0.6761
  889MPD2    C513033   3.768   1.264  13.841 -0.1504 -0.2809  0.1376
  889MPD2     H13034   3.615   1.281  13.491  0.0730  0.3265 -0.1495
  889MPD2    H113035   3.844   1.454  13.809  2.5242  0.2943 -3.5148
  889MPD2    H213036   3.649   1.094  13.876  1.1779 -2.1752 -2.5476
  889MPD2    H313037   3.818   1.256  13.937  1.4591 -0.0722 -0.6895
  889MPD2     N13038   3.759   1.488  13.547  0.1729 -0.1370 -0.8494
  889MPD2    H513039   3.717   1.486  13.455 -1.6536  3.3339 -0.0995
  889MPD2    N113040   3.562   1.064  13.604  0.4488  0.2291 -0.0292
  889MPD2    H713041   3.560   1.075  13.503  0.6401  0.1767 -0.0383
  890MPD2     C13042   2.479   3.548  14.771  0.3789  0.5759 -0.3012
  890MPD2    C113043   2.591   3.486  14.725 -0.3625 -1.0292  0.0629
  890MPD2    C213044   2.612   3.349  14.753 -0.9366 -0.1256 -0.0546
  890MPD2    C313045   2.530   3.291  14.850 -0.4653  0.4089  0.3882
  890MPD2    C413046   2.416   3.350  14.899 -0.5981  0.0342 -0.1557
  890MPD2    C513047   2.396   3.485  14.862 -0.1105 -0.0632 -0.1121
  890MPD2     H13048   2.695   3.296  14.707 -2.0757 -1.4854 -0.5509
  890MPD2    H113049   2.347   3.311  14.972 -0.3942 -1.4042 -0.7315
  890MPD2    H213050   2.478   3.654  14.749 -0.6355  0.5461 -0.3570
  890MPD2    H313051   2.310   3.533  14.906  0.6463 -0.5643  1.9392
  890MPD2     N13052   2.574   3.175  14.909  0.1469  0.8875 -0.3839
  890MPD2    H513053   2.654   3.137  14.860 -1.5550  1.0212 -3.2466
  890MPD2    N113054   2.679   3.547  14.632  0.1326  0.3099 -0.5550
  890MPD2    H713055   2.658   3.645  14.621 -0.1004  0.2731 -0.4236
  891MPD2     C13056   0.851   1.649  16.768 -0.8935 -0.3519 -0.2934
  891MPD2    C113057   0.766   1.561  16.830 -0.5105  0.2300 -0.5311
  891MPD2    C213058   0.829   1.455  16.901 -0.1268 -0.2048 -0.4673
  891MPD2    C313059   0.966   1.451  16.916 -0.5754 -0.1306  0.5788
  891MPD2    C413060   1.043   1.548  16.863  0.5627  0.1502 -0.0800
  891MPD2    C513061   0.987   1.653  16.790 -0.9134  0.0665 -0.2697
  891MPD2     H13062   0.762   1.388  16.955  1.0672 -0.5065  0.6262
  891MPD2    H113063   1.150   1.564  16.871  0.3994 -0.0893  2.6262
  891MPD2    H213064   0.809   1.737  16.723 -0.5143 -0.8921 -1.7234
  891MPD2    H313065   1.053   1.724  16.742  2.4996 -2.2054  1.0243
  891MPD2     N13066   1.029   1.327  16.978  0.1500  0.1349 -0.0304
  891MPD2    H513067   0.964   1.257  17.012  1.6489  0.5123  3.5747
  891MPD2    N113068   0.628   1.582  16.800 -0.1434 -0.3672 -0.0187
  891MPD2    H713069   0.601   1.667  16.751  2.3479  1.2593  1.4384
  892MPD2     C13070   1.663   2.566  14.954  0.1178  0.0100  0.3690
  892MPD2    C113071   1.560   2.568  14.868  0.0772 -0.1300  0.9960
  892MPD2    C213072   1.593   2.522  14.743 -0.1563  1.2528 -0.3559
  892MPD2    C313073   1.717   2.476  14.705 -0.6630  0.2479 -0.3239
  892MPD2    C413074   1.811   2.472  14.797 -0.3309  0.2224  0.7930
  892MPD2    C513075   1.784   2.517  14.921 -0.3013  0.6159 -1.1169
  892MPD2     H13076   1.508   2.511  14.678  1.5706  1.8744 -2.7187
  892MPD2    H113077   1.912   2.446  14.769 -0.2353  2.4566 -0.9486
  892MPD2    H213078   1.658   2.603  15.056 -0.4335  2.3667 -0.5181
  892MPD2    H313079   1.862   2.506  14.996 -0.2906  0.3859 -1.1607
  892MPD2     N13080   1.747   2.431  14.575 -0.1114 -0.5056  0.5975
  892MPD2    H513081   1.841   2.394  14.564  0.3553  0.9623 -0.2171
  892MPD2    N113082   1.434   2.621  14.893 -0.8543  0.2432  0.4117
  892MPD2    H713083   1.378   2.637  14.809  0.1006 -0.2407 -0.3189
  893MPD2     C13084   3.453   0.068   2.655  0.0824 -0.4505  0.0262
  893MPD2    C113085   3.394   0.115   2.538  0.1251  0.1588 -0.5646
  893MPD2    C213086   3.278   0.055   2.494 -0.0836  0.0080  0.1785
  893MPD2    C313087   3.221   4.669   2.559  0.2462 -0.3895 -0.4612
  893MPD2    C413088   3.281   4.630   2.683 -0.0523 -0.1644  0.0107
  893MPD2    C513089   3.388   4.701   2.731  0.3200 -0.5352  0.6014
  893MPD2     H13090   3.223   0.103   2.414 -1.1652 -0.4071  0.6737
  893MPD2    H113091   3.226   4.567   2.752 -0.9325 -0.2719 -0.7984
  893MPD2    H213092   3.538   0.116   2.702 -0.2236 -0.8839  1.0444
  893MPD2    H313093   3.425   4.693   2.832  0.0833 -0.8697  0.6615
  893MPD2     N13094   3.109   4.594   2.502  0.2816 -0.1015  0.5343
  893MPD2    H513095   3.095   4.503   2.544  0.4776 -0.5602 -0.3999
  893MPD2    N113096   3.456   0.227   2.485 -0.3105  0.1516  0.2966
  893MPD2    H713097   3.555   0.231   2.505 -0.4836 -1.4481  1.4438
  894MPD2     C13098   0.728   2.823   1.036 -0.0009 -0.0781 -0.0574
  894MPD2    C113099   0.825   2.900   1.088  1.1405  0.0495  0.0467
  894MPD2    C213100   0.849   3.028   1.030 -0.0689 -0.1672 -0.2478
  894MPD2    C313101   0.774   3.080   0.929 -0.0033 -0.1190 -0.3161
  894MPD2    C413102   0.683   2.996   0.877 -0.3744  0.6192 -1.0002
  894MPD2    C513103   0.660   2.868   0.928  0.3833  0.0768  0.3040
  894MPD2     H13104   0.939   3.083   1.056 -0.0082 -1.8514  3.1192
  894MPD2    H113105   0.632   3.012   0.783 -2.0732  1.1411  0.0126
  894MPD2    H213106   0.713   2.722   1.074  1.8917 -1.1886 -2.2323
  894MPD2    H313107   0.585   2.813   0.873  0.5847 -0.2040  0.3082
  894MPD2     N13108   0.806   3.207   0.872 -0.3204  0.4218  0.0779
  894MPD2    H513109   0.868   3.262   0.931  3.3131 -0.0226 -3.3497
  894MPD2    N113110   0.899   2.869   1.211  0.5970 -0.2778  0.0736
  894MPD2    H713111   0.957   2.941   1.252 -0.5921  1.1344 -0.7350
  895MPD2     C13112   1.216   2.135  13.579 -0.2579  0.1419 -0.5111
  895MPD2    C113113   1.140   2.086  13.479  0.4334  1.3082 -0.0947
  895MPD2    C213114   1.189   1.980  13.403  0.0646 -0.6975 -0.2245
  895MPD2    C313115   1.309   1.917  13.427  0.4556 -0.0749 -0.2952
  895MPD2    C413116   1.379   1.957  13.538  0.1054  0.7480  0.3811
  895MPD2    C513117   1.340   2.063  13.610 -0.4176  0.7966  0.1436
  895MPD2     H13118   1.132   1.970  13.311 -2.4814  0.9846  1.1635
  895MPD2    H113119   1.471   1.907  13.567  0.8173  0.8751 -1.7029
  895MPD2    H213120   1.186   2.216  13.645 -0.3093  0.3437 -0.7821
  895MPD2    H313121   1.403   2.086  13.695 -1.5852 -0.4234  1.3341
  895MPD2     N13122   1.351   1.815  13.344 -0.4167 -0.1983 -0.6510
  895MPD2    H513123   1.445   1.777  13.356 -0.6248 -0.9806 -1.4935
  895MPD2    N113124   1.012   2.139  13.440  0.1150 -0.2144  0.2742
  895MPD2    H713125   0.965   2.083  13.369  0.1850  0.3171 -0.1908
  896MPD2     C13126   2.369   4.326   2.003 -0.3038  0.4956  0.3013
  896MPD2    C113127   2.368   4.272   1.879 -0.3161 -0.0386 -0.3445
  896MPD2    C213128   2.246   4.239   1.822 -0.2962  0.3271 -0.3545
  896MPD2    C313129   2.121   4.272   1.879 -0.8013  0.4770 -0.2160
  896MPD2    C413130   2.121   4.335   2.001  0.0530 -0.8563  0.0397
  896MPD2    C513131   2.245   4.353   2.059  0.4882  0.8656 -0.1752
  896MPD2     H13132   2.249   4.196   1.722  2.7700  3.5617 -1.6413
  896MPD2    H113133   2.031   4.370   2.049 -0.8417 -1.3221 -1.3068
  896MPD2    H213134   2.465   4.342   2.053 -0.1493  3.3059 -0.8574
  896MPD2    H313135   2.248   4.405   2.155  1.1854 -1.3151  0.9758
  896MPD2     N13136   2.004   4.244   1.801 -0.3146 -0.5042 -0.3020
  896MPD2    H513137   2.020   4.200   1.710 -1.0944 -0.8456 -0.2784
  896MPD2    N113138   2.491   4.247   1.812 -0.0443 -0.1858 -0.0219
  896MPD2    H713139   2.575   4.275   1.861 -0.1718  0.5746 -0.2387
  897MPD2     C13140   4.624   1.437  10.036 -0.1634  0.0394  0.7529
  897MPD2    C113141   4.651   1.422  10.174  0.4224  1.0859  0.6129
  897MPD2    C213142   4.546   1.433  10.268 -0.6621 -0.6229 -0.1083
  897MPD2    C313143   4.432   1.500  10.219 -0.3467  0.0678  0.1039
  897MPD2    C413144   4.401   1.509  10.083  1.2375  0.4114 -0.3627
  897MPD2    C513145   4.500   1.469   9.996  0.8488  0.4427 -0.8448
  897MPD2     H13146   4.568   1.423  10.373  0.6617 -2.1713 -0.5353
  897MPD2    H113147   4.307   1.545  10.043 -0.2086 -0.8890  1.8540
  897MPD2    H213148   4.700   1.441   9.959 -0.7552 -1.5328  0.1074
  897MPD2    H313149   4.477   1.468   9.890 -0.4886  2.1856 -0.5755
  897MPD2     N13150   4.348   1.557  10.317 -0.0816 -0.0432  0.2687
  897MPD2    H513151   4.384   1.546  10.412  1.1514 -0.4946 -0.2568
  897MPD2    N113152   0.057   1.390  10.206 -0.6849 -0.5888 -0.3448
  897MPD2    H713153   0.117   1.381  10.125 -1.2913  0.0071 -0.8669
  898MPD2     C13154   1.585   1.732  17.520  0.0989  0.0787 -0.0521
  898MPD2    C113155   1.687   1.795  17.452  0.1925  0.4495  0.1621
  898MPD2    C213156   1.655   1.901  17.375  0.0218 -0.0748 -0.7622
  898MPD2    C313157   1.530   1.957  17.367  0.0311  0.3755 -0.5752
  898MPD2    C413158   1.430   1.886  17.428 -0.2811 -0.7779  0.2518
  898MPD2    C513159   1.457   1.776  17.502  0.0344  0.1454  0.0349
  898MPD2     H13160   1.734   1.962  17.332 -0.2008  2.3782  2.2792
  898MPD2    H113161   1.325   1.913  17.421 -0.0854 -0.0019  0.2978
  898MPD2    H213162   1.591   1.661  17.602  0.4558  1.7816  1.4297
  898MPD2    H313163   1.362   1.742  17.542 -0.3070  1.1624  0.0916
  898MPD2     N13164   1.525   2.083  17.300 -0.6892  0.5991 -0.1880
  898MPD2    H513165   1.614   2.115  17.261 -1.1028  1.9873 -0.0134
  898MPD2    N113166   1.823   1.759  17.473  0.5106 -0.4012  0.9995
  898MPD2    H713167   1.892   1.801  17.413 -2.1292  1.4853 -0.6847
  899MPD2     C13168   2.703   2.702  17.512 -0.3895 -1.1856  0.0679
  899MPD2    C113169   2.633   2.815  17.555 -0.5411 -0.2782  0.0065
  899MPD2    C213170   2.539   2.803  17.658 -0.6136  0.4230  0.3092
  899MPD2    C313171   2.513   2.678   0.013  0.8570 -0.3134 -0.9932
  899MPD2    C413172   2.580   2.559  17.672 -0.0783  0.5942  0.8389
  899MPD2    C513173   2.674   2.577  17.573 -0.0268 -0.3970  0.3547
  899MPD2     H13174   2.468   2.884  17.669  0.0400  1.3130 -1.9049
  899MPD2    H113175   2.568   2.459   0.013  3.0563 -0.7566 -1.4149
  899MPD2    H213176   2.774   2.706  17.430  0.0513  1.2324  0.5734
  899MPD2    H313177   2.733   2.495  17.534 -1.0191 -0.5703 -0.7895
  899MPD2     N13178   2.406   2.662   0.102 -0.1586 -0.5376  0.0183
  899MPD2    H513179   2.389   2.575   0.152 -0.7463 -1.3078 -1.5275
  899MPD2    N113180   2.656   2.932  17.477  0.6528  0.4387  0.6651
  899MPD2    H713181   2.694   2.929  17.382 -0.6657 -0.4999  0.1764
  900MPD2     C13182   2.348   0.184  12.201  0.3636  0.7549  0.5344
  900MPD2    C113183   2.371   0.058  12.137 -0.6156  0.8532  0.2697
  900MPD2    C213184   2.297   0.021  12.028 -0.9078 -0.2709  0.1048
  900MPD2    C313185   2.193   0.103  11.988  0.9689 -0.0402 -0.2339
  900MPD2    C413186   2.164   0.221  12.051  0.8179  0.4529 -0.6734
  900MPD2    C513187   2.246   0.264  12.153 -0.2551  0.4570 -0.6806
  900MPD2     H13188   2.326   4.654  11.979  0.3152  0.3624 -0.3665
  900MPD2    H113189   2.088   0.288  12.014  1.7822  1.6150 -0.5277
  900MPD2    H213190   2.406   0.217  12.286  0.4869  0.0989  0.7035
  900MPD2    H313191   2.230   0.364  12.189  0.5771  0.1796  0.4412
  900MPD2     N13192   2.109   0.057  11.885  0.8448  0.0626  0.2419
  900MPD2    H513193   2.130   4.688  11.854 -0.6848 -0.1721 -0.1119
  900MPD2    N113194   2.457   4.689  12.196  0.2044 -0.0651  0.2132
  900MPD2    H713195   2.505   4.705  12.284  0.8327  1.4444 -0.4089
  901MPD2     C13196   2.524   3.798  12.712  0.3702  0.6116  0.0154
  901MPD2    C113197   2.585   3.782  12.588 -0.5523 -0.6565  0.2292
  901MPD2    C213198   2.605   3.894  12.519 -0.0940  0.4544 -0.5602
  901MPD2    C313199   2.564   4.022  12.555  0.1928  0.0345  0.4041
  901MPD2    C413200   2.494   4.030  12.672 -1.0548  0.9015 -0.9991
  901MPD2    C513201   2.472   3.920  12.746 -0.8688 -1.1747  0.0513
  901MPD2     H13202   2.638   3.885  12.416 -2.2997 -1.8801 -1.0599
  901MPD2    H113203   2.457   4.125  12.709  0.1636  1.2597 -0.7028
  901MPD2    H213204   2.502   3.707  12.767 -1.0327  0.9108 -0.0523
  901MPD2    H313205   2.421   3.922  12.842 -0.7527 -0.2476  0.0920
  901MPD2     N13206   2.602   4.127  12.469 -0.0334  0.5235  0.3417
  901MPD2    H513207   2.664   4.092  12.396  0.1672  2.2953 -0.3203
  901MPD2    N113208   2.611   3.651  12.547 -0.1399 -0.3585  0.2729
  901MPD2    H713209   2.617   3.575  12.613  1.1687 -0.9431 -0.5264
  902MPD2     C13210   1.013   2.130  13.003 -0.2319 -0.3611  0.6207
  902MPD2    C113211   1.002   2.221  12.900  0.3367 -0.0030  0.4501
  902MPD2    C213212   1.094   2.209  12.796  0.5475 -0.0468  0.8263
  902MPD2    C313213   1.193   2.111  12.801  0.5522 -0.0815  0.2200
  902MPD2    C413214   1.202   2.027  12.911  0.8942  0.4485  0.4194
  902MPD2    C513215   1.107   2.033  13.009 -0.2187  0.7278 -0.2625
  902MPD2     H13216   1.094   2.291  12.725 -0.3431 -0.6853  0.0982
  902MPD2    H113217   1.271   1.944  12.902  0.3715 -0.2260  2.6432
  902MPD2    H213218   0.943   2.133  13.085  0.2366 -0.7979  1.0368
  902MPD2    H313219   1.110   1.957  13.086 -0.0596 -0.7741 -1.7691
  902MPD2     N13220   1.289   2.106  12.697  0.5622 -0.0703  0.1935
  902MPD2    H513221   1.358   2.035  12.719  1.6139  0.6305 -0.8722
  902MPD2    N113222   0.917   2.333  12.904 -0.0421  0.0992  0.0266
  902MPD2    H713223   0.906   2.377  12.814  0.1258  0.0633 -0.0117
  903MPD2     C13224   1.622   2.329  11.854  0.4932 -0.3828  0.0469
  903MPD2    C113225   1.521   2.322  11.946  0.0062  0.2303  0.0708
  903MPD2    C213226   1.389   2.346  11.904 -0.2121 -0.9876 -0.6409
  903MPD2    C313227   1.368   2.387  11.775 -0.0993 -0.1407  0.1577
  903MPD2    C413228   1.473   2.387  11.681  0.3521 -0.4291 -0.3277
  903MPD2    C513229   1.597   2.355  11.722  0.4844  0.2023  0.0967
  903MPD2     H13230   1.301   2.334  11.966  0.4016  0.8214  0.5909
  903MPD2    H113231   1.464   2.397  11.573  0.9590 -0.3199 -0.3648
  903MPD2    H213232   1.721   2.303  11.891 -0.9160 -0.7675  3.5214
  903MPD2    H313233   1.685   2.342  11.660 -0.0421  1.8407 -0.9896
  903MPD2     N13234   1.235   2.418  11.733 -0.0897  0.0801 -0.3713
  903MPD2    H513235   1.161   2.413  11.803 -1.0188 -1.6836 -1.4683
  903MPD2    N113236   1.562   2.275  12.076 -0.3363 -0.1499 -0.1625
  903MPD2    H713237   1.661   2.259  12.093 -0.3771 -1.0856 -0.8294
  904MPD2     C13238   1.072   1.416  13.487  0.4389  0.1501  0.3026
  904MPD2    C113239   1.121   1.305  13.541  0.3662 -0.8028 -0.8021
  904MPD2    C213240   1.237   1.318  13.614 -0.2867  0.1178 -0.1388
  904MPD2    C313241   1.304   1.443  13.627  0.5268  0.2031  0.1905
  904MPD2    C413242   1.231   1.554  13.588  0.1414 -0.4599 -0.3187
  904MPD2    C513243   1.114   1.540  13.524  0.0679 -0.2817 -0.5459
  904MPD2     H13244   1.280   1.226  13.652  0.2529  0.1740 -0.6112
  904MPD2    H113245   1.259   1.658  13.598 -2.6709  0.1477  1.0869
  904MPD2    H213246   0.982   1.419  13.425 -0.0922 -0.3907  1.0430
  904MPD2    H313247   1.073   1.636  13.494  2.4316 -0.0863 -3.1887
  904MPD2     N13248   1.434   1.442  13.681 -0.0652  0.5731 -0.3824
  904MPD2    H513249   1.466   1.348  13.704  1.4519  1.5616  1.5855
  904MPD2    N113250   1.039   1.190  13.527 -0.2421 -0.0909 -0.3755
  904MPD2    H713251   0.953   1.210  13.477  0.0083  1.5742 -0.1453
  905MPD2     C13252   0.700   1.434  13.250 -0.1919 -0.0358 -0.3087
  905MPD2    C113253   0.791   1.327  13.218 -0.1444  0.2790  0.1002
  905MPD2    C213254   0.910   1.355  13.147  0.0810 -0.0058  0.2623
  905MPD2    C313255   0.944   1.487  13.123  0.0750 -0.0875  0.1264
  905MPD2    C413256   0.862   1.591  13.166  0.4196 -0.0789 -0.2078
  905MPD2    C513257   0.735   1.564  13.215  0.0321  0.2595 -0.2433
  905MPD2     H13258   0.976   1.273  13.124 -0.5480 -0.7801  1.1796
  905MPD2    H113259   0.884   1.696  13.147  0.4369  0.0562  0.5256
  905MPD2    H213260   0.605   1.414  13.299 -0.3624 -0.4908 -0.8268
  905MPD2    H313261   0.676   1.645  13.256  0.1923  1.0918 -1.6750
  905MPD2     N13262   1.074   1.527  13.069 -0.0812  0.0662  0.0209
  905MPD2    H513263   1.100   1.624  13.085  3.0922 -0.6488 -0.6805
  905MPD2    N113264   0.767   1.192  13.262 -0.6351 -0.2329  0.7190
  905MPD2    H713265   0.825   1.121  13.219  0.1146 -0.0225  1.3788
  906MPD2     C13266   3.339   1.524  11.219  0.8315  0.1199 -0.4434
  906MPD2    C113267   3.213   1.501  11.162 -0.1027  0.0702  0.2918
  906MPD2    C213268   3.111   1.452  11.237 -0.2615 -0.5843 -0.1368
  906MPD2    C313269   3.127   1.410  11.366 -0.8889  0.0660  0.5960
  906MPD2    C413270   3.253   1.405  11.418  0.0121 -0.2329  1.2950
  906MPD2    C513271   3.355   1.472  11.346  0.4351 -0.2054 -0.0318
  906MPD2     H13272   3.023   1.420  11.182 -1.1068  0.2649  0.7244
  906MPD2    H113273   3.280   1.363  11.515 -0.8980 -0.7811  1.3108
  906MPD2    H213274   3.428   1.558  11.166  0.8479  0.4937 -0.1754
  906MPD2    H313275   3.454   1.458  11.387  1.0929  1.6707 -0.9919
  906MPD2     N13276   3.024   1.346  11.440 -0.4708  0.1083 -0.4325
  906MPD2    H513277   3.053   1.293  11.522  0.4963  0.7576 -0.3470
  906MPD2    N113278   3.189   1.505  11.021  0.4134  0.4879 -0.4965
  906MPD2    H713279   3.101   1.475  10.981 -0.4073  1.7018  0.3798
  907MPD2     C13280   1.495   0.546  15.710 -0.0876  0.4654  0.1554
  907MPD2    C113281   1.538   0.411  15.710  0.0920  0.0964  0.6597
  907MPD2    C213282   1.638   0.377  15.803  0.2595 -0.4003 -0.6902
  907MPD2    C313283   1.679   0.465  15.898 -0.0974  0.4916  0.1960
  907MPD2    C413284   1.621   0.593  15.902  0.2843  0.0801 -0.5237
  907MPD2    C513285   1.528   0.630  15.809 -0.2913 -0.4868 -0.0260
  907MPD2     H13286   1.684   0.279  15.807 -0.4669 -0.6288  2.0711
  907MPD2    H113287   1.647   0.667  15.976 -0.3531 -0.8897  0.6670
  907MPD2    H213288   1.425   0.582  15.636  0.6991 -1.1405 -1.3697
  907MPD2    H313289   1.474   0.723  15.818  1.4327  0.6253 -1.2078
  907MPD2     N13290   1.781   0.423  15.988  0.1344 -0.1691 -0.3273
  907MPD2    H513291   1.804   0.325  15.973 -0.8718 -0.2117 -1.5466
  907MPD2    N113292   1.506   0.319  15.610 -0.6243 -0.1675 -1.0421
  907MPD2    H713293   1.554   0.230  15.610 -1.5136 -0.6498 -0.6130
  908MPD2     C13294   0.381   0.882   9.689 -0.3140  0.6631  0.1306
  908MPD2    C113295   0.368   0.804   9.801 -0.2493  0.6025 -0.1130
  908MPD2    C213296   0.366   0.872   9.920 -0.8201  0.0395 -0.0527
  908MPD2    C313297   0.393   1.009   9.928  0.4049 -0.1837  0.1762
  908MPD2    C413298   0.405   1.075   9.813  0.4036  0.3449  0.1303
  908MPD2    C513299   0.404   1.015   9.697 -0.3852  0.5195  0.0551
  908MPD2     H13300   0.358   0.816  10.012  0.8508 -0.2897 -0.0982
  908MPD2    H113301   0.420   1.183   9.811 -0.1664  0.4418  0.8389
  908MPD2    H213302   0.381   0.844   9.587  0.3533 -0.3535  0.5098
  908MPD2    H313303   0.417   1.071   9.605 -0.4140  0.6557  0.1340
  908MPD2     N13304   0.389   1.076  10.052 -0.3645  0.4755 -0.2553
  908MPD2    H513305   0.324   1.035  10.119 -1.3549  2.7312  0.1725
  908MPD2    N113306   0.353   0.673   9.785 -0.6093  0.1266 -0.3229
  908MPD2    H713307   0.333   0.648   9.688 -3.2652  3.6394 -0.6686
  909MPD2     C13308   0.197   4.263  12.343 -0.6666  0.0452  0.0702
  909MPD2    C113309   0.179   4.276  12.212  0.2482 -0.2734  0.1817
  909MPD2    C213310   0.067   4.342  12.166  0.1015  0.0589  0.0181
  909MPD2    C313311   4.710   4.405  12.257 -0.0668 -0.3624  0.4327
  909MPD2    C413312   0.002   4.390  12.396  0.8178 -0.0588  0.5380
  909MPD2    C513313   0.109   4.311  12.436  0.3628  0.2178  0.2703
  909MPD2     H13314   0.041   4.363  12.063 -2.4383 -0.0940  0.6194
  909MPD2    H113315   4.666   4.432  12.474 -0.4951 -0.3119 -0.3546
  909MPD2    H213316   0.284   4.215  12.388 -0.5268  1.8831  1.7631
  909MPD2    H313317   0.124   4.305  12.543  1.1560 -1.0801  0.0800
  909MPD2     N13318   4.609   4.484  12.196  0.4777 -0.0091 -0.3374
  909MPD2    H513319   4.599   4.471  12.096  0.5677 -2.2814 -0.0477
  909MPD2    N113320   0.276   4.234  12.116  0.7804  0.7542 -0.1018
  909MPD2    H713321   0.259   4.254  12.018  0.8841 -0.1671 -0.3068
  910MPD2     C13322   0.544   1.172  16.031  0.4322  1.1341  0.3055
  910MPD2    C113323   0.674   1.158  15.973  0.3043  0.1590 -0.3356
  910MPD2    C213324   0.689   1.195  15.837  0.6176 -0.1329 -0.3965
  910MPD2    C313325   0.581   1.236  15.759 -0.2770  0.3186 -0.2881
  910MPD2    C413326   0.454   1.228  15.815  0.4030  0.2520  0.4651
  910MPD2    C513327   0.441   1.198  15.947  0.1949  0.1115 -0.0162
  910MPD2     H13328   0.789   1.186  15.796  0.7702  1.8903 -0.4649
  910MPD2    H113329   0.363   1.239  15.759 -0.3865  1.1023  1.9186
  910MPD2    H213330   0.520   1.153  16.135 -1.6122  0.1790 -0.3525
  910MPD2    H313331   0.344   1.193  15.996  0.6291 -1.1245  0.7285
  910MPD2     N13332   0.592   1.284  15.629  0.1999 -0.5483 -0.4734
  910MPD2    H513333   0.509   1.324  15.587  0.4638  0.2460 -0.2549
  910MPD2    N113334   0.793   1.129  16.047  0.1185  0.7627  0.4232
  910MPD2    H713335   0.877   1.103  15.997  0.0783  0.8945  0.2855
  911MPD2     C13336   3.709   0.892  16.662  0.5349  0.1063 -0.4733
  911MPD2    C113337   3.767   0.967  16.568  0.3682 -0.6349 -0.0903
  911MPD2    C213338   3.685   1.007  16.463 -0.9851 -0.3084  0.4324
  911MPD2    C313339   3.557   0.965  16.445 -0.7539 -0.9173 -0.5107
  911MPD2    C413340   3.502   0.893  16.547 -0.3513 -0.3713  0.6310
  911MPD2    C513341   3.579   0.851  16.654 -0.0114 -0.1129 -0.0842
  911MPD2     H13342   3.728   1.068  16.385 -0.5195 -0.4806  0.5542
  911MPD2    H113343   3.397   0.867  16.549 -0.3889 -0.3036 -0.6779
  911MPD2    H213344   3.775   0.850  16.737 -0.8974 -1.5475 -0.1201
  911MPD2    H313345   3.541   0.775  16.721  1.3289 -1.7780 -1.2079
  911MPD2     N13346   3.488   1.004  16.331  0.5977 -0.1973  0.4547
  911MPD2    H513347   3.522   1.074  16.267  0.1652  1.5337  2.1178
  911MPD2    N113348   3.905   0.996  16.579 -0.3140 -0.6999  0.1454
  911MPD2    H713349   3.951   0.949  16.656 -2.2476 -1.6039  0.7647
  912MPD2     C13350   2.989   1.232  16.582  0.3550 -0.4329 -0.5930
  912MPD2    C113351   3.058   1.264  16.474  0.1921 -0.2051 -0.0067
  912MPD2    C213352   3.195   1.291  16.481 -0.2788  0.2862  0.0099
  912MPD2    C313353   3.251   1.273  16.610 -0.2633  0.3213 -0.3574
  912MPD2    C413354   3.176   1.226  16.715 -0.3627 -0.6462 -0.1490
  912MPD2    C513355   3.044   1.202  16.704  0.5289  0.1620 -0.3450
  912MPD2     H13356   3.250   1.325  16.394 -1.4096  2.5494  0.1623
  912MPD2    H113357   3.217   1.205  16.813  0.8498  2.8680  0.0723
  912MPD2    H213358   2.883   1.216  16.573  0.5888  0.3255 -4.3916
  912MPD2    H313359   2.978   1.172  16.785 -0.9162  1.3466 -1.0835
  912MPD2     N13360   3.390   1.294  16.634 -0.6601 -0.0634 -0.6843
  912MPD2    H513361   3.441   1.316  16.549 -1.8699  0.0514 -1.3865
  912MPD2    N113362   2.992   1.290  16.357 -0.0320 -0.0761  0.6042
  912MPD2    H713363   2.892   1.301  16.372  0.3769  2.6332  1.4719
  913MPD2     C13364   4.139   2.455  10.028  0.0489  0.2603  0.0242
  913MPD2    C113365   4.238   2.511  10.103  0.1528 -0.1757 -0.1626
  913MPD2    C213366   4.254   2.643  10.091 -1.2728 -0.0266 -0.0068
  913MPD2    C313367   4.181   2.717   9.998 -0.8161  0.4539 -0.0066
  913MPD2    C413368   4.082   2.659   9.921  0.1072 -0.3892 -0.3207
  913MPD2    C513369   4.063   2.525   9.938 -0.0729  0.6928  0.4215
  913MPD2     H13370   4.330   2.688  10.152 -1.0876  1.4791 -1.3341
  913MPD2    H113371   4.021   2.709   9.846  0.1480 -1.3429 -0.9838
  913MPD2    H213372   4.125   2.348  10.036 -1.2541  0.5690  1.7476
  913MPD2    H313373   3.986   2.462   9.894  0.7047 -0.0574  0.1489
  913MPD2     N13374   4.193   2.855   9.974  0.1109  0.5150 -0.1216
  913MPD2    H513375   4.146   2.908   9.902 -0.6100 -1.7611 -1.3126
  913MPD2    N113376   4.312   2.431  10.188  0.4053  0.2344  0.1408
  913MPD2    H713377   4.303   2.331  10.179 -0.6042  0.3386 -0.0175
  914MPD2     C13378   2.243   3.440  11.787  0.0461  0.1383  0.3861
  914MPD2    C113379   2.343   3.527  11.801  0.0382 -0.2954  0.3769
  914MPD2    C213380   2.457   3.490  11.871  0.0822  0.5857  0.3591
  914MPD2    C313381   2.455   3.367  11.935  0.2256  0.0300 -0.2107
  914MPD2    C413382   2.348   3.276  11.922  0.3413 -0.2053  0.6034
  914MPD2    C513383   2.237   3.320  11.851  0.1029  0.5014  0.9148
  914MPD2     H13384   2.542   3.555  11.891 -1.1893  1.9848  1.1555
  914MPD2    H113385   2.348   3.174  11.960  0.4637 -0.2487  0.4880
  914MPD2    H213386   2.146   3.467  11.747 -0.4771 -0.1689  1.4437
  914MPD2    H313387   2.145   3.263  11.853 -0.3279  1.1872  0.4902
  914MPD2     N13388   2.552   3.338  12.025  0.3830 -0.1554 -0.4462
  914MPD2    H513389   2.626   3.409  12.022  0.6889 -0.3779  1.5005
  914MPD2    N113390   2.331   3.659  11.750 -0.4413  0.4472 -0.2337
  914MPD2    H713391   2.416   3.715  11.744 -0.1670  0.1437  0.7957
  915MPD2     C13392   4.449   3.524  15.633 -0.4144  0.8332  0.2073
  915MPD2    C113393   4.406   3.650  15.601  0.0081 -0.5552 -0.3056
  915MPD2    C213394   4.461   3.758  15.670  0.2377  0.6972  0.0836
  915MPD2    C313395   4.550   3.744  15.772  0.0062  0.1133 -0.1540
  915MPD2    C413396   4.580   3.614  15.813 -0.3489  0.5660 -0.1705
  915MPD2    C513397   4.533   3.508  15.742  0.8277 -0.2686  0.1680
  915MPD2     H13398   4.446   3.857  15.629  0.0813  0.6669  0.0682
  915MPD2    H113399   4.635   3.594  15.904  0.8363  0.9926 -0.7906
  915MPD2    H213400   4.405   3.436  15.588  0.6905  0.8106 -0.8161
  915MPD2    H313401   4.553   3.407  15.777 -1.0436 -0.7116 -0.0539
  915MPD2     N13402   4.599   3.851  15.849  0.2219 -0.5994  0.3115
  915MPD2    H513403   4.655   3.828  15.931 -0.5263  1.7633  1.4772
  915MPD2    N113404   4.297   3.674  15.510 -0.4609  0.2257  0.1480
  915MPD2    H713405   4.263   3.769  15.495  0.7097  0.7287  0.6541
  916MPD2     C13406   3.373   1.936  15.730  0.2617  0.3670  0.2944
  916MPD2    C113407   3.319   1.828  15.800 -0.3328 -0.6240 -0.5150
  916MPD2    C213408   3.325   1.697  15.747 -0.1258 -0.5686 -0.3338
  916MPD2    C313409   3.399   1.683  15.629 -1.0098 -0.1536 -0.6895
  916MPD2    C413410   3.462   1.797  15.567  0.2579  0.7037 -1.1437
  916MPD2    C513411   3.441   1.921  15.616 -0.2198 -0.1310 -0.3180
  916MPD2     H13412   3.267   1.611  15.781  0.9524 -0.4409  1.8625
  916MPD2    H113413   3.519   1.785  15.476 -1.2535 -0.5469 -1.9252
  916MPD2    H213414   3.347   2.035  15.765  3.1626  0.7431  1.3288
  916MPD2    H313415   3.496   2.002  15.569  1.5220 -0.6606  0.8282
  916MPD2     N13416   3.425   1.552  15.580 -0.4678  0.6014 -0.5587
  916MPD2    H513417   3.370   1.477  15.621 -1.3561  0.6924 -1.5767
  916MPD2    N113418   3.233   1.858  15.910 -0.3367 -0.6437  0.1535
  916MPD2    H713419   3.214   1.953  15.941 -1.0941 -0.8469  0.3213
  917MPD2     C13420   3.763   3.689  10.677 -0.3614  0.3920  0.3691
  917MPD2    C113421   3.815   3.739  10.793 -0.6287  0.0041 -0.0844
  917MPD2    C213422   3.897   3.855  10.787  0.3720  0.9167  0.3488
  917MPD2    C313423   3.921   3.923  10.669  0.0530 -0.6090  0.0450
  917MPD2    C413424   3.865   3.867  10.555  0.0860 -0.1639  0.2954
  917MPD2    C513425   3.792   3.752  10.559 -0.1037 -0.0198 -0.2039
  917MPD2     H13426   3.939   3.900  10.876  0.6386 -0.8415  1.0957
  917MPD2    H113427   3.875   3.909  10.455 -0.4680 -1.8858 -0.4912
  917MPD2    H213428   3.705   3.597  10.668  2.0285 -0.8434 -2.2029
  917MPD2    H313429   3.762   3.709  10.464  2.4841 -0.3409 -0.8843
  917MPD2     N13430   3.988   4.054  10.671 -0.5783 -0.1931 -0.7998
  917MPD2    H513431   4.031   4.082  10.759 -0.2314  2.5566 -1.8211
  917MPD2    N113432   3.781   3.681  10.918  0.0919  0.0654 -0.0575
  917MPD2    H713433   3.694   3.628  10.917  1.1254 -1.6325  0.2764
  918MPD2     C13434   3.838   4.136  11.817  0.3718 -0.2423 -0.9382
  918MPD2    C113435   3.916   4.029  11.816 -0.1766 -0.0920 -1.0823
  918MPD2    C213436   3.912   3.940  11.714 -0.5395 -0.3122  0.2912
  918MPD2    C313437   3.820   3.957  11.613  0.3647 -0.6204  0.3319
  918MPD2    C413438   3.735   4.063  11.611 -0.8760  1.1327 -0.2771
  918MPD2    C513439   3.747   4.156  11.716  0.2163  0.8942 -0.2068
  918MPD2     H13440   3.976   3.853  11.720  1.4750  1.2552  1.4019
  918MPD2    H113441   3.660   4.081  11.535  1.4713  3.3544 -2.0451
  918MPD2    H213442   3.849   4.207  11.897  0.9563  0.9418 -2.0648
  918MPD2    H313443   3.682   4.243  11.725  1.1193  1.5826 -0.3548
  918MPD2     N13444   3.804   3.856  11.522 -0.3640 -0.4744  0.2598
  918MPD2    H513445   3.885   3.795  11.516  0.4853  0.5935  1.0429
  918MPD2    N113446   4.020   4.016  11.911  0.4743  0.7819  0.2436
  918MPD2    H713447   4.101   3.960  11.886  0.1353  0.4494 -0.1118
  919MPD2     C13448   0.084   2.817  11.812  0.0748 -0.4142  0.0098
  919MPD2    C113449   0.079   2.682  11.780  0.1872  0.7637  0.3516
  919MPD2    C213450   0.051   2.638  11.653  0.9165 -0.7511  0.2861
  919MPD2    C313451   0.054   2.729  11.549 -0.3186  0.0658 -0.3767
  919MPD2    C413452   0.075   2.860  11.582  0.3736  0.5952  0.8159
  919MPD2    C513453   0.088   2.907  11.712 -0.2947  0.6409 -0.9322
  919MPD2     H13454   0.043   2.533  11.627 -0.7213 -0.8548  1.2442
  919MPD2    H113455   0.070   2.936  11.505 -2.7562 -2.7334 -2.2641
  919MPD2    H213456   0.119   2.851  11.909 -0.9700  0.4338  0.0853
  919MPD2    H313457   0.112   3.012  11.724  2.5012  0.0105 -0.9048
  919MPD2     N13458   0.030   2.703  11.412  0.0248  0.8694  0.1012
  919MPD2    H513459   0.043   2.787  11.356  0.5067  0.8975  0.2509
  919MPD2    N113460   0.057   2.580  11.876 -0.0958  0.5732 -0.4541
  919MPD2    H713461   0.037   2.489  11.835  0.7716 -0.1387  0.6902
  920MPD2     C13462   4.426   3.064  10.568  0.2003  0.6314 -0.0710
  920MPD2    C113463   4.335   2.965  10.570  0.2533 -0.7023 -0.0491
  920MPD2    C213464   4.344   2.868  10.674  0.0795 -0.5663  0.2538
  920MPD2    C313465   4.449   2.879  10.769  0.8540 -0.0380  0.3631
  920MPD2    C413466   4.539   2.985  10.762  0.6992  0.1940  0.2579
  920MPD2    C513467   4.521   3.080  10.665  0.0684 -0.0960 -0.2488
  920MPD2     H13468   4.274   2.785  10.669 -0.0357 -0.4505 -0.0702
  920MPD2    H113469   4.612   3.005  10.841 -0.0482 -1.0923  1.2767
  920MPD2    H213470   4.433   3.135  10.486 -0.1026  1.2119  0.4075
  920MPD2    H313471   4.600   3.153  10.652 -0.4450  0.2732 -1.3220
  920MPD2     N13472   4.463   2.776  10.868 -0.6490 -0.1838 -0.4795
  920MPD2    H513473   4.427   2.683  10.851  0.4476 -0.1879 -2.7121
  920MPD2    N113474   4.230   2.960  10.479 -0.7320  0.3499  0.1555
  920MPD2    H713475   4.183   2.871  10.470 -0.9113  0.6114 -1.5168
  921MPD2     C13476   4.479   1.458  17.092  0.0243 -0.5713  0.2169
  921MPD2    C113477   4.561   1.408  16.993 -0.8466 -0.5140  0.3472
  921MPD2    C213478   4.523   1.307  16.907  0.5776 -0.2655 -0.5605
  921MPD2    C313479   4.391   1.255  16.919  0.7404 -0.0078  0.2873
  921MPD2    C413480   4.315   1.301  17.019  0.0003  0.1334 -0.5864
  921MPD2    C513481   4.360   1.393  17.109 -0.3442 -0.4962  0.2902
  921MPD2     H13482   4.598   1.267  16.839  0.7509 -2.4325  0.9371
  921MPD2    H113483   4.218   1.255  17.033  0.9624 -1.8833 -0.5221
  921MPD2    H213484   4.514   1.525  17.170 -2.9336  2.0150 -0.6765
  921MPD2    H313485   4.299   1.416  17.196 -0.7258 -0.4313  0.0039
  921MPD2     N13486   4.335   1.153  16.835  0.1878  0.6924  0.0268
  921MPD2    H513487   4.235   1.143  16.846  0.4983 -0.7608  1.5927
  921MPD2    N113488   4.692   1.463  16.985 -0.7588  0.0824  0.5908
  921MPD2    H713489   4.703   1.542  17.047  1.3656  0.0491  0.2447
  922MPD2     C13490   0.510   4.314  16.967  0.5502 -0.3054  0.0065
  922MPD2    C113491   0.624   4.238  17.000 -0.4013  0.3014  0.4723
  922MPD2    C213492   0.654   4.222  17.132  0.4332  0.1372 -0.4562
  922MPD2    C313493   0.585   4.287  17.236  0.0480 -0.3904  0.4264
  922MPD2    C413494   0.489   4.373  17.204 -0.3301  0.1749 -0.1798
  922MPD2    C513495   0.443   4.377  17.070 -0.2120 -0.8175 -0.0089
  922MPD2     H13496   0.747   4.170  17.156 -0.9461 -2.0525  0.1724
  922MPD2    H113497   0.432   4.424  17.280 -0.0687  0.7744 -0.3801
  922MPD2    H213498   0.474   4.335  16.867  0.6791  1.2874  0.3000
  922MPD2    H313499   0.360   4.439  17.041  2.3912  2.0184 -1.3433
  922MPD2     N13500   0.621   4.270  17.367  0.2411  0.9799  0.0557
  922MPD2    H513501   0.587   4.330  17.441 -0.8118 -0.2411  0.5663
  922MPD2    N113502   0.697   4.175  16.896  0.6565  0.2710 -0.2941
  922MPD2    H713503   0.763   4.104  16.928  0.4657  0.9368  1.5907
  923MPD2     C13504   2.003   0.939   9.088  0.1489 -0.4127 -0.4921
  923MPD2    C113505   2.036   1.050   9.155 -0.2229  0.5444 -0.5387
  923MPD2    C213506   2.158   1.064   9.210 -0.9698 -0.0789 -0.9724
  923MPD2    C313507   2.252   0.964   9.185 -0.3273  0.6289  0.0337
  923MPD2    C413508   2.212   0.846   9.124  0.2532 -0.1270 -0.3911
  923MPD2    C513509   2.090   0.839   9.067 -0.0940  0.5571  0.4438
  923MPD2     H13510   2.184   1.139   9.284  2.2967 -1.7690 -0.4383
  923MPD2    H113511   2.279   0.762   9.110  0.7224 -0.4329  3.6321
  923MPD2    H213512   1.905   0.918   9.045  1.2938 -1.3732 -2.6150
  923MPD2    H313513   2.056   0.746   9.024 -0.0095  1.5113 -1.6906
  923MPD2     N13514   2.379   0.969   9.252 -0.3517  0.1788 -0.1597
  923MPD2    H513515   2.434   0.884   9.257 -0.9038 -0.0966  1.1352
  923MPD2    N113516   1.936   1.157   9.163 -0.3392 -0.3074  0.2683
  923MPD2    H713517   1.840   1.131   9.144 -0.4303  0.3707 -0.1845
  924MPD2     C13518   2.201   0.011  16.814 -0.3930  0.3097 -0.3516
  924MPD2    C113519   2.072   0.066  16.786  0.1211  0.4958 -0.3829
  924MPD2    C213520   2.042   0.101  16.650  0.5962 -0.0032  0.6455
  924MPD2    C313521   2.145   0.094  16.556  1.0326 -0.4810  0.6989
  924MPD2    C413522   2.261   0.031  16.588  0.0984 -0.1054  0.3070
  924MPD2    C513523   2.283   4.704  16.715  0.6837  0.9123 -0.1460
  924MPD2     H13524   1.940   0.132  16.629  1.3767  1.1484 -1.4607
  924MPD2    H113525   2.334   0.012  16.510  1.7703 -0.8966  2.0420
  924MPD2    H213526   2.235   0.004  16.917 -1.5403 -1.3008 -0.0779
  924MPD2    H313527   2.375   4.649  16.732  0.4053  0.6419  0.4779
  924MPD2     N13528   2.131   0.121  16.419  0.2562 -0.6279 -0.0028
  924MPD2    H513529   2.204   0.088  16.355 -1.4824  1.5907 -3.1336
  924MPD2    N113530   1.984   0.071  16.896 -0.0028 -0.0844  0.4544
  924MPD2    H713531   2.013   4.721  16.958  4.5562  0.7761 -0.6081
  925MPD2     C13532   0.503   1.787  14.614 -0.1637  0.3279 -0.6634
  925MPD2    C113533   0.435   1.911  14.623  0.6831 -0.6943 -0.1470
  925MPD2    C213534   0.372   1.947  14.739  0.1667 -0.6237  0.1404
  925MPD2    C313535   0.386   1.866  14.852  0.6859  0.3714 -0.4325
  925MPD2    C413536   0.469   1.751  14.854 -0.6327  0.0727  0.1131
  925MPD2    C513537   0.526   1.712  14.732 -0.0112  0.0822  0.0754
  925MPD2     H13538   0.335   2.048  14.748  2.8826  0.4568 -0.6817
  925MPD2    H113539   0.497   1.713  14.951 -1.0461  1.3037  0.7089
  925MPD2    H213540   0.546   1.754  14.520  0.8604 -1.3567  0.4055
  925MPD2    H313541   0.581   1.618  14.732 -0.4971 -0.2106 -2.9171
  925MPD2     N13542   0.340   1.915  14.971 -0.3407 -0.3704  0.4665
  925MPD2    H513543   0.379   1.867  15.051 -0.4532 -0.2450  0.5964
  925MPD2    N113544   0.417   1.996  14.512  0.0108  0.0891  0.0245
  925MPD2    H713545   0.345   2.065  14.527  0.4432  0.0933  2.0063
  926MPD2     C13546   0.202   0.654  13.230  0.0530 -0.1532  0.3545
  926MPD2    C113547   0.129   0.761  13.260  0.1764  0.6738  0.2120
  926MPD2    C213548   0.117   0.853  13.158  0.2740  0.1813  0.5744
  926MPD2    C313549   0.180   0.857  13.037 -0.1702 -0.0419 -0.2893
  926MPD2    C413550   0.259   0.748  13.007 -0.4353 -0.4367 -0.2327
  926MPD2    C513551   0.259   0.647  13.101  0.2043  0.0646 -0.6147
  926MPD2     H13552   0.078   0.953  13.178 -0.4443  0.0370 -0.0703
  926MPD2    H113553   0.303   0.731  12.910 -1.5594  0.7373 -0.9319
  926MPD2    H213554   0.209   0.570  13.297 -1.6174  0.1893  0.9529
  926MPD2    H313555   0.324   0.562  13.084  0.8059  0.4380 -0.2022
  926MPD2     N13556   0.185   0.960  12.939  0.5261  0.3355 -0.0596
  926MPD2    H513557   0.249   0.948  12.862 -0.5935  2.7954 -1.3920
  926MPD2    N113558   0.073   0.783  13.387 -0.6285  0.3920 -0.1630
  926MPD2    H713559   0.003   0.855  13.399 -0.4901  0.5899 -0.5239
  927MPD2     C13560   3.695   3.378   0.079  0.2039  0.2819  0.2616
  927MPD2    C113561   3.734   3.250   0.092 -0.2293 -0.3169 -0.6188
  927MPD2    C213562   3.826   3.196  17.701 -0.8359  0.9095  0.5742
  927MPD2    C313563   3.866   3.273  17.593  0.1601 -0.0515  0.6400
  927MPD2    C413564   3.816   3.396  17.577  0.1547  0.0371  0.0261
  927MPD2    C513565   3.731   3.449  17.673 -0.2321 -0.0128  0.1779
  927MPD2     H13566   3.878   3.102   0.017  0.0500  0.9543 -1.8899
  927MPD2    H113567   3.852   3.465  17.502  1.2673 -0.6301 -0.0545
  927MPD2    H213568   3.634   3.425   0.155 -0.5963  0.0314 -0.2309
  927MPD2    H313569   3.686   3.546  17.660  0.3988  0.4322  1.3287
  927MPD2     N13570   3.960   3.239  17.494  0.1988  0.8208 -0.1351
  927MPD2    H513571   3.964   3.305  17.418 -0.4095  1.3252  0.2758
  927MPD2    N113572   3.683   3.186   0.203  0.6561  0.2538 -0.1089
  927MPD2    H713573   3.610   3.239   0.250  1.0145 -0.1455  0.8960
  928MPD2     C13574   1.623   0.863   0.469  0.4010  0.6625  0.0868
  928MPD2    C113575   1.700   0.905   0.581 -0.6021  1.3572 -1.2149
  928MPD2    C213576   1.808   0.989   0.565  0.4423 -0.7087  0.1121
  928MPD2    C313577   1.846   1.025   0.437 -0.0691  0.2020 -0.2774
  928MPD2    C413578   1.779   0.972   0.329 -0.0482  0.0784 -0.5415
  928MPD2    C513579   1.664   0.900   0.342  0.1753  0.2193 -0.0271
  928MPD2     H13580   1.857   1.031   0.652 -0.8991  0.6894  0.1924
  928MPD2    H113581   1.810   1.009   0.231  0.5844 -2.6804 -1.3912
  928MPD2    H213582   1.546   0.787   0.475  1.3333 -0.5751 -3.3692
  928MPD2    H313583   1.614   0.874   0.249 -1.3727  2.6724  0.1235
  928MPD2     N13584   1.958   1.107   0.404  0.4285 -0.2611  0.1151
  928MPD2    H513585   1.976   1.128   0.306 -1.3363 -0.1098 -0.1752
  928MPD2    N113586   1.658   0.885   0.717  0.5155  0.4230  0.0635
  928MPD2    H713587   1.713   0.928   0.791 -0.2876  4.1100 -1.4742
  929MPD2     C13588   2.637   1.284  10.887 -0.1219  0.1271 -0.2101
  929MPD2    C113589   2.526   1.223  10.836 -0.0439  0.7787  0.0257
  929MPD2    C213590   2.474   1.257  10.707 -0.1833 -0.4171 -0.7604
  929MPD2    C313591   2.545   1.337  10.619  0.1328  0.3848  0.2860
  929MPD2    C413592   2.660   1.392  10.668  0.3510 -0.0749 -0.1294
  929MPD2    C513593   2.707   1.363  10.800 -0.2209  0.1450 -0.3785
  929MPD2     H13594   2.376   1.221  10.678  0.1967 -1.8744 -0.2302
  929MPD2    H113595   2.716   1.458  10.604 -0.2459  0.7309  0.1811
  929MPD2    H213596   2.684   1.266  10.983  2.7461  2.8563 -1.0951
  929MPD2    H313597   2.802   1.407  10.830 -0.1997  0.6866 -1.2108
  929MPD2     N13598   2.494   1.368  10.491  0.3872  0.2013  0.1444
  929MPD2    H513599   2.530   1.447  10.439 -0.6888 -0.0449 -0.9949
  929MPD2    N113600   2.460   1.136  10.931  0.5361 -0.0359 -0.1241
  929MPD2    H713601   2.490   1.127  11.028 -0.3836  2.3533  0.3785
  930MPD2     C13602   3.693   3.617  14.062  0.1316  0.6279 -1.0996
  930MPD2    C113603   3.664   3.725  13.975 -0.2560  1.0853 -0.1748
  930MPD2    C213604   3.642   3.700  13.845  0.3853  0.0278 -0.2220
  930MPD2    C313605   3.634   3.563  13.803  0.8107  0.2073 -0.6483
  930MPD2    C413606   3.651   3.459  13.892  0.6694 -0.6226  0.5749
  930MPD2    C513607   3.686   3.489  14.022 -0.4351  0.3500  0.4472
  930MPD2     H13608   3.644   3.784  13.776  2.1785  1.1093  1.1342
  930MPD2    H113609   3.641   3.357  13.857 -0.5985 -1.2562  2.7623
  930MPD2    H213610   3.727   3.628  14.164 -2.1610  2.5003 -0.5366
  930MPD2    H313611   3.695   3.405  14.090  0.9127 -1.1887 -1.6663
  930MPD2     N13612   3.621   3.533  13.668 -0.2268 -0.0340 -0.2964
  930MPD2    H513613   3.655   3.441  13.641  0.6137  0.2154 -0.0960
  930MPD2    N113614   3.689   3.861  14.020  0.2338  0.2178 -0.4576
  930MPD2    H713615   3.730   3.872  14.112 -0.4310 -1.1713  0.0151
  931MPD2     C13616   3.786   2.443   0.482 -0.0243 -0.0875  0.1234
  931MPD2    C113617   3.676   2.498   0.531 -0.0949  0.8488  1.1303
  931MPD2    C213618   3.621   2.446   0.646  0.4602  0.0541 -0.4711
  931MPD2    C313619   3.687   2.347   0.709 -0.2840  0.0200 -0.5646
  931MPD2    C413620   3.793   2.279   0.645 -0.3447 -0.0880  0.2036
  931MPD2    C513621   3.844   2.330   0.532  0.0963 -0.3295  0.7643
  931MPD2     H13622   3.553   2.512   0.700  1.8764 -0.4095  1.8557
  931MPD2    H113623   3.847   2.201   0.697  0.5026  0.7371  0.5573
  931MPD2    H213624   3.816   2.478   0.384  2.3036 -2.1274  0.1240
  931MPD2    H313625   3.921   2.274   0.480 -0.4029 -0.9439  0.6934
  931MPD2     N13626   3.651   2.286   0.829  0.4463  0.9422 -0.3212
  931MPD2    H513627   3.715   2.218   0.869 -0.4743  0.6274  0.6427
  931MPD2    N113628   3.638   2.614   0.469 -0.1049 -0.1393  0.0750
  931MPD2    H713629   3.702   2.641   0.395 -1.3541 -2.1913 -1.7739
  932MPD2     C13630   1.228   2.546  10.911 -0.1488 -0.0172  0.1907
  932MPD2    C113631   1.317   2.560  11.018  0.6619  0.3705  0.2265
  932MPD2    C213632   1.318   2.462  11.116  0.4905 -0.2660  0.3170
  932MPD2    C313633   1.248   2.350  11.100  0.3888  0.5352  0.1828
  932MPD2    C413634   1.159   2.342  10.993 -0.1621 -0.5287  0.2836
  932MPD2    C513635   1.146   2.441  10.895 -1.1451 -1.1456  0.7766
  932MPD2     H13636   1.371   2.477  11.209  1.1084  0.8054 -0.2141
  932MPD2    H113637   1.100   2.251  10.989  0.8286 -1.1519 -0.2394
  932MPD2    H213638   1.210   2.631  10.846 -0.0504  1.0640  1.5762
  932MPD2    H313639   1.078   2.425  10.812 -0.9935  0.9605  0.2675
  932MPD2     N13640   1.249   2.238  11.187 -0.5221  0.0573 -0.1578
  932MPD2    H513641   1.176   2.168  11.178 -0.9163  0.2489  1.5266
  932MPD2    N113642   1.383   2.681  11.038  0.0016  0.1837  0.1466
  932MPD2    H713643   1.434   2.685  11.125 -2.2382  0.7027  1.4376
  933MPD2     C13644   1.144   1.186   1.402  0.4387  0.1644 -0.3477
  933MPD2    C113645   1.155   1.185   1.259  0.1988  0.3641 -1.0005
  933MPD2    C213646   1.085   1.279   1.188  0.3250 -0.4847  0.5673
  933MPD2    C313647   0.992   1.361   1.243  0.2443  0.4998  0.0978
  933MPD2    C413648   0.968   1.352   1.383  0.0286 -0.2383  0.0829
  933MPD2    C513649   1.048   1.269   1.450 -0.2759 -0.3382 -0.2561
  933MPD2     H13650   1.102   1.285   1.081 -2.1607 -1.8498  0.1050
  933MPD2    H113651   0.897   1.411   1.439 -0.1200 -0.2560 -0.0852
  933MPD2    H213652   1.190   1.117   1.473  1.8104  0.6867 -0.7224
  933MPD2    H313653   1.031   1.266   1.557 -3.7214  0.1874 -0.8022
  933MPD2     N13654   0.917   1.442   1.164 -0.1558 -0.9072 -0.4181
  933MPD2    H513655   0.946   1.454   1.067 -0.1967 -0.3136 -0.3542
  933MPD2    N113656   1.246   1.093   1.192 -0.1894 -0.6671  0.1054
  933MPD2    H713657   1.292   1.026   1.254  1.2253  0.8278  0.6646
  934MPD2     C13658   1.767   3.966   2.050 -0.3668 -0.0329  0.4847
  934MPD2    C113659   1.833   3.875   1.960  0.1010 -0.8437 -1.2237
  934MPD2    C213660   1.763   3.774   1.891 -1.0466 -0.3390 -0.3865
  934MPD2    C313661   1.625   3.767   1.913 -0.0677  0.2870  0.0245
  934MPD2    C413662   1.567   3.862   1.991 -0.2836 -1.1840  0.2901
  934MPD2    C513663   1.635   3.950   2.071  0.0320 -0.3643  0.4451
  934MPD2     H13664   1.812   3.708   1.820 -0.8464  0.2563 -0.8017
  934MPD2    H113665   1.461   3.848   2.011 -0.6941  0.0946 -0.9881
  934MPD2    H213666   1.827   4.039   2.104  2.4298 -1.1850 -1.0349
  934MPD2    H313667   1.584   4.024   2.131  0.9942  0.1094  0.6887
  934MPD2     N13668   1.541   3.665   1.854 -0.0212 -0.0592  0.1937
  934MPD2    H513669   1.443   3.664   1.879  0.2792 -1.3017  1.3039
  934MPD2    N113670   1.979   3.892   1.932 -0.2770  0.2272 -0.0984
  934MPD2    H713671   2.005   3.844   1.847  0.1590 -1.2849  0.8743
  935MPD2     C13672   2.042   2.923   1.678 -0.2212 -0.6728 -0.5398
  935MPD2    C113673   2.020   3.004   1.570  0.0384 -0.2470  0.4735
  935MPD2    C213674   1.896   3.058   1.545  0.4073 -0.0308 -0.1625
  935MPD2    C313675   1.789   3.036   1.628  0.1652 -0.7498 -0.9378
  935MPD2    C413676   1.813   2.955   1.740 -0.5576  0.4444 -0.1998
  935MPD2    C513677   1.936   2.896   1.755  0.1373 -0.2617  0.2343
  935MPD2     H13678   1.880   3.120   1.458 -0.6635 -0.0867 -0.0075
  935MPD2    H113679   1.737   2.938   1.815 -0.3691  0.8180  0.0775
  935MPD2    H213680   2.136   2.871   1.691 -0.6463 -0.9080  1.4955
  935MPD2    H313681   1.942   2.828   1.840  0.9477 -0.0291  0.3577
  935MPD2     N13682   1.662   3.105   1.619  0.1396  0.6187  0.3676
  935MPD2    H513683   1.592   3.063   1.680 -0.0741 -0.3015 -0.5214
  935MPD2    N113684   2.117   3.041   1.479  0.3350 -0.0498  0.4128
  935MPD2    H713685   2.079   3.093   1.401  0.6267  2.6995  2.0748
  936MPD2     C13686   1.768   0.255  12.408 -0.1638 -0.6803 -0.6100
  936MPD2    C113687   1.749   0.322  12.522 -0.0813  0.0516  1.1360
  936MPD2    C213688   1.846   0.407  12.566  0.2302 -0.5639  0.1620
  936MPD2    C313689   1.966   0.420  12.495 -0.4925 -0.1899 -0.3186
  936MPD2    C413690   1.979   0.353  12.373  0.3777 -0.4177 -0.3169
  936MPD2    C513691   1.878   0.272  12.327 -0.3012  0.5361  0.7526
  936MPD2     H13692   1.831   0.445  12.666  0.1668 -0.5711  0.1555
  936MPD2    H113693   2.075   0.358  12.323  0.5509  1.3040  0.1953
  936MPD2    H213694   1.696   0.180  12.377 -0.4619 -1.2035  1.3567
  936MPD2    H313695   1.882   0.218  12.233 -2.0856  2.2524 -0.3126
  936MPD2     N13696   2.066   0.489  12.560 -0.0542  0.1361 -0.0065
  936MPD2    H513697   2.046   0.544  12.644  2.3154  0.6883  0.1866
  936MPD2    N113698   1.635   0.322  12.603  0.7687  0.4631 -0.3006
  936MPD2    H713699   1.639   0.378  12.688  0.7606 -0.3215  0.2191
  937MPD2     C13700   0.058   1.866  11.852  0.4871  0.2960 -1.0839
  937MPD2    C113701   0.091   1.994  11.818 -1.0718  0.0534  0.4019
  937MPD2    C213702   0.130   2.016  11.684  0.4616 -0.3588  1.1517
  937MPD2    C313703   0.148   1.914  11.596 -0.6874 -0.1044 -0.0766
  937MPD2    C413704   0.134   1.784  11.643 -0.1952 -0.0377  0.3547
  937MPD2    C513705   0.095   1.761  11.767  0.5930 -0.0139  0.3345
  937MPD2     H13706   0.128   2.117  11.645 -1.5312 -0.1699  1.7713
  937MPD2    H113707   0.164   1.695  11.588  0.8401  1.0735 -0.8608
  937MPD2    H213708   0.008   1.842  11.945  0.7465  1.3365 -0.6693
  937MPD2    H313709   0.086   1.657  11.794 -1.0807 -0.3754 -1.6087
  937MPD2     N13710   0.199   1.952  11.471 -0.4115  0.1674 -0.0458
  937MPD2    H513711   0.211   2.050  11.445  1.7450 -0.5566 -1.7248
  937MPD2    N113712   0.045   2.106  11.892 -0.4724  0.0152  0.1407
  937MPD2    H713713   0.063   2.197  11.852  1.3386  0.3015  1.6218
  938MPD2     C13714   1.038   3.425   0.506 -0.4028  0.0560 -0.0327
  938MPD2    C113715   1.126   3.436   0.616  0.0703 -0.3747  0.2322
  938MPD2    C213716   1.136   3.314   0.689  0.4903 -0.8081  0.0670
  938MPD2    C313717   1.060   3.198   0.666  0.1565  0.6248  0.1614
  938MPD2    C413718   0.979   3.200   0.555  0.0151  0.0670  0.0482
  938MPD2    C513719   0.972   3.307   0.473  0.1903 -0.1456  0.2791
  938MPD2     H13720   1.202   3.322   0.775 -0.3627 -1.4255  0.7720
  938MPD2    H113721   0.919   3.113   0.532 -1.7189  1.7401 -1.7167
  938MPD2    H213722   1.026   3.508   0.437 -0.9624 -0.4040 -0.4763
  938MPD2    H313723   0.915   3.300   0.381  0.8796  0.2323 -0.1845
  938MPD2     N13724   1.064   3.077   0.735  0.7879  0.5734  0.2540
  938MPD2    H513725   0.995   3.009   0.704  1.2531 -0.3358  1.2090
  938MPD2    N113726   1.200   3.552   0.657  0.4578  0.2193 -0.3998
  938MPD2    H713727   1.264   3.532   0.733 -0.5078  0.1862  0.3923
  939MPD2     C13728   3.621   0.269   1.065 -0.4770  0.0763 -0.0299
  939MPD2    C113729   3.625   0.147   1.123  0.2097  0.3139  0.1439
  939MPD2    C213730   3.715   0.054   1.072  0.4778  0.1798  0.1792
  939MPD2    C313731   3.789   0.075   0.962  0.4332 -0.2652  0.3824
  939MPD2    C413732   3.788   0.207   0.911  0.2904 -0.1130  0.2181
  939MPD2    C513733   3.706   0.302   0.969  0.0934  0.7308  0.3006
  939MPD2     H13734   3.723   4.686   1.127 -3.8732  0.0643  0.5763
  939MPD2    H113735   3.863   0.233   0.837  0.8190 -2.1649  0.0346
  939MPD2    H213736   3.552   0.344   1.104  0.5778  0.7030  0.6503
  939MPD2    H313737   3.710   0.406   0.937  2.4010  0.5238 -0.0899
  939MPD2     N13738   3.863   4.689   0.915  0.3005 -0.1640 -0.4160
  939MPD2    H513739   3.873   4.609   0.976  0.0386  0.2807  0.2126
  939MPD2    N113740   3.531   0.122   1.230 -0.4457  0.7118 -0.5593
  939MPD2    H713741   3.459   0.190   1.251 -0.6037  0.0614  1.0532
  940MPD2     C13742   2.657   1.024  12.973  0.0807  1.2654 -0.3130
  940MPD2    C113743   2.584   0.909  12.993  0.4243 -0.2209  0.0437
  940MPD2    C213744   2.618   0.793  12.917  0.2404  0.0644  0.4998
  940MPD2    C313745   2.726   0.805  12.830 -0.5743  0.9278  0.1837
  940MPD2    C413746   2.786   0.925  12.804 -0.0904  0.4904  1.1212
  940MPD2    C513747   2.761   1.036  12.884  0.3845  0.5683 -0.5890
  940MPD2     H13748   2.557   0.706  12.940  0.4772  0.0740  1.1485
  940MPD2    H113749   2.867   0.936  12.733 -1.1618  2.0751  0.1430
  940MPD2    H213750   2.632   1.116  13.025  1.7565  2.1655 -1.1095
  940MPD2    H313751   2.817   1.128  12.871  1.7111  0.1410  2.2999
  940MPD2     N13752   2.779   0.697  12.758 -0.2743 -0.2670 -0.7167
  940MPD2    H513753   2.874   0.717  12.729  0.7953 -2.6963  1.1100
  940MPD2    N113754   2.474   0.891  13.079  0.1783 -0.6483  0.0429
  940MPD2    H713755   2.431   0.799  13.085 -0.9287 -0.2274 -1.3613
  941MPD2     C13756   1.224   4.119   9.374 -0.1146  0.4524  0.1886
  941MPD2    C113757   1.300   4.101   9.488 -0.1906 -0.6347 -0.0033
  941MPD2    C213758   1.243   4.033   9.594  0.1437 -0.1295 -0.3767
  941MPD2    C313759   1.120   3.969   9.585  0.1366 -0.0957  0.2095
  941MPD2    C413760   1.042   3.996   9.467  0.6281 -0.0986 -0.7014
  941MPD2    C513761   1.098   4.061   9.361  0.1339  0.0319  0.5602
  941MPD2     H13762   1.292   4.035   9.690  1.5294 -3.6895 -1.0147
  941MPD2    H113763   0.940   3.962   9.460  0.4589  0.3652 -0.5413
  941MPD2    H213764   1.268   4.175   9.292  0.9913  1.2269  1.3058
  941MPD2    H313765   1.043   4.080   9.269 -1.0999  2.9699  1.9195
  941MPD2     N13766   1.068   3.884   9.685  0.0355  0.4103 -0.3620
  941MPD2    H513767   0.969   3.862   9.690  0.6016 -2.3275 -1.2430
  941MPD2    N113768   1.425   4.158   9.518  0.2834 -0.1803  0.0897
  941MPD2    H713769   1.463   4.135   9.609  0.5476  2.0794  0.5394
  942MPD2     C13770   0.639   1.434   9.162 -0.0594 -0.6104  0.3854
  942MPD2    C113771   0.714   1.473   9.268  0.3614 -0.6177 -1.2888
  942MPD2    C213772   0.815   1.393   9.307 -0.0922 -0.5271 -0.2458
  942MPD2    C313773   0.847   1.270   9.250 -0.3929  0.6053  0.1269
  942MPD2    C413774   0.764   1.228   9.148 -0.3990 -0.1026  0.0175
  942MPD2    C513775   0.665   1.311   9.107  0.0003 -0.0066 -1.3935
  942MPD2     H13776   0.877   1.431   9.387 -1.2907 -1.6016  1.2051
  942MPD2    H113777   0.772   1.137   9.091  0.5256 -0.8642  1.3592
  942MPD2    H213778   0.559   1.498   9.126 -0.4639 -0.8144  0.9141
  942MPD2    H313779   0.595   1.276   9.032 -1.1760  1.2555 -0.8646
  942MPD2     N13780   0.952   1.191   9.288  0.6873 -0.0564  0.0337
  942MPD2    H513781   0.961   1.106   9.233 -2.7132 -0.4391  0.0819
  942MPD2    N113782   0.709   1.598   9.335  0.4589 -0.1884 -0.8195
  942MPD2    H713783   0.761   1.604   9.422  1.4438  2.6818 -1.6119
  943MPD2     C13784   0.236   4.224   9.842  0.1661 -0.6839 -0.4119
  943MPD2    C113785   0.280   4.241   9.973 -0.4904 -0.4986  0.2096
  943MPD2    C213786   0.395   4.319   9.992 -0.2126 -0.4832  0.7919
  943MPD2    C313787   0.451   4.388   9.881 -0.8839 -0.0428  0.0269
  943MPD2    C413788   0.397   4.380   9.758 -0.7488 -0.4165  0.1272
  943MPD2    C513789   0.291   4.297   9.740 -0.1537  0.2609 -0.1561
  943MPD2     H13790   0.450   4.314  10.085 -1.8049 -1.1652  1.6853
  943MPD2    H113791   0.430   4.432   9.669  0.4723 -1.2186  0.1182
  943MPD2    H213792   0.152   4.162   9.813  0.6283 -1.8713  0.7941
  943MPD2    H313793   0.244   4.284   9.643 -1.4975  1.0505  0.3972
  943MPD2     N13794   0.571   4.465   9.889  0.0237 -0.2955 -0.0238
  943MPD2    H513795   0.607   4.486   9.797 -0.2428  0.7798  0.1092
  943MPD2    N113796   0.210   4.188  10.087 -0.0663  0.9340  0.3413
  943MPD2    H713797   0.143   4.115  10.066  0.1703  1.3629 -1.9499
  944MPD2     C13798   0.078   3.211  10.847  0.2388 -0.3137 -0.5016
  944MPD2    C113799   0.089   3.341  10.807  0.2241  0.4323 -0.0774
  944MPD2    C213800   0.072   3.439  10.901  0.1147 -0.0007 -0.4370
  944MPD2    C313801   0.046   3.404  11.035 -0.4345 -0.5713 -0.1601
  944MPD2    C413802   0.024   3.276  11.075 -0.2853 -0.4542 -0.5060
  944MPD2    C513803   0.036   3.181  10.978 -0.3935  0.1507  0.4620
  944MPD2     H13804   0.092   3.542  10.877  1.6729 -0.8074 -2.5815
  944MPD2    H113805   4.722   3.250  11.176  0.4508  2.2559  0.3806
  944MPD2    H213806   0.085   3.133  10.771  0.7237 -0.1222 -0.6558
  944MPD2    H313807   0.020   3.079  11.009 -0.5906 -0.2609 -0.9649
  944MPD2     N13808   0.044   3.509  11.132 -0.1024 -0.7913 -0.4345
  944MPD2    H513809   0.063   3.600  11.091 -0.7101  0.6013  2.3966
  944MPD2    N113810   0.124   3.371  10.671  0.4318 -0.2419  1.0774
  944MPD2    H713811   0.146   3.294  10.609 -0.6130 -0.5292  1.0751
    1TCq1    O113812   2.509   4.021  14.215  0.0698 -0.0471 -0.2955
    1TCq1    C113813   2.477   4.145  14.261  0.1785 -0.0106 -0.4274
    1TCq1    O213814   2.431   4.244  14.204 -0.5287  0.2780 -0.4104
    1TCq1    C213815   2.506   4.149  14.399  0.3159 -1.1382 -0.0811
    1TCq1    C313816   2.543   4.031  14.470  0.0112 -0.6716  0.7019
    1TCq1    C413817   2.587   4.050  14.598 -0.0462 -0.5753  0.3311
    1TCq1    C513818   2.592   4.171  14.660 -0.4027 -0.5509 -1.1912
    1TCq1    C613819   2.541   4.276  14.587  0.6524  0.9465  0.3811
    1TCq1    C713820   2.497   4.272  14.457  1.3005 -0.0399 -0.4210
    1TCq1    C813821   2.537   4.408  14.659  0.7759  0.2407 -0.2246
    1TCq1    O413822   2.518   4.399  14.778 -0.1625  1.1382 -0.2638
    1TCq1    C913823   2.629   3.922  14.669 -1.0035 -0.2141 -0.4574
    1TCq1    O513824   2.598   3.812  14.619 -0.1533  0.5509  0.3276
    1TCq1    O613825   2.690   3.945  14.776 -0.3153  0.1432 -0.1258
    1TCq1    H113826   2.546   3.959  14.283  2.6903  2.2139  0.3483
    1TCq1    H213827   2.537   3.933  14.425 -0.4309 -1.5354  2.6273
    1TCq1    H313828   2.623   4.188  14.762 -0.7027 -3.1250 -0.6817
    1TCq1    H413829   2.467   4.363  14.407  2.9196  0.2159 -0.9016
    2MPD2     C13830   2.664   0.173  14.709 -0.2455  0.3455  0.6068
    2MPD2    C113831   2.639   0.152  14.573  0.6852 -0.0447 -0.0889
    2MPD2    C213832   2.617   0.019  14.536 -0.0291  0.4160 -0.0643
    2MPD2    C313833   2.605   4.639  14.624 -0.2414 -0.6725 -0.3216
    2MPD2    C413834   2.619   4.669  14.756 -0.5610 -0.7509  0.1670
    2MPD2    C513835   2.661   0.070  14.797  0.6106  0.2766  0.8303
    2MPD2     H13836   2.596   4.715  14.434  1.9345  2.0268 -0.9261
    2MPD2    H113837   2.602   4.591  14.830  1.5766  0.4440  1.9174
    2MPD2    H213838   2.698   0.271  14.741 -0.6049  0.5411  0.3902
    2MPD2    H313839   2.679   0.085  14.902 -0.7888 -0.5243  1.1833
    2MPD2     N13840   2.562   4.516  14.577  0.0825  0.1850 -0.5703
    2MPD2    H513841   2.548   4.496  14.479 -0.2524  0.4944 -0.5868
    2MPD2    N113842   2.667   0.258  14.484 -1.1262 -0.5729  0.8467
    2MPD2    H713843   2.724   0.333  14.521  1.0465 -1.3112 -1.0094
    3TMC2    C113844   2.681   0.370  14.283  0.2523  0.0629  0.1447
    3TMC2    C213845   2.722   0.483  14.346  0.9699  0.0244  0.5803
    3TMC2    C313846   2.782   0.587  14.270  0.6675 -0.7007  0.5077
    3TMC2    C413847   2.685   0.366  14.147  0.3330 -0.2246 -0.4015
    3TMC2    C513848   2.729   0.478  14.076  0.2210  0.2130  0.1613
    3TMC2    C613849   2.784   0.585  14.131  0.4347  0.5724 -0.6963
    3TMC2     C13850   2.627   0.260  14.353  0.7047  0.2654  0.4843
    3TMC2     O13851   2.579   0.174  14.280  0.4989  0.1851 -0.1484
    3TMC2     H13852   2.698   0.493  14.451  2.9557 -4.1740  1.4346
    3TMC2    H113853   2.671   0.275  14.090  0.4922  0.8453 -2.1487
    3TMC2    H213854   2.834   0.651  14.062 -0.8457  2.8396  0.5308
    3TMC2    C713855   2.765   0.455  13.935  0.0712 -0.2743  0.2658
    3TMC2    C813856   2.847   0.698  14.339  0.5895 -0.1357 -0.1112
    3TMC2    O113857   2.794   0.345  13.892 -0.8023  0.9060 -0.4575
    3TMC2    O213858   2.882   0.790  14.272 -0.1437 -0.0072  0.1668
    3TMC2    O513859   2.898   0.655  14.455 -0.0183 -0.0271 -0.1741
    3TMC2    H513860   2.859   0.574  14.495  0.7013 -0.2254  0.1131
    4MPD2     C13861   2.184   1.631  13.178 -0.6171  0.4687 -0.1220
    4MPD2    C113862   2.158   1.495  13.162 -0.5606 -0.1651 -0.6198
    4MPD2    C213863   2.264   1.402  13.183 -0.3593  0.3070 -0.3400
    4MPD2    C313864   2.392   1.446  13.227  0.0113  0.0085 -0.1894
    4MPD2    C413865   2.414   1.580  13.248  0.0045 -0.8691  0.0293
    4MPD2    C513866   2.308   1.667  13.220  0.3917  0.3139 -0.2691
    4MPD2     H13867   2.251   1.295  13.165  1.3019 -0.1308  1.0658
    4MPD2    H113868   2.496   1.630  13.298 -1.6531  1.4297  0.4802
    4MPD2    H213869   2.112   1.711  13.166 -0.7499  0.0932 -1.7526
    4MPD2    H313870   2.328   1.768  13.254 -1.1495  0.5731 -0.1505
    4MPD2     N13871   2.498   1.353  13.250  0.6735 -0.2414  0.5562
    4MPD2    H513872   2.479   1.259  13.217  0.8196 -0.3968  0.9082
    4MPD2    N113873   2.024   1.458  13.129  0.3663  0.4555  0.3143
    4MPD2    H713874   1.964   1.538  13.113  1.3017  0.9651 -0.6655
    5TCq2    C113875   2.628   1.392  13.284 -0.7082 -0.5963 -0.1141
    5TCq2    O213876   2.678   1.502  13.300 -0.2187  0.3493 -0.7810
    5TCq2    C213877   2.712   1.279  13.289 -0.3042  0.3768  0.1019
    5TCq2    C313878   2.847   1.289  13.268 -0.1836 -0.0690 -1.1961
    5TCq2    C413879   2.930   1.188  13.302  0.0928  0.1428 -0.8296
    5TCq2    C513880   2.882   1.077  13.361  0.0518  0.1622 -0.7424
    5TCq2    C613881   2.743   1.062  13.384  0.4934 -0.5216  0.1946
    5TCq2    C713882   2.658   1.168  13.354  0.0390  0.1562 -0.3897
    5TCq2    C813883   2.700   0.959  13.478 -0.2505  0.1484 -0.4190
    5TCq2    O413884   2.615   0.988  13.565  0.3015 -0.2923  0.1286
    5TCq2    C913885   3.064   1.208  13.277  0.3485 -0.5729 -0.2463
    5TCq2    O513886   3.145   1.117  13.317  0.2649  0.8866  0.2694
    5TCq2    O613887   3.097   1.318  13.231  0.1164 -0.3048 -0.7732
    5TCq2    H213888   2.884   1.384  13.231  1.1675 -0.6979 -1.4653
    5TCq2    H313889   2.955   1.006  13.399 -1.3317 -1.5704 -1.3268
    5TCq2    H413890   2.556   1.157  13.389  0.2977  0.2362  0.3955
    6MPD1     C13891   2.183   1.575  11.479  0.4089 -0.5986 -0.3304
    6MPD1    C113892   2.222   1.681  11.556  0.2506  0.5134  0.7077
    6MPD1    C213893   2.257   1.662  11.686  0.5671  0.5200 -0.4700
    6MPD1    C313894   2.274   1.536  11.741 -0.6978 -0.2663 -0.0773
    6MPD1    C413895   2.239   1.430  11.667  0.1457  0.8554  0.1497
    6MPD1    C513896   2.200   1.448  11.537 -0.1544  0.1887  0.0377
    6MPD1     H13897   2.266   1.753  11.744  0.3596  0.0813  0.2415
    6MPD1    H113898   2.256   1.329  11.703 -1.2778  1.2372  1.8703
    6MPD1    H213899   2.153   1.582  11.375  0.7439 -1.9019 -0.5129
    6MPD1    H313900   2.171   1.375  11.462  2.0240 -1.9162  1.2480
    6MPD1     N13901   2.306   1.511  11.873 -0.2760 -0.1276 -0.4215
    6MPD1    H513902   2.308   1.415  11.906 -1.7295 -0.1199 -0.2939
    6MPD1    N113903   2.242   1.812  11.502 -0.2855  0.3031 -0.0329
    6MPD1    H613904   2.198   1.827  11.411 -0.2475  0.6129 -0.0016
    6MPD1    H713905   2.343   1.825  11.494  0.1346 -0.2287  4.3167
    7MPD2     C13906   2.317   1.756  12.703  0.4868 -0.3309 -0.0515
    7MPD2    C113907   2.239   1.674  12.621  0.2223  0.1432  0.0247
    7MPD2    C213908   2.120   1.632  12.669  0.3415 -0.1873  0.0435
    7MPD2    C313909   2.068   1.669  12.792  0.1576 -0.3511  0.5668
    7MPD2    C413910   2.137   1.772  12.863 -0.3446  0.1520  0.0309
    7MPD2    C513911   2.262   1.812  12.818  0.5478 -0.0144 -0.4092
    7MPD2     H13912   2.052   1.577  12.605 -0.5801  0.5666  0.3726
    7MPD2    H113913   2.110   1.822  12.956  1.4976  1.3461 -0.0883
    7MPD2    H213914   2.416   1.785  12.671  0.4368 -0.2538 -0.1351
    7MPD2    H313915   2.329   1.873  12.878  1.3062 -2.3624  1.1128
    7MPD2     N13916   1.936   1.628  12.840 -0.4318  0.2845  0.3562
    7MPD2    H513917   1.900   1.679  12.920 -0.3121  1.0842 -0.1010
    7MPD2    N113918   2.284   1.623  12.497  0.2993 -0.1825 -0.2106
    7MPD2    H713919   2.233   1.552  12.445 -1.9944  1.4177 -0.2012
    8TMC3    C113920   1.760   1.462  12.865  0.2437 -0.9639  0.3254
    8TMC3    C213921   1.801   1.453  12.996  0.2156  0.5476  0.7030
    8TMC3    C313922   1.843   1.336  13.046 -0.1336 -0.0936  0.8359
    8TMC3    C413923   1.722   1.345  12.802  1.4295  0.6564 -0.6047
    8TMC3    C513924   1.753   1.227  12.859  0.0409 -0.1193 -0.9353
    8TMC3    C613925   1.820   1.217  12.980 -0.5634 -0.0136 -0.0856
    8TMC3     C13926   1.851   1.544  12.776 -0.3242  0.3737 -0.2880
    8TMC3     O13927   1.862   1.485  12.672 -0.2183  0.0110  0.1655
    8TMC3     H13928   1.819   1.544  13.052  2.4766  0.8777 -0.5340
    8TMC3    H113929   1.696   1.350  12.697 -0.7209  1.6087 -0.0174
    8TMC3    H213930   1.837   1.124  13.032 -0.0210  2.1712  3.6755
    8TMC3    C713931   1.803   1.124  12.780 -0.5703  0.8272  0.4250
    8TMC3    C813932   1.970   1.333  13.116  0.8942  0.1695  0.3653
    8TMC3    O113933   1.801   1.009  12.822  0.5222  0.2573  0.2254
    8TMC3    O213934   2.024   1.230  13.152  0.6894  0.0876  0.7322
    9TMC3    C113935   2.391   1.539  12.089 -0.0300  0.7386 -0.0770
    9TMC3    C213936   2.375   1.398  12.103 -0.5105 -0.1227 -0.0944
    9TMC3    C313937   2.374   1.354  12.232 -0.1558  0.6748  0.6885
    9TMC3    C413938   2.417   1.620  12.198  0.7658 -0.5298 -0.6956
    9TMC3    C513939   2.414   1.559  12.324 -0.0793 -0.4066 -0.4048
    9TMC3    C613940   2.388   1.426  12.347  0.1165  0.2156  0.5591
    9TMC3     C13941   2.349   1.606  11.968  0.1421 -0.5274  0.3648
    9TMC3     O13942   2.359   1.725  11.960 -0.5758  0.5832  0.1835
    9TMC3     H13943   2.345   1.326  12.028 -0.0060 -1.2514  0.7878
    9TMC3    H113944   2.427   1.727  12.189  0.9606 -0.3616  1.7298
    9TMC3    H213945   2.384   1.389  12.449  0.1189  0.3002  0.5904
    9TMC3    C713946   2.398   1.651  12.432  0.4469 -0.2042 -0.8667
    9TMC3    C813947   2.310   1.230  12.254  0.0075 -1.0324  0.6208
    9TMC3    O113948   2.470   1.749  12.438 -0.4330  0.2700  0.0488
    9TMC3    O213949   2.341   1.126  12.193  0.2652 -0.1348 -0.0379
   10MPD2     C13950   1.992   0.987  12.583 -0.0875 -0.1062 -0.1258
   10MPD2    C113951   1.956   1.117  12.573  0.8943  0.3034  0.2061
   10MPD2    C213952   2.031   1.205  12.502  0.2332 -0.4897  0.9169
   10MPD2    C313953   2.134   1.156  12.415 -0.7747 -0.5075  1.0399
   10MPD2    C413954   2.156   1.020  12.404  0.5251  0.7743 -0.0735
   10MPD2    C513955   2.085   0.942  12.490 -0.1427 -0.1649  0.0735
   10MPD2     H13956   2.009   1.309  12.520  0.6818 -0.5209  1.6486
   10MPD2    H113957   2.219   0.966  12.334 -0.6448 -0.9095  0.1861
   10MPD2    H213958   1.940   0.931  12.660 -0.6922  1.0595  0.3097
   10MPD2    H313959   2.112   0.837  12.490 -1.4615 -0.4987  0.9808
   10MPD2     N13960   2.216   1.250  12.357 -0.0985  0.0935 -0.2795
   10MPD2    H513961   2.180   1.345  12.363 -1.4541 -0.3843 -0.9084
   10MPD2    N113962   1.870   1.178  12.674 -0.7020  0.2339  0.2109
   10MPD2    H713963   1.866   1.278  12.663  3.3181  0.4512  1.0982
   11MPD2     C13964   2.778   0.463  13.626  0.0159 -0.4563  0.1560
   11MPD2    C113965   2.737   0.572  13.711  0.7245  0.4524 -0.3617
   11MPD2    C213966   2.713   0.698  13.658  0.0554  0.4238  0.0714
   11MPD2    C313967   2.756   0.723  13.527  0.0995 -0.2388  0.2272
   11MPD2    C413968   2.821   0.624  13.460  0.5460 -0.2460 -0.7038
   11MPD2    C513969   2.827   0.492  13.503  0.6887  0.9628  0.6951
   11MPD2     H13970   2.674   0.768  13.730 -0.2400  1.1517 -0.7933
   11MPD2    H113971   2.869   0.644  13.364 -1.6603  2.2271 -1.2716
   11MPD2    H213972   2.771   0.361  13.662 -0.1646 -0.1970  0.8641
   11MPD2    H313973   2.878   0.413  13.449 -1.9028 -1.9644  2.4711
   11MPD2     N13974   2.765   0.844  13.457 -0.2445  0.1526  0.2845
   11MPD2    H513975   2.815   0.850  13.369 -1.3134  0.0514 -0.3347
   11MPD2    N113976   2.724   0.559  13.853  0.8166 -0.1440 -0.8062
   11MPD2    H713977   2.687   0.645  13.893 -0.7976 -1.0942 -0.2461
    1MPD1     C13978   0.432   1.830  17.058  0.3339 -0.0904  0.3057
    1MPD1    C113979   0.455   1.733  17.150  0.2141  0.0017 -0.6047
    1MPD1    C213980   0.586   1.687  17.181  0.0082 -0.7469  0.1113
    1MPD1    C313981   0.690   1.742  17.117  0.1133 -0.3391  0.0977
    1MPD1    C413982   0.666   1.840  17.021  0.7789 -0.1164 -0.1955
    1MPD1    C513983   0.538   1.885  16.992 -0.2556  0.3840  0.1187
    1MPD1     H13984   0.608   1.603  17.246 -0.3499  0.1717  1.4327
    1MPD1    H113985   0.751   1.880  16.967  2.7235  1.4260  4.0198
    1MPD1    H213986   0.334   1.873  17.040  0.3445 -1.0460 -2.0631
    1MPD1    H313987   0.523   1.951  16.908 -0.3540 -2.8941 -2.4577
    1MPD1     N13988   0.828   1.706  17.141  0.3004 -0.0035  0.4778
    1MPD1    H513989   0.896   1.745  17.076 -0.4947  0.4598 -0.0800
    1MPD1    N113990   0.347   1.692  17.224  0.5049  0.2479 -0.5890
    1MPD1    H613991   0.258   1.686  17.176  1.0868 -2.1458 -1.3992
    1MPD1    H713992   0.368   1.604  17.269  1.8152 -0.0866 -1.8356
    2MPD1     C13993   1.636   1.135  17.631 -0.1864  0.3482  0.1713
    2MPD1    C113994   1.683   1.258  17.594 -0.1645 -0.3244 -0.6848
    2MPD1    C213995   1.594   1.335  17.528  0.0121 -0.3203  0.7142
    2MPD1    C313996   1.463   1.287  17.501 -0.4801  0.0904 -0.8523
    2MPD1    C413997   1.419   1.170  17.549 -0.1392  0.3417 -0.6128
    2MPD1    C513998   1.508   1.096  17.624 -0.5147  0.5273 -0.1678
    2MPD1     H13999   1.626   1.436  17.506 -2.2628  0.3030  0.2565
    2MPD1    H114000   1.319   1.133  17.532 -0.1943 -0.0668  0.5941
    2MPD1    H214001   1.707   1.073  17.683 -0.4602  0.7482  1.0209
    2MPD1    H314002   1.472   0.999  17.659 -0.0492  0.8799  1.2857
    2MPD1     N14003   1.388   1.383  17.427 -0.7536  0.0166 -0.6170
    2MPD1    H514004   1.438   1.470  17.411 -3.1900  1.2101 -1.7386
    2MPD1    N114005   1.814   1.298  17.609  0.7772 -0.1610  0.4385
    2MPD1    H614006   1.826   1.399  17.605  0.7505 -0.1583  0.4275
    2MPD1    H714007   1.870   1.249  17.678 -0.2106 -1.3193  0.4232
    3TMC3    C114008   1.208   1.487  17.313  0.9569 -0.0089 -0.3177
    3TMC3    C214009   1.296   1.564  17.243 -0.1951  0.0830  0.5315
    3TMC3    C314010   1.242   1.673  17.172  0.0787  0.1466  0.5023
    3TMC3    C414011   1.071   1.495  17.301 -0.1105  0.5207 -0.3978
    3TMC3    C514012   1.023   1.592  17.221 -0.3228  0.2840  0.1673
    3TMC3    C614013   1.103   1.676  17.152 -0.2263  0.4994 -0.1108
    3TMC3     C14014   1.251   1.375  17.398 -0.2956 -0.7127 -0.0413
    3TMC3     O14015   1.176   1.278  17.409  0.3584  0.5186  0.2358
    3TMC3     H14016   1.402   1.572  17.262 -0.1158 -0.9210  0.5140
    3TMC3    H114017   1.003   1.422  17.342  0.9625 -0.8771 -1.0923
    3TMC3    H214018   1.064   1.775  17.130 -0.3284  0.7139  1.0199
    3TMC3    C714019   0.877   1.615  17.236  0.5187 -0.3416  0.4187
    3TMC3    C814020   1.332   1.757  17.098  0.6213  0.1177  0.3277
    3TMC3    O114021   0.819   1.540  17.318 -0.3733  0.0007  0.3341
    3TMC3    O214022   1.449   1.723  17.084  0.2492 -0.2546  0.4703
    4MPD1     C14023   1.429   2.105  16.732 -0.0740 -0.1493 -0.1877
    4MPD1    C114024   1.303   2.129  16.779 -0.3071 -0.1740  0.2820
    4MPD1    C214025   1.258   2.051  16.880 -0.3620 -0.5025  0.0084
    4MPD1    C314026   1.334   1.955  16.942  0.2935  0.0334 -0.5796
    4MPD1    C414027   1.467   1.945  16.909  0.0976 -0.0369  0.2001
    4MPD1    C514028   1.506   2.016  16.798  0.1476  0.2348  0.1151
    4MPD1     H14029   1.156   2.067  16.915 -1.2322 -3.9077 -0.9315
    4MPD1    H114030   1.531   1.875  16.961  2.3564  0.0913 -2.4018
    4MPD1    H214031   1.475   2.164  16.654  0.8908 -0.1970  0.3418
    4MPD1    H314032   1.605   1.997  16.760  0.0069 -0.3001  0.0142
    4MPD1     N14033   1.272   1.871  17.043  0.3731 -0.2321 -0.0552
    4MPD1    H514034   1.174   1.880  17.068 -0.1566  0.2990 -2.3509
    4MPD1    N114035   1.215   2.206  16.703  0.1849  0.0655 -0.5393
    4MPD1    H614036   1.248   2.274  16.634  0.2388  0.2504 -0.3322
    4MPD1    H714037   1.136   2.245  16.754 -0.1535  2.1516 -2.6563
    1TCq1    O114038   2.064   1.698  12.274 -0.0994 -0.8678 -0.0105
    1TCq1    C114039   2.012   1.585  12.325 -0.4502 -0.2452  0.1831
    1TCq1    O214040   2.082   1.491  12.358  0.0125 -0.2798 -0.5100
    1TCq1    C214041   1.897   1.576  12.240  0.1737  0.0612  0.0370
    1TCq1    C314042   1.791   1.514  12.303 -0.4907  0.1083 -0.0510
    1TCq1    C414043   1.704   1.455  12.221 -0.1973 -0.0966 -0.6277
    1TCq1    C514044   1.722   1.455  12.088  0.9382 -0.1188 -0.5493
    1TCq1    C614045   1.828   1.515  12.026  0.5500 -0.1568  0.3062
    1TCq1    C714046   1.915   1.584  12.103 -0.1624  0.2948 -0.1097
    1TCq1    C814047   1.842   1.528  11.880  0.4017  0.8421 -0.0145
    1TCq1    O414048   1.891   1.636  11.844  0.0647 -0.5272  0.2333
    1TCq1    C914049   1.635   1.341  12.277  0.6498  0.3506 -0.6876
    1TCq1    O514050   1.623   1.241  12.200  0.4539 -0.9439  0.1522
    1TCq1    O614051   1.613   1.339  12.400  0.1131  0.0228 -0.2796
    1TCq1    H114052   1.997   1.761  12.241 -0.3629 -0.9197  0.4268
    1TCq1    H214053   1.799   1.488  12.408  2.0786  1.6427  0.1324
    1TCq1    H314054   1.653   1.396  12.028  0.6238  0.1522 -0.4543
    1TCq1    H414055   2.005   1.615  12.050 -0.9452  0.6846 -1.2281
    2MPD1     C14056   1.698   1.443  11.400  0.7163  0.2652  0.2536
    2MPD1    C114057   1.608   1.382  11.483 -0.2814 -0.0472  0.1312
    2MPD1    C214058   1.643   1.368  11.615 -0.0218 -1.0317  0.0685
    2MPD1    C314059   1.748   1.440  11.671 -0.9558  0.7270  0.4046
    2MPD1    C414060   1.824   1.520  11.589  0.1459  0.3231  0.5948
    2MPD1    C514061   1.799   1.520  11.453  0.5528 -0.1393 -0.3507
    2MPD1     H14062   1.568   1.331  11.684  0.2342 -1.6160  0.0354
    2MPD1    H114063   1.906   1.580  11.627  0.7741 -0.0652 -0.1488
    2MPD1    H214064   1.678   1.458  11.295 -0.2857  0.7575  0.5077
    2MPD1    H314065   1.850   1.592  11.390  0.6645  0.8299  0.8384
    2MPD1     N14066   1.765   1.439  11.809 -0.3783  0.1070 -0.1191
    2MPD1    H514067   1.719   1.368  11.865 -1.7904  2.1693  1.3202
    2MPD1    N114068   1.501   1.316  11.436  0.1690 -0.1174 -0.6199
    2MPD1    H614069   1.479   1.340  11.340  2.3089 -0.8468 -1.2792
    2MPD1    H714070   1.417   1.312  11.494  1.0089 -0.1445  0.5954
    1TCq1    O114071   2.453   0.608   1.929 -0.4943  0.0355  0.3237
    1TCq1    C114072   2.381   0.601   1.814  0.0073  0.2747 -0.6477
    1TCq1    O214073   2.411   0.515   1.732  0.4191 -0.1890  0.5154
    1TCq1    C214074   2.248   0.630   1.860 -0.6072  0.2100 -0.3200
    1TCq1    C314075   2.210   0.743   1.920 -0.8322  0.1847 -0.8265
    1TCq1    C414076   2.082   0.763   1.969  0.4942 -0.2778  0.3166
    1TCq1    C514077   1.987   0.682   1.923  0.0727  0.3222 -0.0744
    1TCq1    C614078   2.024   0.577   1.840 -0.4051 -0.6624  0.0885
    1TCq1    C714079   2.153   0.534   1.823  0.2576 -0.1763  0.0473
    1TCq1    C814080   1.932   0.473   1.809 -0.2283 -0.4661  0.4162
    1TCq1    O414081   1.976   0.358   1.812  0.3894 -0.2452  0.0283
    1TCq1    C914082   2.038   0.894   2.014  0.4427  0.3500  0.4428
    1TCq1    O514083   1.936   0.902   2.091 -0.0280  0.2329 -1.0856
    1TCq1    O614084   2.108   0.995   1.996  0.2501 -0.3228 -0.1806
    1TCq1    H114085   2.410   0.649   2.007 -0.1206 -1.7041  1.4524
    1TCq1    H214086   2.287   0.814   1.945 -1.7895  0.5919  0.9501
    1TCq1    H314087   1.884   0.705   1.945  0.4564  0.9813  1.0516
    1TCq1    H414088   2.177   0.444   1.767  1.4918  0.3047 -0.1951
    2MPD1     C14089   1.453   0.288   1.766 -0.3514  0.3574  0.0880
    2MPD1    C114090   1.450   0.424   1.733  0.3468  0.7128  0.4088
    2MPD1    C214091   1.569   0.496   1.753  0.0022 -0.4544  0.2478
    2MPD1    C314092   1.688   0.440   1.794 -0.1160 -0.0142 -0.0728
    2MPD1    C414093   1.685   0.303   1.836 -0.3470  0.7666 -0.4703
    2MPD1    C514094   1.565   0.233   1.820  0.6711 -0.1328 -0.5305
    2MPD1     H14095   1.580   0.603   1.736 -1.7562 -0.0504  1.6436
    2MPD1    H114096   1.777   0.257   1.872 -1.8510 -1.2224  0.7889
    2MPD1    H214097   1.364   0.225   1.767 -1.2745  1.6673  1.6515
    2MPD1    H314098   1.557   0.128   1.845  0.7370 -0.4844 -1.9529
    2MPD1     N14099   1.811   0.521   1.788  0.1622 -0.3286 -0.2491
    2MPD1    H514100   1.808   0.621   1.768 -1.3717 -0.1731  0.7376
    2MPD1    N114101   1.330   0.491   1.713 -0.4032 -0.6955 -0.2858
    2MPD1    H614102   1.252   0.440   1.673 -0.6811 -0.1914 -0.3842
    2MPD1    H714103   1.343   0.581   1.668 -0.7024  0.8827  2.7561
    1MPD1     C14104   3.880   2.918  11.571  0.2572  0.3763  0.4884
    1MPD1    C114105   4.012   2.969  11.546 -0.2301  1.7104 -0.2921
    1MPD1    C214106   4.090   2.971  11.656  0.0067 -0.2892  0.5817
    1MPD1    C314107   4.043   2.950  11.787  0.4280 -0.0948  0.8656
    1MPD1    C414108   3.909   2.935  11.808 -0.0394  0.7900 -0.2688
    1MPD1    C514109   3.832   2.911  11.697  0.2211  0.0281  0.1234
    1MPD1     H14110   4.197   2.983  11.653 -0.0478  0.1006  0.1962
    1MPD1    H114111   3.864   2.924  11.906  1.5411  2.9829  0.6925
    1MPD1    H214112   3.811   2.902  11.488  1.3044  1.5310 -0.6126
    1MPD1    H314113   3.728   2.901  11.726  0.4292  2.3564  1.6817
    1MPD1     N14114   4.132   2.966  11.898  0.0426  0.2020  0.0856
    1MPD1    H514115   4.227   2.998  11.883 -0.0211  0.1462 -0.4364
    1MPD1    N114116   4.067   2.980  11.423  0.2194  0.5394 -0.4738
    1MPD1    H614117   4.141   3.049  11.414  0.0694  0.8753  0.8618
    1MPD1    H714118   3.997   3.011  11.356  0.9236  3.4377  0.1549
    2MPD1     C14119   3.234   2.989  10.559  0.4012 -0.4623 -0.3781
    2MPD1    C114120   3.161   2.881  10.517 -0.3648  0.3607 -0.5666
    2MPD1    C214121   3.160   2.765  10.591 -0.7573  0.0268 -0.0578
    2MPD1    C314122   3.218   2.752  10.715 -0.2891  0.1021 -0.0604
    2MPD1    C414123   3.278   2.863  10.766 -0.0604 -0.3496 -0.5789
    2MPD1    C514124   3.284   2.979  10.689  1.0821 -0.8600 -0.2496
    2MPD1     H14125   3.102   2.683  10.553 -3.3475  1.2205  1.3181
    2MPD1    H114126   3.325   2.870  10.864  1.0925  0.0443 -1.1674
    2MPD1    H214127   3.257   3.077  10.501  0.7186  0.6285  1.4007
    2MPD1    H314128   3.337   3.063  10.732 -0.0068 -1.0113  1.3928
    2MPD1     N14129   3.229   2.635  10.789  0.2512  0.2247 -0.7674
    2MPD1    H514130   3.281   2.643  10.875 -0.6182  1.5154 -0.3546
    2MPD1    N114131   3.118   2.871  10.386  0.2634  0.2419  0.4917
    2MPD1    H614132   3.045   2.801  10.375  0.3316  0.7592 -3.1668
    2MPD1    H714133   3.090   2.963  10.353 -1.5449 -0.9378 -1.2690
    3MPD1     C14134   2.866   1.661  11.062 -0.0109  0.2273 -0.1676
    3MPD1    C114135   2.935   1.715  11.167 -0.1211 -0.0313  0.2128
    3MPD1    C214136   3.026   1.813  11.135 -0.2427  0.1862 -0.9073
    3MPD1    C314137   3.050   1.855  11.005 -0.6485  0.3427  0.0759
    3MPD1    C414138   2.973   1.803  10.902 -0.1185 -0.6083 -0.0626
    3MPD1    C514139   2.894   1.696  10.932 -0.4623 -0.2801 -0.1485
    3MPD1     H14140   3.076   1.872  11.211 -0.4225  1.5848 -1.8714
    3MPD1    H114141   2.994   1.837  10.801  1.9395 -1.3324  0.1217
    3MPD1    H214142   2.788   1.589  11.081  1.4107 -1.3082 -0.1312
    3MPD1    H314143   2.836   1.650  10.853 -2.3240 -1.2461  1.7961
    3MPD1     N14144   3.119   1.979  10.996 -0.0943  0.0818 -0.8116
    3MPD1    H514145   3.163   2.022  11.077  0.6210 -1.4366 -0.4041
    3MPD1    N114146   2.885   1.695  11.299 -0.0908  0.2517  0.2342
    3MPD1    H614147   2.832   1.608  11.303 -0.2618  0.2998 -1.0759
    3MPD1    H714148   2.960   1.687  11.368  0.3188  2.0655 -0.0040
    4MPD2     C14149   4.437   3.044  11.548 -0.1542 -0.0916 -0.2112
    4MPD2    C114150   4.439   2.929  11.618  0.0962  0.7060 -0.2080
    4MPD2    C214151   4.425   2.807  11.552  0.7107  0.1600 -0.5613
    4MPD2    C314152   4.390   2.802  11.426  1.1212  0.4928  0.0101
    4MPD2    C414153   4.380   2.918  11.357  0.1285 -0.3310  0.2997
    4MPD2    C514154   4.397   3.041  11.417  0.4340  0.7111  0.3242
    4MPD2     H14155   4.436   2.712  11.602 -0.1739  0.1939 -0.3031
    4MPD2    H114156   4.358   2.913  11.251 -1.5462  0.5510  0.6083
    4MPD2    H214157   4.457   3.139  11.596  0.8154 -0.4262  0.0427
    4MPD2    H314158   4.374   3.136  11.369  1.4917  0.3288 -0.9470
    4MPD2     N14159   4.373   2.670  11.370 -0.6375  0.0003  0.5649
    4MPD2    H514160   4.397   2.599  11.438 -1.1042  1.3774  2.1751
    4MPD2    N114161   4.458   2.920  11.756 -0.4555 -0.1286 -0.7961
    4MPD2    H714162   4.466   2.826  11.795  1.2035  0.7473  0.9537
    5TMC3    C114163   4.449   2.988  11.986  0.5381 -0.6722  0.1987
    5TMC3    C214164   4.325   3.018  12.044  0.1101  0.1676 -0.5048
    5TMC3    C314165   4.242   2.920  12.094 -0.5196  0.1412 -0.2018
    5TMC3    C414166   4.471   2.846  11.989 -0.4893 -0.6000  0.0700
    5TMC3    C514167   4.401   2.758  12.062  0.0327 -0.6028 -0.0707
    5TMC3    C614168   4.282   2.795  12.114 -0.3357  0.0825  0.1520
    5TMC3     C14169   4.458   3.029  11.845  0.7443  0.1649  0.2190
    5TMC3     O14170   4.419   3.142  11.829 -0.4710 -0.1184 -0.3597
    5TMC3     H14171   4.289   3.118  12.022 -0.3224  0.1202  0.0142
    5TMC3    H114172   4.565   2.816  11.945 -1.4363 -1.1182 -1.5685
    5TMC3    H214173   4.197   2.729  12.131 -1.4195  1.5364  0.4436
    5TMC3    C714174   4.383   2.643  11.974 -0.0990 -0.0381  1.0097
    5TMC3    C814175   4.111   2.922  12.025  0.6852  0.1138 -0.4237
    5TMC3    O114176   4.415   2.667  11.856 -0.4564 -0.0456 -0.4629
    5TMC3    O214177   4.015   2.861  12.067  0.4383 -0.5415  0.0032
    6TMC3    C114178   3.214   2.403  10.838  0.0011  0.3280  0.9361
    6TMC3    C214179   3.157   2.278  10.819 -0.0138 -0.0166  0.4888
    6TMC3    C314180   3.197   2.174  10.903  0.2591  0.7563 -0.2962
    6TMC3    C414181   3.316   2.422  10.925 -0.3623 -0.2616  0.7531
    6TMC3    C514182   3.348   2.314  11.003  0.3780  0.0538 -0.6015
    6TMC3    C614183   3.294   2.191  10.997  0.5664  0.1137 -0.3842
    6TMC3     C14184   3.178   2.512  10.748  0.2473 -0.5423 -0.5633
    6TMC3     O14185   3.097   2.491  10.662  0.5683  0.7400 -0.7432
    6TMC3     H14186   3.078   2.263  10.746 -1.6661  3.0936  1.6809
    6TMC3    H114187   3.377   2.511  10.921  0.2112 -0.6844 -0.0188
    6TMC3    H214188   3.331   2.106  11.052  0.5864  0.2556 -0.1770
    6TMC3    C714189   3.462   2.320  11.093  0.7638 -0.4461 -0.6397
    6TMC3    C814190   3.146   2.042  10.881  1.0465 -0.4175  0.1361
    6TMC3    O114191   3.549   2.400  11.062 -0.1976  0.3970  0.0350
    6TMC3    O214192   3.114   2.020  10.768  0.2379  0.5001  0.5190
    7MPD2     C14193   4.262   2.146  11.862 -0.7498  0.3949 -0.0824
    7MPD2    C114194   4.301   2.256  11.777  0.3010  0.7546 -0.8025
    7MPD2    C214195   4.332   2.381  11.832  0.0700 -0.0712  0.3816
    7MPD2    C314196   4.318   2.402  11.972  0.4150 -0.2504  0.3610
    7MPD2    C414197   4.280   2.296  12.049  0.6021  0.0837  0.4967
    7MPD2    C514198   4.265   2.166  11.997  0.8908  0.6930  0.0832
    7MPD2     H14199   4.349   2.460  11.760 -0.9287 -1.5666 -1.5040
    7MPD2    H114200   4.273   2.304  12.157  1.8355 -2.5374  0.7662
    7MPD2    H214201   4.238   2.042  11.843 -2.9404  0.4538  2.4666
    7MPD2    H314202   4.252   2.080  12.062  2.8712  0.1399 -0.2691
    7MPD2     N14203   4.338   2.526  12.033  0.5721  0.2249  0.2603
    7MPD2    H514204   4.321   2.529  12.133  0.0718  0.3429  0.1691
    7MPD2    N114205   4.309   2.239  11.640  0.2910 -0.6249 -0.0907
    7MPD2    H714206   4.263   2.155  11.606 -0.6091 -0.5116  0.8281
    8TMC3    C114207   4.314   2.316  11.416  0.2273  0.0073  1.1441
    8TMC3    C214208   4.187   2.267  11.394 -0.0029 -0.1955  0.8601
    8TMC3    C314209   4.111   2.345  11.311 -0.3957 -0.4219  0.4692
    8TMC3    C414210   4.363   2.422  11.338 -0.5285  0.3676 -0.0127
    8TMC3    C514211   4.283   2.489  11.260 -0.5602 -0.7095 -0.1614
    8TMC3    C614212   4.158   2.453  11.233  0.6429  0.1427  0.2837
    8TMC3     C14213   4.370   2.329  11.551  0.7392  0.5470 -0.3670
    8TMC3     O14214   4.457   2.412  11.573 -0.2385 -0.7412 -0.4490
    8TMC3     H14215   4.143   2.191  11.458  0.3211 -1.2568 -0.1731
    8TMC3    H114216   4.470   2.438  11.350 -0.4017 -0.7923  0.4668
    8TMC3    H214217   4.091   2.513  11.173  1.2089 -0.8701 -1.3806
    8TMC3    C714218   4.295   2.641  11.266  0.2140 -0.3303  0.6507
    8TMC3    C814219   3.966   2.325  11.289 -0.6900  0.7324 -0.1245
    8TMC3    O114220   4.224   2.717  11.199 -0.0670 -0.3063 -0.7490
    8TMC3    O214221   3.916   2.381  11.193 -0.4326  0.1361  0.5802
    9MPD2     C14222   3.739   2.110  11.486  0.2338  0.4540 -0.3141
    9MPD2    C114223   3.773   2.204  11.394 -0.5662 -0.1338 -0.0167
    9MPD2    C214224   3.680   2.247  11.301 -0.0661 -0.1520 -0.3239
    9MPD2    C314225   3.548   2.204  11.299  0.3062 -0.2034 -0.1991
    9MPD2    C414226   3.522   2.104  11.392 -0.1351  0.3160  0.1788
    9MPD2    C514227   3.616   2.059  11.480  0.1056  0.2191 -0.9524
    9MPD2     H14228   3.718   2.310  11.221  1.2553 -0.2585  0.2233
    9MPD2    H114229   3.425   2.057  11.391  0.8995 -1.9568  2.9011
    9MPD2    H214230   3.808   2.066  11.557 -2.3253 -2.0394  0.6316
    9MPD2    H314231   3.585   2.004  11.568  0.4590 -2.9568 -2.8201
    9MPD2     N14232   3.446   2.241  11.209  0.4251  0.3671 -0.9266
    9MPD2    H514233   3.361   2.189  11.229  0.9087 -0.0786  0.0050
    9MPD2    N114234   3.904   2.245  11.388 -0.2422  1.3760 -0.0785
    9MPD2    H714235   3.957   2.229  11.473 -0.2280  2.1830  0.0679
    1MPD1     C14236   1.781   0.191  17.250 -0.1653 -0.0217 -0.2565
    1MPD1    C114237   1.910   0.231  17.225  0.1042 -0.3128 -0.2795
    1MPD1    C214238   1.921   0.354  17.160  0.2095  0.4159 -0.1664
    1MPD1    C314239   1.810   0.420  17.116  0.1534  0.3574 -0.0501
    1MPD1    C414240   1.686   0.362  17.122  0.4680  0.2015  0.0578
    1MPD1    C514241   1.670   0.246  17.195  0.2542 -0.4571  0.2567
    1MPD1     H14242   2.022   0.394  17.161 -0.5900  2.3114  2.7298
    1MPD1    H114243   1.594   0.416  17.103  0.2925 -0.0059  0.3134
    1MPD1    H214244   1.773   0.102  17.311 -3.6818 -0.4783 -1.3817
    1MPD1    H314245   1.570   0.211  17.214  0.6204 -0.0181  2.9842
    1MPD1     N14246   1.811   0.543  17.046  0.0397 -0.3486  0.5398
    1MPD1    H514247   1.721   0.573  17.010  0.6863  0.9821  0.0700
    1MPD1    N114248   2.018   0.164  17.283 -0.2024 -0.4477 -0.6023
    1MPD1    H614249   2.102   0.197  17.237 -0.4221  1.6259  0.4924
    1MPD1    H714250   2.017   0.062  17.287 -0.1791 -0.4623 -1.0342
    2MPD1     C14251   2.331   0.995  16.201 -0.8349  0.0893  0.2689
    2MPD1    C114252   2.198   0.974  16.181 -0.3138  0.6249 -0.5908
    2MPD1    C214253   2.126   0.928  16.287 -0.7860 -0.4760  0.2351
    2MPD1    C314254   2.184   0.918  16.410  0.3510  0.2561  0.5715
    2MPD1    C414255   2.316   0.939  16.427 -0.3523  0.3937 -0.2037
    2MPD1    C514256   2.393   0.978  16.322 -0.2011 -0.1569 -0.0720
    2MPD1     H14257   2.023   0.900  16.267 -0.8945  0.1910 -0.1463
    2MPD1    H114258   2.356   0.923  16.527 -1.2784  0.4854  0.1861
    2MPD1    H214259   2.391   1.032  16.119 -2.0113  0.5139 -0.3982
    2MPD1    H314260   2.498   1.003  16.337  0.0383 -0.8947 -0.5239
    2MPD1     N14261   2.097   0.879  16.515 -0.3107 -0.5238  0.1825
    2MPD1    H514262   2.000   0.860  16.494  0.0290 -0.8769 -1.0458
    2MPD1    N114263   2.143   0.980  16.057 -0.0392  0.6479 -0.6575
    2MPD1    H614264   2.043   0.987  16.043 -0.3571  1.9060  2.2796
    2MPD1    H714265   2.188   1.054  16.003  2.3707 -0.0735  0.3657
    3TCq2    C114266   2.121   0.867  16.651  0.3191 -0.7941 -0.5031
    3TCq2    O214267   2.224   0.904  16.714 -0.4428  0.2973 -0.2071
    3TCq2    C214268   1.997   0.823  16.723 -0.1599 -0.1540 -0.4355
    3TCq2    C314269   1.875   0.820  16.656 -0.0578 -0.0220 -0.6471
    3TCq2    C414270   1.764   0.776  16.725 -0.1928  0.6951  0.4763
    3TCq2    C514271   1.774   0.738  16.859 -0.6155  0.2468  0.1342
    3TCq2    C614272   1.899   0.725  16.916  0.4147 -0.2109 -0.1795
    3TCq2    C714273   2.009   0.766  16.844 -0.2958 -0.0656  0.2375
    3TCq2    C814274   1.919   0.626  17.017 -0.7054 -0.2545 -0.1123
    3TCq2    O414275   2.030   0.617  17.067  0.2719  0.6727 -0.4436
    3TCq2    C914276   1.634   0.774  16.673 -1.0383  0.5488  0.0835
    3TCq2    O514277   1.556   0.692  16.726 -0.4753  0.1450  0.2220
    3TCq2    O614278   1.607   0.844  16.575 -0.5022 -0.0192  0.3329
    3TCq2    H214279   1.860   0.868  16.561  1.3082 -1.0940 -1.4046
    3TCq2    H314280   1.680   0.712  16.907 -2.4247 -1.6630 -4.4398
    3TCq2    H414281   2.109   0.768  16.887  0.3349  0.2843 -1.2668
    1TCq1    O114282   2.090   4.570  12.236  0.1335 -0.0330 -0.3876
    1TCq1    C114283   2.149   4.611  12.349 -0.7876 -0.1617 -0.7968
    1TCq1    O214284   2.258   4.580  12.395 -0.2337  0.0788 -0.4177
    1TCq1    C214285   2.043   4.649  12.437  0.9339  0.5911  0.0513
    1TCq1    C314286   1.920   4.586  12.437  0.8726 -0.3810  0.1533
    1TCq1    C414287   1.829   4.625  12.534 -0.0429 -0.0717 -0.8095
    1TCq1    C514288   1.865   4.717  12.624 -0.4056 -0.0858  0.1320
    1TCq1    C614289   1.982   0.058  12.609  0.1478  0.2003  0.9032
    1TCq1    C714290   2.076   0.025  12.522 -0.5062 -0.1072 -1.0119
    1TCq1    C814291   2.045   0.117  12.726 -0.3586 -0.5395 -0.1350
    1TCq1    O414292   2.159   0.166  12.717 -0.3136  0.0418  0.0726
    1TCq1    C914293   1.708   4.549  12.546  0.3523  0.4938  0.1978
    1TCq1    O514294   1.649   4.550  12.656  0.2109 -0.9905 -0.0276
    1TCq1    O614295   1.674   4.472  12.447 -0.0653  0.0176  0.0229
    1TCq1    H114296   2.006   4.622  12.230 -1.2608 -2.0795  1.7681
    1TCq1    H214297   1.913   4.487  12.394  1.8467 -1.5096  2.5970
    1TCq1    H314298   1.789   0.014  12.699  0.0934  0.2848  0.5333
    1TCq1    H414299   2.165   0.086  12.513 -0.6112 -0.1103 -2.0432
    2MPD2     C14300   2.125   0.195  13.005 -0.6515  0.2015 -0.3237
    2MPD2    C114301   2.013   0.126  12.969 -0.7571 -0.0853  0.3000
    2MPD2    C214302   1.928   0.094  13.075  0.3226 -0.0153 -0.0091
    2MPD2    C314303   1.949   0.127  13.210  0.2774 -0.0988 -0.0651
    2MPD2    C414304   2.063   0.188  13.243  0.6106 -0.1904 -0.5726
    2MPD2    C514305   2.145   0.228  13.139  0.4202 -0.2554 -0.6331
    2MPD2     H14306   1.831   0.056  13.045 -0.3610  0.4759  1.5852
    2MPD2    H114307   2.090   0.208  13.346  2.9666 -0.2388 -1.1874
    2MPD2    H214308   2.191   0.247  12.937 -0.8524  0.4664 -0.3128
    2MPD2    H314309   2.229   0.290  13.167 -0.2518 -0.2723  1.4932
    2MPD2     N14310   1.846   0.088  13.300 -0.0468  0.2311 -0.7305
    2MPD2    H514311   1.759   0.054  13.261  0.5394  0.7437 -2.4661
    2MPD2    N114312   1.978   0.091  12.837  0.4416  0.2216  0.0818
    2MPD2    H714313   1.897   0.033  12.822  0.5599 -0.0957  0.6810
    3TCq1    O114314   1.371   0.051  13.302 -0.3679  0.6135 -0.0275
    3TCq1    C114315   1.368   0.044  13.436 -0.0905  0.5194  0.2946
    3TCq1    O214316   1.266   0.055  13.506 -0.1029 -0.4078  0.6604
    3TCq1    C214317   1.500   0.025  13.501 -0.9240 -0.4158 -0.2162
    3TCq1    C314318   1.500   4.711  13.632  0.4375 -0.2399  0.6950
    3TCq1    C414319   1.620   4.693  13.694 -0.2209  0.2112  0.1134
    3TCq1    C514320   1.734   0.010  13.629 -0.1266 -0.1852 -0.6400
    3TCq1    C614321   1.726   0.063  13.504 -0.1776 -0.4286 -0.7242
    3TCq1    C714322   1.609   0.075  13.437 -0.4297 -0.1785  0.6913
    3TCq1    C814323   1.848   0.105  13.436 -0.5581 -0.7811  0.7468
    3TCq1    O414324   1.946   0.114  13.506  0.3494 -0.0619 -0.1623
    3TCq1    C914325   1.620   4.657  13.834 -0.3040  0.4226  0.1160
    3TCq1    O514326   1.513   4.621  13.883  0.7324 -0.1901 -0.1486
    3TCq1    O614327   1.735   4.633  13.883 -0.2718  0.1693 -0.2647
    3TCq1    H114328   1.456   0.024  13.260 -0.9013  0.0895 -0.7632
    3TCq1    H214329   1.408   4.706  13.689 -0.0711  3.3376  0.1450
    3TCq1    H314330   1.830   4.719  13.676 -0.5078 -1.1959 -0.1995
    3TCq1    H414331   1.602   0.139  13.349  0.2170 -1.6240 -0.4075
    1MPD2     C14332   1.223   1.015  14.839 -0.0291  0.5994  0.2288
    1MPD2    C114333   1.099   1.010  14.899  0.0752 -0.3523  0.0653
    1MPD2    C214334   1.059   0.895  14.963 -0.1269  0.1811 -0.8054
    1MPD2    C314335   1.141   0.788  14.983  0.6634 -0.1284  0.1970
    1MPD2    C414336   1.273   0.798  14.939 -0.1182 -0.0732 -0.3095
    1MPD2    C514337   1.311   0.909  14.865  0.1776 -0.9047  0.0978
    1MPD2     H14338   0.959   0.877  15.001  0.3890  0.5287  0.7483
    1MPD2    H114339   1.350   0.722  14.948 -1.6221 -1.7592 -1.8023
    1MPD2    H214340   1.260   1.097  14.779  1.6060  0.8099  1.5211
    1MPD2    H314341   1.412   0.907  14.827  0.2622 -0.1203  0.2695
    1MPD2     N14342   1.098   0.667  15.038  0.5987  0.0761 -0.3071
    1MPD2    H514343   1.000   0.653  15.063  0.3749  1.2998 -0.5167
    1MPD2    N114344   1.007   1.114  14.873 -0.2226  0.3132 -0.0221
    1MPD2    H714345   1.031   1.193  14.814  0.8199  1.9438  2.5723
    2TMC3    C114346   0.797   1.228  14.926 -0.3596  0.1894 -0.0832
    2TMC3    C214347   0.716   1.246  15.035 -0.0064 -0.7657 -0.1540
    2TMC3    C314348   0.584   1.281  15.005  0.5574 -0.0746 -0.2140
    2TMC3    C414349   0.767   1.262  14.806 -0.4850 -0.4935 -0.6894
    2TMC3    C514350   0.652   1.312  14.777  0.1832  0.1573 -0.2614
    2TMC3    C614351   0.558   1.330  14.871  0.0153  0.2014 -0.0399
    2TMC3     C14352   0.891   1.118  14.949 -0.4996  0.6247  0.5159
    2TMC3     O14353   0.854   1.066  15.057  0.1443 -0.6791  0.0760
    2TMC3     H14354   0.733   1.233  15.141 -1.0630 -0.6228  0.0316
    2TMC3    H114355   0.826   1.229  14.721 -0.0711 -0.0824 -0.5584
    2TMC3    H214356   0.457   1.362  14.848 -0.5500 -1.0759  0.6339
    2TMC3    C714357   0.624   1.344  14.643 -0.0092  0.1061  0.2644
    2TMC3    C814358   0.482   1.183  15.049 -0.0665 -1.1800 -0.0205
    2TMC3    O114359   0.508   1.330  14.602  0.2035  0.5183 -0.7819
    2TMC3    O214360   0.368   1.225  15.068  0.0560 -0.0177 -0.3734
    3TCq1    O114361   1.265   2.141  13.923 -0.1756  0.3202  0.8223
    3TCq1    C114362   1.137   2.168  13.942  0.3224  0.0717 -0.7105
    3TCq1    O214363   1.058   2.216  13.863 -0.1944 -0.1421  0.1170
    3TCq1    C214364   1.100   2.095  14.061  0.1744 -0.5636 -0.2180
    3TCq1    C314365   1.198   2.093  14.155  0.5058 -1.0235 -0.0082
    3TCq1    C414366   1.167   2.023  14.271  0.0706 -0.4692 -0.2843
    3TCq1    C514367   1.048   1.948  14.291 -0.4934  0.4020 -0.2868
    3TCq1    C614368   0.956   1.964  14.190 -0.0553 -0.9685 -0.4230
    3TCq1    C714369   0.971   2.048  14.070 -0.5243 -0.5165  0.0612
    3TCq1    C814370   0.866   1.852  14.183 -0.4329 -0.0469  0.7818
    3TCq1    O414371   0.797   1.845  14.080 -0.0509 -0.1054  0.1946
    3TCq1    C914372   1.261   2.033  14.378  0.2775 -0.5549 -0.1500
    3TCq1    O514373   1.367   2.098  14.358 -0.3399  0.2236 -0.6858
    3TCq1    O614374   1.223   1.980  14.487 -0.0780  0.6923  0.3711
    3TCq1    H114375   1.290   2.078  13.994  0.6080 -0.5547 -0.2337
    3TCq1    H214376   1.289   2.152  14.161  1.2867 -2.1699 -0.4079
    3TCq1    H314377   1.038   1.899  14.387  0.9186 -1.1053 -0.9063
    3TCq1    H414378   0.904   2.040  13.985 -0.3552 -2.8303  0.1531
    4MPD2     C14379   0.718   1.593  14.212 -0.0881 -0.8954 -0.5754
    4MPD2    C114380   0.782   1.655  14.316  0.1634  0.4066  0.4145
    4MPD2    C214381   0.779   1.603  14.442 -0.4809 -0.1404 -0.4559
    4MPD2    C314382   0.717   1.489  14.468 -0.0442  0.2474 -0.4454
    4MPD2    C414383   0.640   1.435  14.364  0.1963  0.7242  0.4979
    4MPD2    C514384   0.646   1.479  14.236 -0.5770 -0.0379  0.2794
    4MPD2     H14385   0.853   1.643  14.510 -0.6991 -0.9582  0.2484
    4MPD2    H114386   0.579   1.346  14.375 -0.6442  1.0231 -1.6874
    4MPD2    H214387   0.740   1.625  14.111 -0.5341  0.6079 -0.1987
    4MPD2    H314388   0.607   1.425  14.150  0.9015 -2.0147  0.8518
    4MPD2     N14389   0.718   1.431  14.599 -1.0948 -0.0287  0.4341
    4MPD2    H514390   0.786   1.460  14.668  1.8245  2.1525 -3.3096
    4MPD2    N114391   0.866   1.773  14.294 -0.5438 -0.3455 -0.9757
    4MPD2    H714392   0.902   1.813  14.380  2.9384 -0.3960 -2.4099
    5TMC2    C114393   0.853   0.486  15.182 -0.1521  0.6938  0.1163
    5TMC2    C214394   0.858   0.486  15.324 -0.5102 -0.8815 -0.2160
    5TMC2    C314395   0.985   0.482  15.379  0.0763  0.2888 -0.2131
    5TMC2    C414396   0.963   0.463  15.109  0.0935 -0.7511  0.0533
    5TMC2    C514397   1.085   0.474  15.168  0.7386 -0.1353 -0.2069
    5TMC2    C614398   1.096   0.476  15.303  0.9648  0.8221  0.7984
    5TMC2     C14399   0.779   0.601  15.138 -0.0400 -0.3668  0.3155
    5TMC2     O14400   0.837   0.683  15.067  0.0542  0.7918 -0.5548
    5TMC2     H14401   0.774   0.514  15.386  1.1781  0.9339  1.2484
    5TMC2    H114402   0.950   0.474  15.002 -3.2094 -0.9725  0.4529
    5TMC2    H214403   1.188   0.512  15.347  2.8302 -0.1268 -2.3469
    5TMC2    C714404   1.170   0.565  15.098  0.4182 -0.2114  0.6280
    5TMC2    C814405   0.991   0.485  15.526 -0.0074  0.7818  0.4376
    5TMC2    O114406   1.287   0.539  15.096 -0.3734 -0.7720  0.5708
    5TMC2    O214407   0.895   0.453  15.591 -0.3622  0.4485 -0.1660
    5TMC2    O514408   1.119   0.503  15.560  0.0346  0.1667 -0.1720
    5TMC2    H514409   1.165   0.558  15.492  1.0493  1.3873  1.4923
    6MPD2     C14410   0.364   0.922  15.165 -0.3279  0.0682  0.2705
    6MPD2    C114411   0.494   0.940  15.128  0.6364  0.5590  0.6823
    6MPD2    C214412   0.587   0.840  15.132 -0.9058  0.0582  0.2578
    6MPD2    C314413   0.555   0.714  15.189 -0.3101  0.1749 -0.7661
    6MPD2    C414414   0.429   0.690  15.235  0.6550  0.0990 -0.2668
    6MPD2    C514415   0.333   0.791  15.216 -0.4028  1.1138 -0.1557
    6MPD2     H14416   0.685   0.861  15.090 -0.8288  0.3650  0.5876
    6MPD2    H114417   0.411   0.600  15.294 -0.1571 -0.6047 -1.5837
    6MPD2    H214418   0.283   0.992  15.146 -0.3706  0.1699  0.8243
    6MPD2    H314419   0.228   0.779  15.239 -0.6443  0.1678 -1.7780
    6MPD2     N14420   0.652   0.608  15.193 -0.3968  0.0982  0.7546
    6MPD2    H514421   0.622   0.521  15.236 -3.3793 -0.1682 -1.9227
    6MPD2    N114422   0.547   1.063  15.079 -0.5101 -0.0919  0.7365
    6MPD2    H714423   0.641   1.061  15.041 -0.8686 -0.9679 -0.0893
  945NH4     N114424   4.374   2.908   8.189 -0.3893  0.4809  0.0966
  945NH4     H214425   4.364   2.833   8.118 -0.3469 -0.1621  0.7634
  945NH4     H314426   4.451   2.875   8.251  0.0264 -0.7535 -1.0732
  945NH4     H414427   4.285   2.919   8.242 -0.6823 -3.6268  0.4695
  945NH4     H514428   4.388   3.003   8.151  0.3072  0.4544  0.2787
  946SOD     NA14429   0.869   1.795   8.137 -0.2144 -0.3671  0.3586
  947SOD     NA14430   0.458   2.101  16.657  0.2902  0.3282  0.1369
  948SOD     NA14431   2.175   0.146  11.143 -0.1765 -0.1640  0.3352
  949SOD     NA14432   1.731   2.755  16.962  0.0486  0.4344  0.2305
  950SOD     NA14433   1.863   1.106   2.077 -0.3911 -0.2270 -0.0607
  951SOD     NA14434   1.179   0.584   0.113  0.3163 -0.0503  0.2577
  952SOD     NA14435   1.099   4.313   2.673  0.0756  0.0403 -0.3993
  953SOD     NA14436   2.171   0.141  14.675  0.1764  0.4643 -0.3779
  954SOD     NA14437   0.179   4.489  12.936 -0.1457  0.0186  0.4315
  955SOD     NA14438   2.488   4.723   2.604  0.6420 -0.1604 -0.2921
  956SOD     NA14439   0.870   4.538  12.202  0.1383  0.6055  0.3437
  957SOD     NA14440   1.154   1.134  12.191 -0.0282  0.2974  0.2977
  958SOD     NA14441   1.656   3.988   9.870  0.2410 -0.4917 -0.1794
  959SOD     NA14442   4.284   4.714  10.990 -0.2623 -0.6631  0.2328
  960SOD     NA14443   4.069   4.225  12.829 -0.5966 -0.2630  0.6662
  961SOD     NA14444   0.818   4.242  15.562 -0.5535  0.3274 -0.0887
  962SOD     NA14445   0.674   3.783  11.281 -0.2276  0.0019 -0.0538
  963SOD     NA14446   1.226   4.712  10.328  0.1735 -0.2168  0.2350
  964SOD     NA14447   0.932   1.779  11.507 -0.3190  1.0348 -0.3050
  965SOD     NA14448   1.568   2.751   8.373 -0.6113 -0.0107  0.0716
  966SOD     NA14449   0.935   0.435   9.989  0.5073  0.2427  0.6143
  967SOD     NA14450   2.103   2.954   3.916 -0.6364  0.0219 -0.1506
  968SOD     NA14451   0.816   4.420   1.122  0.0635 -0.1740  0.2502
  969SOD     NA14452   4.114   0.137  13.511 -0.3695 -0.3097 -0.6319
  970SOD     NA14453   3.372   2.062   2.972 -0.4168  0.0692 -0.2766
  971SOD     NA14454   1.451   0.032  11.285  0.3110  0.1456 -0.3125
  972SOD     NA14455   1.602   1.067  16.515  0.7393 -0.4918  0.3176
  973SOD     NA14456   0.510   3.953  10.321  0.2662 -0.1516  0.2000
  974SOD     NA14457   4.656   1.534   1.469  0.0855 -0.3879 -0.1692
  975SOD     NA14458   0.968   3.028  11.223  0.7717  0.1103 -0.1033
  976SOD     NA14459   2.590   0.944  14.863 -0.3219 -0.2230 -1.1699
  977SOD     NA14460   1.820   0.007  14.959  0.1086 -0.6567 -0.0729
  978SOD     NA14461   0.978   2.024  14.899  0.0035 -0.0678  0.1558
  979SOD     NA14462   4.080   3.833   9.676  0.1017  0.0932  0.1626
  980SOD     NA14463   3.059   3.581  15.134  0.4784 -0.2261 -0.0587
  981SOD     NA14464   0.302   2.503   1.553 -0.0308  0.2052  0.1125
  982SOD     NA14465   4.411   4.133  10.871 -0.0636  0.3086 -0.0997
  983SOD     NA14466   2.775   3.416   2.625  0.1268  0.1980 -0.4343
  984SOD     NA14467   2.637   3.210   4.370 -0.3754 -0.1891 -0.1036
  985SOD     NA14468   3.923   3.241   0.892  0.1298 -0.4189  0.1311
  986SOD     NA14469   2.881   3.556  12.897 -0.1358 -0.1105 -0.3670
  987SOD     NA14470   2.095   2.330  17.081  0.6305  0.1061  0.3676
  988SOD     NA14471   1.562   4.221   0.427  0.3346 -0.1646  0.7545
  989SOD     NA14472   4.287   0.952  10.895  0.0363 -0.2263  0.4394
  990SOD     NA14473   2.849   3.347   1.298  0.0741  0.1820 -0.4354
  991SOD     NA14474   3.622   2.491  11.609 -0.1042  0.3711  0.0284
  992SOD     NA14475   3.483   4.091  13.664 -0.4370  0.0788  0.6598
  993SOD     NA14476   2.160   4.445  13.281  0.2462 -0.0008 -0.1151
  994SOD     NA14477   3.213   1.163  14.964  0.2551 -0.3490  0.3239
  995SOD     NA14478   0.092   4.549  10.556 -0.3707  0.3107  0.0654
  996SOD     NA14479   0.661   1.482  13.815 -0.3156  0.1905  0.2049
  997SOD     NA14480   4.462   4.430  11.056 -0.1099 -0.3155  0.4501
  998SOD     NA14481   1.652   4.272  12.349 -0.2128 -0.1215  0.1169
  999SOD     NA14482   2.539   2.134  14.117  0.0901 -0.3350 -0.2207
 1000SOD     NA14483   2.999   3.008   9.192  0.2506 -0.1691 -0.3535
 1001SOD     NA14484   3.236   1.416  15.150  0.4917  0.3425  0.4081
 1002SOD     NA14485   0.572   3.740   9.745  0.3054 -0.1872 -0.1052
 1003SOD     NA14486   0.427   4.466  10.342 -0.0045  0.1003  0.8066
 1004SOD     NA14487   2.949   1.830  13.166  0.4112 -0.0334  0.2077
 1005SOD     NA14488   2.126   0.150  15.014 -0.1528 -0.4461 -0.2024
 1006SOD     NA14489   1.462   4.433  13.963  0.3387 -0.5309  0.1351
 1007SOD     NA14490   3.758   3.375   1.511  0.2811 -0.3691 -0.4457
 1008SOD     NA14491   1.188   1.569   0.842  0.2613 -0.0313  0.5437
 1009SOD     NA14492   2.875   1.120  10.666 -0.0127 -0.0702  0.1892
 1010SOD     NA14493   0.568   3.756  10.106 -0.6355  0.2007 -0.0038
 1011SOL     OW14494   2.772   0.965   8.684 -0.1838  0.7030  0.1076
 1011SOL    HW114495   2.730   1.049   8.701 -0.2219  0.5874  0.5976
 1011SOL    HW214496   2.751   0.948   8.592  2.1885  0.0527 -0.3266
 1012SOL     OW14497   1.178   3.769   3.488 -0.3185  0.2235  0.6481
 1012SOL    HW114498   1.170   3.863   3.475  1.3620  0.1338 -0.9322
 1012SOL    HW214499   1.087   3.744   3.473 -0.3298  0.8734 -0.2787
 1013SOL     OW14500   4.493   2.686   1.263 -0.3357 -0.1431  0.1728
 1013SOL    HW114501   4.462   2.596   1.262 -0.8026  0.0173  0.2396
 1013SOL    HW214502   4.549   2.685   1.341 -0.0736 -0.3334 -0.0160
 1014SOL     OW14503   3.924   3.598   5.822 -0.0060 -0.1396 -0.1362
 1014SOL    HW114504   3.908   3.684   5.782  0.2349  0.1680  0.4254
 1014SOL    HW214505   3.992   3.572   5.760  1.0309 -0.4504  1.1373
 1015SOL     OW14506   1.156   4.395  10.142 -0.0406 -0.1581 -0.5358
 1015SOL    HW114507   1.104   4.473  10.163 -0.3034  0.0340 -1.8817
 1015SOL    HW214508   1.150   4.352  10.227  2.6161  3.5057  1.5284
 1016SOL     OW14509   0.448   0.570   7.729  0.2506 -0.9827 -0.0782
 1016SOL    HW114510   0.356   0.590   7.746 -0.2624  0.4468 -4.3955
 1016SOL    HW214511   0.434   0.476   7.714  2.0753 -1.4147  1.0765
 1017SOL     OW14512   1.787   0.491   0.771 -0.5445 -0.3733  0.2047
 1017SOL    HW114513   1.693   0.507   0.762 -0.5904  0.9719  3.1041
 1017SOL    HW214514   1.830   0.557   0.716 -1.5077  0.2625  0.2175
 1018SOL     OW14515   0.329   3.946   0.195 -0.0506 -0.2011  0.2064
 1018SOL    HW114516   0.375   3.945   0.279  0.2654  1.4619  0.0498
 1018SOL    HW214517   0.318   3.851   0.186 -0.3664  0.1113 -2.6162
 1019SOL     OW14518   0.380   3.219   8.882  0.5662 -0.0082 -0.0414
 1019SOL    HW114519   0.309   3.159   8.861 -1.3346  0.9658  3.5622
 1019SOL    HW214520   0.348   3.277   8.951 -0.5475  1.6578 -1.9740
 1020SOL     OW14521   3.227   2.071   6.645 -0.1348 -0.5450  0.1182
 1020SOL    HW114522   3.200   2.001   6.586 -0.5871 -0.7019  0.5113
 1020SOL    HW214523   3.173   2.144   6.615  2.4405  1.3165  0.0214
 1021SOL     OW14524   0.662   0.173  15.377 -0.2110 -0.1451 -0.2373
 1021SOL    HW114525   0.756   0.182  15.363 -0.0582  0.5780  1.2700
 1021SOL    HW214526   0.650   0.259  15.418 -1.6163 -0.9890  1.1001
 1022SOL     OW14527   2.665   4.248   4.807  0.0447  0.0132  0.3026
 1022SOL    HW114528   2.613   4.219   4.881  0.2215 -0.1645  0.3575
 1022SOL    HW214529   2.755   4.242   4.840  0.9950 -3.3896 -2.9082
 1023SOL     OW14530   0.207   3.668   5.021  0.6421 -0.1430 -0.5757
 1023SOL    HW114531   0.134   3.620   4.982  0.7663 -0.0367 -0.9336
 1023SOL    HW214532   0.177   3.759   5.030 -0.7495 -0.6705  0.2389
 1024SOL     OW14533   0.160   0.952   5.787 -0.1680 -0.0704 -0.0803
 1024SOL    HW114534   0.174   0.964   5.881  1.5599  1.6679 -0.5573
 1024SOL    HW214535   0.064   0.948   5.783 -0.1926  2.5043 -2.2372
 1025SOL     OW14536   0.354   2.961   7.402 -0.1797  0.0943 -0.2829
 1025SOL    HW114537   0.325   2.877   7.367 -1.3975  0.2708  0.3121
 1025SOL    HW214538   0.307   3.020   7.342 -2.6449 -1.5502  0.0670
 1026SOL     OW14539   1.738   0.879   8.015  0.4680 -0.1412  0.0387
 1026SOL    HW114540   1.825   0.844   8.029 -0.3840 -1.9545  0.7589
 1026SOL    HW214541   1.701   0.890   8.103  1.2967 -2.9027  0.7076
 1027SOL     OW14542   0.028   3.047   8.101  0.5109 -0.0053  0.3129
 1027SOL    HW114543   0.051   2.960   8.134  0.2750 -0.4243 -0.6383
 1027SOL    HW214544   0.003   3.033   8.010 -0.0792  0.1193  0.4564
 1028SOL     OW14545   1.521   1.433   7.547  0.6618 -0.1334  0.0926
 1028SOL    HW114546   1.507   1.523   7.517  1.4742  0.2955  1.0143
 1028SOL    HW214547   1.563   1.391   7.472 -0.8870 -1.7255  0.1179
 1029SOL     OW14548   2.747   4.516   0.651  0.3790 -0.6423 -0.3685
 1029SOL    HW114549   2.709   4.440   0.607 -0.2707 -1.5417  1.7398
 1029SOL    HW214550   2.836   4.485   0.661  0.8595  1.1300  0.8491
 1030SOL     OW14551   0.997   2.871   7.359 -0.3370 -0.0003 -0.0910
 1030SOL    HW114552   1.015   2.843   7.449 -1.0434  0.5117  0.2029
 1030SOL    HW214553   0.977   2.964   7.359 -2.6039 -0.4940  1.8216
 1031SOL     OW14554   1.361   3.275   8.040 -0.4554  0.0442  0.0606
 1031SOL    HW114555   1.384   3.319   7.958 -4.7281 -0.3044 -1.3335
 1031SOL    HW214556   1.448   3.253   8.074 -0.3912 -0.4892 -0.4540
 1032SOL     OW14557   2.895   3.022   6.037 -0.1121  0.3370  0.5547
 1032SOL    HW114558   2.967   3.083   6.020 -0.1728  0.2419 -0.0689
 1032SOL    HW214559   2.822   3.083   6.029 -0.8259 -0.1250  3.6820
 1033SOL     OW14560   3.873   2.763   9.065 -0.0463  0.1623 -0.0896
 1033SOL    HW114561   3.947   2.705   9.047  2.6630  3.3077  1.0018
 1033SOL    HW214562   3.856   2.739   9.156  0.9109 -1.8441 -0.4426
 1034SOL     OW14563   1.714   4.391   0.440  0.1192 -0.1391  0.1328
 1034SOL    HW114564   1.681   4.478   0.462 -0.2089 -0.8258  2.3522
 1034SOL    HW214565   1.772   4.378   0.515 -1.0691  1.2882  1.2871
 1035SOL     OW14566   1.128   2.039   2.942  0.3431 -0.4282  0.2303
 1035SOL    HW114567   1.193   2.023   3.010  1.4638  0.8288 -0.5308
 1035SOL    HW214568   1.179   2.080   2.872 -2.0168 -0.9262 -1.7798
 1036SOL     OW14569   3.767   2.032   7.993  0.3555  0.8286  0.1933
 1036SOL    HW114570   3.846   2.028   7.939  0.7978  3.3480  0.6512
 1036SOL    HW214571   3.791   1.980   8.070  0.7671  0.8747  0.0940
 1037SOL     OW14572   3.128   2.190  12.160 -0.2779  0.9396 -0.1106
 1037SOL    HW114573   3.195   2.245  12.200 -0.5050  1.5772 -0.6241
 1037SOL    HW214574   3.128   2.218  12.069  0.1693  0.5607 -0.2314
 1038SOL     OW14575   4.292   2.581   0.415  0.3591  0.2357 -0.4383
 1038SOL    HW114576   4.292   2.498   0.464  0.1326 -0.4096 -1.5257
 1038SOL    HW214577   4.254   2.558   0.331  2.8445 -0.4016 -1.3855
 1039SOL     OW14578   0.714   4.317   3.544  0.2007  0.6472 -0.5313
 1039SOL    HW114579   0.636   4.329   3.597  0.2727  2.3084 -0.8023
 1039SOL    HW214580   0.678   4.309   3.455 -2.0327  2.8615  0.1768
 1040SOL     OW14581   4.427   0.168   7.338 -0.0383 -0.0299 -0.2312
 1040SOL    HW114582   4.390   0.111   7.270 -1.1684 -1.1147  1.2952
 1040SOL    HW214583   4.403   0.246   7.289  1.0783  0.7346  0.4428
 1041SOL     OW14584   3.932   0.968   6.672 -0.9176 -0.0741 -0.3073
 1041SOL    HW114585   3.961   1.055   6.645 -1.2066  0.5655  1.4596
 1041SOL    HW214586   3.836   0.972   6.674 -0.9215  0.0391 -0.6615
 1042SOL     OW14587   1.195   4.702   6.957  0.1586  0.0756  0.1652
 1042SOL    HW114588   1.142   0.038   7.009 -0.2996 -1.3184  1.3326
 1042SOL    HW214589   1.285   0.001   6.979  1.2504 -2.6980 -1.2782
 1043SOL     OW14590   1.891   0.847   3.268 -0.1728 -0.4026 -0.3786
 1043SOL    HW114591   1.902   0.786   3.196  1.9447 -1.7687  1.0871
 1043SOL    HW214592   1.944   0.798   3.331 -2.6977 -1.9330  0.5872
 1044SOL     OW14593   1.416   3.428   5.079 -0.8141 -0.6694  0.3873
 1044SOL    HW114594   1.374   3.408   5.163 -2.9966  1.8752 -0.0718
 1044SOL    HW214595   1.393   3.518   5.054  2.5583 -0.2872 -1.3545
 1045SOL     OW14596   2.408   3.412  12.801  0.3835 -0.4640 -0.3875
 1045SOL    HW114597   2.328   3.379  12.760 -0.7581  1.4854  0.2443
 1045SOL    HW214598   2.472   3.349  12.770 -0.0323 -0.9404 -0.2792
 1046SOL     OW14599   4.187   1.389   6.340  0.5368 -0.1886 -0.1536
 1046SOL    HW114600   4.106   1.440   6.342 -0.1035 -1.2620  1.0984
 1046SOL    HW214601   4.208   1.403   6.248 -1.9171  0.8104 -0.5636
 1047SOL     OW14602   3.664   3.911  15.896 -1.0695 -0.1777 -0.1725
 1047SOL    HW114603   3.696   3.839  15.841 -0.4701  0.0796 -0.1587
 1047SOL    HW214604   3.748   3.945  15.926 -0.3699 -0.4288 -1.8584
 1048SOL     OW14605   2.599   1.145   7.113  0.1783  0.4172  0.1993
 1048SOL    HW114606   2.509   1.175   7.119 -0.4526 -1.2482 -0.7481
 1048SOL    HW214607   2.600   1.052   7.138 -2.6567  0.1344 -0.8129
 1049SOL     OW14608   2.920   0.230   4.261 -0.3063  0.4570 -0.2007
 1049SOL    HW114609   2.832   0.221   4.226 -1.1617 -2.0816  2.6497
 1049SOL    HW214610   2.939   0.142   4.294 -1.8218  0.7998  1.5904
 1050SOL     OW14611   2.880   3.851   5.688 -0.1846 -0.0747 -0.1666
 1050SOL    HW114612   2.855   3.943   5.697 -1.2409 -0.3517 -0.1929
 1050SOL    HW214613   2.792   3.812   5.683 -0.6275  1.1989 -2.2202
 1051SOL     OW14614   0.605   1.758  13.614 -0.3760  0.0576  0.2806
 1051SOL    HW114615   0.564   1.735  13.531  0.0661  1.3042 -0.2847
 1051SOL    HW214616   0.545   1.709  13.670 -1.2476 -1.3847 -1.9340
 1052SOL     OW14617   2.021   3.811  10.436  0.9787 -0.0821 -0.3386
 1052SOL    HW114618   1.941   3.761  10.449  2.1439 -1.7946  0.2195
 1052SOL    HW214619   2.089   3.744  10.443  1.9413  1.1290  1.9536
 1053SOL     OW14620   1.231   0.506   8.768 -0.0845 -0.1203 -0.1633
 1053SOL    HW114621   1.259   0.415   8.781  0.1728 -0.3352 -2.2012
 1053SOL    HW214622   1.165   0.520   8.835 -0.5824 -1.8432 -0.2824
 1054SOL     OW14623   0.845   4.488   5.970  0.1271  0.6536  0.4918
 1054SOL    HW114624   0.881   4.453   5.889 -2.3694 -0.7106 -0.0160
 1054SOL    HW214625   0.841   4.401   6.011  1.7764  0.0887 -0.5475
 1055SOL     OW14626   2.774   2.983   9.086 -0.2250  0.1081  0.1329
 1055SOL    HW114627   2.689   2.983   9.131 -0.0956  1.4381  0.3955
 1055SOL    HW214628   2.765   2.918   9.017 -1.3593  0.3995  0.0093
 1056SOL     OW14629   2.132   4.692   0.998  0.1160  0.5984  0.1230
 1056SOL    HW114630   2.184   4.675   1.077  1.6815 -3.7668 -1.8257
 1056SOL    HW214631   2.199   4.715   0.933 -0.3392 -0.2799 -0.6555
 1057SOL     OW14632   4.181   0.606  16.989 -0.4817 -0.3512  0.3368
 1057SOL    HW114633   4.222   0.541  17.046 -1.0876 -1.2473 -0.2326
 1057SOL    HW214634   4.092   0.572  16.999 -0.5872 -0.5600 -1.3774
 1058SOL     OW14635   0.893   2.746   8.430 -0.9790 -0.0295 -0.2366
 1058SOL    HW114636   0.892   2.762   8.336  2.3092  2.6216  0.2002
 1058SOL    HW214637   0.803   2.720   8.450 -1.4072 -1.0779 -3.4271
 1059SOL     OW14638   3.546   0.903   0.796  0.0068 -0.0264  0.3108
 1059SOL    HW114639   3.565   0.812   0.774  1.7529  0.0779  1.3885
 1059SOL    HW214640   3.564   0.917   0.889 -0.1482 -1.2568  0.5306
 1060SOL     OW14641   1.171   1.198   7.304 -0.0640  0.3262  0.5197
 1060SOL    HW114642   1.126   1.129   7.254  0.2766  1.0588 -0.7843
 1060SOL    HW214643   1.121   1.186   7.385  1.5399  0.1409  1.4705
 1061SOL     OW14644   3.128   4.024   6.473 -0.0166 -0.0343  0.9577
 1061SOL    HW114645   3.048   4.075   6.459 -0.6249 -1.1394  0.3471
 1061SOL    HW214646   3.160   3.991   6.389  0.1362 -1.9161  1.7616
 1062SOL     OW14647   2.608   2.912   6.375  0.5701  0.5079 -0.0427
 1062SOL    HW114648   2.689   2.948   6.338  0.7821  0.6752  0.5818
 1062SOL    HW214649   2.554   2.987   6.396  0.4696  0.9067 -1.7123
 1063SOL     OW14650   2.443   3.450  15.230  0.1784 -0.5577 -0.3814
 1063SOL    HW114651   2.496   3.518  15.188 -0.7562  1.1191  1.1348
 1063SOL    HW214652   2.478   3.451  15.319  2.1810  1.1795 -1.1903
 1064SOL     OW14653   0.645   4.665   4.319  0.0842  0.3171 -0.2143
 1064SOL    HW114654   0.740   4.663   4.327 -0.0640  1.4918  1.8090
 1064SOL    HW214655   0.640   0.025   4.275  1.1027  0.0950 -0.7697
 1065SOL     OW14656   1.733   2.454  11.396 -0.2227 -0.2063 -0.7286
 1065SOL    HW114657   1.784   2.388  11.349 -0.4880  0.3645 -1.8130
 1065SOL    HW214658   1.645   2.418  11.407  0.3150 -1.1508  0.5005
 1066SOL     OW14659   1.939   3.926   8.171 -0.2555  0.3599 -0.0449
 1066SOL    HW114660   1.856   3.931   8.219 -0.5523  0.6623 -0.5843
 1066SOL    HW214661   1.972   4.014   8.189 -0.1006  0.0399  1.2426
 1067SOL     OW14662   0.352   0.436   6.497  0.5874  0.1661  0.1152
 1067SOL    HW114663   0.308   0.362   6.454  0.5785  0.8148 -0.9964
 1067SOL    HW214664   0.329   0.509   6.439  2.5724 -1.9579 -3.3785
 1068SOL     OW14665   2.160   3.851   6.655 -0.4282 -0.4594  0.0827
 1068SOL    HW114666   2.223   3.905   6.607 -0.2299  0.0441  0.9024
 1068SOL    HW214667   2.170   3.770   6.606  1.9473  0.0502 -0.2551
 1069SOL     OW14668   2.648   2.653  11.227 -0.2670 -0.0652  0.4114
 1069SOL    HW114669   2.595   2.645  11.148  0.1786 -1.4909  0.2500
 1069SOL    HW214670   2.605   2.720  11.280 -1.9159 -1.5088  0.8509
 1070SOL     OW14671   3.602   1.457   3.606 -0.2425 -0.0132 -0.3273
 1070SOL    HW114672   3.642   1.404   3.537  1.3786 -1.6135  1.8455
 1070SOL    HW214673   3.526   1.400   3.618 -1.3446  1.6006  0.3826
 1071SOL     OW14674   3.307   1.835   3.074 -0.1019  0.3034  0.6415
 1071SOL    HW114675   3.271   1.800   2.992  1.5202 -0.7661  0.3832
 1071SOL    HW214676   3.267   1.784   3.144 -2.7188  1.0979 -0.2852
 1072SOL     OW14677   1.817   2.019   4.048  0.2696 -0.2982 -0.1483
 1072SOL    HW114678   1.833   2.053   4.137  2.5376 -1.3711 -0.1394
 1072SOL    HW214679   1.728   1.986   4.059  0.7852 -1.0041  1.9506
 1073SOL     OW14680   0.989   2.453   7.490 -0.5974  0.5525  0.5226
 1073SOL    HW114681   1.030   2.534   7.522 -1.3758  0.6049  1.3697
 1073SOL    HW214682   0.902   2.447   7.530 -1.2775 -0.4903 -1.0824
 1074SOL     OW14683   0.436   4.314   4.351 -0.2838  0.3562  0.0994
 1074SOL    HW114684   0.368   4.286   4.412 -1.0186  1.0239 -0.4072
 1074SOL    HW214685   0.471   4.232   4.316  0.0821  1.7829 -2.8741
 1075SOL     OW14686   2.248   4.139   9.721  0.2627 -0.7117 -0.4454
 1075SOL    HW114687   2.268   4.109   9.633  0.6541  0.5346 -0.7888
 1075SOL    HW214688   2.154   4.153   9.710  0.5854  1.5106 -0.4231
 1076SOL     OW14689   3.663   2.474   2.896  0.0872  0.3722 -0.3581
 1076SOL    HW114690   3.578   2.429   2.886  0.3702  0.2369 -2.2537
 1076SOL    HW214691   3.714   2.406   2.940 -1.4043 -0.1203  0.6301
 1077SOL     OW14692   4.643   2.456   6.344  0.4213 -0.1505 -0.0711
 1077SOL    HW114693   4.574   2.482   6.283 -0.8365 -0.7480  1.1258
 1077SOL    HW214694   4.683   2.543   6.351  0.9470 -0.4103  0.1347
 1078SOL     OW14695   0.605   3.965   5.756 -0.2469 -0.1824 -0.2657
 1078SOL    HW114696   0.574   4.037   5.811  1.5438  0.5928 -0.2895
 1078SOL    HW214697   0.520   3.939   5.719 -0.7927 -0.1036  0.9186
 1079SOL     OW14698   0.931   4.244   4.275 -0.5538 -0.1077 -0.2559
 1079SOL    HW114699   0.993   4.294   4.328 -0.1511 -0.8227 -0.0610
 1079SOL    HW214700   0.989   4.193   4.219 -0.6403  1.1107 -1.4536
 1080SOL     OW14701   1.541   0.430   2.107 -0.2213 -0.0052  0.6796
 1080SOL    HW114702   1.533   0.363   2.038  2.5713  0.0371  0.3427
 1080SOL    HW214703   1.533   0.516   2.066  4.4871  0.0397 -0.1215
 1081SOL     OW14704   2.533   2.206   0.974  0.0864  0.2254  0.3941
 1081SOL    HW114705   2.628   2.211   0.963  0.1627 -1.1841  0.3491
 1081SOL    HW214706   2.519   2.299   0.993 -0.6520 -0.6959  4.3416
 1082SOL     OW14707   2.364   2.655   4.589 -0.2950 -0.6427  0.4384
 1082SOL    HW114708   2.310   2.693   4.658 -0.8128 -2.6971  1.1659
 1082SOL    HW214709   2.454   2.662   4.622  0.9570  0.4810 -3.2025
 1083SOL     OW14710   4.155   2.393   3.240  0.5007 -0.3710 -0.1303
 1083SOL    HW114711   4.140   2.324   3.305  0.3175 -0.5531 -0.3652
 1083SOL    HW214712   4.175   2.333   3.167 -2.6561  0.4224 -1.6489
 1084SOL     OW14713   0.361   4.607   3.723  0.6197 -0.0663  0.9319
 1084SOL    HW114714   0.342   4.572   3.637 -2.5610  0.5135  1.4023
 1084SOL    HW214715   0.333   4.535   3.779 -2.2043 -0.9981 -1.6677
 1085SOL     OW14716   2.183   2.139   6.240  0.5980 -0.2515 -0.0682
 1085SOL    HW114717   2.100   2.124   6.193  0.6168  0.7071 -0.3982
 1085SOL    HW214718   2.184   2.229   6.271  1.7391 -0.3744  0.2228
 1086SOL     OW14719   0.309   2.181   6.378 -0.0813 -1.0846 -0.5588
 1086SOL    HW114720   0.262   2.259   6.407  0.9072 -0.2118 -1.2834
 1086SOL    HW214721   0.239   2.118   6.362 -1.8509  0.9366 -0.8551
 1087SOL     OW14722   3.391   4.145   6.310 -0.0318 -0.5071  0.5919
 1087SOL    HW114723   3.360   4.060   6.281 -3.3266  0.4847  1.1754
 1087SOL    HW214724   3.383   4.126   6.404  3.0025  0.2127  0.9979
 1088SOL     OW14725   0.381   2.719  15.269 -0.2044  0.3398 -0.3837
 1088SOL    HW114726   0.356   2.728  15.177 -0.4817 -0.1692 -0.3559
 1088SOL    HW214727   0.324   2.656  15.311 -1.7907  0.1381 -2.8478
 1089SOL     OW14728   1.468   4.641   5.501  0.4209 -0.0823 -0.3996
 1089SOL    HW114729   1.562   4.635   5.488  0.5782  0.8343  0.3292
 1089SOL    HW214730   1.461   4.660   5.594  0.5785  1.1959 -0.6489
 1090SOL     OW14731   2.737   2.936   7.403  0.1665 -0.0940 -0.8538
 1090SOL    HW114732   2.817   2.959   7.356  1.4953 -0.9874  0.9619
 1090SOL    HW214733   2.707   2.857   7.357 -0.2837  0.5372 -1.6521
 1091SOL     OW14734   1.582   1.379   7.287  0.4463 -0.2628 -0.2326
 1091SOL    HW114735   1.565   1.286   7.303 -0.0191 -0.4678 -1.9671
 1091SOL    HW214736   1.494   1.412   7.268 -0.0422 -1.4469 -0.0235
 1092SOL     OW14737   2.068   3.253   7.565 -0.0614  0.6195 -0.4024
 1092SOL    HW114738   2.083   3.295   7.650  1.5499  1.2654 -1.0150
 1092SOL    HW214739   1.985   3.291   7.536 -0.5151  0.4441  0.6576
 1093SOL     OW14740   0.093   1.934   8.282 -0.5668  0.6684  0.0375
 1093SOL    HW114741   0.017   1.878   8.296 -0.4175  0.0765 -1.5577
 1093SOL    HW214742   0.051   2.011   8.244 -0.8143 -0.5602 -2.1386
 1094SOL     OW14743   0.609   4.252  15.455 -0.5060  0.5034 -0.2974
 1094SOL    HW114744   0.555   4.225  15.381 -0.3688 -2.0201  0.5405
 1094SOL    HW214745   0.615   4.347  15.445 -1.4136  0.6645  0.6938
 1095SOL     OW14746   1.753   1.561   2.270 -0.7069 -0.1574  0.1143
 1095SOL    HW114747   1.742   1.549   2.176  0.6770 -4.5999  0.5046
 1095SOL    HW214748   1.799   1.645   2.274  2.1419 -1.6408 -1.5630
 1096SOL     OW14749   0.818   2.358  15.781 -0.1782 -0.1283  0.0013
 1096SOL    HW114750   0.887   2.416  15.750 -0.1542 -1.0150 -1.5638
 1096SOL    HW214751   0.809   2.388  15.872  1.2040  0.9982 -0.2279
 1097SOL     OW14752   1.007   2.773   2.433 -0.8165 -0.4337  0.3060
 1097SOL    HW114753   1.088   2.821   2.449 -1.2097  0.6027 -0.7921
 1097SOL    HW214754   1.046   2.704   2.380  0.4313  0.9189 -0.5410
 1098SOL     OW14755   4.452   2.675  15.206 -0.0341 -0.3306  0.9537
 1098SOL    HW114756   4.532   2.688  15.257  1.5115 -0.0727 -1.5289
 1098SOL    HW214757   4.459   2.581  15.186 -1.1102 -0.2577  0.2665
 1099SOL     OW14758   2.985   0.336   2.642 -0.6163  0.3095 -0.4991
 1099SOL    HW114759   2.932   0.414   2.627  0.2894  0.8538 -0.8814
 1099SOL    HW214760   3.024   0.312   2.558 -0.3095 -1.5164  0.1690
 1100SOL     OW14761   4.123   0.312   3.891 -0.1601  0.4173 -0.1320
 1100SOL    HW114762   4.058   0.316   3.822  0.0824  0.1684 -0.3777
 1100SOL    HW214763   4.088   0.228   3.921  0.4692  0.4325  0.6495
 1101SOL     OW14764   3.610   0.265   1.678 -0.2633 -0.6059  0.2355
 1101SOL    HW114765   3.670   0.294   1.748 -0.5556 -2.0701  1.0762
 1101SOL    HW214766   3.645   0.176   1.669 -3.4904 -1.6925 -1.3053
 1102SOL     OW14767   3.084   1.271   6.995 -0.2617  0.6507 -0.3657
 1102SOL    HW114768   3.013   1.298   6.937 -0.3528  0.0717 -0.5286
 1102SOL    HW214769   3.152   1.331   6.966 -0.4034  1.8297  1.6867
 1103SOL     OW14770   2.203   4.630   8.906  0.0722 -0.2635 -0.1064
 1103SOL    HW114771   2.146   4.706   8.917  0.8595  0.3741 -0.4900
 1103SOL    HW214772   2.179   4.586   8.824 -0.7220 -0.5672  0.2890
 1104SOL     OW14773   4.103   1.325   0.339 -0.0598 -0.1866 -0.1291
 1104SOL    HW114774   4.013   1.294   0.335  0.4607 -1.9916  2.2985
 1104SOL    HW214775   4.100   1.412   0.379  1.3239  0.0165 -0.4512
 1105SOL     OW14776   4.186   4.610   3.111  0.4919  0.6020  0.0288
 1105SOL    HW114777   4.147   4.610   3.198  0.3003  1.1323 -0.0538
 1105SOL    HW214778   4.239   4.530   3.113  0.2307  0.4160 -0.6945
 1106SOL     OW14779   0.920   3.676  13.443  0.2193  0.6481 -0.1807
 1106SOL    HW114780   0.899   3.699  13.353  0.7924 -1.7389 -0.9298
 1106SOL    HW214781   1.014   3.695  13.445  0.3354  0.2640 -1.8979
 1107SOL     OW14782   3.665   3.587   9.255 -0.2659  0.0296 -0.2145
 1107SOL    HW114783   3.712   3.634   9.187 -1.5484  0.9401 -0.4755
 1107SOL    HW214784   3.747   3.554   9.291 -0.0207 -0.3692 -1.1198
 1108SOL     OW14785   3.271   2.019  16.209  0.3013  0.0971  0.4263
 1108SOL    HW114786   3.320   1.938  16.219  0.0131 -0.1435 -0.1417
 1108SOL    HW214787   3.233   2.040  16.295  0.7137 -5.0188  1.8537
 1109SOL     OW14788   1.787   1.980   4.737  0.4048  0.0972 -0.0621
 1109SOL    HW114789   1.756   2.041   4.805 -2.4007 -1.3041 -0.0910
 1109SOL    HW214790   1.847   2.039   4.690  0.9012 -0.3355  0.0313
 1110SOL     OW14791   0.661   2.894   6.779 -0.3528  0.0097 -0.3389
 1110SOL    HW114792   0.605   2.856   6.847  1.5624 -1.9103  0.1494
 1110SOL    HW214793   0.737   2.837   6.777  0.3377  0.9225 -0.3869
 1111SOL     OW14794   3.976   2.734  14.690 -0.0258 -0.4076 -0.0224
 1111SOL    HW114795   3.920   2.660  14.665 -0.6186 -0.1591  0.5789
 1111SOL    HW214796   3.903   2.792  14.712 -0.3674 -0.7097 -0.3611
 1112SOL     OW14797   0.375   3.593   9.260  0.4833 -0.2381 -0.0820
 1112SOL    HW114798   0.427   3.607   9.181 -0.8905 -1.6799 -1.2374
 1112SOL    HW214799   0.286   3.612   9.229  0.0834  0.3267  1.4011
 1113SOL     OW14800   3.917   2.325   7.578  0.1132  0.3408  0.3813
 1113SOL    HW114801   3.842   2.275   7.609  0.4641  0.3488  1.2277
 1113SOL    HW214802   3.940   2.277   7.498  0.3206  0.4754  0.3592
 1114SOL     OW14803   0.231   1.647   2.776 -0.3806  0.4013 -0.0057
 1114SOL    HW114804   0.272   1.637   2.862 -2.5462 -0.8713  0.8840
 1114SOL    HW214805   0.298   1.627   2.711  2.0657 -0.3891  2.7638
 1115SOL     OW14806   2.414   1.303   7.763 -0.2100 -0.2100 -0.4313
 1115SOL    HW114807   2.360   1.245   7.710 -4.5618  0.4490  3.2723
 1115SOL    HW214808   2.370   1.298   7.848  0.2521 -0.6379 -0.2211
 1116SOL     OW14809   3.124   1.322   4.557 -0.0642  0.2281 -0.0643
 1116SOL    HW114810   3.116   1.327   4.653  0.5354  0.3636 -0.0229
 1116SOL    HW214811   3.033   1.323   4.527 -1.2180 -0.9057  3.3518
 1117SOL     OW14812   3.265   3.951  15.601 -0.5199 -0.5432 -0.2615
 1117SOL    HW114813   3.270   3.904  15.685  0.1541 -1.2472 -0.6946
 1117SOL    HW214814   3.359   3.949  15.582 -0.4757 -1.5949  0.0399
 1118SOL     OW14815   3.859   2.088   8.666  0.5119 -0.0204 -0.2498
 1118SOL    HW114816   3.855   2.094   8.762 -0.6375  0.4893 -0.3334
 1118SOL    HW214817   3.946   2.129   8.665  0.7813 -0.6050 -0.5914
 1119SOL     OW14818   0.301   1.691   6.512  0.5636  0.1415 -0.2769
 1119SOL    HW114819   0.303   1.777   6.554 -0.0755  0.9261 -1.8497
 1119SOL    HW214820   0.269   1.712   6.425 -1.8205 -1.2760  0.2592
 1120SOL     OW14821   2.773   2.317  10.769  0.4247 -0.3534  0.3791
 1120SOL    HW114822   2.702   2.269  10.726 -1.1912  1.1579  1.3705
 1120SOL    HW214823   2.845   2.293  10.712 -0.1985 -3.2257  0.8231
 1121SOL     OW14824   0.206   1.258  11.900 -0.1074  0.0815  0.6148
 1121SOL    HW114825   0.271   1.234  11.833 -0.6606 -0.0232  0.1217
 1121SOL    HW214826   0.201   1.352  11.883 -1.2998  0.3953  2.6830
 1122SOL     OW14827   1.666   0.875  14.664 -0.0369  0.2258 -0.4445
 1122SOL    HW114828   1.655   0.849  14.573  0.4104 -0.5827 -0.2726
 1122SOL    HW214829   1.640   0.967  14.656 -1.4839  0.0132  1.6691
 1123SOL     OW14830   4.417   1.449  12.927 -0.1171 -0.5102  0.4436
 1123SOL    HW114831   4.385   1.359  12.927  1.1807 -0.9679 -2.6674
 1123SOL    HW214832   4.472   1.460  12.849 -1.1117 -3.0586 -0.6279
 1124SOL     OW14833   2.130   3.899  16.516 -0.2711  0.0755 -0.2201
 1124SOL    HW114834   2.057   3.959  16.529 -0.8122 -0.2665 -1.6900
 1124SOL    HW214835   2.132   3.840  16.592 -0.4019  1.2984  0.7359
 1125SOL     OW14836   2.637   3.405   5.529  0.0520  0.0020  0.2769
 1125SOL    HW114837   2.666   3.402   5.438  1.8704  2.3315  0.7839
 1125SOL    HW214838   2.559   3.460   5.530 -0.6073 -0.8882 -1.6479
 1126SOL     OW14839   0.655   2.928  10.368  0.3598 -0.2483  0.0276
 1126SOL    HW114840   0.619   3.012  10.340 -0.9296 -1.0713 -0.7521
 1126SOL    HW214841   0.732   2.960  10.415 -0.0424 -1.2481  1.3750
 1127SOL     OW14842   4.375   1.833   4.762  0.6150 -0.0607 -0.3339
 1127SOL    HW114843   4.341   1.781   4.835  2.8422 -1.4586 -0.2857
 1127SOL    HW214844   4.464   1.840   4.797  1.2199  0.4658 -2.0024
 1128SOL     OW14845   1.672   2.908   8.490 -0.4062 -0.2978 -0.8137
 1128SOL    HW114846   1.633   2.995   8.492  1.7463  0.6533  1.3712
 1128SOL    HW214847   1.695   2.906   8.583 -0.3796  0.1938 -0.8139
 1129SOL     OW14848   2.443   4.051   8.654 -0.1746 -0.5613  0.0506
 1129SOL    HW114849   2.394   4.129   8.681  0.6423  0.2192 -0.7663
 1129SOL    HW214850   2.531   4.068   8.686  0.4550 -0.9504 -1.5153
 1130SOL     OW14851   3.348   4.163  14.084  0.2931 -0.3844  0.0926
 1130SOL    HW114852   3.350   4.073  14.118 -5.0107 -0.1391  1.0423
 1130SOL    HW214853   3.292   4.156  14.006 -0.5190  1.2477  0.5443
 1131SOL     OW14854   3.826   1.541   2.052 -0.3038  0.2792 -0.1051
 1131SOL    HW114855   3.874   1.479   2.108  2.4817  2.7315  0.2323
 1131SOL    HW214856   3.746   1.493   2.031 -1.0955  1.8345 -0.6398
 1132SOL     OW14857   1.154   3.550   9.034  0.5850  0.2236 -0.0079
 1132SOL    HW114858   1.103   3.596   9.101 -0.0706  0.5096 -0.7031
 1132SOL    HW214859   1.204   3.487   9.085  2.1253  1.1326 -0.3753
 1133SOL     OW14860   0.028   4.412   7.112  0.3909  0.2165 -0.5987
 1133SOL    HW114861   0.030   4.444   7.022 -2.6284 -0.6271 -0.9681
 1133SOL    HW214862   4.663   4.432   7.137  0.0807 -0.0287 -1.5015
 1134SOL     OW14863   4.581   4.710   4.558 -0.7567  0.1488  0.4902
 1134SOL    HW114864   4.653   4.705   4.495 -1.2732 -1.0740 -0.0104
 1134SOL    HW214865   4.529   4.642   4.516  0.8973  1.6054 -3.9169
 1135SOL     OW14866   2.717   0.544   2.059  0.0625 -0.5696  0.2081
 1135SOL    HW114867   2.764   0.539   1.976 -2.4870 -0.5601 -1.2504
 1135SOL    HW214868   2.624   0.554   2.039 -0.0595 -0.2647  0.9374
 1136SOL     OW14869   2.010   3.950  14.450 -0.5559  0.1108 -0.2711
 1136SOL    HW114870   2.060   3.994  14.518  2.2609 -0.7718 -1.7730
 1136SOL    HW214871   2.056   3.981  14.372 -0.3234 -0.6186 -0.4251
 1137SOL     OW14872   2.147   2.843   5.314 -0.7049  1.0799 -0.0285
 1137SOL    HW114873   2.094   2.893   5.375 -4.0405 -0.4586 -1.7018
 1137SOL    HW214874   2.214   2.811   5.374 -0.9761 -1.0756 -0.8902
 1138SOL     OW14875   4.387   3.698  11.605  0.6082 -0.6095  0.0691
 1138SOL    HW114876   4.476   3.702  11.641  0.6312 -0.4038 -0.0097
 1138SOL    HW214877   4.410   3.721  11.515 -2.6157  3.4421  0.2991
 1139SOL     OW14878   0.305   0.047   8.343 -0.1958  0.3562  0.4139
 1139SOL    HW114879   0.229   0.060   8.400 -1.6033 -2.2262 -0.8445
 1139SOL    HW214880   0.276   4.692   8.299  0.8598  1.2034 -1.8154
 1140SOL     OW14881   0.583   1.727   2.386 -0.1887  0.2666 -0.5001
 1140SOL    HW114882   0.562   1.639   2.355  3.4048 -0.5473 -0.6670
 1140SOL    HW214883   0.672   1.725   2.422  0.2996  1.9354 -1.6295
 1141SOL     OW14884   1.594   2.696  16.779  0.1074 -0.2494  0.5246
 1141SOL    HW114885   1.554   2.762  16.723  2.1943  0.3713 -0.2291
 1141SOL    HW214886   1.548   2.614  16.760  0.2178  0.3545 -2.2871
 1142SOL     OW14887   2.488   1.029  15.067  0.5598 -0.0609  1.1366
 1142SOL    HW114888   2.417   0.989  15.118  1.5503 -0.3005  2.3174
 1142SOL    HW214889   2.463   1.121  15.058  1.6218 -0.1012 -2.2578
 1143SOL     OW14890   4.145   0.216   6.968  0.4023  0.1394  0.6363
 1143SOL    HW114891   4.219   0.226   6.908  0.2060  0.5488  0.4691
 1143SOL    HW214892   4.087   0.282   6.932 -0.7820 -1.2600 -0.0324
 1144SOL     OW14893   3.178   4.287   4.327  0.3574  0.5843 -0.4230
 1144SOL    HW114894   3.166   4.315   4.418 -0.4759  0.8973 -0.6350
 1144SOL    HW214895   3.268   4.317   4.313  0.1872  0.4435 -1.8414
 1145SOL     OW14896   1.179   3.499   4.863  0.3225  0.0030 -0.7206
 1145SOL    HW114897   1.181   3.431   4.797  0.7922  0.6565 -1.3797
 1145SOL    HW214898   1.180   3.450   4.945  2.9443 -0.6577 -1.1816
 1146SOL     OW14899   3.743   0.623   7.772 -0.5698  0.0695 -0.0200
 1146SOL    HW114900   3.661   0.660   7.739 -2.0172 -1.7403  1.5422
 1146SOL    HW214901   3.777   0.598   7.687  2.0241 -2.2705  1.7317
 1147SOL     OW14902   4.333   0.605   5.913 -0.1213  0.0735 -0.0751
 1147SOL    HW114903   4.418   0.587   5.872  0.8352  0.5259  1.7317
 1147SOL    HW214904   4.356   0.615   6.005 -0.1015 -2.4075  0.1938
 1148SOL     OW14905   0.022   1.579   5.166 -0.0992 -0.3634  0.0681
 1148SOL    HW114906   0.054   1.527   5.093 -1.5182 -0.6711 -0.3339
 1148SOL    HW214907   0.006   1.659   5.115  1.1425  1.0526  1.8743
 1149SOL     OW14908   0.727   3.720   8.010  0.2243 -0.4677  0.1585
 1149SOL    HW114909   0.640   3.746   8.041  0.5680 -1.6121  2.0753
 1149SOL    HW214910   0.724   3.626   7.995  0.0865  0.0135 -2.8285
 1150SOL     OW14911   1.310   0.542   8.316 -0.5096 -0.4123 -0.5031
 1150SOL    HW114912   1.322   0.449   8.297  0.1235 -0.4945  0.2747
 1150SOL    HW214913   1.216   0.555   8.306 -0.8538 -1.1375  1.8467
 1151SOL     OW14914   1.733   1.189   8.896 -0.2067  0.4563  0.1255
 1151SOL    HW114915   1.709   1.132   8.823 -1.7651 -1.5527  2.2147
 1151SOL    HW214916   1.824   1.197   8.869 -0.0657  1.4660  0.8932
 1152SOL     OW14917   1.388   4.057   7.062  0.1028  0.1882  0.1628
 1152SOL    HW114918   1.410   4.080   6.972  1.8336 -0.4330  0.4337
 1152SOL    HW214919   1.363   3.965   7.056 -2.1195  1.0062 -2.9988
 1153SOL     OW14920   4.281   3.324   0.909  0.6576 -0.0709 -0.5404
 1153SOL    HW114921   4.282   3.387   0.837 -0.0060 -0.6226 -1.0410
 1153SOL    HW214922   4.212   3.259   0.894 -0.2313  0.1687  2.4830
 1154SOL     OW14923   3.275   0.849  14.711  0.4857 -0.1032 -0.2229
 1154SOL    HW114924   3.250   0.913  14.645  0.4472 -0.1253 -0.2301
 1154SOL    HW214925   3.271   0.896  14.795  2.7283  1.2563 -0.8736
 1155SOL     OW14926   3.569   4.307   9.711 -0.0525 -0.3322  0.0518
 1155SOL    HW114927   3.567   4.399   9.737 -1.1961 -0.9182  2.0675
 1155SOL    HW214928   3.557   4.283   9.803  1.0490  0.4536  0.4037
 1156SOL     OW14929   2.644   1.052   3.722  0.0267  0.4447 -0.2801
 1156SOL    HW114930   2.659   1.142   3.750  1.7720  0.5798 -1.6569
 1156SOL    HW214931   2.732   1.024   3.698  0.0226 -1.1189  1.5274
 1157SOL     OW14932   0.749   4.439  15.693 -0.5767  0.2951 -0.1240
 1157SOL    HW114933   0.660   4.439  15.728  0.1433  0.6781  1.6986
 1157SOL    HW214934   0.798   4.468  15.771 -0.7684  0.0220  0.0983
 1158SOL     OW14935   1.344   1.599   5.021  0.3172 -0.0619  0.2316
 1158SOL    HW114936   1.297   1.519   4.996  0.4124 -0.8793  2.6251
 1158SOL    HW214937   1.434   1.569   5.009  0.0480 -0.6087 -0.4650
 1159SOL     OW14938   3.076   3.035   8.972 -0.1989 -0.3074 -0.0707
 1159SOL    HW114939   3.097   3.126   8.952 -0.1715  0.1605  2.0173
 1159SOL    HW214940   3.157   2.994   8.943 -0.2033 -0.1204 -0.3537
 1160SOL     OW14941   3.001   3.412   5.813 -0.7879 -0.2229  0.1519
 1160SOL    HW114942   3.004   3.473   5.887 -1.1708 -0.5455  0.4340
 1160SOL    HW214943   2.908   3.392   5.805 -1.3199  2.0865  0.6208
 1161SOL     OW14944   4.035   3.656   2.087 -0.0765  0.2512  0.4611
 1161SOL    HW114945   3.989   3.734   2.055 -0.9613 -0.5688 -0.2570
 1161SOL    HW214946   4.066   3.681   2.175  0.5195 -1.9080  0.8645
 1162SOL     OW14947   4.277   3.861   4.069  0.1235  0.2021  0.1134
 1162SOL    HW114948   4.219   3.823   4.003 -2.1122 -0.2124  2.3360
 1162SOL    HW214949   4.229   3.936   4.103 -1.6735  0.0517 -2.1271
 1163SOL     OW14950   2.502   4.693  15.463 -0.2921 -0.5732 -0.5753
 1163SOL    HW114951   2.433   0.035  15.462 -0.0538 -0.3147 -0.1271
 1163SOL    HW214952   2.480   4.654  15.379  1.4179 -1.2735 -0.6974
 1164SOL     OW14953   1.404   3.534   4.150  0.5212 -0.5761 -0.6397
 1164SOL    HW114954   1.393   3.629   4.158 -1.1150 -0.8649  0.5358
 1164SOL    HW214955   1.316   3.510   4.180  0.2918  0.9753 -0.0847
 1165SOL     OW14956   0.791   3.300   3.262 -0.0149  0.1694 -0.0846
 1165SOL    HW114957   0.859   3.267   3.321 -0.4322 -1.0588 -0.2905
 1165SOL    HW214958   0.830   3.291   3.174  0.5904  1.7970  0.0210
 1166SOL     OW14959   0.642   4.283   2.631 -0.4544 -0.4062  0.0297
 1166SOL    HW114960   0.692   4.292   2.550  0.7977 -1.9272  0.6179
 1166SOL    HW214961   0.587   4.361   2.629  1.0424  0.6512  0.8182
 1167SOL     OW14962   0.442   2.856   9.546  0.4614  0.0453 -0.1718
 1167SOL    HW114963   0.511   2.817   9.493 -0.8339  0.6476 -2.2703
 1167SOL    HW214964   0.492   2.846   9.627  1.1086 -0.5049 -0.6393
 1168SOL     OW14965   2.633   2.495   8.834  0.7505  0.5607  1.0053
 1168SOL    HW114966   2.698   2.560   8.808 -0.0996  0.0996 -2.3616
 1168SOL    HW214967   2.576   2.544   8.893  0.6482 -0.7695  2.0207
 1169SOL     OW14968   2.902   2.537  12.354  0.6475  0.2827 -0.0188
 1169SOL    HW114969   2.835   2.482  12.395  0.4031  0.1127 -0.6328
 1169SOL    HW214970   2.979   2.521  12.408  0.6805  1.3726  0.2529
 1170SOL     OW14971   3.494   2.601   7.289 -0.6455 -0.1827 -0.3224
 1170SOL    HW114972   3.413   2.592   7.238 -0.5755  2.2147 -0.8824
 1170SOL    HW214973   3.475   2.668   7.356  1.7966  0.5586 -0.3728
 1171SOL     OW14974   2.895   3.887   4.717  0.0874  0.2010 -0.6289
 1171SOL    HW114975   2.893   3.982   4.722 -0.9650  0.1155  0.7446
 1171SOL    HW214976   2.941   3.864   4.637  0.0639 -2.6700  0.1693
 1172SOL     OW14977   0.913   3.177   7.233  0.5466 -0.2863  0.5300
 1172SOL    HW114978   0.963   3.246   7.276 -1.5804  1.7357 -0.2552
 1172SOL    HW214979   0.826   3.205   7.261 -1.0564 -2.0352 -2.6637
 1173SOL     OW14980   4.454   0.639   3.476 -0.1265 -0.2173  0.2299
 1173SOL    HW114981   4.370   0.601   3.452 -0.6343 -0.1597  1.8934
 1173SOL    HW214982   4.489   0.579   3.542  1.0374  0.4163  0.1957
 1174SOL     OW14983   0.889   3.087  11.598  0.5418 -0.3091 -0.9471
 1174SOL    HW114984   0.824   3.025  11.566 -0.3916 -0.1313  0.5870
 1174SOL    HW214985   0.952   3.080  11.527  1.1477 -1.5869 -0.2943
 1175SOL     OW14986   1.166   2.792   6.095 -0.6033 -0.0131  0.2012
 1175SOL    HW114987   1.148   2.801   6.189 -1.3320 -0.6349  0.1144
 1175SOL    HW214988   1.095   2.851   6.069 -1.5275 -0.4630  1.6910
 1176SOL     OW14989   0.019   3.724  14.900  1.1158 -0.2418 -0.1597
 1176SOL    HW114990   4.724   3.660  14.968  0.2533  1.4458  1.1944
 1176SOL    HW214991   4.717   3.677  14.822  0.7094 -3.1782  1.7688
 1177SOL     OW14992   2.308   3.948  17.590 -0.2340 -0.6592 -0.2961
 1177SOL    HW114993   2.352   3.886  17.533  0.1242  0.8082 -1.6119
 1177SOL    HW214994   2.383   4.008  17.592 -0.9559  0.1960  1.9621
 1178SOL     OW14995   1.064   0.181   8.234 -0.8362 -0.0471  0.0465
 1178SOL    HW114996   1.006   0.254   8.210 -1.9121 -0.0712  2.5680
 1178SOL    HW214997   1.132   0.234   8.277  0.5527 -1.8999  0.1220
 1179SOL     OW14998   4.176   1.263   5.098  0.2953 -0.5656 -0.0877
 1179SOL    HW114999   4.091   1.275   5.054 -1.0379  1.4479  3.0573
 1179SOL    HW215000   4.210   1.351   5.083  0.1908 -0.8079 -1.8329
 1180SOL     OW15001   0.134   3.154   6.659  0.1178  0.0214  0.3868
 1180SOL    HW115002   0.096   3.205   6.732 -0.7400  1.8840 -1.3580
 1180SOL    HW215003   0.075   3.173   6.587  2.4594  0.4497 -1.4265
 1181SOL     OW15004   4.247   4.094   5.067  0.2921  0.8407  0.4398
 1181SOL    HW115005   4.279   4.090   5.157  0.2680 -1.4824  0.3350
 1181SOL    HW215006   4.304   4.166   5.039  0.9812  0.1792  0.1256
 1182SOL     OW15007   1.439   4.236   8.540  0.2122 -0.1530 -0.4450
 1182SOL    HW115008   1.458   4.244   8.634  3.5060 -3.3237 -0.8227
 1182SOL    HW215009   1.364   4.295   8.539 -1.1794 -1.8903  2.2037
 1183SOL     OW15010   2.143   2.260  12.144  0.4627 -0.5835  0.1029
 1183SOL    HW115011   2.133   2.239  12.051  0.5072 -1.2745  0.2558
 1183SOL    HW215012   2.196   2.338  12.128 -0.1348 -0.1089  0.4630
 1184SOL     OW15013   4.127   1.933   8.019  1.0231 -0.1683  0.3562
 1184SOL    HW115014   4.210   1.980   8.011 -0.0599  1.9384  1.4815
 1184SOL    HW215015   4.066   1.982   7.964 -1.5618 -1.3995  2.1160
 1185SOL     OW15016   1.904   3.585   4.002 -0.4730  0.1398  0.0096
 1185SOL    HW115017   1.999   3.590   4.004 -0.5220  0.8914  0.4657
 1185SOL    HW215018   1.881   3.495   4.027  2.8076 -1.2364 -2.0734
 1186SOL     OW15019   3.091   0.991   4.585 -0.3978  0.7398  0.1222
 1186SOL    HW115020   3.034   1.067   4.578  2.1242  2.6138  0.0283
 1186SOL    HW215021   3.068   0.948   4.667 -0.1904  1.1356  0.3862
 1187SOL     OW15022   0.467   3.340   3.595  0.4778 -0.2962  0.2373
 1187SOL    HW115023   0.394   3.279   3.600  1.3627 -1.4313 -0.5525
 1187SOL    HW215024   0.501   3.321   3.507  0.4961  0.1587  0.1477
 1188SOL     OW15025   1.502   0.325   7.134 -0.0276 -0.0331 -0.0803
 1188SOL    HW115026   1.497   0.377   7.053  2.2715 -0.5725 -0.5531
 1188SOL    HW215027   1.573   0.377   7.171 -0.9784  0.3487  1.2130
 1189SOL     OW15028   0.535   4.572   2.592  0.4057 -0.3919  0.3856
 1189SOL    HW115029   0.481   4.617   2.527  0.5506 -2.9848 -1.5032
 1189SOL    HW215030   0.623   4.606   2.577 -0.1840  0.3807 -1.2903
 1190SOL     OW15031   4.334   2.004  10.698  0.1662 -0.2109  0.0911
 1190SOL    HW115032   4.415   2.027  10.743 -0.2971 -0.6112  1.1249
 1190SOL    HW215033   4.282   1.957  10.763 -1.1251  2.4485  0.9851
 1191SOL     OW15034   1.454   3.201   3.808  0.4778 -0.4287  0.0344
 1191SOL    HW115035   1.388   3.178   3.743  1.9572 -1.8446 -0.9620
 1191SOL    HW215036   1.406   3.276   3.843 -0.7212 -0.5647 -1.3259
 1192SOL     OW15037   2.462   3.184   4.232 -0.1491 -0.1773  0.4779
 1192SOL    HW115038   2.375   3.149   4.249 -0.6935  0.5447 -0.7499
 1192SOL    HW215039   2.491   3.124   4.163  0.3848  1.1567 -0.4626
 1193SOL     OW15040   2.662   3.209   5.121 -0.0585 -0.5570  0.9320
 1193SOL    HW115041   2.620   3.123   5.132  0.4932 -1.2422 -2.2281
 1193SOL    HW215042   2.750   3.181   5.147  0.3545 -1.2715 -1.2319
 1194SOL     OW15043   2.236   2.979  15.341 -0.7562  0.2653 -0.3602
 1194SOL    HW115044   2.222   3.067  15.306 -1.4197  1.0479  1.8735
 1194SOL    HW215045   2.169   2.925  15.299  1.5621 -1.0565 -2.3510
 1195SOL     OW15046   0.300   3.179   0.785  0.0033 -0.4165 -0.2871
 1195SOL    HW115047   0.206   3.193   0.776  0.3807  0.6280 -2.8844
 1195SOL    HW215048   0.320   3.240   0.856  0.4705 -0.0642 -0.7177
 1196SOL     OW15049   3.137   3.921   8.649 -0.2676 -0.3040  0.1780
 1196SOL    HW115050   3.193   3.880   8.715  1.1329  0.7817 -0.3294
 1196SOL    HW215051   3.114   4.004   8.691 -0.7409 -0.7191  0.7344
 1197SOL     OW15052   4.295   1.772   2.875 -0.4294  0.2916 -0.1458
 1197SOL    HW115053   4.284   1.726   2.792 -0.7150  2.0531 -1.0915
 1197SOL    HW215054   4.359   1.838   2.847  0.8318 -0.8642 -0.0150
 1198SOL     OW15055   2.818   0.828   9.011  0.4763 -0.1601 -0.6806
 1198SOL    HW115056   2.891   0.890   9.011  0.6153 -0.3329  0.1075
 1198SOL    HW215057   2.802   0.826   9.105  1.9243 -1.3202 -0.4606
 1199SOL     OW15058   0.493   4.231   7.921  0.5346  0.4244  0.1507
 1199SOL    HW115059   0.555   4.260   7.854  0.2361  0.1507 -0.2451
 1199SOL    HW215060   0.417   4.200   7.871  0.3212  0.7111  0.2993
 1200SOL     OW15061   1.653   3.700   4.141  0.1848  0.5922 -0.2430
 1200SOL    HW115062   1.738   3.662   4.118  0.2962  0.4518  0.4112
 1200SOL    HW215063   1.656   3.794   4.121  1.1436  0.4028 -1.0108
 1201SOL     OW15064   4.211   4.007   1.105 -0.1597 -0.2401 -0.3764
 1201SOL    HW115065   4.170   4.052   1.031 -1.0955  0.5673  0.6269
 1201SOL    HW215066   4.205   3.921   1.064 -3.3206 -0.1164 -0.1589
 1202SOL     OW15067   0.677   0.156   0.520 -0.4329 -0.1254 -0.0942
 1202SOL    HW115068   0.706   0.149   0.611 -1.3992 -0.5764  0.1793
 1202SOL    HW215069   0.597   0.208   0.529 -1.1243 -1.2983  0.5631
 1203SOL     OW15070   1.495   0.179   5.145  0.1037 -0.1684 -0.0601
 1203SOL    HW115071   1.588   0.170   5.168  0.0492 -0.9522 -0.1515
 1203SOL    HW215072   1.504   0.200   5.052  0.2073 -0.0765 -0.0291
 1204SOL     OW15073   2.704   4.292  12.790  0.1329  0.3047 -0.4558
 1204SOL    HW115074   2.669   4.254  12.709 -0.3238  0.5285 -0.3643
 1204SOL    HW215075   2.763   4.361  12.760 -0.4853  0.7901 -0.5627
 1205SOL     OW15076   2.429   2.495   4.816 -0.0825 -0.0182  0.1574
 1205SOL    HW115077   2.386   2.540   4.889  0.0430  0.3459  0.0099
 1205SOL    HW215078   2.514   2.464   4.844  0.9333  2.2024 -0.4754
 1206SOL     OW15079   1.875   2.465   3.199  0.2102 -0.3287  1.1163
 1206SOL    HW115080   1.919   2.447   3.116 -0.5614  0.6167  0.4990
 1206SOL    HW215081   1.936   2.513   3.254  0.0015  0.7875  0.3746
 1207SOL     OW15082   4.517   2.434   7.752  0.2402 -0.3220 -0.3134
 1207SOL    HW115083   4.537   2.519   7.713  1.2425 -0.8665 -0.9886
 1207SOL    HW215084   4.483   2.468   7.835  0.0635 -2.0101  0.2962
 1208SOL     OW15085   0.435   3.149   6.957  0.0791 -0.1510 -0.5730
 1208SOL    HW115086   0.511   3.203   6.980  1.0234 -1.6991 -0.1154
 1208SOL    HW215087   0.386   3.174   7.035  2.7387  1.3971  0.6360
 1209SOL     OW15088   3.588   3.724  16.958 -0.1248  0.1987  0.3368
 1209SOL    HW115089   3.553   3.716  16.870  0.9583  1.0964 -0.1668
 1209SOL    HW215090   3.502   3.722  17.001 -0.7455 -2.2623 -1.0311
 1210SOL     OW15091   0.983   3.064   3.885  0.1632 -0.3959 -0.4989
 1210SOL    HW115092   1.012   3.152   3.862 -1.1846  0.1611 -0.0739
 1210SOL    HW215093   0.911   3.062   3.823  0.8169 -0.2354 -1.2593
 1211SOL     OW15094   2.703   0.647   4.159 -0.2229  0.3164  0.0671
 1211SOL    HW115095   2.747   0.605   4.232 -0.6836  1.3372  0.9239
 1211SOL    HW215096   2.719   0.587   4.086  1.5092  1.3150 -0.3604
 1212SOL     OW15097   1.909   4.110  11.875  0.4705  0.4162  0.2915
 1212SOL    HW115098   1.884   4.198  11.847 -1.4448  0.3948  1.9237
 1212SOL    HW215099   1.975   4.119  11.943  0.3283  0.3280  0.4426
 1213SOL     OW15100   3.302   2.020   5.282 -0.4203 -0.2914  0.3773
 1213SOL    HW115101   3.335   2.082   5.348  1.0779 -1.9192  1.1762
 1213SOL    HW215102   3.249   1.963   5.338 -2.3276  1.0005 -0.1444
 1214SOL     OW15103   4.682   1.849   5.300 -0.0364 -0.0556 -0.2438
 1214SOL    HW115104   4.660   1.895   5.219 -0.3587  3.7023  1.9594
 1214SOL    HW215105   4.593   1.820   5.318  1.0686 -2.1796  1.7127
 1215SOL     OW15106   1.263   3.743   6.110 -0.5520 -0.3237 -0.5236
 1215SOL    HW115107   1.172   3.763   6.134 -0.3763  0.5331 -0.5886
 1215SOL    HW215108   1.301   3.831   6.116 -2.8405  0.6894 -0.9900
 1216SOL     OW15109   3.687   0.923  16.091  0.3590  0.0266  0.3785
 1216SOL    HW115110   3.766   0.978  16.092  1.7034 -1.9531  2.4247
 1216SOL    HW215111   3.718   0.834  16.103 -1.8474 -0.9975 -1.7175
 1217SOL     OW15112   3.580   4.679   4.109 -0.3367 -0.4006 -0.1818
 1217SOL    HW115113   3.591   4.595   4.063 -0.1311 -1.3001  1.5127
 1217SOL    HW215114   3.655   4.690   4.167 -0.8226 -0.4192  0.4482
 1218SOL     OW15115   1.845   0.728  14.832  0.2024  0.3175  0.0037
 1218SOL    HW115116   1.907   0.685  14.773  0.0906  0.3969 -0.1715
 1218SOL    HW215117   1.795   0.784  14.774  1.2620  0.7346 -0.5140
 1219SOL     OW15118   3.613   3.203   1.596  0.2907 -0.0484 -0.3981
 1219SOL    HW115119   3.578   3.126   1.552 -1.1797 -1.4307  3.2280
 1219SOL    HW215120   3.564   3.198   1.678 -0.8540  0.8935 -1.0157
 1220SOL     OW15121   0.959   2.827   9.410  0.0090  0.4172  0.4669
 1220SOL    HW115122   0.984   2.917   9.392 -2.5889  0.9031 -0.7532
 1220SOL    HW215123   1.027   2.807   9.475 -1.3334  0.6718  1.9468
 1221SOL     OW15124   4.259   2.104   7.420  0.3890  0.1179  0.0477
 1221SOL    HW115125   4.331   2.153   7.459  0.4244 -0.5488  0.8281
 1221SOL    HW215126   4.304   2.030   7.379  1.0015 -0.2710  1.4155
 1222SOL     OW15127   3.201   1.355   2.339 -0.3439  0.4787  0.4682
 1222SOL    HW115128   3.237   1.410   2.408 -1.4462  0.1631  1.3000
 1222SOL    HW215129   3.283   1.312   2.313 -0.3913 -0.1973  1.4118
 1223SOL     OW15130   0.788   1.847  11.317  0.1114 -0.7554  0.1239
 1223SOL    HW115131   0.740   1.765  11.325  2.3043 -1.8143  2.6002
 1223SOL    HW215132   0.804   1.859  11.224  0.4497  1.3466  0.4469
 1224SOL     OW15133   2.734   1.973   9.475  0.0021  0.3318 -0.5674
 1224SOL    HW115134   2.736   2.047   9.415  2.5846 -1.1954 -2.3850
 1224SOL    HW215135   2.683   1.916   9.417 -0.6198 -0.5298  0.8014
 1225SOL     OW15136   0.567   3.685   5.223 -0.1511 -0.2958  0.0676
 1225SOL    HW115137   0.636   3.631   5.185 -0.0926 -0.9034  1.0640
 1225SOL    HW215138   0.540   3.632   5.298  0.6580  0.8660  1.1800
 1226SOL     OW15139   0.716   3.304   5.214  0.2087  0.7117 -0.5239
 1226SOL    HW115140   0.647   3.245   5.184  2.3945 -0.6965 -2.7329
 1226SOL    HW215141   0.697   3.320   5.307  0.1552 -2.3342 -0.0341
 1227SOL     OW15142   4.581   3.997   1.924 -0.6970 -0.2783 -0.5198
 1227SOL    HW115143   4.520   3.993   1.998 -0.7361 -0.8325 -0.5817
 1227SOL    HW215144   4.603   4.089   1.937 -0.2590 -0.7914  2.5478
 1228SOL     OW15145   1.596   2.333   2.144 -0.4034  0.2346  0.4607
 1228SOL    HW115146   1.617   2.337   2.051 -0.9677  0.9242  0.3628
 1228SOL    HW215147   1.679   2.361   2.181  1.1124 -1.2565 -1.8041
 1229SOL     OW15148   2.548   0.382  11.325 -0.5545  0.3897  0.0430
 1229SOL    HW115149   2.567   0.289  11.334 -1.1956  0.1704 -0.9138
 1229SOL    HW215150   2.576   0.397  11.235  3.1002  0.9999  1.2696
 1230SOL     OW15151   3.449   2.955   4.427  0.1332  0.4367  0.4428
 1230SOL    HW115152   3.508   2.899   4.375  1.6054  0.5664  1.9538
 1230SOL    HW215153   3.425   2.897   4.499  1.2786 -2.8500 -1.7917
 1231SOL     OW15154   1.074   0.997  11.507 -0.1391  0.0924 -0.1655
 1231SOL    HW115155   1.033   1.016  11.423 -0.8021 -0.3795  0.0443
 1231SOL    HW215156   1.153   0.952  11.476 -0.1825 -0.8637  1.0699
 1232SOL     OW15157   3.915   3.453   2.700 -0.0286 -0.6369 -0.3068
 1232SOL    HW115158   3.851   3.439   2.770  0.8688  0.6287  0.7811
 1232SOL    HW215159   3.998   3.464   2.747  0.5968 -0.1883 -1.5088
 1233SOL     OW15160   2.035   0.429   2.253  0.2490  0.2900 -0.1993
 1233SOL    HW115161   2.029   0.352   2.197 -3.0243 -1.4364  2.5438
 1233SOL    HW215162   1.944   0.457   2.241  0.1097 -1.4515 -3.2921
 1234SOL     OW15163   1.123   4.695   2.439  0.0946  0.0728 -0.5787
 1234SOL    HW115164   1.164   0.035   2.382  0.2263  1.0607  0.6190
 1234SOL    HW215165   1.151   0.008   2.523  1.1459 -1.4696 -0.2218
 1235SOL     OW15166   0.793   3.286  10.889  0.7029 -0.2228 -0.2608
 1235SOL    HW115167   0.777   3.246  10.804  1.8381 -1.5260  0.1243
 1235SOL    HW215168   0.889   3.290  10.890  0.7191 -0.2664 -1.6448
 1236SOL     OW15169   2.173   4.056   7.776 -0.3209  0.5597  0.2954
 1236SOL    HW115170   2.210   4.092   7.695  1.0623  1.7984  1.4845
 1236SOL    HW215171   2.194   3.964   7.762  0.1367  0.5839  0.8669
 1237SOL     OW15172   2.505   2.296  14.675  0.1402 -0.1059  0.0835
 1237SOL    HW115173   2.441   2.367  14.683  0.0100 -0.3478  1.2261
 1237SOL    HW215174   2.452   2.231  14.630 -1.0307 -0.8196  2.4495
 1238SOL     OW15175   1.144   0.215   0.720 -0.1695  0.3399 -0.4586
 1238SOL    HW115176   1.122   0.186   0.809  0.5770 -0.2226 -0.4556
 1238SOL    HW215177   1.108   0.302   0.740 -0.3845  0.2550 -0.4821
 1239SOL     OW15178   1.237   0.809  15.806  0.3555  0.2591 -0.1198
 1239SOL    HW115179   1.144   0.813  15.782 -0.0350 -4.3395  0.6026
 1239SOL    HW215180   1.270   0.861  15.732  1.7250 -0.1708  0.2010
 1240SOL     OW15181   3.146   3.320   2.233  0.0994 -0.0567  0.2202
 1240SOL    HW115182   3.156   3.398   2.287  1.4683 -0.2111  0.1731
 1240SOL    HW215183   3.055   3.341   2.210 -0.3311 -0.1782  1.7916
 1241SOL     OW15184   1.104   3.097  16.775  0.9635  0.6699  0.3641
 1241SOL    HW115185   1.043   3.145  16.831  0.1622  1.2539 -1.0261
 1241SOL    HW215186   1.105   3.012  16.820 -2.6350  0.5556  0.2459
 1242SOL     OW15187   4.252   0.286  13.426 -0.1123  0.8667  0.6902
 1242SOL    HW115188   4.235   0.323  13.339 -1.9878  0.0393  0.6998
 1242SOL    HW215189   4.343   0.313  13.439  1.2860 -3.9688  0.6580
 1243SOL     OW15190   1.290   0.626  17.393 -0.5524 -1.0937 -0.3259
 1243SOL    HW115191   1.323   0.576  17.318  0.1441  0.3065 -0.9653
 1243SOL    HW215192   1.230   0.682  17.344 -0.6971 -0.2827  0.7787
 1244SOL     OW15193   3.092   3.194   5.974  0.5382 -0.0622 -0.3488
 1244SOL    HW115194   3.040   3.241   5.909  0.4118  0.7828  0.3519
 1244SOL    HW215195   3.175   3.239   5.958  0.5467  0.3678  0.8621
 1245SOL     OW15196   3.462   1.669   3.473  0.6996  0.0907 -0.0939
 1245SOL    HW115197   3.402   1.691   3.544  0.3179  1.2112 -0.7622
 1245SOL    HW215198   3.525   1.614   3.520  0.9873  1.9795  1.7095
 1246SOL     OW15199   3.771   2.859   1.989  0.3301  0.2930  0.3198
 1246SOL    HW115200   3.770   2.855   1.893 -1.1641 -1.3449  0.4142
 1246SOL    HW215201   3.810   2.947   1.990  0.3278  0.3001 -0.2200
 1247SOL     OW15202   3.387   3.134   6.609 -0.0582  0.0978 -0.0029
 1247SOL    HW115203   3.383   3.228   6.628  0.5436  0.2895 -0.8216
 1247SOL    HW215204   3.352   3.123   6.521 -0.0592 -2.0562  0.2767
 1248SOL     OW15205   1.342   2.921   4.578 -0.4760  0.2936  0.1352
 1248SOL    HW115206   1.425   2.944   4.621  1.1007  0.6584 -3.1213
 1248SOL    HW215207   1.383   2.877   4.504  1.6269  1.2713  0.7109
 1249SOL     OW15208   4.190   3.899   5.956  0.1899  0.0239  0.0085
 1249SOL    HW115209   4.209   3.932   5.868  2.4722 -1.5254 -0.0694
 1249SOL    HW215210   4.108   3.947   5.969  0.0887 -0.4918  1.2915
 1250SOL     OW15211   0.319   0.162  14.302 -0.4120 -0.1691 -0.3903
 1250SOL    HW115212   0.331   0.240  14.248  2.8462 -0.3372  0.0491
 1250SOL    HW215213   0.271   0.196  14.377  0.9934  0.4839  0.2072
 1251SOL     OW15214   4.379   1.611   6.209 -0.1231  0.5746 -0.4332
 1251SOL    HW115215   4.289   1.643   6.210 -0.0098  0.8552  1.0468
 1251SOL    HW215216   4.411   1.666   6.281 -1.8300  2.0978 -0.8359
 1252SOL     OW15217   1.629   2.828   7.215  0.4886 -0.9110 -0.6099
 1252SOL    HW115218   1.551   2.879   7.238  1.0689  1.0029 -2.9764
 1252SOL    HW215219   1.675   2.841   7.297 -0.2629  0.8290 -0.4604
 1253SOL     OW15220   2.077   0.188   0.225 -0.0703 -0.2705 -0.4023
 1253SOL    HW115221   2.097   0.195   0.319  0.2467  1.5804 -0.6012
 1253SOL    HW215222   2.143   0.251   0.194 -1.2215  0.6988 -0.8562
 1254SOL     OW15223   3.855   4.474   2.938  0.4983  0.4339 -0.2258
 1254SOL    HW115224   3.794   4.419   2.889  0.8980 -0.1682 -0.0457
 1254SOL    HW215225   3.933   4.420   2.925 -0.4270 -0.9306 -0.2162
 1255SOL     OW15226   0.359   1.251   8.600 -0.1432 -0.1763 -0.1739
 1255SOL    HW115227   0.407   1.300   8.534 -0.2529 -1.0213 -0.8750
 1255SOL    HW215228   0.284   1.238   8.543  0.0176 -0.3344 -0.3504
 1256SOL     OW15229   2.200   1.700  14.118 -0.0573  0.0841  0.1248
 1256SOL    HW115230   2.272   1.755  14.086  0.1728 -0.3961 -0.1709
 1256SOL    HW215231   2.191   1.734  14.207 -2.9787  1.6749 -0.7640
 1257SOL     OW15232   0.726   4.152   9.759  0.6600 -0.2220 -0.1632
 1257SOL    HW115233   0.806   4.196   9.785 -0.1250  1.5358 -0.7115
 1257SOL    HW215234   0.731   4.175   9.666 -2.2418  1.8810  0.2015
 1258SOL     OW15235   1.826   2.316   4.891 -0.0605 -0.2103  0.4253
 1258SOL    HW115236   1.816   2.405   4.924 -0.2042 -0.1811  0.3046
 1258SOL    HW215237   1.875   2.280   4.964 -0.7604  0.3632  1.1752
 1259SOL     OW15238   2.394   3.907   5.973 -0.4912  0.2967  0.1982
 1259SOL    HW115239   2.332   3.869   6.034 -0.7600  1.1766  0.4778
 1259SOL    HW215240   2.330   3.936   5.907 -0.9767  1.2932  1.1141
 1260SOL     OW15241   1.930   3.288  11.329 -0.5915  0.0754  0.4452
 1260SOL    HW115242   1.870   3.355  11.295 -0.5935 -1.4299 -2.5387
 1260SOL    HW215243   1.867   3.217  11.318  1.5438 -1.7761  0.0901
 1261SOL     OW15244   1.011   2.521   2.565 -0.3030  0.1635 -0.6211
 1261SOL    HW115245   1.060   2.477   2.635 -0.1259  0.9809 -0.2254
 1261SOL    HW215246   1.079   2.518   2.498  0.8530 -2.0224  0.6362
 1262SOL     OW15247   1.850   1.503   6.681  0.6863 -0.6632  0.0506
 1262SOL    HW115248   1.815   1.429   6.730 -1.0730  0.7853  1.0114
 1262SOL    HW215249   1.895   1.549   6.753 -0.5443 -0.4827  0.7083
 1263SOL     OW15250   4.324   3.791   1.981  0.7403 -0.3016 -0.6201
 1263SOL    HW115251   4.298   3.845   2.055  2.6087 -0.2804  0.0274
 1263SOL    HW215252   4.244   3.768   1.935  0.0345 -0.2912  0.6043
 1264SOL     OW15253   3.259   3.758   6.845  0.3098  0.1322 -0.3895
 1264SOL    HW115254   3.328   3.799   6.898 -0.3287  0.7800 -0.0545
 1264SOL    HW215255   3.292   3.669   6.844 -2.0355 -0.7395 -0.2228
 1265SOL     OW15256   3.094   3.035   1.451 -0.4812  0.2874  0.0669
 1265SOL    HW115257   3.145   2.989   1.517 -0.4759 -1.1701 -0.9396
 1265SOL    HW215258   3.098   2.981   1.371 -2.3284 -1.3361  1.0704
 1266SOL     OW15259   2.728   4.068  15.453  0.4492  0.3252  0.4016
 1266SOL    HW115260   2.679   4.104  15.380  0.9838 -0.7239 -0.4674
 1266SOL    HW215261   2.677   4.112  15.521  0.2960  0.4631  0.1975
 1267SOL     OW15262   1.177   0.753  10.080  1.0775 -0.2120 -0.2356
 1267SOL    HW115263   1.191   0.747  10.174 -0.5064  1.9095  0.1188
 1267SOL    HW215264   1.095   0.803  10.081  1.7522  0.8670  0.1160
 1268SOL     OW15265   1.207   3.272   5.399 -0.1909 -0.5952 -0.4117
 1268SOL    HW115266   1.172   3.184   5.388  1.8495 -1.5345  0.5432
 1268SOL    HW215267   1.188   3.302   5.488 -0.3837 -4.5785  0.8892
 1269SOL     OW15268   2.339   4.470   6.130 -0.1514 -0.7210  0.2683
 1269SOL    HW115269   2.309   4.486   6.041  0.2653  0.5528  0.3500
 1269SOL    HW215270   2.368   4.381   6.113 -0.7751 -0.6072 -1.3368
 1270SOL     OW15271   1.624   4.435   7.325 -0.2239  0.1155 -0.3300
 1270SOL    HW115272   1.598   4.430   7.233  4.0118 -1.8036 -1.4268
 1270SOL    HW215273   1.660   4.348   7.343 -0.5329  0.2948  1.1398
 1271SOL     OW15274   2.339   0.113  15.017  0.2324 -0.4557  0.0785
 1271SOL    HW115275   2.377   0.049  15.077  0.9510 -0.0719  0.0251
 1271SOL    HW215276   2.335   0.066  14.934  1.1774 -0.9669  0.3248
 1272SOL     OW15277   0.677   0.012   5.123  0.1588 -0.2441 -0.3601
 1272SOL    HW115278   0.749   4.681   5.093  0.2702 -0.0811 -0.3987
 1272SOL    HW215279   0.604   4.675   5.125 -0.9767  1.1747  1.3025
 1273SOL     OW15280   2.777   0.529   7.502  0.0076  0.1055 -0.6030
 1273SOL    HW115281   2.728   0.447   7.503 -0.3804  0.3418  0.1138
 1273SOL    HW215282   2.790   0.539   7.408 -2.8056 -2.0078 -1.2207
 1274SOL     OW15283   3.510   0.754   6.348  0.8779 -0.0207  0.8930
 1274SOL    HW115284   3.435   0.811   6.328  1.0661 -0.2560 -0.4632
 1274SOL    HW215285   3.559   0.820   6.396  1.5057 -0.2742  0.5941
 1275SOL     OW15286   1.979   2.765   4.537  0.2463  0.0570  0.3276
 1275SOL    HW115287   1.889   2.735   4.538 -0.8647  3.3285 -1.3545
 1275SOL    HW215288   1.964   2.858   4.519  2.2770  1.2410  4.6481
 1276SOL     OW15289   0.098   1.886   4.395 -0.3378 -0.1727  0.1300
 1276SOL    HW115290   0.133   1.974   4.413  0.5234  0.0244 -2.4493
 1276SOL    HW215291   0.123   1.864   4.306  2.8990 -0.7551  1.1909
 1277SOL     OW15292   4.232   0.977   2.612 -0.1483 -0.0967 -0.1069
 1277SOL    HW115293   4.257   0.895   2.655  0.3587  0.8590  1.4234
 1277SOL    HW215294   4.140   0.984   2.637  0.1137 -0.2280  0.8885
 1278SOL     OW15295   4.175   3.271  11.809  0.0094  0.4214  0.7982
 1278SOL    HW115296   4.265   3.251  11.785 -0.2491  1.1767 -0.8108
 1278SOL    HW215297   4.177   3.367  11.804 -2.1875  0.3969 -0.8416
 1279SOL     OW15298   3.179   1.024   6.788  0.3369  0.6676  0.5906
 1279SOL    HW115299   3.107   1.069   6.744  0.5831 -0.7332 -1.2601
 1279SOL    HW215300   3.127   0.945   6.806  0.9941 -0.1490 -1.1248
 1280SOL     OW15301   2.990   2.317   6.058 -0.1824  0.7676 -0.4133
 1280SOL    HW115302   3.040   2.385   6.014  1.5557 -1.5463 -2.0109
 1280SOL    HW215303   3.055   2.247   6.059 -0.5212  0.4516 -0.2906
 1281SOL     OW15304   3.578   1.133   4.597 -0.1008  0.3053 -0.1100
 1281SOL    HW115305   3.532   1.056   4.630  1.9543 -1.6029 -1.6506
 1281SOL    HW215306   3.507   1.193   4.575  0.5518  1.1343  0.0466
 1282SOL     OW15307   2.887   3.355   8.218 -0.2083  0.2867  0.2104
 1282SOL    HW115308   2.975   3.329   8.193 -0.7234 -1.7413  0.4414
 1282SOL    HW215309   2.831   3.324   8.147 -2.4186  2.0025  1.1833
 1283SOL     OW15310   3.797   2.497   4.499 -0.1312  0.1957 -0.1665
 1283SOL    HW115311   3.747   2.461   4.572 -1.5135  1.6591 -0.3774
 1283SOL    HW215312   3.781   2.592   4.499  3.8083  0.8411  0.0749
 1284SOL     OW15313   4.157   2.161   0.714  1.2095  0.2080 -0.4134
 1284SOL    HW115314   4.194   2.093   0.658  1.0666 -1.8786  2.0391
 1284SOL    HW215315   4.129   2.099   0.781  2.8539  0.0740  0.1482
 1285SOL     OW15316   3.435   1.063   8.538 -0.4744  0.0200  0.2954
 1285SOL    HW115317   3.470   1.152   8.528  2.3198 -1.3115 -1.9297
 1285SOL    HW215318   3.425   1.054   8.632  0.7501  0.9158  0.5150
 1286SOL     OW15319   1.828   2.858   4.235 -0.2796 -0.6393 -0.0312
 1286SOL    HW115320   1.764   2.890   4.172  0.6016 -1.5215 -1.3697
 1286SOL    HW215321   1.858   2.774   4.199 -1.2753 -1.5304  1.1961
 1287SOL     OW15322   1.133   1.505  12.429 -0.0417  0.1297  0.4582
 1287SOL    HW115323   1.200   1.517  12.496  0.5506 -2.0105  0.2361
 1287SOL    HW215324   1.071   1.575  12.454  0.4711  0.5529  0.5431
 1288SOL     OW15325   2.808   0.460   3.974  0.8901  0.1480 -0.7544
 1288SOL    HW115326   2.772   0.380   4.011  2.6710 -1.0387 -1.6122
 1288SOL    HW215327   2.761   0.469   3.891 -1.9237 -2.9266  0.5158
 1289SOL     OW15328   1.522   0.538   2.430 -0.1865  0.4061  0.3462
 1289SOL    HW115329   1.547   0.609   2.371 -0.4471  1.1871  1.1690
 1289SOL    HW215330   1.607   0.521   2.470 -0.6910 -0.0122  1.2543
 1290SOL     OW15331   2.199   3.342   2.129 -0.7569 -0.3196  0.0573
 1290SOL    HW115332   2.216   3.313   2.219  1.4122 -0.0120 -0.2466
 1290SOL    HW215333   2.175   3.263   2.081 -0.9842  1.0853 -2.1389
 1291SOL     OW15334   0.332   1.634   3.030 -0.1234 -0.8025  0.0468
 1291SOL    HW115335   0.409   1.686   3.049 -0.8722 -0.1611  1.2922
 1291SOL    HW215336   0.360   1.544   3.048 -0.7947 -0.9348  0.4317
 1292SOL     OW15337   4.694   0.732  16.289  0.1154  0.2788 -0.3096
 1292SOL    HW115338   4.651   0.812  16.260 -0.5285  0.7328  1.8898
 1292SOL    HW215339   4.633   0.705  16.359  2.5741 -0.8632  1.3874
 1293SOL     OW15340   2.949   2.656   5.682  0.1727 -0.2722  0.7402
 1293SOL    HW115341   2.967   2.672   5.775 -4.3975 -0.8212  1.7075
 1293SOL    HW215342   2.965   2.744   5.648 -1.1286 -0.9487 -1.6314
 1294SOL     OW15343   1.250   4.695   7.301  0.0423 -0.4953 -0.0381
 1294SOL    HW115344   1.167   4.684   7.255 -0.0279  2.3876 -0.6240
 1294SOL    HW215345   1.220   0.016   7.379  0.3242 -0.0732 -0.1781
 1295SOL     OW15346   1.276   1.649   3.805 -0.8077 -0.3024  0.5988
 1295SOL    HW115347   1.309   1.574   3.755 -0.5354  0.1789  0.0626
 1295SOL    HW215348   1.184   1.631   3.784 -0.2399  1.0475 -3.0200
 1296SOL     OW15349   1.251   0.027   6.090  0.4841 -0.0767  0.2315
 1296SOL    HW115350   1.187   4.716   6.151  2.1458  0.0215  2.0093
 1296SOL    HW215351   1.198   0.009   6.011  1.7878 -0.6926 -0.5063
 1297SOL     OW15352   1.350   2.329   6.224 -0.1944 -0.1867 -0.1080
 1297SOL    HW115353   1.397   2.399   6.180  0.1286 -0.3554 -0.0313
 1297SOL    HW215354   1.312   2.287   6.147  0.7740  0.4339 -0.9183
 1298SOL     OW15355   1.043   4.473   3.740 -0.6703  0.3999  0.2319
 1298SOL    HW115356   1.109   4.497   3.674 -1.9520 -0.7487 -1.4764
 1298SOL    HW215357   1.098   4.440   3.811  1.2180  2.0921 -0.4442
 1299SOL     OW15358   2.518   3.788   3.809  0.1925 -0.6058  0.2277
 1299SOL    HW115359   2.458   3.774   3.883  0.6228  0.0297  0.6956
 1299SOL    HW215360   2.472   3.730   3.748 -0.8480  3.0443 -2.5156
 1300SOL     OW15361   0.825   1.375   3.597 -0.3395  0.0507  0.2743
 1300SOL    HW115362   0.850   1.302   3.540  0.6732  1.8721 -1.6203
 1300SOL    HW215363   0.796   1.347   3.684 -1.2250  0.8873  0.2470
 1301SOL     OW15364   2.871   0.031   8.225  0.2995  0.3432 -0.0638
 1301SOL    HW115365   2.894   0.021   8.317 -2.9934  1.3440  0.8581
 1301SOL    HW215366   2.840   4.670   8.198  2.1478 -0.7234  1.2153
 1302SOL     OW15367   3.595   3.899   1.613  0.4493 -0.0874 -0.5220
 1302SOL    HW115368   3.546   3.855   1.544 -0.0122 -0.7073  0.1950
 1302SOL    HW215369   3.531   3.894   1.684  2.1697 -1.0668  0.9498
 1303SOL     OW15370   2.883   0.290   7.792 -0.1486  0.3367  0.1254
 1303SOL    HW115371   2.793   0.263   7.808  0.1244  0.2512  1.5677
 1303SOL    HW215372   2.901   0.322   7.880 -0.6075 -0.2311  0.4255
 1304SOL     OW15373   0.761   0.309   2.685 -0.4494 -0.0543 -0.1493
 1304SOL    HW115374   0.817   0.262   2.623  0.7640  1.0878  0.0769
 1304SOL    HW215375   0.747   0.397   2.648  2.1699  1.2336  1.9616
 1305SOL     OW15376   1.726   3.786   0.783  0.5322  0.1991 -0.0892
 1305SOL    HW115377   1.639   3.809   0.751  0.6002  1.3326  0.5164
 1305SOL    HW215378   1.788   3.838   0.730  0.5246 -2.1393 -2.3868
 1306SOL     OW15379   4.405   3.517  14.323 -0.0361 -0.1503  0.1917
 1306SOL    HW115380   4.485   3.559  14.292 -0.2897 -0.7843 -1.3223
 1306SOL    HW215381   4.433   3.468  14.400  0.0064 -0.4661 -0.0202
 1307SOL     OW15382   4.501   0.012   2.146  0.0125 -0.2646 -0.4567
 1307SOL    HW115383   4.434   4.690   2.196  1.5801 -1.8557  0.1614
 1307SOL    HW215384   4.455   0.025   2.063  0.0576  0.1856 -0.4081
 1308SOL     OW15385   4.333   1.579   9.739 -0.5622 -0.4323 -0.0464
 1308SOL    HW115386   4.262   1.613   9.684 -1.2146  0.3522  1.2954
 1308SOL    HW215387   4.362   1.667   9.762 -0.2478 -0.2032 -1.2966
 1309SOL     OW15388   0.388   3.658   9.836  0.0552 -0.0014  0.3044
 1309SOL    HW115389   0.308   3.700   9.804  0.7209  0.3964 -0.8248
 1309SOL    HW215390   0.377   3.648   9.930 -0.6357 -0.2719  0.1915
 1310SOL     OW15391   3.499   1.200   3.959 -0.0326 -0.2362  0.0236
 1310SOL    HW115392   3.462   1.218   4.045 -2.0781  0.2465 -0.9526
 1310SOL    HW215393   3.556   1.276   3.963  0.0223 -0.2913  0.2645
 1311SOL     OW15394   2.035   1.487   6.414  0.2881 -0.2204  0.9442
 1311SOL    HW115395   2.058   1.579   6.400 -2.2122  0.4089  0.8837
 1311SOL    HW215396   1.970   1.492   6.484 -2.6427  1.7875 -1.9065
 1312SOL     OW15397   0.914   2.018   9.254 -0.0575 -0.0987  0.2777
 1312SOL    HW115398   0.955   2.094   9.211 -0.4802 -0.8373 -1.4373
 1312SOL    HW215399   0.990   1.960   9.246 -0.4141 -0.7893  1.8989
 1313SOL     OW15400   3.859   4.227   7.401  0.3360 -0.4800 -0.2190
 1313SOL    HW115401   3.883   4.134   7.395  1.4825 -0.0887 -1.6885
 1313SOL    HW215402   3.916   4.251   7.474 -0.8925  1.6855  0.0200
 1314SOL     OW15403   4.349   2.411   1.682  0.6307  0.2004 -0.3690
 1314SOL    HW115404   4.302   2.333   1.713 -0.8007  1.1280 -0.2270
 1314SOL    HW215405   4.441   2.385   1.689 -0.2652 -2.0449  3.0188
 1315SOL     OW15406   3.185   1.167  17.701 -0.0536 -0.4079 -0.0401
 1315SOL    HW115407   3.110   1.141  17.648 -0.4648 -0.3910  0.5260
 1315SOL    HW215408   3.174   1.113   0.078  3.6731 -1.4135 -0.2153
 1316SOL     OW15409   0.201   4.189   7.551  0.6012  0.5559  0.5175
 1316SOL    HW115410   0.195   4.202   7.457  0.2280  1.8352  0.7228
 1316SOL    HW215411   0.113   4.172   7.583  0.0942  1.6938 -0.3110
 1317SOL     OW15412   3.603   4.194   1.153  0.2585 -0.0750  0.0310
 1317SOL    HW115413   3.517   4.176   1.191  0.0939  1.4574  0.3606
 1317SOL    HW215414   3.647   4.110   1.139  0.3187 -0.1367  0.6030
 1318SOL     OW15415   3.938   2.998  14.342 -0.2327  0.0507  0.5573
 1318SOL    HW115416   3.913   2.913  14.379 -1.0665 -0.8075 -2.0049
 1318SOL    HW215417   4.029   3.001  14.371 -0.0992  0.9216  0.0328
 1319SOL     OW15418   1.035   0.446   0.883  0.7303  0.0178  0.2544
 1319SOL    HW115419   1.047   0.539   0.865  1.7258 -0.0505  0.5792
 1319SOL    HW215420   0.948   0.456   0.924  1.1694  1.0996  0.9319
 1320SOL     OW15421   0.921   4.634   5.419  0.2150  0.5813  0.3431
 1320SOL    HW115422   0.863   4.560   5.402  0.8156 -0.2453  1.9045
 1320SOL    HW215423   1.001   4.609   5.372 -0.1192  0.1596  0.0070
 1321SOL     OW15424   4.376   3.172  14.160 -0.2849 -0.3294  0.4988
 1321SOL    HW115425   4.467   3.167  14.133 -0.1119  1.8553  0.6832
 1321SOL    HW215426   4.341   3.111  14.095 -2.0419  0.9105  0.2642
 1322SOL     OW15427   2.567   2.438   5.183  0.5291  0.6626 -0.0635
 1322SOL    HW115428   2.625   2.488   5.125  1.8615 -0.5688  0.2105
 1322SOL    HW215429   2.485   2.486   5.171  1.2711  0.6607 -5.2809
 1323SOL     OW15430   0.026   2.307   7.785  0.1324 -0.1761 -0.1160
 1323SOL    HW115431   4.659   2.323   7.766  0.3428  0.8940 -0.2081
 1323SOL    HW215432   0.038   2.213   7.773 -1.1309 -0.5289  1.3000
 1324SOL     OW15433   1.552   4.366   3.349  0.8844 -0.4122 -0.5285
 1324SOL    HW115434   1.511   4.290   3.309 -0.1848 -0.3366  0.4367
 1324SOL    HW215435   1.618   4.317   3.398 -0.3573 -0.5079  1.0445
 1325SOL     OW15436   3.452   1.492   4.928  0.0965 -0.3305 -0.3877
 1325SOL    HW115437   3.395   1.533   4.864  0.1465 -0.5740 -0.5884
 1325SOL    HW215438   3.471   1.410   4.882  0.6080  0.0952 -0.9335
 1326SOL     OW15439   4.595   2.309   1.745 -0.3121 -0.2313  0.0737
 1326SOL    HW115440   4.679   2.323   1.789  1.4101 -2.3592 -2.5628
 1326SOL    HW215441   4.614   2.254   1.670  2.2824  2.1347 -1.0072
 1327SOL     OW15442   2.992   4.312  10.187  0.2142 -0.5281  0.1660
 1327SOL    HW115443   3.042   4.394  10.189  0.0100 -0.3538 -1.5137
 1327SOL    HW215444   3.051   4.241  10.212  2.4359  1.5654  0.8740
 1328SOL     OW15445   0.950   2.026   8.149 -0.1416 -0.6165 -0.3478
 1328SOL    HW115446   0.893   2.103   8.159  2.3303  1.2472 -0.5254
 1328SOL    HW215447   1.017   2.076   8.102  0.8546 -0.7055  0.9871
 1329SOL     OW15448   2.018   3.279  14.167  0.4558  0.2491 -0.1769
 1329SOL    HW115449   2.014   3.184  14.156  1.6923  0.1672  0.1314
 1329SOL    HW215450   2.020   3.278  14.263 -0.1988  2.5525 -0.1461
 1330SOL     OW15451   3.570   1.573  10.540 -0.1650  0.4439 -0.3264
 1330SOL    HW115452   3.594   1.593  10.630 -0.3227  1.8766 -0.6083
 1330SOL    HW215453   3.515   1.647  10.512  1.1894  1.1963 -0.9828
 1331SOL     OW15454   3.507   3.130   1.881 -0.5279 -0.4822  0.6053
 1331SOL    HW115455   3.469   3.043   1.874 -0.2370 -0.5982  0.4775
 1331SOL    HW215456   3.588   3.117   1.931 -0.1604 -0.3611  0.0447
 1332SOL     OW15457   0.523   2.931   2.177  0.5476  0.4243 -0.3722
 1332SOL    HW115458   0.439   2.932   2.221  0.3804 -0.4827 -0.6602
 1332SOL    HW215459   0.537   2.837   2.189 -1.7808  0.0066 -0.9785
 1333SOL     OW15460   4.263   2.143  10.075  0.1812 -0.5047 -0.2763
 1333SOL    HW115461   4.293   2.061  10.036  1.2829  0.1064 -0.7064
 1333SOL    HW215462   4.197   2.173  10.013  0.1975 -0.5913 -0.3352
 1334SOL     OW15463   0.145   3.729   9.786 -0.2128 -0.2507 -0.0895
 1334SOL    HW115464   0.078   3.796   9.773  1.3384  1.3962  0.3661
 1334SOL    HW215465   0.091   3.652   9.803 -0.1245  0.4244  3.2264
 1335SOL     OW15466   0.981   3.428   8.379  0.8177  0.1524 -0.2046
 1335SOL    HW115467   0.983   3.425   8.474 -1.8503 -1.7723 -0.2049
 1335SOL    HW215468   0.933   3.349   8.352  2.9136 -1.4494  0.8079
 1336SOL     OW15469   3.841   2.535  11.566  0.0725  0.0305  0.2798
 1336SOL    HW115470   3.895   2.607  11.533 -1.7453  0.4633 -1.7099
 1336SOL    HW215471   3.912   2.478  11.596  0.0746 -0.6783 -1.0641
 1337SOL     OW15472   3.895   1.190   9.819  0.5562 -0.0344  0.3920
 1337SOL    HW115473   3.986   1.176   9.848  0.3282 -0.2819  0.9830
 1337SOL    HW215474   3.858   1.250   9.883 -1.4267  0.7117 -1.4630
 1338SOL     OW15475   4.121   1.918   0.873 -0.2194  0.5632  0.0896
 1338SOL    HW115476   4.173   1.839   0.889  0.7208  1.3200  0.7692
 1338SOL    HW215477   4.050   1.881   0.925 -1.0662  1.8468 -0.1565
 1339SOL     OW15478   3.539   3.107  14.008  0.2714  0.5340 -0.0960
 1339SOL    HW115479   3.481   3.183  14.009  1.3074  1.3356 -1.3571
 1339SOL    HW215480   3.472   3.039  14.015  1.9241 -1.1226 -0.3125
 1340SOL     OW15481   4.259   3.766   8.539 -0.7761  0.5747  0.1726
 1340SOL    HW115482   4.177   3.738   8.579 -1.6873  1.5933 -1.0053
 1340SOL    HW215483   4.231   3.850   8.503 -0.5154  0.3608 -0.5273
 1341SOL     OW15484   0.765   0.011  12.114  0.1004  0.4650 -0.1119
 1341SOL    HW115485   0.776   0.086  12.173 -0.3948  3.1560 -3.4938
 1341SOL    HW215486   0.712   0.061  12.052 -3.1267  0.2666  2.5097
 1342SOL     OW15487   2.811   0.365   6.331 -0.3796 -0.7960  0.4192
 1342SOL    HW115488   2.737   0.316   6.367  1.0067 -1.0374  2.9109
 1342SOL    HW215489   2.854   0.381   6.415 -1.2030 -0.0531  0.6969
 1343SOL     OW15490   2.936   2.345   6.351  0.2948  0.0819 -0.5047
 1343SOL    HW115491   2.931   2.440   6.350  0.1707  0.0912  1.1780
 1343SOL    HW215492   2.953   2.329   6.258 -0.9188 -0.7440 -0.5774
 1344SOL     OW15493   1.105   2.015   8.712  0.0526  0.7171  0.0570
 1344SOL    HW115494   1.102   2.038   8.619  1.7410 -1.4289 -0.5210
 1344SOL    HW215495   1.165   2.082   8.746 -0.3971  2.0766 -1.8096
 1345SOL     OW15496   2.205   2.285   5.827  0.2870 -0.6502  0.2458
 1345SOL    HW115497   2.141   2.356   5.823  1.3921  0.3547  0.5278
 1345SOL    HW215498   2.154   2.205   5.843 -1.7974  0.3357 -1.5660
 1346SOL     OW15499   1.922   2.520   6.318  0.2209 -0.6000 -0.2305
 1346SOL    HW115500   1.837   2.483   6.342 -0.3460  2.1987  2.1040
 1346SOL    HW215501   1.956   2.546   6.404  1.9550 -0.8566 -0.8427
 1347SOL     OW15502   3.632   4.552  12.541  0.1393  0.5939  0.1205
 1347SOL    HW115503   3.662   4.577  12.628  0.0561 -0.4147  0.4434
 1347SOL    HW215504   3.627   4.457  12.552  2.5783  0.5078  0.5509
 1348SOL     OW15505   0.055   2.824   8.535 -0.1715  0.4604  0.2910
 1348SOL    HW115506   0.027   2.793   8.621 -0.9425 -0.5822 -0.3316
 1348SOL    HW215507   0.127   2.763   8.515  1.6578  3.2363 -1.5845
 1349SOL     OW15508   3.568   2.553   8.969 -0.2234 -0.3297  0.0144
 1349SOL    HW115509   3.612   2.541   9.053  2.9241 -0.1075 -1.6102
 1349SOL    HW215510   3.499   2.486   8.964 -0.4582 -0.1115  0.3298
 1350SOL     OW15511   3.343   1.337   5.667 -0.0820  0.3404  0.0801
 1350SOL    HW115512   3.347   1.367   5.576  1.2288 -0.5472 -0.1500
 1350SOL    HW215513   3.250   1.317   5.679  0.6187 -2.2211  1.1595
 1351SOL     OW15514   2.273   2.337  14.404 -0.1125  0.0979  0.1806
 1351SOL    HW115515   2.224   2.418  14.419  0.8365  0.7620 -0.2618
 1351SOL    HW215516   2.335   2.363  14.336 -0.3814 -0.5520 -0.3108
 1352SOL     OW15517   0.915   4.259   0.984  0.4288  0.1405  0.3032
 1352SOL    HW115518   1.007   4.241   1.004  0.4708 -0.2917 -0.2579
 1352SOL    HW215519   0.901   4.194   0.914 -0.2678 -0.7080  1.2357
 1353SOL     OW15520   1.703   1.260   3.969  0.4915  0.0577 -0.2696
 1353SOL    HW115521   1.690   1.354   3.978 -3.0744 -0.5412  0.9491
 1353SOL    HW215522   1.755   1.247   4.048  0.4385 -0.2072 -0.2776
 1354SOL     OW15523   3.561   2.495  16.560 -0.3065 -0.5915  0.0315
 1354SOL    HW115524   3.480   2.453  16.530  0.3895 -2.0716  0.2009
 1354SOL    HW215525   3.592   2.417  16.606  2.8585  1.1988  0.9114
 1355SOL     OW15526   1.876   0.839   5.966  0.1374 -0.2695 -0.4072
 1355SOL    HW115527   1.834   0.800   6.042  1.4310  0.6007  0.7528
 1355SOL    HW215528   1.812   0.896   5.925  0.0696 -0.9220 -1.2173
 1356SOL     OW15529   1.414   2.627   8.251  0.8808 -0.0221  0.0444
 1356SOL    HW115530   1.328   2.644   8.290  0.9561  0.9438 -0.1919
 1356SOL    HW215531   1.397   2.662   8.163  2.3730  1.6701  0.4174
 1357SOL     OW15532   2.449   0.787   7.453 -0.0776 -0.6372 -0.0580
 1357SOL    HW115533   2.369   0.820   7.494 -0.0066  1.4849 -1.5943
 1357SOL    HW215534   2.515   0.813   7.518  2.9248  0.7848 -3.7020
 1358SOL     OW15535   1.139   2.578   8.445 -0.2875 -0.2515 -0.3397
 1358SOL    HW115536   1.090   2.515   8.392 -1.6776 -0.7260  1.4994
 1358SOL    HW215537   1.079   2.653   8.437  0.5082  0.1167 -2.8710
 1359SOL     OW15538   4.488   3.256   7.321 -0.2920  0.3034  0.3247
 1359SOL    HW115539   4.409   3.210   7.348  0.6218 -2.0372 -1.0116
 1359SOL    HW215540   4.552   3.206   7.372 -2.2463  0.6178  3.0855
 1360SOL     OW15541   0.618   2.836  11.891  0.0455 -0.0893 -0.5842
 1360SOL    HW115542   0.597   2.919  11.850 -0.3223 -0.5796 -1.3932
 1360SOL    HW215543   0.696   2.863  11.940 -0.4213 -1.5040  0.9670
 1361SOL     OW15544   1.722   4.079  17.269 -0.5360  0.1446 -0.0568
 1361SOL    HW115545   1.692   4.075  17.178 -3.1572  0.8325  0.7884
 1361SOL    HW215546   1.755   3.990  17.279  0.3233  0.7460  2.5019
 1362SOL     OW15547   2.106   3.783   9.167 -0.3880 -0.0829  0.4890
 1362SOL    HW115548   2.018   3.758   9.141 -1.4750  1.4392  2.7535
 1362SOL    HW215549   2.115   3.872   9.133 -5.0042  0.7431  1.4344
 1363SOL     OW15550   0.234   0.195   7.863 -0.2473 -0.2179  0.1054
 1363SOL    HW115551   0.213   0.218   7.953 -0.7323  1.8555 -0.5349
 1363SOL    HW215552   0.147   0.164   7.839 -0.3723 -1.5101  2.2215
 1364SOL     OW15553   1.994   2.260  14.546  0.1546  0.0685 -0.8350
 1364SOL    HW115554   2.008   2.235  14.637 -2.0040 -1.1489 -0.8422
 1364SOL    HW215555   1.975   2.172  14.514  1.1797 -0.5244  0.1904
 1365SOL     OW15556   2.492   1.652   9.109  0.4751  0.9103 -0.1524
 1365SOL    HW115557   2.407   1.681   9.075 -0.4847 -3.2702 -1.2998
 1365SOL    HW215558   2.455   1.578   9.157 -0.6664  1.2515 -0.5065
 1366SOL     OW15559   4.206   4.045  11.545  0.2413  0.1158  0.0413
 1366SOL    HW115560   4.195   4.000  11.629 -0.4142 -1.5336 -0.9258
 1366SOL    HW215561   4.212   3.971  11.484 -0.1543  2.2176 -2.5132
 1367SOL     OW15562   2.089   3.584   4.475 -0.1762  0.2424 -0.1037
 1367SOL    HW115563   2.086   3.679   4.462  2.3869  0.1533 -1.4862
 1367SOL    HW215564   2.065   3.577   4.568 -3.3373  0.3060 -0.9249
 1368SOL     OW15565   4.063   4.611   3.867 -0.2940 -0.1149 -0.5947
 1368SOL    HW115566   4.047   4.615   3.773 -1.5077 -1.1228 -0.4289
 1368SOL    HW215567   4.153   4.577   3.869  0.5089  2.0085 -0.6847
 1369SOL     OW15568   3.108   4.193   3.363 -0.7323  0.1542  0.6897
 1369SOL    HW115569   3.077   4.280   3.337 -1.7973 -1.1903 -2.4916
 1369SOL    HW215570   3.038   4.146   3.319  0.5120 -0.5386 -0.5567
 1370SOL     OW15571   2.558   1.327   0.692  0.1279  0.4624  0.4419
 1370SOL    HW115572   2.512   1.368   0.618  1.6110  1.3278  0.0227
 1370SOL    HW215573   2.490   1.320   0.759 -0.7961 -1.9146 -0.7276
 1371SOL     OW15574   4.473   2.942  15.552  0.2672 -0.5421  0.1403
 1371SOL    HW115575   4.525   2.919  15.629  0.4983  0.1804  0.1975
 1371SOL    HW215576   4.436   2.856  15.531 -0.2554 -0.0807 -0.8434
 1372SOL     OW15577   3.878   4.429   1.685 -0.0210  0.2683  0.0441
 1372SOL    HW115578   3.841   4.431   1.597  1.3432  1.0875 -0.5133
 1372SOL    HW215579   3.841   4.346   1.714 -0.5416  0.7451  0.7479
 1373SOL     OW15580   0.061   0.439   4.603 -0.2107 -0.4803 -0.1174
 1373SOL    HW115581   0.077   0.480   4.688 -0.6513  0.3146 -0.4144
 1373SOL    HW215582   0.006   0.369   4.635 -0.2198 -0.3426  0.1711
 1374SOL     OW15583   0.573   2.324   8.883 -0.0015  0.5765  0.1074
 1374SOL    HW115584   0.591   2.240   8.926  1.1847  0.2893 -0.9671
 1374SOL    HW215585   0.573   2.381   8.960  2.2322  0.0077  0.5263
 1375SOL     OW15586   0.870   0.545   2.351 -0.0660  0.0033  0.6685
 1375SOL    HW115587   0.869   0.605   2.276 -0.6940 -2.6362 -1.4212
 1375SOL    HW215588   0.963   0.527   2.366 -0.3607 -1.1167  1.1358
 1376SOL     OW15589   1.466   2.701   6.396 -0.6458 -0.3926  0.6788
 1376SOL    HW115590   1.375   2.719   6.373 -1.0427 -4.0283 -0.6517
 1376SOL    HW215591   1.489   2.629   6.338  0.1456  0.7938 -0.4815
 1377SOL     OW15592   4.420   3.680   8.862 -0.8463 -0.1573 -0.0192
 1377SOL    HW115593   4.346   3.674   8.802 -0.7933  1.3559 -0.2385
 1377SOL    HW215594   4.430   3.586   8.880  0.0267 -0.2480 -0.9701
 1378SOL     OW15595   1.693   2.563   5.941 -0.2034 -0.7359 -0.3048
 1378SOL    HW115596   1.695   2.477   5.900  0.7206 -0.4066 -0.9441
 1378SOL    HW215597   1.617   2.597   5.893 -0.5962 -2.6363 -1.0330
 1379SOL     OW15598   3.844   1.658   0.273 -0.6512 -0.2522 -0.8070
 1379SOL    HW115599   3.772   1.603   0.306 -1.2911  0.0145 -1.7413
 1379SOL    HW215600   3.876   1.704   0.351  0.4869 -1.4696 -0.5567
 1380SOL     OW15601   3.969   3.297  14.607  0.3627 -0.6399 -0.2886
 1380SOL    HW115602   3.915   3.221  14.630  1.4026 -0.8940  1.2740
 1380SOL    HW215603   3.903   3.349  14.561  1.0980  0.5285 -0.0081
 1381SOL     OW15604   0.522   3.195   8.582  0.4630  0.3209  0.2617
 1381SOL    HW115605   0.446   3.174   8.637 -0.8967  1.4979 -1.1616
 1381SOL    HW215606   0.491   3.183   8.492  2.9459 -1.7977 -0.3256
 1382SOL     OW15607   1.931   3.314   3.659  0.2393  0.3275 -0.2189
 1382SOL    HW115608   1.862   3.321   3.726 -0.3379  0.6267 -0.8409
 1382SOL    HW215609   1.897   3.257   3.591  0.4248 -0.7050  0.5596
 1383SOL     OW15610   4.665   3.401  14.253  0.4136  0.1751  0.2097
 1383SOL    HW115611   0.019   3.411  14.306 -0.1448 -0.4082  1.1375
 1383SOL    HW215612   4.685   3.323  14.201 -1.8645  0.2866 -0.8191
 1384SOL     OW15613   2.077   1.197   2.527  0.4301  0.1063 -0.0931
 1384SOL    HW115614   2.049   1.280   2.489  2.2928 -0.2147 -2.1530
 1384SOL    HW215615   2.089   1.141   2.450  0.1440  0.5604 -0.4680
 1385SOL     OW15616   0.075   4.678   4.355 -0.1946  0.3246  0.2032
 1385SOL    HW115617   0.127   4.702   4.432 -1.5226  0.0956  1.1720
 1385SOL    HW215618   0.090   4.584   4.351  0.2097  0.3708  0.6258
 1386SOL     OW15619   1.935   0.362   1.364  0.4798  0.6111  0.0318
 1386SOL    HW115620   1.945   0.348   1.458 -0.5177 -1.9438 -0.2304
 1386SOL    HW215621   1.969   0.276   1.339  0.6713  1.2255 -1.8126
 1387SOL     OW15622   2.794   1.957   8.277  0.7250 -0.5681  0.0805
 1387SOL    HW115623   2.822   1.869   8.301  1.2200 -0.4340 -0.0085
 1387SOL    HW215624   2.698   1.952   8.277  0.7256 -0.5571  0.2563
 1388SOL     OW15625   0.161   2.678   3.473 -0.0055  0.6141  0.3119
 1388SOL    HW115626   0.109   2.604   3.503 -0.0359  0.4831 -0.0621
 1388SOL    HW215627   0.087   2.720   3.430 -0.2342  0.2163  0.3162
 1389SOL     OW15628   2.424   2.930   5.801 -0.0048  0.1598 -0.0879
 1389SOL    HW115629   2.514   2.909   5.823 -0.4325 -1.3501  0.1863
 1389SOL    HW215630   2.445   2.993   5.731 -3.4243  1.3516 -0.0506
 1390SOL     OW15631   2.451   0.948   5.403 -0.5720  0.0506  0.1664
 1390SOL    HW115632   2.506   0.899   5.343 -0.8016  0.4803 -0.3932
 1390SOL    HW215633   2.468   0.912   5.490  2.4043 -0.6545 -0.7074
 1391SOL     OW15634   1.520   2.705  15.654  0.2630 -0.1971 -0.5199
 1391SOL    HW115635   1.597   2.733  15.605  2.2767 -1.8376  1.7016
 1391SOL    HW215636   1.545   2.728  15.743 -3.3286  0.6188  0.2622
 1392SOL     OW15637   3.084   0.877  15.870 -0.5749  0.0026 -0.1329
 1392SOL    HW115638   3.167   0.833  15.854 -1.0521 -1.3680  1.1738
 1392SOL    HW215639   3.114   0.964  15.847  0.6724 -0.2010  0.7542
 1393SOL     OW15640   2.502   3.130   5.595  0.2945  0.0398  0.1501
 1393SOL    HW115641   2.430   3.192   5.578  0.8216  0.9516  1.1835
 1393SOL    HW215642   2.580   3.180   5.571  1.9958 -2.3679  0.7258
 1394SOL     OW15643   1.464   2.097   4.015  0.5043 -0.3818  0.3586
 1394SOL    HW115644   1.502   2.014   4.045  2.7453  0.3820 -0.3757
 1394SOL    HW215645   1.374   2.082   4.045 -0.4757  2.4644 -1.2005
 1395SOL     OW15646   1.587   1.596  14.468  0.0293  0.4025  0.0233
 1395SOL    HW115647   1.512   1.650  14.443  0.0970  0.6134  0.2793
 1395SOL    HW215648   1.606   1.561  14.381  0.8954  2.8127 -0.7462
 1396SOL     OW15649   4.557   2.320   4.514 -0.1244 -0.1817  0.3319
 1396SOL    HW115650   4.651   2.304   4.510 -0.3742 -1.2853 -1.1732
 1396SOL    HW215651   4.549   2.351   4.604 -0.2011 -0.5585  0.4523
 1397SOL     OW15652   0.498   1.459   8.388  0.0847 -0.2251 -0.0720
 1397SOL    HW115653   0.539   1.428   8.307  0.6802  1.1069 -0.2873
 1397SOL    HW215654   0.579   1.489   8.430 -0.1169  0.7107 -0.3409
 1398SOL     OW15655   3.038   0.173   3.297 -0.2329  0.7628 -0.0012
 1398SOL    HW115656   3.006   0.183   3.208  1.1487  0.5663 -0.5238
 1398SOL    HW215657   2.962   0.132   3.338 -0.8701  1.0751 -0.8653
 1399SOL     OW15658   4.498   3.900   9.028  0.5025 -0.0961  0.6196
 1399SOL    HW115659   4.462   3.823   8.985  2.7718 -0.8229  0.0698
 1399SOL    HW215660   4.545   3.937   8.953  1.7946 -1.0405  0.9662
 1400SOL     OW15661   4.001   3.229  13.791  0.4544 -0.3040 -0.2451
 1400SOL    HW115662   4.013   3.138  13.764  0.2193 -0.1549 -0.8372
 1400SOL    HW215663   3.914   3.218  13.829 -0.7552  2.2185 -2.2157
 1401SOL     OW15664   4.539   3.864   5.979  0.2110 -0.0192  0.7443
 1401SOL    HW115665   4.480   3.796   5.948  0.4137  0.4408 -0.6357
 1401SOL    HW215666   4.540   3.918   5.900  1.2103 -1.2726 -0.1015
 1402SOL     OW15667   3.449   3.438   2.895 -0.4879  0.0994 -0.2599
 1402SOL    HW115668   3.428   3.361   2.948 -1.3621 -0.0900 -0.8812
 1402SOL    HW215669   3.426   3.413   2.806 -1.4815 -1.5460  0.4584
 1403SOL     OW15670   4.169   3.024   7.735 -0.4723 -0.0777 -0.5875
 1403SOL    HW115671   4.140   3.073   7.811 -1.5501  0.0561 -1.0880
 1403SOL    HW215672   4.083   2.993   7.707 -0.1216 -0.4832 -1.2205
 1404SOL     OW15673   0.375   0.379   3.447 -0.0042  0.6365  0.2335
 1404SOL    HW115674   0.414   0.465   3.454  1.9932 -0.3449  1.1967
 1404SOL    HW215675   0.420   0.341   3.371  0.3097  0.4510  0.5100
 1405SOL     OW15676   3.763   4.477   1.437  0.2349  0.1853  0.3386
 1405SOL    HW115677   3.808   4.433   1.364 -0.0526  0.7640 -0.1802
 1405SOL    HW215678   3.720   4.546   1.387  0.0365  1.1949  1.9141
 1406SOL     OW15679   4.043   4.693   2.043  0.3138  0.1008  0.1839
 1406SOL    HW115680   3.981   4.637   2.090 -0.5081  0.6635 -0.2284
 1406SOL    HW215681   4.033   0.046   2.097  3.3877 -0.7108  1.8973
 1407SOL     OW15682   4.022   3.317  17.000  0.2657  0.1567  0.0551
 1407SOL    HW115683   4.074   3.393  17.028  1.9339 -1.2063  0.6787
 1407SOL    HW215684   3.987   3.335  16.913  0.9047  1.6397  0.1010
 1408SOL     OW15685   2.964   3.252   9.174 -0.8184 -0.0100  0.0873
 1408SOL    HW115686   2.882   3.294   9.145  1.2071  2.8162 -1.5567
 1408SOL    HW215687   2.978   3.302   9.255 -1.8290  0.3121  0.0665
 1409SOL     OW15688   0.399   1.868   2.187  0.3599 -0.1179  0.2225
 1409SOL    HW115689   0.423   1.830   2.102  2.3729  0.9175  0.3314
 1409SOL    HW215690   0.485   1.884   2.226  1.0452 -1.8457 -0.5637
 1410SOL     OW15691   3.209   1.038   1.883  0.1385 -0.5763 -0.7525
 1410SOL    HW115692   3.251   0.989   1.954 -0.8019  0.5361  0.5477
 1410SOL    HW215693   3.119   1.033   1.915 -0.3239 -1.4910 -2.1948
 1411SOL     OW15694   3.162   0.107   7.406  0.1076  0.5871  0.0004
 1411SOL    HW115695   3.196   0.040   7.465  1.0761  1.6914  0.6722
 1411SOL    HW215696   3.089   0.139   7.460  1.0228  2.0202  0.3634
 1412SOL     OW15697   0.101   2.676   5.756  0.1463 -0.4544  0.1289
 1412SOL    HW115698   0.112   2.698   5.664  0.2262 -0.9909  0.0064
 1412SOL    HW215699   0.088   2.581   5.745  2.0148 -0.6327 -0.4784
 1413SOL     OW15700   1.720   1.680  10.188  0.0323  0.4305  0.0708
 1413SOL    HW115701   1.781   1.627  10.137 -1.3075 -0.7305 -0.3001
 1413SOL    HW215702   1.768   1.762  10.179  0.8203  0.1036  1.2666
 1414SOL     OW15703   2.406   2.320   2.205  0.4305  0.0627  0.0234
 1414SOL    HW115704   2.502   2.310   2.205  0.5787  1.6172  0.5466
 1414SOL    HW215705   2.381   2.228   2.190 -1.5949  0.0850  3.2894
 1415SOL     OW15706   1.987   0.456   7.662  0.2887 -0.4962 -0.5281
 1415SOL    HW115707   1.964   0.470   7.754 -0.5712  1.6104 -1.0638
 1415SOL    HW215708   2.081   0.468   7.670 -0.0231 -1.3589  4.3441
 1416SOL     OW15709   1.245   3.236   4.346  0.3779  0.1976 -0.4230
 1416SOL    HW115710   1.214   3.284   4.269  1.1698  0.2991 -0.6755
 1416SOL    HW215711   1.162   3.200   4.378  1.5821  0.4817  3.0668
 1417SOL     OW15712   4.423   0.902   5.596 -0.0641  0.2775  0.4145
 1417SOL    HW115713   4.378   0.896   5.512  2.5187 -3.7711 -0.7062
 1417SOL    HW215714   4.478   0.979   5.587  0.9815 -0.6073 -0.7831
 1418SOL     OW15715   1.863   2.468  12.315 -0.5637  0.2491  0.3490
 1418SOL    HW115716   1.882   2.428  12.400  1.4240 -1.3665 -0.8536
 1418SOL    HW215717   1.779   2.510  12.334  0.1775  1.5467  0.7479
 1419SOL     OW15718   1.849   4.153   4.491 -0.8515  0.2510 -1.0582
 1419SOL    HW115719   1.821   4.061   4.496  2.0994 -0.5144  1.7386
 1419SOL    HW215720   1.940   4.138   4.517 -1.1328 -0.5488 -0.5322
 1420SOL     OW15721   0.552   4.628   1.482  0.1769  0.4623 -0.4457
 1420SOL    HW115722   0.529   4.654   1.571  1.9351  1.1422 -0.1848
 1420SOL    HW215723   0.487   4.687   1.443  1.3374  1.1644 -1.3431
 1421SOL     OW15724   3.798   3.651   3.112 -0.3126  0.1842 -0.0115
 1421SOL    HW115725   3.724   3.669   3.170  0.3115 -2.5981  1.6493
 1421SOL    HW215726   3.731   3.630   3.047 -0.1434 -1.8612  0.4463
 1422SOL     OW15727   2.220   0.448  16.984 -0.3146  0.2643 -0.1095
 1422SOL    HW115728   2.256   0.400  17.059 -0.1188  1.9020  0.8585
 1422SOL    HW215729   2.154   0.510  17.017  0.3547  0.7905  0.2349
 1423SOL     OW15730   0.250   0.412   5.245 -0.9478 -0.2292 -0.6466
 1423SOL    HW115731   0.325   0.356   5.223 -1.3093 -0.8314 -0.3406
 1423SOL    HW215732   0.298   0.473   5.302  1.9527 -3.2831  0.1960
 1424SOL     OW15733   2.561   2.778   3.148  0.0933 -0.3875  0.1592
 1424SOL    HW115734   2.632   2.814   3.094  0.6486  0.1855  1.2510
 1424SOL    HW215735   2.492   2.820   3.097 -0.8084 -0.6920  1.1268
 1425SOL     OW15736   2.742   1.753  13.228 -0.4040 -0.2841 -0.1428
 1425SOL    HW115737   2.703   1.668  13.248  0.1473 -0.9546 -1.9271
 1425SOL    HW215738   2.678   1.818  13.257  0.3511 -1.1287  3.4814
 1426SOL     OW15739   3.127   2.771  11.359 -0.0397  0.2070 -0.3187
 1426SOL    HW115740   3.139   2.781  11.453 -1.1623  0.8111 -0.2395
 1426SOL    HW215741   3.034   2.749  11.362 -0.0915  0.5679  0.7110
 1427SOL     OW15742   4.502   3.157  15.703 -0.5941 -0.0285 -0.5584
 1427SOL    HW115743   4.475   3.091  15.639  0.0118  0.9589 -1.8389
 1427SOL    HW215744   4.444   3.221  15.661 -1.2622 -1.1985 -1.4282
 1428SOL     OW15745   2.441   2.736   2.621 -0.5535 -0.7048  0.1768
 1428SOL    HW115746   2.525   2.700   2.649 -0.3568 -0.5310 -0.2077
 1428SOL    HW215747   2.382   2.660   2.625 -1.5277  0.1307  1.8801
 1429SOL     OW15748   0.916   3.113  12.865 -0.1881  0.1522  0.2620
 1429SOL    HW115749   0.845   3.169  12.898  1.3070  2.0687  0.2329
 1429SOL    HW215750   0.937   3.067  12.946  0.3399 -1.1047 -0.5863
 1430SOL     OW15751   3.529   0.533   5.077  0.4752  0.1028 -0.2342
 1430SOL    HW115752   3.455   0.553   5.135 -1.1046  3.0826 -3.2592
 1430SOL    HW215753   3.485   0.537   4.992 -0.8801  0.1352  0.4621
 1431SOL     OW15754   2.670   0.966   4.052  0.1192  0.1280  0.2321
 1431SOL    HW115755   2.679   0.872   4.067  0.1553  0.4135  1.9125
 1431SOL    HW215756   2.702   0.981   3.963  1.7234 -0.9263  0.6226
 1432SOL     OW15757   2.268   1.722   3.982  0.5252 -0.2085  0.3007
 1432SOL    HW115758   2.355   1.741   3.948  0.2345  2.6815  1.1423
 1432SOL    HW215759   2.269   1.771   4.065 -2.2769 -2.4044  1.6380
 1433SOL     OW15760   3.197   4.713  11.596 -0.8253  0.4223  0.1893
 1433SOL    HW115761   3.237   4.647  11.539  0.4751  1.7587 -0.4469
 1433SOL    HW215762   3.112   4.669  11.604 -0.4632 -0.0111  1.5341
 1434SOL     OW15763   4.473   1.163   7.432 -0.4963 -0.3575  0.0982
 1434SOL    HW115764   4.527   1.115   7.369 -0.1877 -0.0289  0.1136
 1434SOL    HW215765   4.447   1.082   7.477  2.4770 -0.1899  2.1197
 1435SOL     OW15766   2.494   4.321   9.634  0.1165  0.2696 -0.6819
 1435SOL    HW115767   2.581   4.300   9.668  0.3656 -1.2976 -2.3086
 1435SOL    HW215768   2.469   4.250   9.575 -4.2128  0.4713  0.9412
 1436SOL     OW15769   3.718   2.089  11.898 -0.6945 -0.5591  0.2737
 1436SOL    HW115770   3.650   2.022  11.907 -0.1965 -0.7786  2.3339
 1436SOL    HW215771   3.738   2.112  11.989 -0.2641  1.2229 -0.2757
 1437SOL     OW15772   1.463   3.302   3.440  0.1004  0.2313  0.1803
 1437SOL    HW115773   1.404   3.335   3.372  2.1752  1.0219 -1.2604
 1437SOL    HW215774   1.483   3.384   3.485  0.7421 -0.8875  1.9019
 1438SOL     OW15775   4.257   2.018   5.011 -0.4541  0.0592  0.3815
 1438SOL    HW115776   4.175   1.982   4.979 -0.0762 -1.1058  0.7127
 1438SOL    HW215777   4.232   2.097   5.060  0.5862  0.3452  0.4645
 1439SOL     OW15778   2.936   0.475   5.427 -0.3417 -0.0108  0.4587
 1439SOL    HW115779   2.892   0.530   5.492  1.9647 -0.1136  2.0946
 1439SOL    HW215780   2.971   0.408   5.486 -0.0344 -1.6042 -1.5337
 1440SOL     OW15781   0.355   4.068   8.239  0.1398  0.0804 -0.4819
 1440SOL    HW115782   0.334   4.146   8.289 -1.7396 -0.8281  0.1192
 1440SOL    HW215783   0.330   4.099   8.152 -0.1639  0.0263 -0.4107
 1441SOL     OW15784   2.492   2.148  13.229 -0.4625 -0.2172 -0.2949
 1441SOL    HW115785   2.452   2.235  13.223 -1.5296 -0.7334 -0.6149
 1441SOL    HW215786   2.551   2.155  13.154 -0.6256 -1.5893 -0.5521
 1442SOL     OW15787   3.998   1.618   4.412 -0.5389  0.1508 -0.8183
 1442SOL    HW115788   4.032   1.633   4.501  1.8277 -0.8253 -1.5431
 1442SOL    HW215789   4.027   1.527   4.406  0.6883  0.6768 -2.9896
 1443SOL     OW15790   3.704   3.440   2.871  0.2269 -0.9379 -0.2186
 1443SOL    HW115791   3.611   3.462   2.877  0.2933 -0.1558 -2.2508
 1443SOL    HW215792   3.717   3.376   2.942  1.1447 -2.8021 -2.0633
 1444SOL     OW15793   4.257   4.599  11.197  0.4307 -0.1242  0.7415
 1444SOL    HW115794   4.340   4.579  11.241  1.0339  0.3491 -0.1697
 1444SOL    HW215795   4.205   4.523  11.221  0.0734  0.0849  0.6368
 1445SOL     OW15796   2.506   2.630   6.902 -0.7823  0.0966  0.4951
 1445SOL    HW115797   2.412   2.649   6.895 -0.8611 -1.2079 -1.7792
 1445SOL    HW215798   2.534   2.712   6.862  1.2290 -0.9512 -0.2082
 1446SOL     OW15799   0.349   2.131   1.321 -0.2298 -0.0613  0.1228
 1446SOL    HW115800   0.350   2.126   1.416 -1.4995  0.3672  0.1441
 1446SOL    HW215801   0.342   2.043   1.283  1.1234  0.5902 -1.6736
 1447SOL     OW15802   1.762   2.378   4.325 -0.3621  0.2402 -0.5283
 1447SOL    HW115803   1.845   2.364   4.371  0.2460  3.7458 -0.5600
 1447SOL    HW215804   1.715   2.295   4.331  2.8127 -1.6508 -1.5000
 1448SOL     OW15805   1.458   3.171   6.497  0.8733  0.1400  0.4801
 1448SOL    HW115806   1.474   3.250   6.444 -1.9409  0.8589  0.7082
 1448SOL    HW215807   1.542   3.127   6.487  1.1496  1.1617 -1.8887
 1449SOL     OW15808   3.193   3.589   6.122  0.0683  0.5619 -0.4775
 1449SOL    HW115809   3.279   3.632   6.130  0.9388 -0.9161 -1.9432
 1449SOL    HW215810   3.172   3.627   6.038  0.0898 -1.6388 -1.4802
 1450SOL     OW15811   1.801   2.893   3.305  0.3843  0.3281 -0.2139
 1450SOL    HW115812   1.734   2.961   3.296 -0.3814 -0.3178  0.6484
 1450SOL    HW215813   1.769   2.831   3.239 -2.8348  0.4926  1.1669
 1451SOL     OW15814   0.237   3.336  11.464  0.3740  0.0735  0.1460
 1451SOL    HW115815   0.297   3.391  11.413  1.0634  0.7988  1.7664
 1451SOL    HW215816   0.158   3.331  11.410  0.8172  2.2462 -0.6947
 1452SOL     OW15817   3.070   3.129  13.493  0.0233  0.0654 -0.3560
 1452SOL    HW115818   3.011   3.074  13.545  2.1579 -2.3203 -0.4453
 1452SOL    HW215819   3.133   3.128  13.565  0.6964 -2.6211 -0.9498
 1453SOL     OW15820   0.532   0.410   4.333 -0.4214  0.2860 -0.4898
 1453SOL    HW115821   0.475   0.351   4.381 -0.5623  0.2085 -0.7530
 1453SOL    HW215822   0.515   0.374   4.246  3.1258 -0.7173 -0.7743
 1454SOL     OW15823   4.546   1.610  16.177  0.3962  0.1700  0.0488
 1454SOL    HW115824   4.471   1.657  16.140  0.1517 -1.2989 -1.3370
 1454SOL    HW215825   4.518   1.518  16.173 -2.8913  1.1310  1.1904
 1455SOL     OW15826   2.503   4.118   7.246 -0.4583 -0.7253 -0.4949
 1455SOL    HW115827   2.465   4.030   7.251 -0.6854 -0.6744 -1.3376
 1455SOL    HW215828   2.422   4.164   7.225 -1.3693 -1.4667  1.4000
 1456SOL     OW15829   0.240   1.324   7.661  0.2052  0.3111  0.1383
 1456SOL    HW115830   0.219   1.395   7.601  0.3740 -1.1180 -1.5935
 1456SOL    HW215831   0.153   1.292   7.684  0.7331 -2.4225 -1.5946
 1457SOL     OW15832   1.284   2.086   9.660 -0.1363 -0.0865 -0.8377
 1457SOL    HW115833   1.332   2.166   9.681  0.8592 -0.8502 -0.1742
 1457SOL    HW215834   1.212   2.087   9.723  0.7156  1.1893  0.1195
 1458SOL     OW15835   1.376   1.342  11.182 -0.0033  0.4540  0.1015
 1458SOL    HW115836   1.372   1.340  11.086  1.4810  1.3944  0.0191
 1458SOL    HW215837   1.389   1.248  11.196 -1.0870  0.3130  0.1265
 1459SOL     OW15838   4.246   1.927   2.564 -0.1005  0.3210 -0.4163
 1459SOL    HW115839   4.249   1.956   2.473 -2.5768 -0.8152 -0.8487
 1459SOL    HW215840   4.305   1.851   2.568  0.4274  0.5412 -3.6968
 1460SOL     OW15841   2.620   3.576   2.569 -0.6119  0.5354  0.4224
 1460SOL    HW115842   2.672   3.624   2.503 -0.1753  1.7376  1.6324
 1460SOL    HW215843   2.569   3.646   2.608  1.6502  2.2292  0.3848
 1461SOL     OW15844   0.766   2.947   1.859  0.0653  0.3619 -0.0749
 1461SOL    HW115845   0.822   2.899   1.920 -0.1280 -0.6862 -0.7231
 1461SOL    HW215846   0.734   3.023   1.908 -1.6543 -1.2834  1.3588
 1462SOL     OW15847   4.165   0.633   4.404 -1.0497 -0.5209 -0.0578
 1462SOL    HW115848   4.178   0.715   4.453 -3.0062  0.0116 -0.4267
 1462SOL    HW215849   4.140   0.573   4.474 -0.6284  0.0422  0.5791
 1463SOL     OW15850   4.677   1.688   2.772 -0.2397  0.4232  0.6702
 1463SOL    HW115851   0.042   1.656   2.771 -0.8026 -1.1960  2.3196
 1463SOL    HW215852   4.649   1.669   2.861 -0.9433  2.3407  0.8653
 1464SOL     OW15853   2.394   2.389   3.292  0.2711 -0.4923  0.1823
 1464SOL    HW115854   2.458   2.321   3.313  1.5132  1.2053  1.9228
 1464SOL    HW215855   2.374   2.356   3.205 -1.3312  0.7297  0.0889
 1465SOL     OW15856   3.266   3.784   4.220  0.3210  0.1808 -0.1199
 1465SOL    HW115857   3.350   3.740   4.222 -0.1886 -0.7113  1.2855
 1465SOL    HW215858   3.221   3.740   4.292 -0.0354 -1.9171 -1.6337
 1466SOL     OW15859   0.448   0.222  15.736 -0.3488 -0.2382 -0.4455
 1466SOL    HW115860   0.431   0.209  15.829  0.4352  1.6168 -0.0484
 1466SOL    HW215861   0.532   0.266  15.748 -1.3648  0.8551  2.7563
 1467SOL     OW15862   0.704   1.943   2.101 -0.1828  0.4495 -0.3819
 1467SOL    HW115863   0.755   1.975   2.028 -1.4059  0.3974 -1.2642
 1467SOL    HW215864   0.732   1.851   2.107 -2.3634 -0.0899  2.0095
 1468SOL     OW15865   3.544   2.245   8.111 -0.1293 -0.6269  0.1627
 1468SOL    HW115866   3.622   2.196   8.085 -0.1810 -0.3467 -0.5152
 1468SOL    HW215867   3.493   2.237   8.030  1.5014 -0.1140 -0.9189
 1469SOL     OW15868   0.910   3.832   3.272  0.3839  0.5018  0.1755
 1469SOL    HW115869   0.831   3.880   3.245 -1.3053 -0.4258  3.4534
 1469SOL    HW215870   0.871   3.745   3.277  0.9523  0.2539  0.3045
 1470SOL     OW15871   3.013   1.301  15.534  0.3980  0.1711  0.3664
 1470SOL    HW115872   2.922   1.331  15.532  0.5580  0.5313 -1.7822
 1470SOL    HW215873   3.011   1.206  15.540 -2.7044  0.2359  0.4832
 1471SOL     OW15874   0.304   1.217   3.112 -0.0725  0.3534 -0.3306
 1471SOL    HW115875   0.229   1.264   3.075  1.5822  1.6179 -2.0866
 1471SOL    HW215876   0.365   1.290   3.113  0.0731  0.2220  0.5081
 1472SOL     OW15877   4.240   4.010   5.676 -0.4912 -0.1190 -0.1901
 1472SOL    HW115878   4.250   3.921   5.642  2.1072 -0.0387  0.3496
 1472SOL    HW215879   4.333   4.032   5.669 -1.1391  2.3877 -0.6540
 1473SOL     OW15880   0.491   1.725   8.087 -0.3795 -0.2703 -0.4893
 1473SOL    HW115881   0.535   1.749   8.168  1.6834  0.8227 -1.9365
 1473SOL    HW215882   0.546   1.758   8.016 -2.8809  1.3323 -1.6556
 1474SOL     OW15883   2.603   4.605   3.407 -0.8154 -0.0210  0.0662
 1474SOL    HW115884   2.664   4.536   3.380 -1.0653  1.2332 -3.5956
 1474SOL    HW215885   2.530   4.610   3.346  0.0320 -1.0526 -1.0108
 1475SOL     OW15886   3.126   2.748   9.487  0.8345 -0.9076 -0.0543
 1475SOL    HW115887   3.040   2.733   9.526  0.9863 -0.1431  0.5647
 1475SOL    HW215888   3.153   2.656   9.481  0.0025 -1.1062 -0.7398
 1476SOL     OW15889   2.223   0.048   6.065  0.0336  0.2108  0.0133
 1476SOL    HW115890   2.275   4.722   6.127  0.3558 -2.2534 -2.3071
 1476SOL    HW215891   2.273   0.019   5.988 -0.5602  0.6432 -0.5315
 1477SOL     OW15892   2.998   2.307   3.060 -0.4629  0.3190  0.0424
 1477SOL    HW115893   3.048   2.387   3.043  1.7247 -1.5593 -2.3178
 1477SOL    HW215894   2.961   2.334   3.144  2.1162 -1.5139  1.7806
 1478SOL     OW15895   2.670   0.895   7.168  0.3252  0.5072 -0.2185
 1478SOL    HW115896   2.609   0.822   7.181  2.4609 -1.2347 -0.0123
 1478SOL    HW215897   2.677   0.888   7.073  1.3020  3.5677 -0.3780
 1479SOL     OW15898   4.157   4.548   7.204  0.2598 -0.4347  0.1561
 1479SOL    HW115899   4.167   4.453   7.202 -0.5445 -0.5001 -0.6405
 1479SOL    HW215900   4.074   4.548   7.251 -0.3141  0.3591 -0.8885
 1480SOL     OW15901   0.036   1.339  13.946 -0.5146  0.2250 -0.0843
 1480SOL    HW115902   4.714   1.423  13.942  0.6922  1.0310  2.3900
 1480SOL    HW215903   4.723   1.300  14.025  0.5682 -0.0195  0.3159
 1481SOL     OW15904   4.163   3.576   6.533 -0.5356 -0.5313 -0.0417
 1481SOL    HW115905   4.165   3.482   6.518 -0.1153 -0.2086 -1.8942
 1481SOL    HW215906   4.251   3.606   6.511 -1.0235  1.2592  0.4073
 1482SOL     OW15907   3.178   2.287   2.599  0.4996 -0.0523  0.0228
 1482SOL    HW115908   3.097   2.241   2.620 -0.0987  0.6992 -0.6139
 1482SOL    HW215909   3.145   2.364   2.552 -1.2982 -0.4543  0.6213
 1483SOL     OW15910   0.404   3.379  16.786  0.1933  0.0055 -0.3144
 1483SOL    HW115911   0.408   3.469  16.820 -0.6279 -0.1327  0.1354
 1483SOL    HW215912   0.318   3.365  16.826  0.3354 -0.1996 -0.0796
 1484SOL     OW15913   4.122   0.729   4.958  0.5273 -0.4719  0.3959
 1484SOL    HW115914   4.105   0.687   4.874 -1.8669 -0.5277  0.9191
 1484SOL    HW215915   4.078   0.814   4.951  0.5769 -0.5002 -0.2371
 1485SOL     OW15916   3.196   4.231   5.777 -0.1203  0.4059 -0.3447
 1485SOL    HW115917   3.177   4.238   5.684 -0.2280 -2.6441 -0.5237
 1485SOL    HW215918   3.202   4.325   5.796  0.3085 -0.0900  1.9250
 1486SOL     OW15919   4.019   4.095   1.257 -0.2317  0.5171 -0.2957
 1486SOL    HW115920   4.102   4.066   1.220 -0.9169 -2.1464  0.2255
 1486SOL    HW215921   3.994   4.162   1.194 -2.2702  1.5733  1.6300
 1487SOL     OW15922   1.635   0.883   3.077 -0.6444  0.6210  0.4170
 1487SOL    HW115923   1.705   0.909   3.018 -2.0002 -1.7080 -2.1942
 1487SOL    HW215924   1.670   0.905   3.164  0.2171  1.5352 -0.1639
 1488SOL     OW15925   3.127   0.392   4.185 -0.1532 -0.3134 -0.4065
 1488SOL    HW115926   3.093   0.471   4.143 -0.6974 -0.8549 -0.9794
 1488SOL    HW215927   3.044   0.353   4.212 -1.0072  1.7935  0.0564
 1489SOL     OW15928   0.948   3.015  10.512  0.4002  0.0070 -0.4009
 1489SOL    HW115929   0.993   3.002  10.595 -2.8387 -0.3039  1.3246
 1489SOL    HW215930   0.926   3.108  10.516 -0.3290 -0.1103 -1.6854
 1490SOL     OW15931   2.595   1.161   4.460 -1.2088 -0.0555 -0.6406
 1490SOL    HW115932   2.540   1.224   4.507 -1.0556  0.2517 -0.8697
 1490SOL    HW215933   2.605   1.093   4.527  0.1054  1.3289  0.5678
 1491SOL     OW15934   0.087   3.762   9.240 -0.3547 -0.4963  0.0862
 1491SOL    HW115935   0.023   3.816   9.286  3.0912  2.4423  1.4605
 1491SOL    HW215936   0.077   3.680   9.287 -1.7089 -0.0223  0.6193
 1492SOL     OW15937   2.814   4.531   9.680 -0.0777 -0.4405  0.9557
 1492SOL    HW115938   2.775   4.586   9.612  0.4551  0.9164  1.7459
 1492SOL    HW215939   2.791   4.445   9.644  0.1554 -1.0733  2.3106
 1493SOL     OW15940   4.065   4.070   8.575  0.4077 -0.9962  0.3208
 1493SOL    HW115941   4.025   4.149   8.538 -0.0433 -0.7935  1.2224
 1493SOL    HW215942   4.055   4.014   8.499  0.3634  1.0756 -1.2197
 1494SOL     OW15943   4.416   4.228   5.706 -0.3264  0.0972 -0.2418
 1494SOL    HW115944   4.390   4.305   5.758 -0.7108  0.4244 -0.9136
 1494SOL    HW215945   4.360   4.246   5.631 -1.8471  2.5011  1.4430
 1495SOL     OW15946   0.062   1.191   3.727  0.0711 -0.0409 -0.1267
 1495SOL    HW115947   0.056   1.190   3.631  2.3644 -0.9162 -0.2565
 1495SOL    HW215948   4.695   1.202   3.751 -0.1192  0.3032 -0.9893
 1496SOL     OW15949   1.785   3.884   4.512  0.3270 -0.0560  0.5389
 1496SOL    HW115950   1.692   3.907   4.512  0.6515  1.1886 -1.6995
 1496SOL    HW215951   1.774   3.805   4.564 -1.2918  0.1747  0.5443
 1497SOL     OW15952   0.486   1.784   1.925  0.3559  0.7387 -0.0488
 1497SOL    HW115953   0.491   1.847   1.854  1.1573  1.7309  0.8950
 1497SOL    HW215954   0.483   1.704   1.872 -0.8853  0.5925  0.2207
 1498SOL     OW15955   3.642   2.920   7.761  0.1145  0.1605  0.2662
 1498SOL    HW115956   3.668   2.845   7.814  2.7942  0.1906 -1.0350
 1498SOL    HW215957   3.572   2.970   7.803  0.3542  1.1236 -0.4653
 1499SOL     OW15958   3.351   4.620  13.244  0.4533 -0.0292  0.4027
 1499SOL    HW115959   3.334   4.714  13.249 -1.1009 -0.1434 -3.0747
 1499SOL    HW215960   3.275   4.599  13.191 -1.1757  2.4436  1.7725
 1500SOL     OW15961   4.249   2.840   6.546 -0.2734 -0.1108 -0.0305
 1500SOL    HW115962   4.189   2.914   6.534 -1.4435 -1.0254  0.2182
 1500SOL    HW215963   4.233   2.824   6.639  0.6877  2.9871  0.6702
 1501SOL     OW15964   0.456   0.939   7.802  0.2853 -0.2266 -0.3372
 1501SOL    HW115965   0.486   0.980   7.884 -1.5577 -0.2269  0.3318
 1501SOL    HW215966   0.380   0.985   7.767 -0.2293 -1.1360 -0.4194
 1502SOL     OW15967   1.652   4.482   2.799  0.1087 -0.3098 -0.1011
 1502SOL    HW115968   1.605   4.509   2.720 -0.1262  1.9076  0.7787
 1502SOL    HW215969   1.733   4.533   2.798 -0.6293  0.8684 -0.0063
 1503SOL     OW15970   3.476   1.347   2.302 -0.0826 -0.2233  0.3416
 1503SOL    HW115971   3.518   1.431   2.323  0.6675 -1.1870  2.7608
 1503SOL    HW215972   3.524   1.282   2.353 -2.7878  0.4253  3.7882
 1504SOL     OW15973   0.604   2.194  14.728 -0.7001  0.3487  0.6352
 1504SOL    HW115974   0.646   2.263  14.780 -0.4569 -0.3972  1.4191
 1504SOL    HW215975   0.516   2.224  14.706 -0.2618  1.0339 -0.1918
 1505SOL     OW15976   3.948   0.059   7.153 -0.0412 -0.2010 -0.3062
 1505SOL    HW115977   3.992   4.701   7.137  0.3476  0.1489 -1.0743
 1505SOL    HW215978   4.009   0.123   7.115 -1.4392  0.9153 -0.6753
 1506SOL     OW15979   4.225   2.419   8.606 -0.0362  0.7076 -1.2671
 1506SOL    HW115980   4.197   2.454   8.691 -0.0787  0.2280 -1.0796
 1506SOL    HW215981   4.315   2.389   8.621 -0.8885 -1.0896  0.3155
 1507SOL     OW15982   1.342   1.363   0.833  0.1638  0.0685 -0.0815
 1507SOL    HW115983   1.338   1.339   0.740 -2.3352  1.0422 -0.2321
 1507SOL    HW215984   1.300   1.289   0.875  0.7954  0.3274  1.0160
 1508SOL     OW15985   1.757   1.342   6.869 -0.5302 -0.1199 -0.3104
 1508SOL    HW115986   1.705   1.279   6.918 -0.9566  3.0448  3.3907
 1508SOL    HW215987   1.757   1.416   6.930 -0.9918  0.1888 -0.6814
 1509SOL     OW15988   1.364   1.582  10.478  0.3562  0.1700  0.4740
 1509SOL    HW115989   1.442   1.547  10.436  0.6716  0.7867  0.5402
 1509SOL    HW215990   1.307   1.555  10.406 -0.0253 -1.2593  1.3185
 1510SOL     OW15991   2.169   0.716   7.329  0.0918  0.0747  0.2377
 1510SOL    HW115992   2.224   0.640   7.310  0.0645  0.2237 -0.4210
 1510SOL    HW215993   2.116   0.722   7.250 -1.1255 -0.7364  0.9914
 1511SOL     OW15994   2.198   0.330   6.963  0.6956  0.2376  0.2955
 1511SOL    HW115995   2.141   0.361   7.034 -1.5896  0.1718 -1.5150
 1511SOL    HW215996   2.268   0.395   6.966  1.7333 -0.8258 -0.9215
 1512SOL     OW15997   3.794   3.624   2.460 -0.1579  0.2090 -0.4161
 1512SOL    HW115998   3.847   3.585   2.530 -1.1992 -2.1380 -0.9423
 1512SOL    HW215999   3.788   3.543   2.409  0.0700 -0.1966  0.2025
 1513SOL     OW16000   3.612   1.521   0.406  0.0424 -0.1576 -0.1375
 1513SOL    HW116001   3.639   1.515   0.498 -0.2597  0.7911  0.0176
 1513SOL    HW216002   3.563   1.440   0.395 -1.0736  0.6366 -1.0676
 1514SOL     OW16003   1.032   2.989   7.057  0.1216 -0.5267 -0.1704
 1514SOL    HW116004   1.066   2.933   7.127 -0.2095 -1.2409 -0.5918
 1514SOL    HW216005   1.003   3.060   7.115 -0.4122 -0.6043 -0.3524
 1515SOL     OW16006   0.143   0.194  11.451 -0.0390 -0.5878  0.4222
 1515SOL    HW116007   0.221   0.151  11.486  0.0547  0.3833  1.4242
 1515SOL    HW216008   0.179   0.247  11.379 -0.4807  0.9053  1.2934
 1516SOL     OW16009   0.362   4.634   2.310 -0.0473 -0.8859 -0.0919
 1516SOL    HW116010   0.421   4.709   2.297 -0.9874 -0.0003  0.7864
 1516SOL    HW216011   0.296   4.663   2.248  0.3697 -0.6236 -0.4110
 1517SOL     OW16012   1.217   4.472  15.128  0.1750 -0.4311  0.1221
 1517SOL    HW116013   1.242   4.538  15.063  2.4039 -0.6360  0.7907
 1517SOL    HW216014   1.213   4.396  15.069  0.7936 -3.3436  3.8777
 1518SOL     OW16015   3.384   0.949   4.626  0.2363 -0.0489 -0.4048
 1518SOL    HW116016   3.379   0.876   4.564 -1.2655 -1.0123  0.8625
 1518SOL    HW216017   3.305   0.998   4.603  0.3995  0.0923 -0.6770
 1519SOL     OW16018   4.354   3.888   3.314  0.5914 -0.3186 -0.5774
 1519SOL    HW116019   4.303   3.810   3.338  0.1509 -0.3174 -1.5183
 1519SOL    HW216020   4.304   3.908   3.235 -1.6172 -0.2934  0.8558
 1520SOL     OW16021   1.346   0.164  16.151  0.3164  0.5325 -0.0345
 1520SOL    HW116022   1.265   0.134  16.110  0.2621  0.2159  0.2903
 1520SOL    HW216023   1.346   0.248  16.106  0.0582  1.0331  0.8805
 1521SOL     OW16024   4.085   2.473   1.223 -0.3805 -0.3861 -0.0165
 1521SOL    HW116025   4.090   2.425   1.306 -2.4436 -0.3154  0.1561
 1521SOL    HW216026   4.118   2.413   1.157  1.5104 -0.7421  1.2464
 1522SOL     OW16027   2.050   1.643   2.585  0.6357  0.2232  0.1259
 1522SOL    HW116028   1.993   1.686   2.649  1.1651  2.5047 -0.9417
 1522SOL    HW216029   2.100   1.583   2.641 -1.0988 -1.7263 -0.4363
 1523SOL     OW16030   4.374   1.311   7.032  0.7346 -0.4338 -0.1656
 1523SOL    HW116031   4.460   1.269   7.031  0.7255 -0.4870  1.1233
 1523SOL    HW216032   4.326   1.256   6.970  1.4289  0.2949 -1.3353
 1524SOL     OW16033   4.264   3.181   2.021 -0.0179 -0.5156  0.0589
 1524SOL    HW116034   4.358   3.191   2.031 -0.0467  0.1144 -0.2940
 1524SOL    HW216035   4.237   3.272   2.036  1.7669  0.0441 -0.1488
 1525SOL     OW16036   2.412   0.575   5.100  0.1245  0.3172  0.2313
 1525SOL    HW116037   2.393   0.638   5.168  4.0497  1.4623  0.2937
 1525SOL    HW216038   2.478   0.619   5.046  1.3491  1.7021  2.8995
 1526SOL     OW16039   1.066   0.032   9.081  0.3957  0.2178 -0.3192
 1526SOL    HW116040   1.053   0.118   9.042 -2.0537 -0.4560 -0.9730
 1526SOL    HW216041   0.992   0.020   9.141 -0.6225 -1.2822 -1.8906
 1527SOL     OW16042   1.502   4.586  15.868  0.6406  0.3585  0.5104
 1527SOL    HW116043   1.525   4.573  15.776 -0.3357  0.3384  0.2672
 1527SOL    HW216044   1.407   4.599  15.869  0.7371  1.0599  0.3554
 1528SOL     OW16045   4.279   1.297   9.657  0.0723  0.0491  0.3859
 1528SOL    HW116046   4.316   1.369   9.707  1.5403 -0.5968  0.2432
 1528SOL    HW216047   4.227   1.331   9.585  0.2088  1.7230  1.0888
 1529SOL     OW16048   0.834   0.610   1.026 -0.4959  0.1924  0.4471
 1529SOL    HW116049   0.780   0.687   1.045 -0.8600 -0.3862  1.7118
 1529SOL    HW216050   0.893   0.609   1.102  0.2023 -0.9746 -0.0970
 1530SOL     OW16051   1.455   1.454   6.921  0.0503 -0.0675  0.2821
 1530SOL    HW116052   1.542   1.483   6.894 -0.6809  0.7191 -1.1846
 1530SOL    HW216053   1.405   1.473   6.842 -0.5906 -1.3852  0.3696
 1531SOL     OW16054   0.812   4.650   2.505  0.4801  0.0678 -0.0711
 1531SOL    HW116055   0.773   4.687   2.426  1.0874  0.8646 -0.0044
 1531SOL    HW216056   0.884   4.711   2.520 -0.4956  1.2277 -0.0428
 1532SOL     OW16057   4.004   1.076   7.024  0.3520 -0.3695 -0.0814
 1532SOL    HW116058   3.973   1.055   7.112 -0.8545  0.3492 -0.3414
 1532SOL    HW216059   3.939   1.141   6.999 -1.8173 -2.7071 -0.4357
 1533SOL     OW16060   0.427   2.515   2.640 -0.1273  0.3037 -0.7541
 1533SOL    HW116061   0.508   2.488   2.597 -1.2013 -1.1422 -1.9210
 1533SOL    HW216062   0.367   2.507   2.566 -0.7707  4.7128 -0.6837
 1534SOL     OW16063   0.624   3.204   6.210  0.2699 -0.7246 -0.4330
 1534SOL    HW116064   0.611   3.296   6.186  0.5663  0.1392  2.6729
 1534SOL    HW216065   0.591   3.210   6.299 -0.2083  0.5326 -0.7033
 1535SOL     OW16066   0.124   2.093   7.972  0.0410  0.0314  0.6698
 1535SOL    HW116067   0.078   2.054   7.898  0.5638  0.1061  0.3058
 1535SOL    HW216068   0.193   2.029   7.990 -0.3768 -0.1723  1.5451
 1536SOL     OW16069   1.725   3.121   6.435  0.4513 -0.3503 -0.3808
 1536SOL    HW116070   1.770   3.174   6.370 -1.2506  0.5643 -0.8267
 1536SOL    HW216071   1.763   3.166   6.510  0.8397  0.4169 -1.0526
 1537SOL     OW16072   0.317   2.108   4.411 -0.0266  0.2777  0.1640
 1537SOL    HW116073   0.346   2.027   4.452  2.1533  0.1022 -1.7546
 1537SOL    HW216074   0.328   2.099   4.316 -1.3602 -2.5832  0.2774
 1538SOL     OW16075   2.325   3.254   6.101  0.0938  0.1032 -0.0047
 1538SOL    HW116076   2.310   3.315   6.029 -1.2405  2.0058  1.8652
 1538SOL    HW216077   2.245   3.203   6.109  0.6212 -0.5103  1.3513
 1539SOL     OW16078   3.646   4.207   8.960 -0.0029 -0.3553  0.0148
 1539SOL    HW116079   3.671   4.267   8.889  1.2593 -0.0146  0.7546
 1539SOL    HW216080   3.729   4.207   9.008  1.4113 -1.2641 -2.4061
 1540SOL     OW16081   2.696   4.092   6.568 -0.8475  0.5864 -0.0836
 1540SOL    HW116082   2.626   4.028   6.554  1.7689 -2.3232  0.0771
 1540SOL    HW216083   2.722   4.063   6.656 -1.8974 -1.5211 -0.4695
 1541SOL     OW16084   0.317   2.285   8.810  0.2347  0.2975  0.3058
 1541SOL    HW116085   0.317   2.206   8.862 -2.2392  0.4822  0.5556
 1541SOL    HW216086   0.403   2.318   8.837  0.5434 -0.7091  0.5344
 1542SOL     OW16087   2.236   1.944   3.420  0.0687 -0.0989 -0.3861
 1542SOL    HW116088   2.144   1.917   3.425  0.1787  0.3987  4.0038
 1542SOL    HW216089   2.225   2.039   3.426  2.4288  0.1467 -0.0786
 1543SOL     OW16090   0.522   2.220   6.212 -0.3776  0.0601 -0.1261
 1543SOL    HW116091   0.450   2.197   6.272 -0.1979  0.7083  0.3318
 1543SOL    HW216092   0.488   2.305   6.186  1.1460  0.6305 -0.2264
 1544SOL     OW16093   2.203   1.304  13.710  0.1788 -0.5574  0.2408
 1544SOL    HW116094   2.112   1.274  13.715  0.0481  0.1906  2.4096
 1544SOL    HW216095   2.247   1.220  13.697 -0.3148 -0.5584 -1.3947
 1545SOL     OW16096   4.137   3.222   8.658 -0.1359 -0.3758  0.5911
 1545SOL    HW116097   4.105   3.136   8.684 -0.5504  0.8003  3.9798
 1545SOL    HW216098   4.060   3.259   8.614  0.4898  0.9866  0.6216
 1546SOL     OW16099   1.722   4.002   8.340  0.1300 -0.5475  0.0612
 1546SOL    HW116100   1.632   3.990   8.368  0.4243 -3.9982 -0.4717
 1546SOL    HW216101   1.716   4.092   8.308 -3.1876 -1.6073 -2.2215
 1547SOL     OW16102   3.912   2.657   6.654 -0.4612  0.5345  0.0909
 1547SOL    HW116103   3.853   2.582   6.660  0.3056  0.0880  2.2523
 1547SOL    HW216104   3.979   2.627   6.716  0.2642  2.0549  0.0463
 1548SOL     OW16105   0.182   3.382  14.370 -0.1375  0.2018 -0.1863
 1548SOL    HW116106   0.185   3.446  14.441  0.0252  0.2612 -0.2480
 1548SOL    HW216107   0.231   3.306  14.400 -2.7962 -1.5033 -0.1410
 1549SOL     OW16108   3.545   1.821   6.963  0.0553  0.2110 -0.2651
 1549SOL    HW116109   3.610   1.855   6.903 -0.7061 -0.4016 -1.4283
 1549SOL    HW216110   3.589   1.819   7.048  0.3394  1.1991 -0.3945
 1550SOL     OW16111   3.945   3.511  13.676 -0.0702 -0.0136  0.2398
 1550SOL    HW116112   3.982   3.458  13.746  0.7223  0.4395  0.1557
 1550SOL    HW216113   3.990   3.593  13.696  0.0745 -0.5798  2.2220
 1551SOL     OW16114   1.065   0.720   3.282 -0.1798 -1.1316 -0.4130
 1551SOL    HW116115   1.057   0.656   3.353 -1.6859  0.0583  0.4661
 1551SOL    HW216116   0.978   0.758   3.274 -0.0705 -1.0864 -1.3255
 1552SOL     OW16117   0.484   3.586   9.014  0.4736 -0.1960 -0.2428
 1552SOL    HW116118   0.523   3.515   8.962  0.0418 -0.4592 -0.2125
 1552SOL    HW216119   0.407   3.600   8.958  0.5241  2.1633  0.2637
 1553SOL     OW16120   4.581   1.409  13.651  0.1925  0.2113 -1.1368
 1553SOL    HW116121   4.519   1.340  13.626  0.4441 -0.3116 -0.3101
 1553SOL    HW216122   4.566   1.417  13.745 -0.3372 -1.2167 -1.0888
 1554SOL     OW16123   0.036   0.278   3.331 -0.6918 -0.4143 -0.2350
 1554SOL    HW116124   0.114   0.229   3.356  0.5709  1.0561 -1.2849
 1554SOL    HW216125   0.003   0.237   3.250 -0.0005 -1.3344 -0.0496
 1555SOL     OW16126   4.012   0.825  16.832 -0.4176  0.2033  0.1502
 1555SOL    HW116127   4.089   0.838  16.887  0.6396  0.0143 -1.2878
 1555SOL    HW216128   4.055   0.768  16.769  0.3947 -0.7443  1.5672
 1556SOL     OW16129   3.826   0.253   0.485 -0.2350  0.2695  1.1218
 1556SOL    HW116130   3.819   0.344   0.514  0.9995  0.0430  2.1663
 1556SOL    HW216131   3.838   0.211   0.571 -2.4893 -2.7517 -0.0689
 1557SOL     OW16132   2.485   2.043  15.171  0.7666 -0.1439 -0.1348
 1557SOL    HW116133   2.441   2.114  15.218  1.6831  1.8200 -2.1943
 1557SOL    HW216134   2.479   2.076  15.081  0.4441 -2.5813 -0.9902
 1558SOL     OW16135   1.816   1.797  16.809  0.1442  0.1268  0.5384
 1558SOL    HW116136   1.911   1.784  16.804  0.1699  0.1471  0.9600
 1558SOL    HW216137   1.815   1.768  16.900  1.0322  0.5997  0.7014
 1559SOL     OW16138   3.613   0.166   2.960  0.1768  0.0676 -0.2624
 1559SOL    HW116139   3.573   0.102   2.901 -2.7365  1.9213 -0.3128
 1559SOL    HW216140   3.597   0.251   2.918  1.6279  1.0688  1.2200
 1560SOL     OW16141   3.228   3.125   4.524 -0.2982  0.1989 -0.4069
 1560SOL    HW116142   3.303   3.088   4.478 -0.6968 -1.0984 -0.0056
 1560SOL    HW216143   3.234   3.072   4.603  0.1169 -0.5622 -0.9450
 1561SOL     OW16144   3.979   1.922   2.309 -0.4651  0.1767 -0.8505
 1561SOL    HW116145   3.961   1.828   2.307 -2.7607  0.5736  0.8623
 1561SOL    HW216146   3.951   1.950   2.222 -0.8940 -1.7905 -1.3587
 1562SOL     OW16147   1.225   2.125  17.628 -0.2204 -0.1896  0.1198
 1562SOL    HW116148   1.283   2.109  17.555  1.3348 -0.6568  1.4577
 1562SOL    HW216149   1.258   2.057  17.686 -0.1096  0.2923  0.6251
 1563SOL     OW16150   2.481   4.507  11.762 -0.1742 -0.2594 -0.3624
 1563SOL    HW116151   2.452   4.416  11.760  0.8174 -0.5885 -0.0949
 1563SOL    HW216152   2.488   4.522  11.857 -1.1415  1.4839 -0.5566
 1564SOL     OW16153   0.234   2.101   2.229 -0.3461  0.0707 -0.2119
 1564SOL    HW116154   0.180   2.089   2.151  0.2780 -2.9306 -0.1901
 1564SOL    HW216155   0.301   2.035   2.211 -0.5603 -0.0963 -0.4087
 1565SOL     OW16156   2.239   1.480   6.787  0.1282  0.1602 -0.3327
 1565SOL    HW116157   2.162   1.424   6.797  1.8496 -2.1153 -0.1015
 1565SOL    HW216158   2.202   1.551   6.734 -1.3692  0.0033  0.4756
 1566SOL     OW16159   1.547   0.569  16.238  0.2717 -0.0893  0.1535
 1566SOL    HW116160   1.603   0.504  16.280 -0.7411 -0.5672  0.7716
 1566SOL    HW216161   1.463   0.525  16.224 -1.5044  2.9507  1.2566
 1567SOL     OW16162   3.971   4.613   1.303 -0.1086  1.1451 -0.6016
 1567SOL    HW116163   3.974   4.707   1.288  0.3841  1.2480  0.1629
 1567SOL    HW216164   3.916   4.609   1.381 -0.5451  0.1843 -0.9585
 1568SOL     OW16165   3.511   2.968   1.503 -0.5948 -0.0429 -0.3547
 1568SOL    HW116166   3.566   2.924   1.439 -1.7487  0.8198 -1.9418
 1568SOL    HW216167   3.431   2.915   1.508 -0.6988  0.2281  0.9971
 1569SOL     OW16168   4.632   3.518  16.590  0.0772  0.1530  0.0321
 1569SOL    HW116169   4.553   3.530  16.537 -0.8876 -1.1847  1.1638
 1569SOL    HW216170   4.681   3.469  16.524  0.4674  1.5216 -0.6993
 1570SOL     OW16171   3.602   2.792   5.998  0.3725 -0.5532 -0.0252
 1570SOL    HW116172   3.605   2.863   5.934 -3.4578  0.4694  0.9889
 1570SOL    HW216173   3.673   2.807   6.061  0.9258 -0.2185 -0.7295
 1571SOL     OW16174   3.362   0.417   8.301  0.1933  0.4149 -0.0082
 1571SOL    HW116175   3.447   0.394   8.336  1.2113  0.7547 -2.2272
 1571SOL    HW216176   3.397   0.458   8.221 -0.2536  0.2556 -0.2863
 1572SOL     OW16177   4.396   4.697   7.720  0.9456  0.3017 -0.2192
 1572SOL    HW116178   4.416   0.021   7.800  1.3531  0.3418 -0.3412
 1572SOL    HW216179   4.439   0.026   7.654  0.0632 -1.7958 -2.4903
 1573SOL     OW16180   0.045   4.121  14.213 -0.0187  0.1760 -0.5311
 1573SOL    HW116181   0.054   4.186  14.283  0.9647 -0.9071  0.3513
 1573SOL    HW216182   0.064   4.183  14.143  0.6508  0.4298 -0.1241
 1574SOL     OW16183   3.547   0.842  15.197 -0.4046  0.0767  0.3081
 1574SOL    HW116184   3.542   0.832  15.102 -0.5233 -2.1282  0.5512
 1574SOL    HW216185   3.484   0.914  15.206 -0.1204  0.2774  0.7009
 1575SOL     OW16186   0.253   2.091   8.975  0.2891  0.1605  0.1053
 1575SOL    HW116187   0.214   2.161   9.028  1.3531  0.5529  0.3700
 1575SOL    HW216188   0.223   2.014   9.024  1.7858  0.6899  1.8646
 1576SOL     OW16189   2.824   0.966  16.381 -0.3991  0.5899  0.2023
 1576SOL    HW116190   2.746   0.944  16.432 -0.5003  0.4693 -0.0051
 1576SOL    HW216191   2.792   1.032  16.320  0.1797  0.1088 -0.6173
 1577SOL     OW16192   2.010   0.425   5.651 -0.1694  1.0638 -0.6794
 1577SOL    HW116193   2.030   0.350   5.707  0.6915  0.8878 -1.2074
 1577SOL    HW216194   1.964   0.378   5.581  0.6159 -0.6874 -0.0373
 1578SOL     OW16195   3.893   4.694   9.158  0.1387  0.0514 -0.0894
 1578SOL    HW116196   3.935   0.032   9.216  0.1564 -1.3938  1.4815
 1578SOL    HW216197   3.820   4.660   9.211  0.5943 -0.2619  0.3323
 1579SOL     OW16198   3.380   1.148   6.297 -0.3951  0.1524  0.0779
 1579SOL    HW116199   3.367   1.165   6.390 -1.3607 -3.0570  0.5037
 1579SOL    HW216200   3.438   1.221   6.275 -0.5695  0.5332  0.8920
 1580SOL     OW16201   3.350   3.799   1.739  0.1569 -0.5704 -0.3694
 1580SOL    HW116202   3.315   3.817   1.651  1.0739 -2.1350 -1.0461
 1580SOL    HW216203   3.318   3.874   1.790 -1.0327 -1.1559 -0.2645
 1581SOL     OW16204   2.762   2.320  10.224 -0.1045 -0.3222 -0.5901
 1581SOL    HW116205   2.718   2.337  10.307  1.7851  3.7588 -0.4274
 1581SOL    HW216206   2.751   2.403  10.177 -0.3390 -0.5281 -0.9006
 1582SOL     OW16207   0.174   1.967   1.504 -0.1957 -0.1032 -0.4597
 1582SOL    HW116208   0.221   1.913   1.440  2.1272  1.9865 -0.5079
 1582SOL    HW216209   0.246   2.003   1.554 -0.2297  0.2337 -0.6532
 1583SOL     OW16210   0.518   4.046   4.239  0.0228  0.1885 -0.6792
 1583SOL    HW116211   0.486   3.956   4.237 -1.2393  0.5987  1.2576
 1583SOL    HW216212   0.606   4.043   4.201  1.0307 -1.2563  1.7933
 1584SOL     OW16213   0.194   2.946   4.696  0.0602 -0.1262  0.3676
 1584SOL    HW116214   0.145   2.884   4.751  0.1037  0.0637  0.6198
 1584SOL    HW216215   0.256   2.883   4.659  1.7361  2.9182 -1.9890
 1585SOL     OW16216   2.898   0.019   3.997  0.3507 -0.0863  0.1811
 1585SOL    HW116217   2.889   4.703   3.910 -2.6168  1.4322 -0.2163
 1585SOL    HW216218   2.821   0.076   4.001 -0.6272 -1.4459  0.5991
 1586SOL     OW16219   0.811   3.030   9.997  0.2681 -0.1225 -0.2050
 1586SOL    HW116220   0.824   3.010  10.090  0.8783  1.3349  0.0239
 1586SOL    HW216221   0.748   2.960   9.977  1.3191 -1.4387  1.0868
 1587SOL     OW16222   1.641   1.515   9.847 -0.1475 -0.1860 -0.2505
 1587SOL    HW116223   1.565   1.573   9.848 -0.2813 -0.3460 -1.0528
 1587SOL    HW216224   1.683   1.543   9.766  0.8235  0.9049  0.6158
 1588SOL     OW16225   1.059   2.556   1.987 -0.3180 -0.5278  0.5454
 1588SOL    HW116226   1.065   2.542   1.893  1.0831 -1.3428  0.7631
 1588SOL    HW216227   1.118   2.491   2.027 -0.7768 -0.6160  1.0922
 1589SOL     OW16228   1.145   1.819   4.479 -0.1863 -0.6758 -0.0696
 1589SOL    HW116229   1.216   1.868   4.520 -1.0836  0.4494  0.1357
 1589SOL    HW216230   1.169   1.727   4.492 -1.0965 -0.7158  1.3386
 1590SOL     OW16231   1.592   3.372   5.602 -0.2265  0.2635 -0.0358
 1590SOL    HW116232   1.603   3.467   5.595  1.3723  0.1026  0.3320
 1590SOL    HW216233   1.681   3.337   5.596 -0.4689 -0.7022  2.0282
 1591SOL     OW16234   1.957   2.673   2.313  0.7009 -0.4696 -0.4085
 1591SOL    HW116235   1.968   2.728   2.236  1.8018 -1.1693 -0.7434
 1591SOL    HW216236   1.991   2.735   2.378 -1.0451  0.3674 -0.2701
 1592SOL     OW16237   1.134   3.616   5.868 -0.1315 -0.1603 -0.1435
 1592SOL    HW116238   1.179   3.641   5.788 -0.1312 -0.5985 -0.2776
 1592SOL    HW216239   1.193   3.659   5.930 -0.1227 -1.8675  1.0275
 1593SOL     OW16240   4.376   1.356  10.538  0.6339  0.2165  0.8535
 1593SOL    HW116241   4.284   1.343  10.560 -0.4091  1.0482 -3.0758
 1593SOL    HW216242   4.411   1.314  10.616 -0.1952 -0.8902  0.6206
 1594SOL     OW16243   0.295   1.344   1.579 -0.1633  1.0896 -0.1729
 1594SOL    HW116244   0.390   1.356   1.567 -0.3299 -0.2786 -2.8505
 1594SOL    HW216245   0.296   1.319   1.672 -1.1433  2.6056  0.2354
 1595SOL     OW16246   4.527   1.740   8.887  0.0447 -0.1218  0.4644
 1595SOL    HW116247   4.607   1.755   8.938  1.2073  0.0077 -1.3773
 1595SOL    HW216248   4.464   1.735   8.959  0.4424  0.1687  0.8384
 1596SOL     OW16249   1.048   3.055   1.995 -0.7951  0.5227 -0.1061
 1596SOL    HW116250   1.055   3.078   1.903 -1.3670  1.1147 -0.0006
 1596SOL    HW216251   1.045   2.959   1.992  1.2791  0.5028 -1.4123
 1597SOL     OW16252   3.748   2.871   6.670 -0.3876  0.5056  0.4176
 1597SOL    HW116253   3.733   2.913   6.755 -0.8132  0.3962  0.3981
 1597SOL    HW216254   3.802   2.793   6.683  1.7769  1.9669  0.2089
 1598SOL     OW16255   1.765   2.135   5.673 -0.8881  0.1471  0.0165
 1598SOL    HW116256   1.718   2.150   5.755  0.7455  1.5761  0.7012
 1598SOL    HW216257   1.748   2.041   5.666 -1.3231  0.1507  1.0385
 1599SOL     OW16258   2.801   0.534   2.746  0.2082 -0.4020 -0.7521
 1599SOL    HW116259   2.753   0.616   2.752 -0.9976 -1.2788  1.5236
 1599SOL    HW216260   2.727   0.473   2.736 -1.3300  1.3735 -0.2207
 1600SOL     OW16261   3.660   2.072  15.963  0.2250 -0.5005  0.0025
 1600SOL    HW116262   3.744   2.064  16.008  0.1276 -0.6462  0.1627
 1600SOL    HW216263   3.663   2.157  15.919  2.6220  0.0438  1.2346
 1601SOL     OW16264   3.992   2.541   3.041  0.2952  0.3593  0.0888
 1601SOL    HW116265   4.066   2.527   2.981  0.3953 -2.3131  0.8484
 1601SOL    HW216266   4.027   2.505   3.122 -2.2591  0.4187  1.1899
 1602SOL     OW16267   3.727   1.710   4.288  0.3941  0.0018  0.6688
 1602SOL    HW116268   3.801   1.692   4.346 -0.2867 -2.1137  0.8939
 1602SOL    HW216269   3.687   1.787   4.329  1.0628 -0.2731  1.8139
 1603SOL     OW16270   3.949   2.738  14.416 -0.1799  0.1978  0.3274
 1603SOL    HW116271   3.868   2.694  14.440 -1.0978  0.7379 -1.7170
 1603SOL    HW216272   3.990   2.721  14.501  0.0206  1.8521  0.5612
 1604SOL     OW16273   0.367   0.155   6.983 -0.0787  0.0485 -0.6978
 1604SOL    HW116274   0.442   0.212   7.002 -0.0258 -0.1307 -0.3780
 1604SOL    HW216275   0.382   0.090   7.051  0.5539  0.8159 -0.0986
 1605SOL     OW16276   2.473   1.883   5.623 -1.1693 -0.0007  0.3145
 1605SOL    HW116277   2.386   1.861   5.658 -0.6040 -0.6024  1.3263
 1605SOL    HW216278   2.500   1.949   5.686  1.0962  0.2248 -0.9051
 1606SOL     OW16279   4.191   1.328  16.225 -0.5097 -0.3665 -0.0336
 1606SOL    HW116280   4.179   1.422  16.221 -2.4313 -0.7198 -2.7827
 1606SOL    HW216281   4.174   1.328  16.319  1.6157 -0.4206  0.3527
 1607SOL     OW16282   4.689   1.407   6.579 -0.2704 -0.0334 -0.0435
 1607SOL    HW116283   4.656   1.343   6.641 -1.7844 -1.0932 -1.9350
 1607SOL    HW216284   4.617   1.405   6.515 -0.4022 -0.3058  0.1144
 1608SOL     OW16285   1.230   0.664   0.743  0.1724 -0.0482  0.3528
 1608SOL    HW116286   1.168   0.732   0.770  0.8728  0.4431  0.7197
 1608SOL    HW216287   1.301   0.716   0.707 -1.0908  0.6533 -1.1483
 1609SOL     OW16288   2.219   3.199  16.909  0.2430 -0.6539  0.0772
 1609SOL    HW116289   2.230   3.218  16.816 -1.9297 -1.3684 -0.3081
 1609SOL    HW216290   2.310   3.187  16.937 -0.2526 -3.2269  0.6077
 1610SOL     OW16291   1.649   4.564  14.132 -0.3131 -0.5022  0.0057
 1610SOL    HW116292   1.670   4.581  14.040  1.4811  1.5175  0.7985
 1610SOL    HW216293   1.663   4.653  14.166 -1.0296 -1.3160  2.4574
 1611SOL     OW16294   1.365   0.417  16.046 -0.1824 -0.0569  0.6504
 1611SOL    HW116295   1.448   0.440  16.004  0.3867 -0.6348  1.4595
 1611SOL    HW216296   1.319   0.502  16.042  0.1649  0.2609  3.2540
 1612SOL     OW16297   0.058   4.036   9.603 -0.3773  0.3793 -0.3049
 1612SOL    HW116298   0.009   4.103   9.651 -0.4116 -1.9396  2.8298
 1612SOL    HW216299   4.720   3.965   9.609 -0.6265  0.7882  2.0319
 1613SOL     OW16300   3.395   1.403   5.394 -0.3395 -0.5937  0.1459
 1613SOL    HW116301   3.394   1.452   5.312  1.1304 -0.9075 -0.0753
 1613SOL    HW216302   3.418   1.319   5.352 -1.0359 -0.0148 -1.3934
 1614SOL     OW16303   0.333   3.059   5.135  0.3831 -0.2939 -0.4724
 1614SOL    HW116304   0.354   2.971   5.102 -1.7166 -1.2064  0.6069
 1614SOL    HW216305   0.291   3.027   5.215  0.3761  0.9682  0.0285
 1615SOL     OW16306   1.768   4.688   0.285 -0.7657  0.3511 -0.5015
 1615SOL    HW116307   1.673   4.697   0.291 -0.8111 -0.2630 -0.3281
 1615SOL    HW216308   1.774   4.684   0.189 -0.6262 -0.5191 -0.4574
 1616SOL     OW16309   1.298   1.936   3.704  0.0778  0.1157  0.3535
 1616SOL    HW116310   1.328   1.849   3.731 -0.9161 -0.0843  0.7953
 1616SOL    HW216311   1.231   1.962   3.766  1.5536 -0.0595  2.0022
 1617SOL     OW16312   1.409   4.141  10.261 -0.0495 -0.3244  0.5603
 1617SOL    HW116313   1.410   4.225  10.215 -0.1024 -0.1979  0.7905
 1617SOL    HW216314   1.499   4.138  10.293 -0.0325 -1.5014  0.3814
 1618SOL     OW16315   4.652   4.358   2.801 -0.1285 -0.6578 -0.2050
 1618SOL    HW116316   4.605   4.281   2.768 -3.4980  0.8549  0.9964
 1618SOL    HW216317   0.007   4.347   2.751 -0.7702 -1.1266 -1.1278
 1619SOL     OW16318   2.588   2.505   4.394  0.5351  0.3741 -0.0890
 1619SOL    HW116319   2.629   2.574   4.341  0.8117  1.1700  1.1474
 1619SOL    HW216320   2.498   2.511   4.361  0.1545  3.3242  1.4657
 1620SOL     OW16321   3.471   1.255   8.258 -0.2426 -0.0970  0.6701
 1620SOL    HW116322   3.455   1.165   8.233 -0.6374  0.0412  0.4311
 1620SOL    HW216323   3.381   1.286   8.265 -0.9773 -1.8497 -1.1498
 1621SOL     OW16324   2.476   2.816  16.644 -0.1525 -0.6944  0.0277
 1621SOL    HW116325   2.484   2.750  16.575 -2.8243 -0.2345 -0.7212
 1621SOL    HW216326   2.494   2.897  16.597  3.1098 -0.9139  0.8816
 1622SOL     OW16327   1.080   1.422   8.787  0.0251 -0.0455  0.5126
 1622SOL    HW116328   1.058   1.344   8.837  0.9366 -0.8201 -0.2799
 1622SOL    HW216329   1.072   1.490   8.854 -1.7367  0.9405 -0.7147
 1623SOL     OW16330   2.134   2.046   2.167  0.1092 -0.3317  0.5065
 1623SOL    HW116331   2.140   2.141   2.178  0.6018 -0.0180 -2.4750
 1623SOL    HW216332   2.223   2.014   2.180  1.1988  2.1838 -0.8031
 1624SOL     OW16333   0.198   3.157   6.273  0.1558  0.5623 -0.4320
 1624SOL    HW116334   0.258   3.085   6.253 -0.0683  0.4178 -0.5876
 1624SOL    HW216335   0.234   3.225   6.217  0.0189 -0.7603 -2.1481
 1625SOL     OW16336   4.532   0.052   2.611 -0.4414  0.0019  0.2053
 1625SOL    HW116337   4.586   4.709   2.572 -1.1474  0.8327 -2.2000
 1625SOL    HW216338   4.521   0.003   2.692  0.2635 -1.4304 -0.5808
 1626SOL     OW16339   4.258   0.378  10.759 -0.1511 -0.2344  0.1176
 1626SOL    HW116340   4.350   0.400  10.773 -0.7170  2.0074  0.3805
 1626SOL    HW216341   4.222   0.432  10.830 -0.1631 -3.1856  2.3342
 1627SOL     OW16342   0.056   4.134   9.318 -0.5283 -0.8451  0.0658
 1627SOL    HW116343   0.073   4.127   9.412  0.2272 -1.8072 -0.1476
 1627SOL    HW216344   4.715   4.066   9.303 -1.3078 -0.2075  0.6203
 1628SOL     OW16345   2.793   1.885   5.175 -0.9044  0.1650  0.1051
 1628SOL    HW116346   2.862   1.854   5.233  0.1007 -1.3712 -1.8887
 1628SOL    HW216347   2.853   1.914   5.107 -2.1800 -0.1857 -1.1826
 1629SOL     OW16348   3.866   4.512  11.160  0.5246 -0.6870  0.1391
 1629SOL    HW116349   3.878   4.569  11.084 -2.4834 -0.5022 -0.1943
 1629SOL    HW216350   3.926   4.439  11.150 -0.2430 -0.9227 -2.7012
 1630SOL     OW16351   0.131   3.757  10.985  0.4219 -0.0053 -0.2663
 1630SOL    HW116352   0.219   3.773  11.018  1.3718 -0.6637 -2.4976
 1630SOL    HW216353   0.135   3.801  10.900 -0.8847 -1.7620 -1.2378
 1631SOL     OW16354   1.368   2.352   7.356  0.0095 -0.2181 -0.4366
 1631SOL    HW116355   1.384   2.415   7.427 -1.2177  0.3659 -0.6653
 1631SOL    HW216356   1.415   2.280   7.397 -0.7661 -0.1039  0.6622
 1632SOL     OW16357   1.344   4.291   4.362 -0.4123 -0.3704 -0.4304
 1632SOL    HW116358   1.294   4.323   4.287  0.8452 -0.4874 -1.3116
 1632SOL    HW216359   1.420   4.260   4.314 -0.7215  1.9677 -2.4337
 1633SOL     OW16360   2.302   2.975   9.363  0.2570  0.1073  0.7495
 1633SOL    HW116361   2.221   2.987   9.314  0.7746  2.2168  0.4018
 1633SOL    HW216362   2.315   3.060   9.404  2.0342 -0.7080  1.8902
 1634SOL     OW16363   3.495   1.560  17.382 -0.1820 -0.0659  0.0674
 1634SOL    HW116364   3.452   1.642  17.405  0.1041 -0.4374  1.8969
 1634SOL    HW216365   3.566   1.564  17.446 -1.0250  0.0588  0.9879
 1635SOL     OW16366   3.131   2.381   4.631 -0.4878 -0.1061  0.2545
 1635SOL    HW116367   3.102   2.421   4.549 -0.4562  0.9055  0.7406
 1635SOL    HW216368   3.224   2.364   4.619 -0.4263  1.4709 -1.4380
 1636SOL     OW16369   2.977   4.195   4.794 -0.2423  0.2415  0.2174
 1636SOL    HW116370   3.053   4.251   4.811  1.5707 -1.6720 -1.4286
 1636SOL    HW216371   2.954   4.236   4.711 -2.2001 -0.4435  0.4248
 1637SOL     OW16372   1.523   2.192   9.349 -0.2436  0.7375  0.1619
 1637SOL    HW116373   1.532   2.098   9.361 -0.5847  0.6103 -0.5912
 1637SOL    HW216374   1.568   2.220   9.429  1.1474  0.5621 -0.5589
 1638SOL     OW16375   3.113   1.618   7.815  0.3410 -0.3449 -0.9312
 1638SOL    HW116376   3.124   1.525   7.837  1.5457 -0.2511 -1.1293
 1638SOL    HW216377   3.129   1.625   7.721  0.3697 -0.6883 -0.9515
 1639SOL     OW16378   0.573   0.005  12.454  0.0985 -0.4021 -0.2101
 1639SOL    HW116379   0.631   0.013  12.530 -0.2055  1.5806 -0.1975
 1639SOL    HW216380   0.647   0.017  12.395  1.7459 -1.3034  1.6827
 1640SOL     OW16381   3.102   3.200   2.954 -0.5206 -0.3055 -0.2616
 1640SOL    HW116382   3.020   3.161   2.981 -0.2140 -0.1926  0.8108
 1640SOL    HW216383   3.076   3.292   2.963  0.7803 -0.0766  1.1878
 1641SOL     OW16384   2.616   4.438  13.019  0.7432  0.3432  0.3054
 1641SOL    HW116385   2.611   4.367  12.954 -3.5391 -0.1357  1.1181
 1641SOL    HW216386   2.704   4.471  13.002  1.0767 -0.5835  0.2327
 1642SOL     OW16387   3.380   0.510   4.827  0.1775 -0.1649  0.4849
 1642SOL    HW116388   3.376   0.486   4.734  0.4030  0.1940  0.3829
 1642SOL    HW216389   3.328   0.590   4.826  0.7900  0.2474  1.8582
 1643SOL     OW16390   3.306   3.799   8.213 -0.2976  0.2490  0.0812
 1643SOL    HW116391   3.234   3.754   8.170  0.6573 -0.4460 -0.7797
 1643SOL    HW216392   3.351   3.810   8.130 -0.1994  0.5170  0.1688
 1644SOL     OW16393   4.516   4.135   6.730 -0.1369 -0.8572  0.5623
 1644SOL    HW116394   4.602   4.174   6.744 -0.5504  1.0478 -2.2173
 1644SOL    HW216395   4.540   4.046   6.703 -1.5791 -0.6576 -1.3934
 1645SOL     OW16396   4.088   2.679  16.865 -0.3677  0.2072  0.0319
 1645SOL    HW116397   4.183   2.685  16.872 -0.2045 -0.8712 -1.5307
 1645SOL    HW216398   4.068   2.598  16.913  2.5212 -1.7225 -2.0330
 1646SOL     OW16399   3.142   0.191   3.961  0.3125  0.0350  0.2114
 1646SOL    HW116400   3.189   0.114   3.993 -1.0813 -0.7787  0.3238
 1646SOL    HW216401   3.052   0.181   3.994  0.0212 -0.2691 -0.6737
 1647SOL     OW16402   2.000   0.211   2.069  0.0467 -0.1870 -0.9340
 1647SOL    HW116403   1.983   0.271   1.996  1.6453  0.2903 -0.9217
 1647SOL    HW216404   1.933   0.143   2.057 -0.2804  0.0883 -0.6464
 1648SOL     OW16405   1.400   0.418  13.420 -0.3430 -0.4693  0.4324
 1648SOL    HW116406   1.429   0.383  13.504  1.4862  1.8382  0.7496
 1648SOL    HW216407   1.446   0.358  13.361  0.2126 -0.9592  1.3656
 1649SOL     OW16408   0.773   0.818   7.969 -0.0793 -0.2879  0.0090
 1649SOL    HW116409   0.724   0.747   7.927 -1.8902  1.1627 -0.3171
 1649SOL    HW216410   0.860   0.780   7.985  0.0630  0.5839  1.2662
 1650SOL     OW16411   2.899   2.649  11.309  0.2900 -0.2855 -0.2596
 1650SOL    HW116412   2.965   2.579  11.306  2.2553  1.5072  1.3976
 1650SOL    HW216413   2.833   2.609  11.253  1.3582 -2.2916 -0.1029
 1651SOL     OW16414   0.534   3.870   4.574  0.7679 -0.3238  0.3208
 1651SOL    HW116415   0.466   3.818   4.616 -1.1883 -0.9948 -3.6734
 1651SOL    HW216416   0.576   3.793   4.536  0.2894  0.0880 -1.0448
 1652SOL     OW16417   1.134   3.780   3.127  0.1050  0.4583  0.8199
 1652SOL    HW116418   1.063   3.827   3.170  0.0777  0.7554  0.4478
 1652SOL    HW216419   1.155   3.714   3.193  1.7779  1.4124  1.2402
 1653SOL     OW16420   1.048   3.990  15.654 -0.0509  0.0932 -0.2449
 1653SOL    HW116421   1.006   3.957  15.734 -0.2599  1.5471  0.2462
 1653SOL    HW216422   1.030   3.915  15.598 -0.5095  1.2769 -1.6533
 1654SOL     OW16423   1.050   4.067   3.416  0.1510  0.0163 -0.1250
 1654SOL    HW116424   1.000   4.088   3.496 -0.0782 -0.4567 -0.1452
 1654SOL    HW216425   0.979   4.056   3.352  1.3617  0.2968 -1.5064
 1655SOL     OW16426   0.851   4.398   1.744  0.4443  0.0376 -0.7696
 1655SOL    HW116427   0.784   4.427   1.806  0.0597 -1.3322 -0.5295
 1655SOL    HW216428   0.826   4.441   1.662 -0.2889 -2.1496 -1.7159
 1656SOL     OW16429   3.101   0.672   7.491  0.5253 -0.1024  0.1630
 1656SOL    HW116430   3.102   0.577   7.478 -0.2903 -0.2284  1.0434
 1656SOL    HW216431   3.074   0.708   7.407  0.8490 -1.0433 -0.3355
 1657SOL     OW16432   0.504   4.536   3.152 -0.0727  0.1735 -0.0299
 1657SOL    HW116433   0.492   4.491   3.069  1.0610 -2.8899  1.4711
 1657SOL    HW216434   0.538   4.623   3.131 -0.7768  0.3028 -0.6406
 1658SOL     OW16435   1.035   1.707   6.933  0.1297 -0.5436 -0.0023
 1658SOL    HW116436   1.126   1.711   6.961 -0.6236  0.3606  2.3695
 1658SOL    HW216437   0.993   1.663   7.008 -0.8727  0.2485 -0.0980
 1659SOL     OW16438   3.920   3.811  14.232  0.0842 -0.7075 -0.5805
 1659SOL    HW116439   3.985   3.784  14.167  0.7365 -0.0741 -0.1976
 1659SOL    HW216440   3.921   3.744  14.300  1.6286 -2.4371 -2.3201
 1660SOL     OW16441   2.330   1.429   5.380 -0.2847 -0.1975 -0.0137
 1660SOL    HW116442   2.337   1.343   5.338  0.3672 -2.0498  3.9327
 1660SOL    HW216443   2.250   1.458   5.337 -0.9976  0.0442  1.5058
 1661SOL     OW16444   3.476   1.231   3.677  0.3081  0.1221  0.4511
 1661SOL    HW116445   3.490   1.217   3.771 -0.7865 -0.9593  0.4566
 1661SOL    HW216446   3.383   1.219   3.660  0.3350 -0.2057  0.5337
 1662SOL     OW16447   0.215   3.538   4.140 -0.0497 -0.4274  0.1534
 1662SOL    HW116448   0.283   3.520   4.075  1.0195  0.2595  1.0820
 1662SOL    HW216449   0.150   3.576   4.080  0.7696  1.5688  0.5474
 1663SOL     OW16450   1.508   2.196   1.778  0.2804  0.0244  0.1616
 1663SOL    HW116451   1.473   2.123   1.831  1.2922 -0.8801 -0.4078
 1663SOL    HW216452   1.451   2.184   1.702 -0.4936  2.6204  0.3371
 1664SOL     OW16453   2.428   4.410   2.388  0.0761  0.1610 -0.2625
 1664SOL    HW116454   2.363   4.370   2.446 -0.7091 -1.4187 -2.2272
 1664SOL    HW216455   2.492   4.341   2.373 -2.1068 -1.3963 -2.4424
 1665SOL     OW16456   0.054   1.001   2.980  0.6328 -0.0628  0.4657
 1665SOL    HW116457   4.693   0.971   2.952 -0.3844  1.3386  2.0608
 1665SOL    HW216458   0.027   1.017   3.070 -0.4304 -0.1634  0.1703
 1666SOL     OW16459   1.071   1.669   2.312 -0.7376 -0.6643  0.5193
 1666SOL    HW116460   0.999   1.732   2.317 -0.2421 -0.1835  1.7676
 1666SOL    HW216461   1.066   1.637   2.222  0.0314  0.2985  0.1328
 1667SOL     OW16462   1.853   1.502  14.547  0.2140 -0.7667  0.2807
 1667SOL    HW116463   1.771   1.548  14.527  0.0287 -1.6935 -1.0657
 1667SOL    HW216464   1.825   1.418  14.512 -1.8945  1.1087 -2.5768
 1668SOL     OW16465   0.004   3.527   3.646 -0.9638 -0.2579 -0.2198
 1668SOL    HW116466   4.649   3.542   3.597 -0.9194  0.1006 -0.1779
 1668SOL    HW216467   4.719   3.432   3.654  1.7825 -0.4810  0.6826
 1669SOL     OW16468   0.262   3.248   3.951  0.4974 -0.0446 -0.7560
 1669SOL    HW116469   0.325   3.187   3.912 -0.2296 -0.4022 -1.3828
 1669SOL    HW216470   0.288   3.331   3.911 -0.7185 -0.1216 -1.7129
 1670SOL     OW16471   3.415   3.984   0.459  0.2217  0.2343  0.4045
 1670SOL    HW116472   3.484   3.972   0.395 -0.6176  1.1932 -0.6793
 1670SOL    HW216473   3.355   3.917   0.426 -1.0267  2.5088 -1.8970
 1671SOL     OW16474   4.381   2.912   5.966 -0.2560  0.5643  0.2901
 1671SOL    HW116475   4.289   2.889   5.980 -0.0341  0.0033  0.8265
 1671SOL    HW216476   4.414   2.828   5.936 -0.7678  0.3398  0.3540
 1672SOL     OW16477   3.153   0.350   7.820 -0.3816  0.5661 -0.4109
 1672SOL    HW116478   3.135   0.402   7.899  0.7634  0.5743 -0.1524
 1672SOL    HW216479   3.065   0.332   7.787 -0.0131 -2.1482  0.0813
 1673SOL     OW16480   2.165   0.221  15.902  0.3947 -0.0138 -0.3449
 1673SOL    HW116481   2.200   0.306  15.876 -0.5639  1.1207  2.1572
 1673SOL    HW216482   2.247   0.178  15.929  1.4964  2.0749 -0.3469
 1674SOL     OW16483   0.223   1.652   8.652 -0.0983 -0.5588 -0.4603
 1674SOL    HW116484   0.268   1.708   8.715 -2.7705 -1.0836  1.9454
 1674SOL    HW216485   0.223   1.709   8.575 -1.4253 -0.5219 -0.4384
 1675SOL     OW16486   2.699   0.606   3.519  0.0119 -0.5959  0.2552
 1675SOL    HW116487   2.659   0.687   3.550  1.4016  0.3932 -0.5262
 1675SOL    HW216488   2.772   0.648   3.474  0.9816 -0.9576  1.5046
 1676SOL     OW16489   1.498   0.029   3.807 -0.2571  0.6711  0.0410
 1676SOL    HW116490   1.406   0.013   3.786 -0.2123 -1.4533  1.4015
 1676SOL    HW216491   1.507   0.118   3.773 -0.6769  0.4165 -0.7444
 1677SOL     OW16492   2.596   0.244   6.475 -0.0492 -0.0060 -0.0646
 1677SOL    HW116493   2.609   0.174   6.411  2.9006  0.5585 -0.0526
 1677SOL    HW216494   2.523   0.296   6.439 -0.6894  0.6844  2.1970
 1678SOL     OW16495   0.703   3.135   2.182 -0.5683  0.0625  0.2791
 1678SOL    HW116496   0.639   3.168   2.119 -1.8348  0.7719  1.9477
 1678SOL    HW216497   0.655   3.053   2.192 -0.5890  0.2033  1.2657
 1679SOL     OW16498   3.247   0.035   6.622 -0.3631  0.0518 -0.2627
 1679SOL    HW116499   3.318   4.717   6.669  0.0222  2.5201  1.4560
 1679SOL    HW216500   3.199   4.688   6.581 -1.1140  1.2024 -1.4006
 1680SOL     OW16501   3.438   1.697  14.855  0.4228  0.1048  0.3350
 1680SOL    HW116502   3.394   1.730  14.933  0.4076  1.5429 -0.2833
 1680SOL    HW216503   3.512   1.662  14.905  0.6505 -0.7123 -0.5649
 1681SOL     OW16504   2.442   4.564   4.138  0.1179  0.1951  0.4452
 1681SOL    HW116505   2.517   4.541   4.082 -1.4037 -1.3572 -0.9672
 1681SOL    HW216506   2.364   4.532   4.092  0.7324 -0.0015 -0.4749
 1682SOL     OW16507   1.259   1.570   4.152 -0.1642 -0.2232 -0.1125
 1682SOL    HW116508   1.201   1.621   4.096  1.0269  0.5578 -0.6256
 1682SOL    HW216509   1.238   1.479   4.130 -0.6869 -0.7790  2.6729
 1683SOL     OW16510   2.947   1.711   7.224  0.2047  0.2487  0.2810
 1683SOL    HW116511   2.968   1.775   7.293 -0.9974  2.5612 -1.5131
 1683SOL    HW216512   2.886   1.648   7.262  1.3308 -0.3058  1.1941
 1684SOL     OW16513   1.451   1.716   2.120  0.5416  0.6083 -0.1691
 1684SOL    HW116514   1.507   1.699   2.044  0.3768  1.3579 -0.4606
 1684SOL    HW216515   1.438   1.624   2.140 -0.4341  0.9160  0.5829
 1685SOL     OW16516   2.826   4.544   6.999 -0.8923  0.2856  0.3937
 1685SOL    HW116517   2.838   4.624   7.051  0.7100 -0.3875  1.0722
 1685SOL    HW216518   2.872   4.572   6.920 -1.0308 -0.2122  0.1406
 1686SOL     OW16519   2.318   3.753   4.000  0.3925  0.6938  0.0437
 1686SOL    HW116520   2.269   3.672   4.010 -0.0617  1.0405  0.6129
 1686SOL    HW216521   2.294   3.808   4.075  0.7334 -2.0258  2.1614
 1687SOL     OW16522   4.559   0.782   6.969  0.1411  0.2928 -0.4776
 1687SOL    HW116523   4.636   0.732   6.942  0.0972 -0.0723  0.0840
 1687SOL    HW216524   4.546   0.741   7.054 -1.6623 -1.7302 -1.6995
 1688SOL     OW16525   4.332   3.606  16.882 -0.5466 -0.0558 -0.0088
 1688SOL    HW116526   4.425   3.596  16.904 -0.4749 -0.7917 -0.6457
 1688SOL    HW216527   4.336   3.695  16.847  1.2854 -0.0690  0.1521
 1689SOL     OW16528   1.207   4.078   3.784  0.2824  1.1498 -0.7672
 1689SOL    HW116529   1.156   4.021   3.727  1.3644  1.3858 -1.9776
 1689SOL    HW216530   1.287   4.025   3.785 -0.7909 -0.4510 -0.6712
 1690SOL     OW16531   1.741   1.108   6.697 -0.1617 -0.1753  0.1598
 1690SOL    HW116532   1.767   1.165   6.769  0.6000  1.6295 -1.5658
 1690SOL    HW216533   1.813   1.111   6.634 -0.1716 -0.6070  0.1279
 1691SOL     OW16534   0.228   4.391   0.096  0.1764 -0.5346 -0.7272
 1691SOL    HW116535   0.242   4.386   0.190  1.2714 -0.1465 -0.8688
 1691SOL    HW216536   0.152   4.449   0.097  1.7146  1.3607  2.6271
 1692SOL     OW16537   1.450   0.734  15.430 -0.7023 -0.2249 -0.0803
 1692SOL    HW116538   1.432   0.640  15.434 -0.8474 -0.2400 -1.2572
 1692SOL    HW216539   1.504   0.747  15.352 -3.3428  0.4755 -1.7697
 1693SOL     OW16540   2.192   4.405   9.613 -0.3018  0.0959  0.2691
 1693SOL    HW116541   2.156   4.320   9.638 -0.3331  0.5643  1.7932
 1693SOL    HW216542   2.281   4.405   9.645 -0.5889 -0.3718  1.0525
 1694SOL     OW16543   2.446   1.361   6.635 -0.4655  0.1673 -0.4359
 1694SOL    HW116544   2.391   1.415   6.693 -1.0637 -1.2741  0.3599
 1694SOL    HW216545   2.501   1.316   6.699 -2.5906  0.1474  1.4071
 1695SOL     OW16546   2.777   0.492   2.360  0.0377  0.3886  0.4215
 1695SOL    HW116547   2.841   0.480   2.290  1.1260 -0.0583  1.5055
 1695SOL    HW216548   2.816   0.567   2.404  2.5895 -0.4289 -0.4558
 1696SOL     OW16549   1.273   0.876   5.721  0.0759 -0.8457  0.6655
 1696SOL    HW116550   1.309   0.964   5.738 -1.3813 -0.1646  0.2045
 1696SOL    HW216551   1.205   0.864   5.786 -0.6482 -0.4318 -0.0177
 1697SOL     OW16552   2.954   4.046   8.995 -0.3770  0.7043 -0.3068
 1697SOL    HW116553   2.940   4.140   9.004 -0.9404  0.5980 -0.0827
 1697SOL    HW216554   3.019   4.060   8.927 -1.4252  1.2131 -1.1936
 1698SOL     OW16555   3.509   1.884   2.292 -1.0360 -0.3929  0.2834
 1698SOL    HW116556   3.569   1.915   2.224  1.3966 -1.7437  1.7974
 1698SOL    HW216557   3.543   1.932   2.368 -1.1582 -2.1718  1.4634
 1699SOL     OW16558   0.768   1.786   4.113  0.3826  0.0648 -0.1704
 1699SOL    HW116559   0.782   1.840   4.191  0.7763 -0.1799 -0.0751
 1699SOL    HW216560   0.672   1.790   4.114  0.3401 -1.1796  0.2111
 1700SOL     OW16561   4.272   1.534   6.611  0.0927  0.0465 -0.2991
 1700SOL    HW116562   4.257   1.611   6.556 -1.2232 -0.8720 -1.1932
 1700SOL    HW216563   4.356   1.555   6.653 -0.2969 -0.7045  0.8557
 1701SOL     OW16564   3.446   0.943   6.077  0.0807  0.3504 -0.2861
 1701SOL    HW116565   3.515   0.972   6.137  1.0075  0.1569 -1.2423
 1701SOL    HW216566   3.419   1.026   6.038 -1.7254 -0.0146  0.1785
 1702SOL     OW16567   2.556   3.384   7.859 -0.6576  0.0850 -0.2920
 1702SOL    HW116568   2.466   3.368   7.888 -0.3436 -0.7534  0.2314
 1702SOL    HW216569   2.553   3.451   7.790  0.0884  0.2843 -0.1304
 1703SOL     OW16570   4.542   2.975  14.843  0.2264 -0.0863  0.4561
 1703SOL    HW116571   4.548   2.995  14.937  0.6428  0.2992  0.3448
 1703SOL    HW216572   4.476   2.905  14.842 -2.3096  2.3262 -0.1845
 1704SOL     OW16573   3.775   3.098   4.158  0.0641 -0.2893 -0.2431
 1704SOL    HW116574   3.809   3.147   4.083  0.8658 -1.0136 -0.3410
 1704SOL    HW216575   3.720   3.031   4.117  0.4684 -0.6332 -0.2193
 1705SOL     OW16576   4.414   0.363   5.609 -0.3893  0.0619  0.1816
 1705SOL    HW116577   4.438   0.273   5.585  2.1689  0.2990  1.7785
 1705SOL    HW216578   4.330   0.353   5.652 -1.0422 -0.3806 -1.1776
 1706SOL     OW16579   3.913   3.040   5.824  0.3633  0.8263 -0.1042
 1706SOL    HW116580   3.939   3.072   5.738 -0.1547  1.2666 -0.1015
 1706SOL    HW216581   3.819   3.051   5.808  0.1164 -0.5201  0.4687
 1707SOL     OW16582   4.281   1.018   5.063  0.6960 -0.3120 -0.3626
 1707SOL    HW116583   4.229   1.096   5.080  0.5905 -0.8031  1.5898
 1707SOL    HW216584   4.323   1.006   5.149 -0.7210  2.9416  0.7868
 1708SOL     OW16585   3.814   1.493  10.381 -0.5366  0.0484 -0.2853
 1708SOL    HW116586   3.806   1.584  10.352  2.4251  0.4045 -0.0163
 1708SOL    HW216587   3.725   1.487  10.416  0.4335  0.0307  2.2301
 1709SOL     OW16588   3.031   2.435  13.192  0.7918 -0.1181  0.6040
 1709SOL    HW116589   2.954   2.459  13.142  0.6072  1.1906  1.5065
 1709SOL    HW216590   3.047   2.352  13.148 -2.0416 -0.2437 -0.1881
 1710SOL     OW16591   4.471   2.987   1.309 -0.9539 -0.1327 -0.0547
 1710SOL    HW116592   4.566   2.978   1.305 -0.9445  0.1740 -0.5358
 1710SOL    HW216593   4.457   2.979   1.404 -2.0810  2.4892  0.0096
 1711SOL     OW16594   2.606   2.337  13.953 -0.1212 -0.0050 -0.4869
 1711SOL    HW116595   2.532   2.335  13.892  1.1122 -0.6793 -1.9782
 1711SOL    HW216596   2.654   2.410  13.915  3.3977 -1.9284  0.2928
 1712SOL     OW16597   4.268   0.795  15.386  0.0776  0.0155  0.4513
 1712SOL    HW116598   4.206   0.772  15.456  1.5031  0.4833  1.8607
 1712SOL    HW216599   4.343   0.827  15.436 -0.8422  1.8354  0.6866
 1713SOL     OW16600   3.799   1.794   1.926  0.5354 -0.1549  0.3197
 1713SOL    HW116601   3.814   1.719   1.984  2.6812 -0.2582 -0.3614
 1713SOL    HW216602   3.759   1.749   1.851  1.1614 -1.3810  0.7158
 1714SOL     OW16603   3.687   0.982  12.278 -0.2098  0.0609 -0.5654
 1714SOL    HW116604   3.630   1.025  12.342 -2.1647  0.3376 -2.4839
 1714SOL    HW216605   3.723   0.904  12.319  1.3246  0.6816 -0.7197
 1715SOL     OW16606   0.201   3.890   4.091 -0.1798  0.1086 -0.5078
 1715SOL    HW116607   0.109   3.914   4.081  0.1702  1.3528 -0.6894
 1715SOL    HW216608   0.218   3.895   3.997 -2.4687 -0.7986 -0.9643
 1716SOL     OW16609   3.465   4.189   3.684  0.0380  0.0302 -0.2374
 1716SOL    HW116610   3.509   4.141   3.614 -1.1139 -0.6956 -0.4643
 1716SOL    HW216611   3.530   4.181   3.754 -0.2885 -0.9808 -0.0506
 1717SOL     OW16612   2.563   3.700  15.152  0.0593 -0.2481 -0.1176
 1717SOL    HW116613   2.554   3.768  15.084 -1.4698 -1.6409 -1.3119
 1717SOL    HW216614   2.640   3.721  15.204  1.2874 -1.8644 -1.2870
 1718SOL     OW16615   0.676   2.345  15.343  0.3141 -0.0670  0.3216
 1718SOL    HW116616   0.600   2.378  15.392  0.3411  0.7189 -0.1703
 1718SOL    HW216617   0.747   2.357  15.407 -0.9176  0.8645  1.5302
 1719SOL     OW16618   1.789   1.153  12.007  0.5027 -0.3402 -0.2756
 1719SOL    HW116619   1.871   1.118  12.041  0.2838  0.6661  1.2740
 1719SOL    HW216620   1.751   1.187  12.088 -0.2903 -0.3761 -0.6296
 1720SOL     OW16621   1.020   4.018   5.214 -0.3144  0.5118  0.1981
 1720SOL    HW116622   0.969   3.938   5.202  0.1183 -0.2544  3.4129
 1720SOL    HW216623   1.038   4.011   5.308 -0.7059  1.3937  0.3466
 1721SOL     OW16624   2.887   2.596   4.572  0.1399  0.0161  0.3752
 1721SOL    HW116625   2.803   2.631   4.542 -0.4415 -0.7704  1.0790
 1721SOL    HW216626   2.871   2.514   4.618  0.0299 -0.5781 -0.7181
 1722SOL     OW16627   2.438   0.847   0.350  0.2478  0.4778 -0.0725
 1722SOL    HW116628   2.461   0.802   0.431 -0.5264  0.9947  0.4308
 1722SOL    HW216629   2.513   0.904   0.331  1.5056 -0.3374  2.3946
 1723SOL     OW16630   3.168   3.344   9.009 -0.2337  0.1659  0.1078
 1723SOL    HW116631   3.166   3.428   9.053 -2.4693  0.0573  0.2079
 1723SOL    HW216632   3.134   3.283   9.074 -2.7180  1.0715 -0.3793
 1724SOL     OW16633   4.542   0.469   2.954 -0.4194 -0.3018 -0.6848
 1724SOL    HW116634   4.566   0.381   2.981  1.2547  1.0726  2.1960
 1724SOL    HW216635   4.549   0.465   2.858 -0.0682 -1.4601 -0.6014
 1725SOL     OW16636   2.915   0.712  14.805  0.6351  0.2955  0.1866
 1725SOL    HW116637   2.922   0.678  14.894 -0.8685  1.5189  0.7783
 1725SOL    HW216638   2.968   0.654  14.751 -3.0935 -1.7758 -1.2610
 1726SOL     OW16639   2.321   0.752  11.827  0.2338 -0.6255  0.5588
 1726SOL    HW116640   2.263   0.699  11.882  0.2533 -0.7745  0.4353
 1726SOL    HW216641   2.260   0.825  11.823  1.6665  0.3993 -2.6652
 1727SOL     OW16642   2.815   3.639   9.755  0.0853  0.1064  0.0703
 1727SOL    HW116643   2.799   3.649   9.849  3.3494 -0.3061  0.6815
 1727SOL    HW216644   2.817   3.732   9.734 -0.4663 -0.2948 -1.7019
 1728SOL     OW16645   4.260   1.748   1.471 -0.5204  0.0124  0.3373
 1728SOL    HW116646   4.176   1.771   1.510 -0.0182  2.6599 -0.1170
 1728SOL    HW216647   4.316   1.817   1.508 -0.6593 -0.3819  1.2828
 1729SOL     OW16648   2.645   0.851  14.670  0.3297 -0.1868 -0.3328
 1729SOL    HW116649   2.695   0.890  14.598 -0.5763  1.6875  0.0372
 1729SOL    HW216650   2.687   0.768  14.690 -1.1858 -0.9185 -0.1819
 1730SOL     OW16651   4.435   3.887   6.237 -0.2187 -0.0392 -0.6409
 1730SOL    HW116652   4.513   3.874   6.291  0.4226  1.6166 -1.1508
 1730SOL    HW216653   4.473   3.847   6.158 -0.7127 -0.5617 -0.6150
 1731SOL     OW16654   2.027   4.585   0.318 -0.4077  0.4859 -0.3473
 1731SOL    HW116655   1.949   4.641   0.319  0.8463  2.2687 -2.2829
 1731SOL    HW216656   1.981   4.504   0.296 -1.0479  0.5619  0.6934
 1732SOL     OW16657   2.692   3.638   2.104  0.3445  0.4693 -0.2533
 1732SOL    HW116658   2.605   3.601   2.091  0.4306 -0.2360  1.1448
 1732SOL    HW216659   2.683   3.724   2.062 -2.1197  0.1130 -0.4177
 1733SOL     OW16660   2.726   1.772   0.236  0.1496  0.1133 -0.1324
 1733SOL    HW116661   2.817   1.792   0.211  0.1285  0.9659  0.4906
 1733SOL    HW216662   2.742   1.763   0.330 -0.9685 -0.9821 -0.0457
 1734SOL     OW16663   4.684   1.697  11.410  0.2890 -0.1708  0.8800
 1734SOL    HW116664   0.050   1.679  11.390  0.0626 -0.0936 -0.1933
 1734SOL    HW216665   4.670   1.782  11.369  0.9083  0.4818  2.0186
 1735SOL     OW16666   4.485   2.513   7.360  0.4991 -0.1050 -0.0278
 1735SOL    HW116667   4.442   2.546   7.281  0.9900  1.3657  0.3178
 1735SOL    HW216668   4.553   2.461   7.315 -0.7074  0.0283 -2.0195
 1736SOL     OW16669   2.375   3.411   6.622  0.0956  0.7510 -0.3510
 1736SOL    HW116670   2.454   3.386   6.574  1.1466 -0.1365  1.8473
 1736SOL    HW216671   2.417   3.465   6.689  4.8951 -2.1002 -1.0803
 1737SOL     OW16672   3.001   2.775  13.180  0.3578 -0.2065 -0.3473
 1737SOL    HW116673   2.906   2.762  13.184  0.4582 -1.4540 -2.2652
 1737SOL    HW216674   3.007   2.868  13.202  0.9879 -0.1792 -0.6400
 1738SOL     OW16675   4.012   0.136   7.790  0.3184 -0.2596 -0.2519
 1738SOL    HW116676   3.961   0.072   7.840 -0.0924 -0.7874 -1.3547
 1738SOL    HW216677   3.952   0.193   7.742  2.2375  1.4765 -0.6057
 1739SOL     OW16678   0.327   4.563   4.682 -0.1646 -0.0457  1.0617
 1739SOL    HW116679   0.362   4.573   4.594  0.0098 -0.9868  1.0231
 1739SOL    HW216680   0.400   4.518   4.725  0.5959  1.0668  0.9470
 1740SOL     OW16681   3.172   1.432  15.361 -0.0298  0.3518  0.2581
 1740SOL    HW116682   3.126   1.393  15.435  0.0445 -1.2283 -0.5342
 1740SOL    HW216683   3.173   1.522  15.392 -2.9503  0.7014 -0.6189
 1741SOL     OW16684   4.656   3.887   6.487 -0.3064  0.2409 -0.4134
 1741SOL    HW116685   4.712   3.814   6.458  0.4147  0.7164 -0.2173
 1741SOL    HW216686   4.637   3.876   6.580 -2.1578  0.1183 -0.8197
 1742SOL     OW16687   1.109   1.635   5.203 -0.3884  0.0385 -0.1779
 1742SOL    HW116688   1.194   1.638   5.160  1.1029  2.9825  2.9348
 1742SOL    HW216689   1.087   1.727   5.194 -0.2716  0.1209  0.3719
 1743SOL     OW16690   4.280   2.555  10.802 -0.1709  0.5710  0.0192
 1743SOL    HW116691   4.198   2.590  10.837 -0.1709 -0.9828  1.5422
 1743SOL    HW216692   4.234   2.520  10.725  0.4480  1.3069 -0.6905
 1744SOL     OW16693   2.916   1.326   8.214  0.4432 -0.6737 -0.2968
 1744SOL    HW116694   2.894   1.249   8.160  1.5659 -0.5905 -0.8786
 1744SOL    HW216695   2.838   1.324   8.269  0.9853  0.2956  0.5100
 1745SOL     OW16696   4.049   0.642   4.684 -0.2683 -0.2192 -0.6587
 1745SOL    HW116697   3.984   0.573   4.697 -0.0050  0.2545  3.1039
 1745SOL    HW216698   3.989   0.715   4.698  1.6742  1.6390 -1.9859
 1746SOL     OW16699   1.874   0.579   7.438  0.2388  0.0388 -0.3888
 1746SOL    HW116700   1.970   0.586   7.438  0.2309  0.0144  1.5297
 1746SOL    HW216701   1.870   0.556   7.530  1.1678  1.7497  0.0795
 1747SOL     OW16702   4.176   0.588  14.536 -0.6383 -0.3073  0.4583
 1747SOL    HW116703   4.212   0.673  14.564 -0.2378 -1.2942  2.8424
 1747SOL    HW216704   4.167   0.612  14.443 -0.5408 -1.2573  0.2085
 1748SOL     OW16705   1.495   0.894   6.154 -0.1169  0.4994  0.3242
 1748SOL    HW116706   1.446   0.813   6.166 -0.1011  0.5798  0.9441
 1748SOL    HW216707   1.585   0.862   6.148 -0.9598 -1.9697  1.1144
 1749SOL     OW16708   3.160   1.855  13.083 -0.1499  0.8891  0.3197
 1749SOL    HW116709   3.154   1.838  12.989 -0.1220  1.2506  0.2530
 1749SOL    HW216710   3.255   1.866  13.087 -0.0796  0.6998 -0.8838
 1750SOL     OW16711   3.215   3.588   8.601  0.1743  0.5837  0.0033
 1750SOL    HW116712   3.152   3.613   8.533 -1.7786  1.5005  2.1397
 1750SOL    HW216713   3.154   3.590   8.676 -0.2404 -2.3145 -0.2573
 1751SOL     OW16714   0.926   3.056   2.387  0.0018  0.1548  0.7856
 1751SOL    HW116715   0.882   3.115   2.326  1.3972  0.1953 -0.1878
 1751SOL    HW216716   0.889   2.971   2.363 -0.7554  0.8879 -0.6993
 1752SOL     OW16717   0.394   2.710  11.506  0.4927  0.2102  0.1931
 1752SOL    HW116718   0.339   2.633  11.492 -0.3310  0.9675 -0.7338
 1752SOL    HW216719   0.367   2.733  11.595  2.4357  1.9767  0.3283
 1753SOL     OW16720   4.698   3.204   1.386 -0.3318 -0.7872 -0.2100
 1753SOL    HW116721   0.063   3.235   1.372  0.2847 -1.8246  1.4462
 1753SOL    HW216722   4.673   3.190   1.294  0.0961  1.1698 -0.6227
 1754SOL     OW16723   4.724   0.612   7.562  0.0960  0.1989 -0.0116
 1754SOL    HW116724   4.709   0.538   7.504  0.3481 -0.9568  1.3894
 1754SOL    HW216725   0.080   0.643   7.522  0.7663 -1.1148  0.3375
 1755SOL     OW16726   1.944   1.222  11.409  0.0119  0.1151 -0.3405
 1755SOL    HW116727   1.858   1.262  11.404  2.2310  4.5417 -2.6359
 1755SOL    HW216728   1.980   1.251  11.325  0.1153  0.1966 -0.2683
 1756SOL     OW16729   2.515   3.671   3.414 -0.2069 -0.2125  0.0002
 1756SOL    HW116730   2.493   3.745   3.357  1.5690 -1.9409 -2.9045
 1756SOL    HW216731   2.483   3.607   3.350  0.2709 -0.9597  0.5162
 1757SOL     OW16732   4.461   2.088  14.898 -0.5129 -0.4794 -0.0470
 1757SOL    HW116733   4.543   2.099  14.851 -0.4481 -1.0379 -0.0638
 1757SOL    HW216734   4.486   2.007  14.943 -0.5017  0.3215  1.4038
 1758SOL     OW16735   2.107   1.465   9.482  0.1832 -0.7912  0.6603
 1758SOL    HW116736   2.104   1.423   9.396 -1.4303 -0.1617  0.4110
 1758SOL    HW216737   2.189   1.515   9.484 -1.2769  1.6493 -0.6053
 1759SOL     OW16738   1.541   1.852   7.250  0.1542  0.2811 -0.3769
 1759SOL    HW116739   1.511   1.838   7.161 -1.4282 -0.6080  0.2907
 1759SOL    HW216740   1.625   1.895   7.234 -0.1355  0.2136 -2.0158
 1760SOL     OW16741   4.326   2.326   4.045 -0.1904  0.5112  0.1248
 1760SOL    HW116742   4.417   2.355   4.033  0.2164 -1.1733 -0.7401
 1760SOL    HW216743   4.335   2.330   4.141 -2.5940  1.2860  0.3219
 1761SOL     OW16744   1.075   1.174  15.669 -0.3969 -0.6568  0.0836
 1761SOL    HW116745   1.114   1.142  15.588  1.2351  2.2269 -0.2783
 1761SOL    HW216746   0.997   1.213  15.629  0.5947  0.3338 -0.8588
 1762SOL     OW16747   1.366   3.696   5.547 -0.4349 -0.2019  0.1181
 1762SOL    HW116748   1.365   3.704   5.642 -0.5316 -0.3129  0.1263
 1762SOL    HW216749   1.430   3.758   5.513 -1.4073 -0.2471 -1.8202
 1763SOL     OW16750   0.483   2.543  11.827 -0.5636  0.0896  0.2770
 1763SOL    HW116751   0.482   2.637  11.843 -2.1670  0.3200 -1.1995
 1763SOL    HW216752   0.569   2.525  11.865 -0.4356  1.3323  0.5735
 1764SOL     OW16753   3.098   2.569   7.764  0.0735  0.2816 -0.0556
 1764SOL    HW116754   3.118   2.492   7.819 -1.1066  0.2848  0.3731
 1764SOL    HW216755   3.030   2.618   7.809 -2.2149 -2.4890 -0.5200
 1765SOL     OW16756   3.253   1.881   6.972  0.1216  0.7962 -0.4113
 1765SOL    HW116757   3.348   1.873   6.973  0.0571  0.1895  1.3199
 1765SOL    HW216758   3.223   1.813   7.032  2.9745 -0.1439 -0.0561
 1766SOL     OW16759   2.633   4.255   8.463  0.4593 -0.2530  0.2561
 1766SOL    HW116760   2.649   4.169   8.501  0.2429 -0.6921 -0.6371
 1766SOL    HW216761   2.695   4.259   8.389 -2.4548  0.5956 -2.1367
 1767SOL     OW16762   0.174   3.756  13.857  0.2596  0.4150 -0.0149
 1767SOL    HW116763   0.117   3.720  13.788 -0.8602 -0.3678  1.3154
 1767SOL    HW216764   0.136   3.841  13.882 -1.4270 -1.0779  2.5955
 1768SOL     OW16765   1.118   4.044   8.139 -0.4415  0.2129  0.0532
 1768SOL    HW116766   1.051   3.976   8.141 -0.6614  0.4487  0.9539
 1768SOL    HW216767   1.129   4.037   8.234  1.6037 -3.9750 -0.4742
 1769SOL     OW16768   0.992   1.576   2.092 -0.0332  0.8803 -0.1516
 1769SOL    HW116769   0.951   1.634   2.028 -0.0989  2.0485  0.9377
 1769SOL    HW216770   0.912   1.526   2.107 -0.0233  0.8417 -0.2325
 1770SOL     OW16771   0.556   3.621   8.685 -0.1820  0.0319  0.0713
 1770SOL    HW116772   0.474   3.655   8.721 -0.1537 -1.0992  1.1973
 1770SOL    HW216773   0.622   3.684   8.713  1.2401 -0.4136 -2.1949
 1771SOL     OW16774   1.095   4.122  14.190  0.1602 -1.1435  0.5017
 1771SOL    HW116775   1.191   4.124  14.183  0.2568 -3.7285  1.1913
 1771SOL    HW216776   1.078   4.030  14.173 -1.6152 -0.8698  0.8417
 1772SOL     OW16777   3.255   1.802  11.382 -0.5154 -0.1846  0.4329
 1772SOL    HW116778   3.209   1.833  11.461  0.8261  1.6283  0.4962
 1772SOL    HW216779   3.219   1.714  11.378  0.2983 -0.6452  3.0180
 1773SOL     OW16780   3.575   1.279  17.092 -0.0034 -0.5872  0.3496
 1773SOL    HW116781   3.535   1.226  17.160  3.4307 -1.7892  1.4139
 1773SOL    HW216782   3.506   1.274  17.025  0.2372  0.2293  0.0386
 1774SOL     OW16783   4.555   0.672   7.240  0.4382 -0.3649  0.0151
 1774SOL    HW116784   4.490   0.617   7.283  1.3330 -0.4428  1.2465
 1774SOL    HW216785   4.631   0.615   7.242 -0.8330 -2.0806 -0.5088
 1775SOL     OW16786   4.648   3.099   5.689 -0.9048  0.2429 -0.5664
 1775SOL    HW116787   4.656   3.006   5.711 -3.1513  0.4435  1.1144
 1775SOL    HW216788   4.607   3.088   5.603 -1.4359  0.9151 -0.3945
 1776SOL     OW16789   2.772   2.690  13.607  0.0963 -0.0072 -0.0549
 1776SOL    HW116790   2.820   2.618  13.565  0.9839 -0.7216  2.1598
 1776SOL    HW216791   2.716   2.729  13.540 -0.3225  0.5614  0.6353
 1777SOL     OW16792   0.238   2.534   1.166 -0.4675 -0.0615 -0.3962
 1777SOL    HW116793   0.193   2.450   1.179 -1.3031  0.4283 -0.1730
 1777SOL    HW216794   0.328   2.519   1.194 -0.2400 -0.3571 -1.2631
 1778SOL     OW16795   0.007   2.790   6.942  0.3255  0.6168  0.2916
 1778SOL    HW116796   4.637   2.785   6.936  0.4006 -1.0766  0.6790
 1778SOL    HW216797   0.014   2.863   6.881  1.8725 -0.8480 -1.2878
 1779SOL     OW16798   4.179   0.504   0.181 -0.1361  0.3288 -0.5834
 1779SOL    HW116799   4.198   0.467   0.095  1.6352  1.1319 -0.5478
 1779SOL    HW216800   4.253   0.563   0.192 -0.3287  0.5118 -0.2810
 1780SOL     OW16801   1.788   2.038   7.214  0.0897  0.0604 -0.2596
 1780SOL    HW116802   1.831   2.116   7.180 -1.2525  1.5723  1.5054
 1780SOL    HW216803   1.848   1.966   7.198  0.8534  0.8217 -0.8110
 1781SOL     OW16804   4.112   0.588   8.158  0.1443  0.2165  0.4592
 1781SOL    HW116805   4.205   0.593   8.137 -0.1821  0.7022 -0.8627
 1781SOL    HW216806   4.078   0.604   8.070 -0.2039 -1.1840  0.3404
 1782SOL     OW16807   0.922   0.435  11.725 -0.3091  0.2580 -0.0317
 1782SOL    HW116808   0.885   0.441  11.813 -0.9224  1.4598 -0.3775
 1782SOL    HW216809   0.986   0.506  11.725 -2.4013  2.1123  1.2522
 1783SOL     OW16810   3.541   4.075   5.776 -0.2227 -0.3031 -0.9338
 1783SOL    HW116811   3.590   3.993   5.785 -3.6138 -2.1072  1.1019
 1783SOL    HW216812   3.524   4.105   5.865 -0.9624  2.6498 -2.0458
 1784SOL     OW16813   3.783   2.064   3.918  0.3404 -0.3987  0.9814
 1784SOL    HW116814   3.760   2.112   3.838 -2.9439 -0.1518  2.0907
 1784SOL    HW216815   3.839   1.995   3.882  1.1135 -0.1213  1.6756
 1785SOL     OW16816   2.738   3.413   5.782  0.3528 -0.2671  0.3106
 1785SOL    HW116817   2.652   3.373   5.800 -0.5999  1.7828  0.3363
 1785SOL    HW216818   2.714   3.445   5.695  0.2456  0.8462  0.7479
 1786SOL     OW16819   3.337   2.366   8.974 -0.1216  0.2833  0.4064
 1786SOL    HW116820   3.242   2.366   8.985 -0.2819 -0.2120 -0.8697
 1786SOL    HW216821   3.345   2.319   8.891 -0.5196  0.1000  0.4715
 1787SOL     OW16822   4.581   0.032   8.027  0.1347 -0.0337 -0.1272
 1787SOL    HW116823   4.654   0.058   7.971 -1.4239  3.1729 -0.6925
 1787SOL    HW216824   4.640   0.016   8.101 -2.9906 -0.9725  2.1853
 1788SOL     OW16825   3.037   3.951  14.906 -0.2210  0.0632  0.1356
 1788SOL    HW116826   3.099   4.016  14.936 -0.4174  0.4091 -0.2130
 1788SOL    HW216827   2.961   4.004  14.882 -0.2217  1.1700  2.5879
 1789SOL     OW16828   0.469   1.306   2.845  0.3784 -0.0309 -0.7272
 1789SOL    HW116829   0.429   1.359   2.776 -0.1915  0.7301  0.1926
 1789SOL    HW216830   0.479   1.223   2.799  3.7909  0.8346 -1.5356
 1790SOL     OW16831   2.298   0.191   8.001 -0.1925 -0.9693 -0.0615
 1790SOL    HW116832   2.315   0.150   8.085  0.2411 -0.1634  0.2447
 1790SOL    HW216833   2.252   0.118   7.960  2.9840 -1.6537 -2.4027
 1791SOL     OW16834   2.342   2.480  14.674 -0.2803 -0.1898 -0.6369
 1791SOL    HW116835   2.398   2.553  14.648  1.4821 -1.0309  0.7810
 1791SOL    HW216836   2.259   2.524  14.689  0.7520  0.8769  1.9410
 1792SOL     OW16837   0.688   3.578   3.017  0.5201 -0.3115 -0.2074
 1792SOL    HW116838   0.642   3.617   2.943  1.1636 -0.5090 -0.7148
 1792SOL    HW216839   0.652   3.489   3.018  0.5372 -0.3064  0.5520
 1793SOL     OW16840   4.540   1.805  11.023  0.3603  0.4782 -0.4205
 1793SOL    HW116841   4.521   1.822  10.931 -0.2765  1.7065 -0.0670
 1793SOL    HW216842   4.590   1.726  11.005 -1.0456 -0.3307 -0.7860
 1794SOL     OW16843   1.000   2.816   4.314 -0.1149  0.3725 -0.0194
 1794SOL    HW116844   0.945   2.742   4.340  0.5380 -1.6158 -4.1977
 1794SOL    HW216845   1.082   2.778   4.284 -0.2976 -0.3465  0.3948
 1795SOL     OW16846   0.154   3.620  13.259 -0.5377 -0.4893  0.4624
 1795SOL    HW116847   0.190   3.564  13.190 -0.6032  0.2759 -0.1978
 1795SOL    HW216848   0.118   3.561  13.325 -1.9082  2.4431  2.3645
 1796SOL     OW16849   1.860   3.122   2.464  0.4101  0.1201  0.5771
 1796SOL    HW116850   1.918   3.057   2.425  0.2796  0.1769  0.2798
 1796SOL    HW216851   1.829   3.069   2.537  0.5715 -0.5376  0.1655
 1797SOL     OW16852   2.359   0.868   6.134 -0.4127 -0.3815  0.1240
 1797SOL    HW116853   2.362   0.917   6.052 -2.0268  0.3285  0.4872
 1797SOL    HW216854   2.274   0.825   6.126 -0.5852  0.0664 -0.4406
 1798SOL     OW16855   1.567   1.511   1.079  0.2502 -0.2214  0.1192
 1798SOL    HW116856   1.642   1.537   1.132 -0.4905 -0.8180  1.4410
 1798SOL    HW216857   1.530   1.439   1.130 -0.6008  0.7808  0.9347
 1799SOL     OW16858   3.743   1.485   7.380 -0.4340  0.0147 -0.5929
 1799SOL    HW116859   3.780   1.397   7.376 -1.1174 -0.2858 -0.2896
 1799SOL    HW216860   3.812   1.542   7.414  0.8139 -1.9577  0.1390
 1800SOL     OW16861   1.890   2.956   3.882  0.0785 -0.2392 -0.4556
 1800SOL    HW116862   1.843   2.985   3.804 -1.6985  0.3381  0.8015
 1800SOL    HW216863   1.814   2.940   3.939  1.2562 -1.3711  0.7846
 1801SOL     OW16864   1.556   3.174  15.204 -0.2150 -0.1726 -0.1425
 1801SOL    HW116865   1.572   3.239  15.272  0.1650  1.6418 -1.9296
 1801SOL    HW216866   1.632   3.181  15.146 -1.4936 -0.5386 -1.8680
 1802SOL     OW16867   0.458   4.227   2.387  0.0830 -0.5404 -0.0624
 1802SOL    HW116868   0.553   4.233   2.373  0.4735 -1.2154  2.3515
 1802SOL    HW216869   0.450   4.176   2.467 -0.5748  1.0541  0.8848
 1803SOL     OW16870   3.628   2.529   4.705  0.3098  0.0788  0.1598
 1803SOL    HW116871   3.668   2.601   4.754  1.1525  0.5773 -1.2379
 1803SOL    HW216872   3.539   2.554   4.727 -0.1670  1.2895 -3.0431
 1804SOL     OW16873   3.778   3.265   3.636 -0.6957  0.1740  0.1003
 1804SOL    HW116874   3.711   3.223   3.582 -0.2794 -1.0043  0.5041
 1804SOL    HW216875   3.842   3.287   3.568  0.1864  0.3994  1.0112
 1805SOL     OW16876   3.232   3.074   9.577 -0.2049  0.0603  0.4558
 1805SOL    HW116877   3.152   3.030   9.606 -0.1698 -1.5397 -1.8347
 1805SOL    HW216878   3.200   3.164   9.576 -1.2100 -0.2966  0.5845
 1806SOL     OW16879   1.813   1.063  15.359 -0.3100  0.3581  0.9062
 1806SOL    HW116880   1.857   1.148  15.354  1.9835 -0.7371  2.4727
 1806SOL    HW216881   1.839   1.041  15.448 -0.3581 -1.4118  0.4802
 1807SOL     OW16882   2.549   0.526   0.975 -0.0234  0.2155 -0.1099
 1807SOL    HW116883   2.526   0.469   1.049 -0.9886 -0.0571 -0.6240
 1807SOL    HW216884   2.467   0.509   0.930 -0.3157 -0.8010  0.8141
 1808SOL     OW16885   3.449   2.070  12.971 -0.1297 -0.4315  0.1583
 1808SOL    HW116886   3.499   2.078  12.890 -1.1433 -0.5639 -0.4804
 1808SOL    HW216887   3.437   1.975  12.980 -3.7876 -0.2261 -2.7446
 1809SOL     OW16888   4.227   1.705   7.264  0.0910 -0.2448 -0.3606
 1809SOL    HW116889   4.221   1.630   7.323 -0.4743  1.1571  1.3731
 1809SOL    HW216890   4.212   1.660   7.181 -0.0745 -0.1421 -0.3852
 1810SOL     OW16891   0.733   2.075   3.173 -0.1583 -0.0310  0.0936
 1810SOL    HW116892   0.667   2.021   3.130  1.5617 -1.1493 -1.1509
 1810SOL    HW216893   0.782   2.091   3.092 -1.0197 -0.1456 -0.4465
 1811SOL     OW16894   4.113   4.383   1.268  0.3055  0.3128  0.2961
 1811SOL    HW116895   4.076   4.331   1.196 -2.2146  1.9625  0.3932
 1811SOL    HW216896   4.055   4.459   1.272 -0.0308 -0.0404  2.2423
 1812SOL     OW16897   2.639   3.437   4.390  0.2208  0.0840 -0.5220
 1812SOL    HW116898   2.652   3.445   4.296  0.1115  0.8822 -0.4686
 1812SOL    HW216899   2.683   3.514   4.426  0.4223  0.0399 -0.6781
 1813SOL     OW16900   4.316   3.698   8.028 -0.1610 -0.2543 -0.0260
 1813SOL    HW116901   4.303   3.778   7.977 -2.2875 -0.2103  0.5680
 1813SOL    HW216902   4.238   3.646   8.011 -0.0137 -0.1017 -1.1519
 1814SOL     OW16903   0.979   1.408   3.292  1.1583  0.0341  0.0419
 1814SOL    HW116904   0.963   1.359   3.211  0.3920 -0.6419  0.5998
 1814SOL    HW216905   0.896   1.451   3.312  0.0856 -1.7687 -0.5435
 1815SOL     OW16906   3.455   3.321   9.276  0.1455  0.5218  0.0226
 1815SOL    HW116907   3.473   3.406   9.235  0.4438  1.0225  1.1888
 1815SOL    HW216908   3.483   3.260   9.208 -0.5991 -0.2168  0.3878
 1816SOL     OW16909   3.906   1.086  13.391 -0.3619  0.5454  0.2638
 1816SOL    HW116910   3.824   1.135  13.396 -0.2708  0.6017  1.2192
 1816SOL    HW216911   3.897   1.056  13.300 -0.8037 -0.1908  0.5586
 1817SOL     OW16912   0.166   2.566   1.737  0.1527 -0.3045 -0.0431
 1817SOL    HW116913   0.199   2.639   1.789  1.6232 -0.6415 -0.5246
 1817SOL    HW216914   0.119   2.511   1.801 -1.8811 -0.7109 -1.8981
 1818SOL     OW16915   2.526   0.401   2.276  0.1341  0.3885  0.4415
 1818SOL    HW116916   2.464   0.474   2.274 -1.2947 -0.8429 -0.1862
 1818SOL    HW216917   2.607   0.437   2.310  0.4674  0.9237 -0.8933
 1819SOL     OW16918   2.792   2.619   4.217  0.1702 -0.0652  0.2144
 1819SOL    HW116919   2.886   2.629   4.198 -0.4509  1.4175 -2.0498
 1819SOL    HW216920   2.769   2.565   4.142 -0.7376  2.8007 -1.5791
 1820SOL     OW16921   2.292   3.558  13.023 -0.0923  0.0186 -0.4812
 1820SOL    HW116922   2.279   3.615  12.947 -4.7973 -1.2879 -0.6463
 1820SOL    HW216923   2.339   3.494  12.970  2.0440  1.3270 -0.1737
 1821SOL     OW16924   1.032   2.559   4.433  1.2576 -0.0669 -0.2092
 1821SOL    HW116925   0.998   2.471   4.451  2.3463 -0.5682 -0.6397
 1821SOL    HW216926   1.091   2.536   4.362  0.5337  2.9015 -1.7420
 1822SOL     OW16927   0.339   0.574   4.842  0.5603  0.3065 -0.7411
 1822SOL    HW116928   0.255   0.529   4.837  0.7682 -0.4387  2.1389
 1822SOL    HW216929   0.400   0.502   4.861  0.2216 -0.0753 -1.1024
 1823SOL     OW16930   4.634   2.196   8.748 -0.0783 -0.0010  0.0347
 1823SOL    HW116931   4.565   2.255   8.719 -0.3132 -0.0865  0.4315
 1823SOL    HW216932   4.610   2.161   8.833 -1.9663  1.8460  0.2708
 1824SOL     OW16933   2.297   0.666   2.417  0.5562  0.7987 -0.1306
 1824SOL    HW116934   2.319   0.665   2.510  0.1082  0.5296 -0.0259
 1824SOL    HW216935   2.255   0.751   2.402  1.0443  0.9941 -0.4131
 1825SOL     OW16936   4.110   1.330  10.601  0.2303 -0.2732  0.3107
 1825SOL    HW116937   4.081   1.326  10.509  1.4558 -1.3698 -0.0311
 1825SOL    HW216938   4.034   1.372  10.641  2.3996  2.0011  1.9893
 1826SOL     OW16939   2.073   2.838   2.494  0.4948 -0.2191 -0.3271
 1826SOL    HW116940   2.031   2.787   2.563 -0.8050  0.8037 -0.3527
 1826SOL    HW216941   2.167   2.823   2.505  0.6353  3.2665  3.2799
 1827SOL     OW16942   1.303   3.808   3.947 -0.0371 -0.3170 -0.8133
 1827SOL    HW116943   1.344   3.831   3.864 -1.2684  0.8695 -1.0997
 1827SOL    HW216944   1.371   3.827   4.012  0.2531 -0.2134 -1.1483
 1828SOL     OW16945   3.549   1.875   6.246 -0.2598 -0.4575  0.4081
 1828SOL    HW116946   3.617   1.935   6.215 -1.9919  0.1290 -2.2063
 1828SOL    HW216947   3.494   1.931   6.302  0.3542  0.6681 -0.1148
 1829SOL     OW16948   3.541   3.697   2.514  0.0823  0.0809  0.0175
 1829SOL    HW116949   3.536   3.750   2.434 -0.3200 -0.5203 -0.3542
 1829SOL    HW216950   3.628   3.660   2.503  0.1403 -0.1116  1.1278
 1830SOL     OW16951   0.920   4.485  11.133 -0.1587 -0.0081 -0.3406
 1830SOL    HW116952   0.983   4.525  11.073  0.1415 -1.5955 -1.0789
 1830SOL    HW216953   0.968   4.497  11.215 -0.6092  2.4136 -0.4349
 1831SOL     OW16954   1.879   2.932  16.945  0.1436  0.0660 -0.7049
 1831SOL    HW116955   1.846   2.993  16.879 -2.4536 -0.2750  0.2746
 1831SOL    HW216956   1.942   2.986  16.992 -0.7360 -0.7187  1.3848
 1832SOL     OW16957   4.407   1.658   4.010  0.1007  0.5219 -0.1882
 1832SOL    HW116958   4.326   1.629   3.968  0.7570  1.1600 -1.9150
 1832SOL    HW216959   4.368   1.695   4.090 -0.0094 -0.6761  0.3078
 1833SOL     OW16960   2.811   3.096   4.831  0.4127 -0.4804  0.1048
 1833SOL    HW116961   2.868   3.155   4.879 -1.6961  2.9406 -1.5492
 1833SOL    HW216962   2.736   3.156   4.821 -0.2921 -1.5067 -0.8424
 1834SOL     OW16963   1.090   2.298   1.433 -0.1005  0.1356 -0.1412
 1834SOL    HW116964   1.004   2.300   1.475 -0.1617 -0.0306 -0.2571
 1834SOL    HW216965   1.075   2.349   1.353  1.2098  0.8821  0.0759
 1835SOL     OW16966   3.523   1.320  16.376  0.0760  0.5379 -0.6474
 1835SOL    HW116967   3.617   1.336  16.373 -0.1923  2.2534  0.2499
 1835SOL    HW216968   3.503   1.362  16.292 -1.5833  1.2754  0.1235
 1836SOL     OW16969   3.022   1.063  12.004  0.0331 -0.4553  0.3058
 1836SOL    HW116970   2.959   1.032  11.940 -1.6453  0.5224  1.4607
 1836SOL    HW216971   2.972   1.049  12.085  0.9778  0.9888  1.1570
 1837SOL     OW16972   2.517   2.122   6.343 -0.3632  0.4538 -0.3657
 1837SOL    HW116973   2.510   2.216   6.360  0.3693  0.2532  1.0466
 1837SOL    HW216974   2.595   2.098   6.394  1.3877  0.3138 -3.0795
 1838SOL     OW16975   2.541   3.876   6.484 -0.0013  0.5825 -0.1799
 1838SOL    HW116976   2.502   3.922   6.410 -2.1032  0.2456  0.7166
 1838SOL    HW216977   2.475   3.808   6.500  2.1284 -1.6111 -0.7699
 1839SOL     OW16978   3.337   0.753   4.424  0.4135  0.7935 -0.0030
 1839SOL    HW116979   3.247   0.741   4.391  0.6791  0.2394 -0.5290
 1839SOL    HW216980   3.375   0.818   4.365  1.1160 -0.9828 -1.5195
 1840SOL     OW16981   0.353   3.001   7.700  0.6643 -0.2569 -0.4694
 1840SOL    HW116982   0.404   3.024   7.622  2.7793  1.7470  1.5350
 1840SOL    HW216983   0.424   2.975   7.757  0.8568 -2.2513 -1.5806
 1841SOL     OW16984   0.992   4.563   1.047 -0.6513 -0.3994 -0.5248
 1841SOL    HW116985   1.049   4.536   1.119 -1.3504  0.6063  0.4112
 1841SOL    HW216986   1.032   4.533   0.966  2.6144  0.9285  0.5973
 1842SOL     OW16987   3.951   3.556   8.124 -0.1870  0.0430  0.0719
 1842SOL    HW116988   4.001   3.562   8.043 -1.1258  0.4487 -0.4818
 1842SOL    HW216989   3.997   3.481   8.162  2.1832  1.5583  0.1909
 1843SOL     OW16990   2.216   2.908   6.689  0.7111  0.5245 -0.3976
 1843SOL    HW116991   2.217   3.000   6.717 -2.0383  0.3260  0.3026
 1843SOL    HW216992   2.158   2.908   6.612 -0.0199  1.1209  0.1539
 1844SOL     OW16993   2.159   0.064  17.695 -0.6132  0.4099 -0.1670
 1844SOL    HW116994   2.202   4.724   0.050 -4.3532 -1.5404  0.3978
 1844SOL    HW216995   2.110   0.110   0.062 -1.2973 -0.5037 -0.0414
 1845SOL     OW16996   4.604   3.929   9.312  0.0974  0.6982  0.2432
 1845SOL    HW116997   4.553   3.892   9.384 -1.0606  0.7223 -0.5584
 1845SOL    HW216998   4.560   3.903   9.231 -0.0175  0.7255  0.2962
 1846SOL     OW16999   4.006   2.299  16.522  0.3795  0.4365  0.3070
 1846SOL    HW117000   3.917   2.290  16.557  0.4594 -1.3764  0.0602
 1846SOL    HW217001   4.035   2.382  16.559 -1.0833  2.0608 -2.2128
 1847SOL     OW17002   0.293   4.073  16.280  0.3304  0.5145  0.0501
 1847SOL    HW117003   0.297   4.146  16.218  2.3828 -0.8486 -1.4083
 1847SOL    HW217004   0.210   4.088  16.327 -0.0869 -3.4491  0.5726
 1848SOL     OW17005   2.971   4.703   4.388 -0.0658  0.8350 -0.0177
 1848SOL    HW117006   2.887   4.663   4.366  1.1598 -0.8197 -1.8000
 1848SOL    HW217007   2.956   0.011   4.476  1.8051 -1.0998  1.0497
 1849SOL     OW17008   1.497   4.696   0.160 -0.0306  0.4679 -0.5328
 1849SOL    HW117009   1.451   4.632   0.106 -0.8078  1.6946 -1.3319
 1849SOL    HW217010   1.516   0.046   0.104 -1.3727  0.3807 -1.1007
 1850SOL     OW17011   3.540   3.541   4.520  0.1244  0.1869 -0.5045
 1850SOL    HW117012   3.612   3.529   4.458 -0.9280 -4.0521 -0.8747
 1850SOL    HW217013   3.554   3.635   4.533 -0.3602  0.3134 -0.9150
 1851SOL     OW17014   4.101   4.315  11.130  0.4982  0.3879  0.3872
 1851SOL    HW117015   4.153   4.254  11.183  0.0935 -1.2407 -1.0786
 1851SOL    HW217016   4.161   4.318  11.056  0.9745  1.7275  0.8305
 1852SOL     OW17017   2.017   4.609   2.201 -0.4767  0.2636  0.1628
 1852SOL    HW117018   2.003   4.703   2.195  1.0257  0.5385  0.9699
 1852SOL    HW217019   2.075   4.599   2.277 -1.0038  0.9718  0.6524
 1853SOL     OW17020   1.266   0.354   5.118  0.0608  0.3670  0.5605
 1853SOL    HW117021   1.331   0.290   5.148  0.0451  0.6162  1.1317
 1853SOL    HW217022   1.207   0.362   5.193 -1.4831 -2.0276 -0.3715
 1854SOL     OW17023   1.307   2.195   5.989  0.2569 -0.1281  0.1236
 1854SOL    HW117024   1.381   2.203   5.929  0.7516 -0.2479  0.7182
 1854SOL    HW217025   1.232   2.211   5.931  0.9799 -0.0574 -0.7827
 1855SOL     OW17026   3.366   3.001   5.257 -0.1084 -0.6395  0.0315
 1855SOL    HW117027   3.387   3.081   5.208 -3.6593  0.1110 -0.2946
 1855SOL    HW217028   3.303   3.049   5.311 -0.0613  1.7370 -2.0315
 1856SOL     OW17029   2.903   0.087   4.703  0.1045  0.0009 -0.4130
 1856SOL    HW117030   2.856   0.167   4.727 -1.1387 -0.6320 -0.7367
 1856SOL    HW217031   2.847   0.020   4.741  1.3123 -0.9111 -0.2486
 1857SOL     OW17032   2.879   0.796   2.046 -0.2353 -0.0326 -0.5352
 1857SOL    HW117033   2.951   0.755   1.998 -0.5951 -3.2515  1.5994
 1857SOL    HW217034   2.832   0.715   2.068  0.9023  0.3221  3.3196
 1858SOL     OW17035   1.471   2.551   3.802 -0.2943 -0.2261  0.1610
 1858SOL    HW117036   1.460   2.552   3.897  0.0379  0.2180  0.1903
 1858SOL    HW217037   1.497   2.459   3.796  2.1051  0.5597 -1.4182
 1859SOL     OW17038   4.514   3.483   6.739  0.0978  0.0223  0.1810
 1859SOL    HW117039   4.468   3.506   6.819 -3.2712  2.8154 -2.5585
 1859SOL    HW217040   4.451   3.490   6.667  0.0285  0.7052  0.3129
 1860SOL     OW17041   2.927   1.345   2.868 -0.1936 -0.1582  0.2940
 1860SOL    HW117042   2.947   1.264   2.915  0.1244  0.6663  1.5960
 1860SOL    HW217043   2.919   1.303   2.783 -2.0754  3.2176 -1.1713
 1861SOL     OW17044   0.143   1.380   5.909  0.2626  0.3404  0.0393
 1861SOL    HW117045   0.103   1.445   5.851  0.8447 -0.1352 -0.8896
 1861SOL    HW217046   0.093   1.307   5.871 -1.1846  1.6229 -0.5247
 1862SOL     OW17047   2.190   3.132   8.191  0.0580  0.0502  0.0403
 1862SOL    HW117048   2.203   3.093   8.277  0.3761  0.8038  0.3401
 1862SOL    HW217049   2.200   3.226   8.207 -0.2158  0.2257 -0.8324
 1863SOL     OW17050   1.489   4.390   4.131 -0.4771 -0.0122  0.5263
 1863SOL    HW117051   1.496   4.416   4.039  2.3136 -0.5283  0.5912
 1863SOL    HW217052   1.513   4.298   4.139  1.2881  0.2255 -2.4150
 1864SOL     OW17053   0.411   1.209   4.489  0.5356 -0.0538 -0.4123
 1864SOL    HW117054   0.338   1.174   4.540  0.5003  3.2610  1.8750
 1864SOL    HW217055   0.389   1.174   4.403 -1.3491  1.2210 -0.4643
 1865SOL     OW17056   4.160   4.082   4.585  0.5781 -0.7449 -0.1874
 1865SOL    HW117057   4.202   4.168   4.583 -0.7766 -0.0506  0.8447
 1865SOL    HW217058   4.200   4.028   4.517  2.8784 -0.2377  0.7865
 1866SOL     OW17059   0.367   3.712  10.771  0.5402 -0.0276  0.3703
 1866SOL    HW117060   0.291   3.655  10.763 -0.2275  0.9885  0.4447
 1866SOL    HW217061   0.408   3.682  10.689  1.5490 -1.8861  1.5652
 1867SOL     OW17062   1.201   2.330   9.294  0.2740 -0.5206  0.0363
 1867SOL    HW117063   1.244   2.369   9.371 -1.3960 -0.5936  0.9980
 1867SOL    HW217064   1.215   2.238   9.316  0.3025 -0.4200  0.4537
 1868SOL     OW17065   1.485   4.033   5.130  0.3503  0.1479 -0.0792
 1868SOL    HW117066   1.546   4.019   5.203  0.3515 -1.1703 -0.3363
 1868SOL    HW217067   1.419   3.968   5.153 -2.0622  2.9433  0.9006
 1869SOL     OW17068   1.861   0.047   5.776  0.6184  0.6254  0.1876
 1869SOL    HW117069   1.936   0.098   5.745  0.5500  0.4354 -0.2999
 1869SOL    HW217070   1.847   4.714   5.701  0.2550 -1.5506  1.9387
 1870SOL     OW17071   2.225   3.364   6.916 -0.2981  0.2413  0.2349
 1870SOL    HW117072   2.136   3.333   6.899 -0.5992  0.7011  0.9547
 1870SOL    HW217073   2.219   3.452   6.953  1.7324  0.7749 -0.7528
 1871SOL     OW17074   1.667   3.494   6.515 -0.3116 -0.3588 -0.0597
 1871SOL    HW117075   1.750   3.474   6.470  1.1062  1.7426  1.6467
 1871SOL    HW217076   1.609   3.470   6.442 -1.0786 -0.1014  0.4680
 1872SOL     OW17077   4.004   1.825  11.629  0.2796  0.2206 -0.0016
 1872SOL    HW117078   3.939   1.760  11.600  2.6343 -1.3847 -1.7005
 1872SOL    HW217079   4.059   1.770  11.683  1.2040  1.4499  0.3055
 1873SOL     OW17080   0.337   2.410   9.343 -0.2854 -0.4074 -0.0489
 1873SOL    HW117081   0.400   2.367   9.285 -0.2864 -0.5642  0.0661
 1873SOL    HW217082   0.396   2.461   9.398  1.4034 -0.6801 -1.6057
 1874SOL     OW17083   3.743   3.727  15.707 -0.0914  0.2453 -0.1904
 1874SOL    HW117084   3.711   3.638  15.724  0.3010  0.1544  0.0720
 1874SOL    HW217085   3.835   3.707  15.722  0.3593  1.9759 -0.6122
 1875SOL     OW17086   2.778   2.570   7.560  0.3768  0.5613 -0.0004
 1875SOL    HW117087   2.800   2.652   7.604  2.6605 -1.0850  1.9614
 1875SOL    HW217088   2.698   2.538   7.603  0.6653 -0.7796 -0.4628
 1876SOL     OW17089   4.382   0.305   6.817  0.5421  0.0936 -0.0231
 1876SOL    HW117090   4.362   0.379   6.760  0.1816  1.5395  1.9944
 1876SOL    HW217091   4.456   0.330   6.872 -1.0305  0.7095  1.7968
 1877SOL     OW17092   1.099   2.123  11.748  0.0621  0.1505  0.1936
 1877SOL    HW117093   1.188   2.158  11.742  0.0836  0.2070  0.8909
 1877SOL    HW217094   1.051   2.184  11.804 -0.3565 -2.5418  2.7584
 1878SOL     OW17095   0.699   2.853   9.477  0.1382 -0.4876 -0.4290
 1878SOL    HW117096   0.675   2.817   9.391 -1.0671 -1.6568  0.4091
 1878SOL    HW217097   0.793   2.833   9.480  0.3105  0.3161 -0.5038
 1879SOL     OW17098   2.676   3.677   6.811 -0.0419 -0.5663  0.1489
 1879SOL    HW117099   2.598   3.625   6.830 -0.7292  0.6302  0.5881
 1879SOL    HW217100   2.660   3.758   6.859 -1.8034 -0.6523 -0.3287
 1880SOL     OW17101   1.117   2.681   6.615  0.2294 -0.3123 -0.4058
 1880SOL    HW117102   1.094   2.753   6.673 -3.9676 -0.5116 -1.8399
 1880SOL    HW217103   1.072   2.610   6.660  0.3759 -0.2915 -0.2277
 1881SOL     OW17104   1.581   4.106  16.751  0.2246  0.2014  0.0804
 1881SOL    HW117105   1.556   4.059  16.672 -0.9928  0.4014  0.3451
 1881SOL    HW217106   1.579   4.196  16.717 -0.7414 -0.1437 -0.7441
 1882SOL     OW17107   1.437   3.419   7.831  0.1273  0.5318 -0.2453
 1882SOL    HW117108   1.463   3.511   7.832 -0.1592  0.6204 -2.0994
 1882SOL    HW217109   1.400   3.405   7.744 -1.6653 -0.6759  0.7138
 1883SOL     OW17110   2.125   4.192  14.233 -0.3255  0.2333 -0.0302
 1883SOL    HW117111   2.117   4.262  14.298  1.0290  1.3222 -1.0506
 1883SOL    HW217112   2.164   4.232  14.156  1.3197  1.5774  1.5093
 1884SOL     OW17113   2.106   1.171   8.432  0.3854  0.3103 -0.1816
 1884SOL    HW117114   2.066   1.256   8.447 -2.9843 -1.3189 -0.0125
 1884SOL    HW217115   2.176   1.193   8.370  0.9794 -1.0363  0.0173
 1885SOL     OW17116   2.097   1.505  15.241 -0.6358  0.5994 -0.3022
 1885SOL    HW117117   2.184   1.512  15.202 -0.8120  3.1319 -0.2537
 1885SOL    HW217118   2.074   1.598  15.244 -0.7833  0.5286  0.7759
 1886SOL     OW17119   2.656   1.507   4.578  1.1322 -0.6522 -0.3237
 1886SOL    HW117120   2.688   1.471   4.495 -0.7809 -2.3489 -0.3328
 1886SOL    HW217121   2.659   1.602   4.568 -1.7446 -0.7906 -2.3690
 1887SOL     OW17122   2.068   2.959   3.252  0.9738 -0.4737 -0.5527
 1887SOL    HW117123   2.097   2.872   3.280 -1.4110 -0.9169  0.5412
 1887SOL    HW217124   1.973   2.952   3.258  0.9754 -1.2734 -1.3529
 1888SOL     OW17125   3.871   0.956   0.830  0.0458  0.0945 -0.0940
 1888SOL    HW117126   3.938   0.979   0.894 -1.1041 -3.5151  2.4137
 1888SOL    HW217127   3.796   0.966   0.888 -0.4010  1.5773 -0.9417
 1889SOL     OW17128   0.713   0.762   3.959 -0.6591 -0.4094 -0.4642
 1889SOL    HW117129   0.678   0.674   3.966  0.3393 -0.5070  3.2145
 1889SOL    HW217130   0.662   0.788   3.883  0.0134 -1.8513 -1.4003
 1890SOL     OW17131   3.828   0.835   2.436  0.2568  0.3953 -0.1539
 1890SOL    HW117132   3.742   0.852   2.398  0.2641 -0.7397 -0.6644
 1890SOL    HW217133   3.825   0.749   2.478  1.6243 -1.0508 -2.9983
 1891SOL     OW17134   2.387   3.621   8.562 -0.7522 -0.6216 -0.0789
 1891SOL    HW117135   2.324   3.627   8.490 -2.0791 -0.4742  1.1152
 1891SOL    HW217136   2.346   3.557   8.621  3.1018 -1.1837  1.9890
 1892SOL     OW17137   4.169   3.534   8.797 -0.3635 -0.5841 -0.5838
 1892SOL    HW117138   4.137   3.599   8.734  0.0691  1.3881  1.2101
 1892SOL    HW217139   4.123   3.458   8.765  0.6235 -0.9222 -1.2052
 1893SOL     OW17140   0.552   1.839  13.974  0.4020  0.3192  0.3308
 1893SOL    HW117141   0.641   1.850  14.008  0.4095  0.8597  0.1332
 1893SOL    HW217142   0.535   1.928  13.943 -1.0967  0.1722  0.7061
 1894SOL     OW17143   1.124   0.883   3.021 -0.3660 -0.0798 -0.4014
 1894SOL    HW117144   1.187   0.954   3.035 -0.8528  0.2508  0.0693
 1894SOL    HW217145   1.141   0.829   3.098  0.8092  1.3820  0.3536
 1895SOL     OW17146   2.568   1.298   7.532  0.7336 -0.4632  0.2984
 1895SOL    HW117147   2.663   1.291   7.520  0.8463 -1.4094  1.7113
 1895SOL    HW217148   2.554   1.301   7.627  0.7828 -2.3185  0.3708
 1896SOL     OW17149   0.921   0.663  13.871 -0.3590 -0.1273 -0.4007
 1896SOL    HW117150   0.955   0.576  13.850 -0.2872 -0.4236  0.9318
 1896SOL    HW217151   0.993   0.727  13.866 -0.7798  0.2227 -1.8207
 1897SOL     OW17152   2.113   4.545   4.282  0.7436  0.3123 -0.3925
 1897SOL    HW117153   2.168   4.521   4.357  0.9002  1.0992 -0.2621
 1897SOL    HW217154   2.058   4.467   4.290  2.1970 -0.6005  0.8276
 1898SOL     OW17155   1.063   4.555   2.197  0.0719 -1.0119 -0.3267
 1898SOL    HW117156   1.155   4.569   2.218 -0.2214 -2.0475  1.6180
 1898SOL    HW217157   1.022   4.629   2.242 -0.3266 -2.0138  0.9346
 1899SOL     OW17158   2.140   2.751   7.152  0.5789 -1.0644 -0.3278
 1899SOL    HW117159   2.057   2.765   7.198  1.2095 -0.5133  0.6640
 1899SOL    HW217160   2.161   2.659   7.166 -0.0209 -1.0842  0.4282
 1900SOL     OW17161   1.792   4.570   6.614  0.5142  0.1812  0.0855
 1900SOL    HW117162   1.865   4.530   6.660 -0.2674  0.3417  1.4537
 1900SOL    HW217163   1.765   4.630   6.683  0.8995  0.7258 -0.2348
 1901SOL     OW17164   3.012   3.660   0.727 -0.2094  0.6779 -0.4810
 1901SOL    HW117165   3.106   3.680   0.733 -0.1694  0.6580 -1.0477
 1901SOL    HW217166   2.971   3.741   0.759 -0.5327 -0.1770  1.2401
 1902SOL     OW17167   1.963   3.694  11.258  0.1824  0.1479 -0.2819
 1902SOL    HW117168   1.910   3.754  11.311 -1.4016 -0.0592 -1.6558
 1902SOL    HW217169   1.915   3.701  11.176  1.1063  0.1845 -0.8218
 1903SOL     OW17170   3.549   3.958   3.496 -0.3299 -0.2883  0.5841
 1903SOL    HW117171   3.610   4.027   3.469  1.0801 -1.7006  0.1207
 1903SOL    HW217172   3.475   3.983   3.441  0.6529 -0.3234 -0.7766
 1904SOL     OW17173   2.720   3.706   4.017  0.0100  0.4214  0.4117
 1904SOL    HW117174   2.735   3.752   3.934 -2.7187  1.4602  0.5267
 1904SOL    HW217175   2.696   3.622   3.977  1.5285 -1.1053  2.6773
 1905SOL     OW17176   4.708   2.381  15.689 -0.1693  0.2363 -0.1523
 1905SOL    HW117177   4.613   2.388  15.690 -0.0446  2.1163 -0.3721
 1905SOL    HW217178   4.712   2.323  15.614 -1.4467 -1.2370  0.9370
 1906SOL     OW17179   0.708   3.805   2.262 -0.0697  0.7039 -0.0033
 1906SOL    HW117180   0.725   3.899   2.252  1.4882  0.3329 -0.7450
 1906SOL    HW217181   0.745   3.792   2.350 -0.1623 -1.8457 -0.3614
 1907SOL     OW17182   3.409   3.269   5.279 -0.1159 -0.2448 -0.4018
 1907SOL    HW117183   3.502   3.287   5.276  0.3417 -2.5892 -0.3422
 1907SOL    HW217184   3.368   3.351   5.252  1.6731  1.0842  0.9726
 1908SOL     OW17185   3.203   1.183   3.653  0.0865  0.2780 -0.2442
 1908SOL    HW117186   3.204   1.272   3.689  0.5704 -0.0567  0.5566
 1908SOL    HW217187   3.109   1.178   3.633 -0.0468  4.4652 -0.7032
 1909SOL     OW17188   3.690   2.736   3.506  0.3444 -0.2168 -0.4088
 1909SOL    HW117189   3.728   2.731   3.418  1.9170  0.5842  0.2354
 1909SOL    HW217190   3.627   2.808   3.496  0.1497 -0.3125  0.1195
 1910SOL     OW17191   3.692   3.691  14.566 -1.0978 -0.5869  0.1870
 1910SOL    HW117192   3.762   3.667  14.506 -1.0474 -2.6523  1.0637
 1910SOL    HW217193   3.695   3.624  14.634 -2.5943 -0.0802  0.7581
 1911SOL     OW17194   2.159   3.516  16.887  0.0085 -0.0135 -0.7151
 1911SOL    HW117195   2.092   3.464  16.931  1.8000 -0.4859  1.5003
 1911SOL    HW217196   2.107   3.554  16.817 -2.4128 -0.1393  1.0249
 1912SOL     OW17197   2.790   1.790   4.220 -0.0913  0.1910  0.0688
 1912SOL    HW117198   2.824   1.743   4.296 -0.2310  1.2748  0.8034
 1912SOL    HW217199   2.847   1.867   4.218 -0.3495  0.3610 -0.7270
 1913SOL     OW17200   4.666   3.629  10.016  0.9095  0.1371 -0.0740
 1913SOL    HW117201   4.655   3.687  10.091 -2.2255 -0.5012 -0.0104
 1913SOL    HW217202   4.579   3.589  10.011 -0.5905  3.1538  1.8060
 1914SOL     OW17203   0.059   1.458   8.758 -0.6186 -0.0475 -0.4164
 1914SOL    HW117204   0.112   1.398   8.810 -0.6224  0.5124  0.2389
 1914SOL    HW217205   0.119   1.523   8.721  0.1365 -0.2687  0.4083
 1915SOL     OW17206   0.680   4.672  17.421  0.0711 -0.2879  0.2704
 1915SOL    HW117207   0.638   4.591  17.450 -0.4546  0.1838  0.8127
 1915SOL    HW217208   0.593   4.707  17.403 -0.2207 -0.7738  0.7205
 1916SOL     OW17209   1.640   1.028   8.693 -0.1140  0.0449  0.2789
 1916SOL    HW117210   1.605   0.961   8.752 -0.5420  0.0305  0.0090
 1916SOL    HW217211   1.559   1.076   8.676 -0.8079 -0.5740  1.8096
 1917SOL     OW17212   4.628   0.409   6.014 -0.0845  0.2627  0.6015
 1917SOL    HW117213   4.654   0.488   6.063 -3.8875  0.5079  2.2245
 1917SOL    HW217214   4.614   0.448   5.928  0.5725  1.2004  0.9165
 1918SOL     OW17215   1.998   1.533   4.787 -0.1060 -0.4842 -0.1122
 1918SOL    HW117216   2.093   1.518   4.788  0.1617  1.1708 -0.2841
 1918SOL    HW217217   1.988   1.537   4.882  0.5859  2.4371 -0.1677
 1919SOL     OW17218   2.265   4.083   8.049 -0.5217  0.2214 -0.2132
 1919SOL    HW117219   2.222   4.168   8.062 -1.6949 -0.6128  1.2314
 1919SOL    HW217220   2.228   4.048   7.968  1.1212 -3.7237  0.7769
 1920SOL     OW17221   3.118   3.289   7.166 -0.1034 -0.8034  0.0653
 1920SOL    HW117222   3.093   3.378   7.139  2.8407  0.1379  0.5215
 1920SOL    HW217223   3.042   3.265   7.220 -0.9653  1.3602 -0.1777
 1921SOL     OW17224   1.637   3.777  11.698 -0.2923  0.0161  0.4204
 1921SOL    HW117225   1.584   3.836  11.752  0.2411 -0.0210  0.9854
 1921SOL    HW217226   1.705   3.843  11.685 -0.2541  0.0308  0.6928
 1922SOL     OW17227   0.030   1.528   4.116 -0.2351  0.2348  0.2236
 1922SOL    HW117228   4.710   1.487   4.042  0.1480 -0.4977  0.3951
 1922SOL    HW217229   0.117   1.489   4.124  0.3365  1.2971 -0.9345
 1923SOL     OW17230   2.138   0.898  14.036 -0.0266 -0.3894  0.5509
 1923SOL    HW117231   2.071   0.965  14.050  1.2027  1.1011 -0.8134
 1923SOL    HW217232   2.094   0.816  14.058 -2.8599  1.3946  1.5133
 1924SOL     OW17233   2.480   4.682   6.557  0.3844 -0.1663  0.4588
 1924SOL    HW117234   2.477   4.670   6.652 -2.5972  2.5880  0.7126
 1924SOL    HW217235   2.419   0.031   6.555  1.9555  1.0375 -2.5182
 1925SOL     OW17236   0.667   1.791  12.369  0.5994 -0.7724  0.4279
 1925SOL    HW117237   0.669   1.864  12.431  2.2651  1.2456 -2.0016
 1925SOL    HW217238   0.588   1.742  12.392  0.8499 -2.4782 -2.3185
 1926SOL     OW17239   0.575   3.152   1.244  0.6286 -0.3954 -0.8247
 1926SOL    HW117240   0.645   3.196   1.195 -0.5710 -0.0410 -2.2235
 1926SOL    HW217241   0.509   3.130   1.178 -1.2409 -1.0163  1.2618
 1927SOL     OW17242   1.270   0.017  13.941 -0.2358  0.2671 -0.0153
 1927SOL    HW117243   1.241   4.672  13.999 -1.2215 -0.3496 -1.2461
 1927SOL    HW217244   1.360   4.713  13.925 -1.3889 -1.5829 -3.1209
 1928SOL     OW17245   3.737   2.846   9.860  0.2579  0.2587  0.1192
 1928SOL    HW117246   3.726   2.815   9.950 -2.1211 -1.9358 -0.9140
 1928SOL    HW217247   3.730   2.759   9.819 -0.0418  0.0606  0.5881
 1929SOL     OW17248   0.195   1.888   7.535  0.4087  0.2615 -0.6427
 1929SOL    HW117249   0.253   1.892   7.459  2.8351 -0.0439  1.1776
 1929SOL    HW217250   0.231   1.814   7.585 -0.7328  0.6101  0.7137
 1930SOL     OW17251   1.798   4.122   2.934 -0.3284 -0.4430  0.2676
 1930SOL    HW117252   1.790   4.126   2.839 -1.6162 -0.4815  0.3757
 1930SOL    HW217253   1.877   4.174   2.950 -0.6633 -0.7099  2.9008
 1931SOL     OW17254   3.287   0.006   0.258 -0.1704  0.1431  0.4017
 1931SOL    HW117255   3.265   0.031   0.348 -1.2705  0.0713  0.1623
 1931SOL    HW217256   3.350   4.660   0.270 -1.3042 -1.1474 -1.2920
 1932SOL     OW17257   0.449   3.765   3.858  0.0523 -0.3948 -0.1685
 1932SOL    HW117258   0.511   3.838   3.855  0.4702 -0.6464  2.1889
 1932SOL    HW217259   0.376   3.810   3.815  0.7394 -1.5851 -2.5490
 1933SOL     OW17260   2.571   3.055  15.970  0.8238  0.3807 -0.9702
 1933SOL    HW117261   2.522   2.996  15.912 -0.9181 -1.6444  2.4942
 1933SOL    HW217262   2.653   3.006  15.976  1.2834  1.7064  3.7676
 1934SOL     OW17263   4.624   3.357   7.822 -0.1651  0.4130  0.2393
 1934SOL    HW117264   4.715   3.352   7.850  0.3361  0.5656 -1.3325
 1934SOL    HW217265   4.632   3.288   7.755 -2.2440  2.3841 -2.0384
 1935SOL     OW17266   3.889   1.697   4.076  0.3016  0.0566  0.0328
 1935SOL    HW117267   3.839   1.665   4.150 -0.4632 -1.2962 -1.0706
 1935SOL    HW217268   3.819   1.721   4.015  0.4179  0.5387  0.0912
 1936SOL     OW17269   4.276   2.958   1.860 -0.0376  0.4980  0.2536
 1936SOL    HW117270   4.222   2.984   1.935 -1.1174 -0.3252 -0.2304
 1936SOL    HW217271   4.318   2.887   1.908 -2.0462 -1.0545 -0.2904
 1937SOL     OW17272   3.347   2.736  16.593 -0.4653 -0.0615 -0.6193
 1937SOL    HW117273   3.431   2.691  16.602 -1.6773 -2.0340  0.7365
 1937SOL    HW217274   3.316   2.732  16.683  0.4594  1.6318 -0.2166
 1938SOL     OW17275   0.916   3.635   8.778 -0.1697  0.0556  0.2564
 1938SOL    HW117276   0.854   3.703   8.751  0.2641 -0.5449 -2.2518
 1938SOL    HW217277   0.960   3.682   8.849  0.3825 -1.4620  0.9192
 1939SOL     OW17278   0.918   2.047   3.672 -0.1087  0.2715 -0.2223
 1939SOL    HW117279   0.842   2.022   3.724 -0.8582 -0.3249 -1.6248
 1939SOL    HW217280   0.874   2.103   3.608 -0.4530  2.6655  2.0828
 1940SOL     OW17281   0.573   1.763   2.957  0.2564  0.0016 -0.1916
 1940SOL    HW117282   0.551   1.792   2.868 -0.3996  0.0252 -0.0195
 1940SOL    HW217283   0.669   1.769   2.962  0.2311  0.4558 -0.1791
 1941SOL     OW17284   0.812   2.182   2.398 -0.2300 -0.8759  0.3598
 1941SOL    HW117285   0.819   2.277   2.393  2.4487 -1.1976 -1.9366
 1941SOL    HW217286   0.731   2.178   2.348 -1.4824  0.4341  2.3006
 1942SOL     OW17287   2.496   2.853  12.033 -0.5466 -0.2216 -0.5501
 1942SOL    HW117288   2.402   2.859  12.049  0.1418 -1.5350  3.9574
 1942SOL    HW217289   2.527   2.839  12.123  0.0227 -0.0580 -0.7224
 1943SOL     OW17290   2.196   3.713   3.161 -0.2989  0.6446  0.1007
 1943SOL    HW117291   2.214   3.621   3.178 -0.9843  0.9511  2.4323
 1943SOL    HW217292   2.270   3.760   3.201 -0.6295  2.4736 -1.4224
 1944SOL     OW17293   3.284   3.895   9.860 -0.3780  0.2017 -0.2017
 1944SOL    HW117294   3.367   3.874   9.817  1.6110  1.1252  3.1555
 1944SOL    HW217295   3.249   3.819   9.906  1.4639 -0.1725  0.6144
 1945SOL     OW17296   2.071   4.306   5.087 -0.0244 -0.1142  0.1749
 1945SOL    HW117297   1.997   4.307   5.148 -2.5090  1.0637 -2.8493
 1945SOL    HW217298   2.138   4.349   5.140 -0.9445  0.8373  0.5682
 1946SOL     OW17299   1.687   0.086   5.455 -0.5342 -0.7867 -0.6254
 1946SOL    HW117300   1.638   0.120   5.529  0.1161 -0.0390 -0.5406
 1946SOL    HW217301   1.733   0.169   5.439  0.2277 -0.9188  0.8750
 1947SOL     OW17302   0.731   0.737   8.482  0.3327  0.1988 -0.3756
 1947SOL    HW117303   0.717   0.686   8.562 -0.8954 -1.8386 -1.8897
 1947SOL    HW217304   0.714   0.671   8.415  0.5856  0.7728 -1.0066
 1948SOL     OW17305   4.217   2.174   1.725 -0.0599  0.2857 -0.2958
 1948SOL    HW117306   4.150   2.127   1.675  0.1264  2.6785 -2.7425
 1948SOL    HW217307   4.301   2.145   1.689  0.1768  2.2126 -1.2606
 1949SOL     OW17308   3.159   2.811   5.507 -0.2793  0.5356 -0.4414
 1949SOL    HW117309   3.164   2.895   5.462 -0.3646  0.6201 -0.2950
 1949SOL    HW217310   3.206   2.832   5.588  0.8157 -2.7242 -0.2318
 1950SOL     OW17311   0.048   1.971   2.581 -0.1197 -0.2592  0.0379
 1950SOL    HW117312   0.111   1.931   2.522  1.4031  0.0818  1.4244
 1950SOL    HW217313   0.105   1.971   2.658  0.8683  2.7048 -0.7022
 1951SOL     OW17314   0.288   0.975   4.692  0.0304  0.0008 -0.0368
 1951SOL    HW117315   0.254   0.910   4.630 -1.2122  0.8680 -0.2753
 1951SOL    HW217316   0.230   1.051   4.688 -0.3137 -0.1636  1.5246
 1952SOL     OW17317   4.439   2.798   8.792  0.0700  0.9545 -0.3563
 1952SOL    HW117318   4.526   2.758   8.790 -1.1718 -1.8686  1.2716
 1952SOL    HW217319   4.461   2.888   8.814  0.0646  0.9229 -0.2243
 1953SOL     OW17320   2.440   1.699   7.115  0.4256 -0.5332 -0.4382
 1953SOL    HW117321   2.465   1.648   7.192  0.9942 -0.0032 -0.2661
 1953SOL    HW217322   2.488   1.778   7.142  0.9142 -0.8088 -0.5025
 1954SOL     OW17323   2.024   2.975   6.471  0.0139 -0.0602 -0.3687
 1954SOL    HW117324   1.937   3.010   6.489 -1.3243 -3.3553 -0.4082
 1954SOL    HW217325   2.005   2.940   6.384  0.7798  0.3567 -0.7066
 1955SOL     OW17326   2.456   0.129  17.031 -0.1231  0.2230  0.0948
 1955SOL    HW117327   2.446   0.034  17.025 -1.3414  0.3588  0.1040
 1955SOL    HW217328   2.516   0.136  16.956  0.2311 -2.6241  0.1280
 1956SOL     OW17329   0.018   2.419  15.956 -0.3530 -0.2517  0.0483
 1956SOL    HW117330   0.009   2.397  15.863 -2.1216 -0.0928  0.1898
 1956SOL    HW217331   0.074   2.351  15.994 -0.4855 -0.6654 -0.5040
 1957SOL     OW17332   0.242   0.513   4.427  0.1927 -0.2830 -0.0457
 1957SOL    HW117333   0.281   0.425   4.418  1.8631  0.5553 -1.0819
 1957SOL    HW217334   0.189   0.501   4.505  1.7764 -0.4877  1.0039
 1958SOL     OW17335   2.732   4.257  15.098 -0.0411  0.1728 -0.0589
 1958SOL    HW117336   2.795   4.211  15.041 -0.2488  1.0925 -1.0320
 1958SOL    HW217337   2.788   4.322  15.141  0.6736 -1.6345  1.7232
 1959SOL     OW17338   1.106   0.105  14.244 -0.4473  0.3303 -0.8708
 1959SOL    HW117339   1.055   0.075  14.169  1.3695 -1.2793 -1.4533
 1959SOL    HW217340   1.148   0.025  14.278  1.8128  3.2929  3.3096
 1960SOL     OW17341   0.665   2.628   1.972 -0.6811  0.0731  0.0542
 1960SOL    HW117342   0.667   2.723   1.963 -3.3387  0.1028 -0.2962
 1960SOL    HW217343   0.572   2.610   1.986 -0.9875  1.6962  0.0543
 1961SOL     OW17344   4.564   1.830   8.253 -0.0371 -0.1495 -0.3131
 1961SOL    HW117345   4.554   1.805   8.162  1.6323 -2.1854  0.0781
 1961SOL    HW217346   4.502   1.776   8.301  2.3938 -0.9998  1.8754
 1962SOL     OW17347   1.003   2.531  15.695  0.4263  0.0362 -0.0150
 1962SOL    HW117348   1.084   2.523  15.645  0.5046  0.0813  0.1051
 1962SOL    HW217349   0.997   2.627  15.699  1.0168 -0.0151  1.9501
 1963SOL     OW17350   3.276   1.480   4.180 -0.6310 -0.2496 -0.0095
 1963SOL    HW117351   3.275   1.526   4.096 -1.0744  3.2557  1.9232
 1963SOL    HW217352   3.181   1.489   4.192 -0.8747 -2.5897 -0.1148
 1964SOL     OW17353   3.175   3.706   3.961  0.3461 -0.1531 -1.0877
 1964SOL    HW117354   3.200   3.740   4.047  2.2127 -0.2097 -1.5917
 1964SOL    HW217355   3.095   3.753   3.941  0.8183  0.8994 -0.5036
 1965SOL     OW17356   2.801   2.034   7.649  0.5467 -0.0968  0.1207
 1965SOL    HW117357   2.768   2.123   7.653  0.2908 -0.2421  1.3124
 1965SOL    HW217358   2.736   1.995   7.708  0.8754 -1.4495 -0.3945
 1966SOL     OW17359   2.338   2.346   6.901  0.0360 -0.4830 -0.4426
 1966SOL    HW117360   2.388   2.328   6.980 -0.6959  1.2983  0.4276
 1966SOL    HW217361   2.298   2.428   6.930 -2.5221 -2.2609  1.0373
 1967SOL     OW17362   0.604   4.136   0.921  0.0502  0.4859  0.2183
 1967SOL    HW117363   0.675   4.092   0.873  0.0310 -0.0291  0.6651
 1967SOL    HW217364   0.603   4.216   0.868 -1.2991 -1.4163 -2.6823
 1968SOL     OW17365   2.530   0.368  11.026 -0.3371  0.3954  0.3073
 1968SOL    HW117366   2.573   0.454  11.023 -0.5483  0.4891 -0.0864
 1968SOL    HW217367   2.596   0.308  10.992 -0.5073  0.2603  0.2160
 1969SOL     OW17368   3.297   2.048  16.501  0.0479 -0.4327  0.4950
 1969SOL    HW117369   3.204   2.068  16.498  0.2217  0.4895  1.2126
 1969SOL    HW217370   3.301   1.958  16.535  0.0960 -1.0726 -1.2010
 1970SOL     OW17371   1.031   1.146   7.573  0.2257 -0.1812 -0.4126
 1970SOL    HW117372   0.974   1.107   7.639  0.8953  0.0897  0.3297
 1970SOL    HW217373   1.092   1.187   7.634 -0.0271  0.3723 -0.5326
 1971SOL     OW17374   2.826   4.455   0.318  0.1639  0.3505  0.0547
 1971SOL    HW117375   2.890   4.387   0.299 -0.0392  0.0789  0.3521
 1971SOL    HW217376   2.784   4.410   0.391  1.9208  1.1294  1.5466
 1972SOL     OW17377   4.569   3.823   7.477 -0.2139 -1.0043 -0.0952
 1972SOL    HW117378   4.653   3.815   7.432  0.9113  1.3039  1.6305
 1972SOL    HW217379   4.590   3.769   7.553  0.7743  1.7448  1.5642
 1973SOL     OW17380   0.295   3.774  13.440  0.4870  0.2359 -0.0320
 1973SOL    HW117381   0.373   3.719  13.448 -0.5538 -1.2837 -0.3549
 1973SOL    HW217382   0.253   3.730  13.366 -0.7122  0.5691  0.4641
 1974SOL     OW17383   1.298   2.168   1.579 -0.0204 -0.8408  0.3056
 1974SOL    HW117384   1.321   2.128   1.495  0.4841 -0.9509  0.4969
 1974SOL    HW217385   1.232   2.228   1.543  0.6944  0.5720  1.3295
 1975SOL     OW17386   4.063   0.062   4.102 -0.0673 -0.8357  0.0634
 1975SOL    HW117387   4.024   0.030   4.021  0.5363 -0.8623 -0.2120
 1975SOL    HW217388   4.152   0.028   4.095  0.4278  0.7246 -1.0866
 1976SOL     OW17389   4.055   2.152   4.427 -0.2278 -0.0876 -0.3459
 1976SOL    HW117390   4.139   2.110   4.407  0.1700  0.7946 -0.5358
 1976SOL    HW217391   4.074   2.173   4.519  0.3565 -2.3222  0.0474
 1977SOL     OW17392   0.059   0.837   2.042 -0.1604  0.4331 -0.0799
 1977SOL    HW117393   0.061   0.769   2.110  0.5863 -1.3978 -1.9570
 1977SOL    HW217394   0.025   0.910   2.096  2.9806  2.3901 -0.7839
 1978SOL     OW17395   3.520   2.200  15.392  0.3044  0.0588  0.2425
 1978SOL    HW117396   3.456   2.267  15.414  0.0198  0.9801 -3.4678
 1978SOL    HW217397   3.596   2.246  15.429 -0.9235 -0.2023  3.0699
 1979SOL     OW17398   0.133   4.379   1.761  0.0886 -0.6111 -0.6100
 1979SOL    HW117399   0.133   4.444   1.831 -1.6906 -0.8828 -0.3624
 1979SOL    HW217400   0.173   4.440   1.699 -3.5661  1.6907 -0.7344
 1980SOL     OW17401   1.609   0.871  14.979  0.5666 -0.0468 -0.0220
 1980SOL    HW117402   1.612   0.944  14.918 -0.5041 -0.8576 -1.0506
 1980SOL    HW217403   1.682   0.826  14.935 -0.4783 -0.8592 -0.9191
 1981SOL     OW17404   0.249   3.277  16.138  0.5598 -0.7580  0.2054
 1981SOL    HW117405   0.340   3.283  16.165  0.9991 -0.3824 -1.3438
 1981SOL    HW217406   0.258   3.277  16.042  1.1348  0.9573  0.2620
 1982SOL     OW17407   4.006   0.180   3.678 -0.0832  0.1774 -0.1464
 1982SOL    HW117408   4.088   0.202   3.634  0.3927 -0.8783  0.2040
 1982SOL    HW217409   3.950   0.135   3.615 -2.9908 -0.4108  2.8620
 1983SOL     OW17410   4.068   0.922   4.059 -0.2212  0.2448 -0.0297
 1983SOL    HW117411   4.026   1.007   4.075 -2.0346 -0.1598 -2.5641
 1983SOL    HW217412   3.991   0.868   4.042  0.5562 -0.1931 -2.1660
 1984SOL     OW17413   4.222   1.095   6.368 -0.4391  0.3965 -0.3511
 1984SOL    HW117414   4.195   1.169   6.314  0.7059  0.7897 -0.3857
 1984SOL    HW217415   4.204   1.015   6.318 -0.4493 -1.0340  1.9597
 1985SOL     OW17416   3.703   2.796   1.365  0.2771 -0.1315  0.3330
 1985SOL    HW117417   3.660   2.755   1.290  0.5983  0.5352 -0.2190
 1985SOL    HW217418   3.752   2.725   1.407 -2.1072 -1.9888 -0.0005
 1986SOL     OW17419   2.279   0.933   2.353 -0.0608 -0.2519 -0.3092
 1986SOL    HW117420   2.324   0.949   2.435 -0.5712  0.6777 -0.2102
 1986SOL    HW217421   2.348   0.915   2.289 -0.0682  0.6867 -0.5782
 1987SOL     OW17422   1.702   1.021  11.164  0.0182 -0.6684 -0.2735
 1987SOL    HW117423   1.702   1.044  11.257  0.9096  0.3710 -0.5338
 1987SOL    HW217424   1.763   0.948  11.170 -2.0598 -2.5686 -2.1631
 1988SOL     OW17425   4.447   2.640   5.911  0.0602 -0.4576 -0.3414
 1988SOL    HW117426   4.422   2.580   5.841 -0.9876 -2.2238  1.5526
 1988SOL    HW217427   4.535   2.605   5.926  0.2560 -0.2108 -0.9119
 1989SOL     OW17428   1.110   0.515   9.855  0.7032  0.1386 -0.5426
 1989SOL    HW117429   1.173   0.536   9.924  1.1015 -2.5969 -0.0740
 1989SOL    HW217430   1.171   0.459   9.808  0.1626 -1.4933  0.7008
 1990SOL     OW17431   3.302   2.713   8.124 -0.0317 -0.3897  0.2734
 1990SOL    HW117432   3.224   2.769   8.128  1.3114  1.5640 -1.1136
 1990SOL    HW217433   3.359   2.764   8.182 -0.7714 -0.5204  1.1301
 1991SOL     OW17434   0.112   2.132   7.391  0.0075 -0.2424 -0.0378
 1991SOL    HW117435   0.143   2.082   7.466  0.1234  1.0069  0.7601
 1991SOL    HW217436   0.035   2.168   7.436  0.4343  0.6272  0.0056
 1992SOL     OW17437   3.351   0.948   8.309  0.4411 -0.4872  0.0172
 1992SOL    HW117438   3.343   0.991   8.394 -0.8189  1.7067 -1.1982
 1992SOL    HW217439   3.349   0.857   8.336  2.9399 -0.2106  1.0999
 1993SOL     OW17440   3.832   3.006   1.223 -0.1421 -0.6879  0.3651
 1993SOL    HW117441   3.926   3.012   1.242  0.5456 -2.4867 -2.2470
 1993SOL    HW217442   3.807   2.928   1.272 -0.1682 -0.3107  0.9493
 1994SOL     OW17443   2.393   0.144   3.716  0.2342 -0.6989 -0.4681
 1994SOL    HW117444   2.441   0.078   3.765  1.6298  0.7933  0.1921
 1994SOL    HW217445   2.464   0.187   3.668 -0.7015 -0.2565 -1.4787
 1995SOL     OW17446   1.176   3.622   4.304  0.8495  0.0435 -0.3169
 1995SOL    HW117447   1.096   3.570   4.312  2.0983 -1.4452  2.5988
 1995SOL    HW217448   1.147   3.708   4.334 -3.5718 -2.0382  1.3744
 1996SOL     OW17449   2.975   3.414   9.834  0.1827  0.3214 -0.2691
 1996SOL    HW117450   2.931   3.485   9.787  0.1210  0.9822  0.7883
 1996SOL    HW217451   2.915   3.341   9.820 -0.2422  0.3089  1.6047
 1997SOL     OW17452   3.845   3.142   0.673  0.3088 -0.0398  0.0798
 1997SOL    HW117453   3.790   3.064   0.677  1.3408 -0.7897 -0.2475
 1997SOL    HW217454   3.910   3.106   0.613  2.2805 -0.6791  2.5924
 1998SOL     OW17455   1.890   0.066   8.309 -0.2247 -0.3725  0.1868
 1998SOL    HW117456   1.839   0.007   8.253 -0.7137  0.0713  0.1598
 1998SOL    HW217457   1.859   0.149   8.273 -0.7602 -0.9226 -0.6212
 1999SOL     OW17458   0.551   2.070   3.469 -0.1579 -0.5775  0.2730
 1999SOL    HW117459   0.603   2.042   3.394 -1.6070 -0.3331 -0.8305
 1999SOL    HW217460   0.532   1.995   3.525  0.2693 -0.3973  0.6538
 2000SOL     OW17461   3.064   1.796   3.481 -0.3552 -0.4214 -0.2956
 2000SOL    HW117462   3.042   1.881   3.443 -0.8220 -0.9496 -1.2220
 2000SOL    HW217463   3.083   1.745   3.402  0.4405  1.6668 -1.4558
 2001SOL     OW17464   3.072   1.435   3.957  0.3760 -0.2149  0.1757
 2001SOL    HW117465   3.106   1.358   4.002  2.7983  0.4072 -0.5788
 2001SOL    HW217466   3.043   1.489   4.030  1.9124  1.8727 -0.7473
 2002SOL     OW17467   4.500   4.398   5.257 -0.0474 -0.3179  0.2722
 2002SOL    HW117468   4.580   4.431   5.217 -1.0472 -0.0268 -1.4794
 2002SOL    HW217469   4.500   4.461   5.330  0.7940 -0.5763  0.4989
 2003SOL     OW17470   3.253   0.881   6.401 -0.4828 -0.2178  0.5353
 2003SOL    HW117471   3.171   0.922   6.429  0.3542 -0.0247  2.7598
 2003SOL    HW217472   3.312   0.956   6.402  0.3069 -0.8535  1.6621
 2004SOL     OW17473   2.743   4.226   4.038  0.5600  0.1675  0.3337
 2004SOL    HW117474   2.721   4.168   3.966  0.8232  0.4250  0.0471
 2004SOL    HW217475   2.835   4.202   4.048  0.7401 -0.4665 -2.9474
 2005SOL     OW17476   2.872   3.514   7.929 -0.6648  0.2831  0.3619
 2005SOL    HW117477   2.887   3.422   7.950  0.9294  0.1191 -1.4448
 2005SOL    HW217478   2.875   3.554   8.016  2.6523 -1.1091  0.9125
 2006SOL     OW17479   4.080   2.964   6.029  0.0914  0.3257 -0.5205
 2006SOL    HW117480   4.033   2.883   6.047  0.3338  0.0208 -1.2219
 2006SOL    HW217481   4.021   2.999   5.962 -1.2490 -0.3191  0.3390
 2007SOL     OW17482   4.441   3.436  14.587  0.2843  0.3429  0.6165
 2007SOL    HW117483   4.476   3.347  14.593  1.3770  0.7659  0.5358
 2007SOL    HW217484   4.355   3.421  14.627 -0.3593  0.8670 -0.5553
 2008SOL     OW17485   3.798   4.272  12.298  0.1198  0.5210  0.9047
 2008SOL    HW117486   3.800   4.209  12.226  1.8915  1.6289 -0.0136
 2008SOL    HW217487   3.795   4.358  12.255  2.5275 -1.1303 -2.5081
 2009SOL     OW17488   0.655   4.646   6.880  0.6328  0.0537  0.1597
 2009SOL    HW117489   0.586   4.627   6.944 -1.4675 -1.2454 -2.4996
 2009SOL    HW217490   0.700   4.722   6.917  1.4074 -1.4783  2.3713
 2010SOL     OW17491   0.273   2.392   7.075  0.1149  0.2417  0.4332
 2010SOL    HW117492   0.261   2.458   7.006 -0.3589  0.7230  0.9746
 2010SOL    HW217493   0.295   2.317   7.020 -0.3728  0.0202  0.5446
 2011SOL     OW17494   2.344   1.657   3.391 -0.6071  0.1560  0.1001
 2011SOL    HW117495   2.290   1.636   3.466  1.5706  2.6809  2.3805
 2011SOL    HW217496   2.350   1.753   3.388 -0.8097  0.2667  3.2435
 2012SOL     OW17497   1.218   3.935   8.646 -0.0204 -1.1156 -0.2193
 2012SOL    HW117498   1.275   3.878   8.698  0.3669  1.1063  1.8001
 2012SOL    HW217499   1.133   3.924   8.689  0.4234 -0.4213  0.8532
 2013SOL     OW17500   4.330   1.110  10.488 -0.3404 -0.6272  0.4000
 2013SOL    HW117501   4.414   1.068  10.510 -0.0080 -0.0388  0.2551
 2013SOL    HW217502   4.360   1.198  10.466  0.7501 -0.6938  1.6521
 2014SOL     OW17503   2.678   0.188   0.911 -0.1841  0.0469  0.7599
 2014SOL    HW117504   2.772   0.170   0.905 -0.5101 -1.2954 -0.5336
 2014SOL    HW217505   2.654   0.096   0.896  1.4314 -0.0732 -1.0858
 2015SOL     OW17506   2.186   3.150   2.579  0.7273  0.3652 -0.1772
 2015SOL    HW117507   2.238   3.135   2.500 -1.3959  0.9452 -1.6603
 2015SOL    HW217508   2.115   3.208   2.554 -2.1155 -3.3477 -0.7603
 2016SOL     OW17509   2.964   1.644   6.348 -0.1045  0.0333 -0.1610
 2016SOL    HW117510   2.886   1.699   6.339 -0.4600  0.1698  3.5368
 2016SOL    HW217511   3.039   1.703   6.336 -0.7865  0.6863 -1.1841
 2017SOL     OW17512   2.201   0.729   3.858  0.8251  0.0559  0.5635
 2017SOL    HW117513   2.195   0.817   3.896 -2.1210  0.0998 -0.0038
 2017SOL    HW217514   2.118   0.686   3.877  0.8160  0.8224  2.2547
 2018SOL     OW17515   0.240   2.695   1.423  0.0032  0.2635  0.2576
 2018SOL    HW117516   0.238   2.791   1.426 -0.1067  0.2754 -0.2836
 2018SOL    HW217517   0.291   2.678   1.344 -0.6043  0.6715 -0.2153
 2019SOL     OW17518   2.224   4.089   6.974 -0.4320 -0.4015 -0.0965
 2019SOL    HW117519   2.289   4.146   6.932 -0.1754 -0.2518  0.5165
 2019SOL    HW217520   2.222   4.137   7.056 -0.1731 -1.7419  0.6882
 2020SOL     OW17521   3.136   0.746   2.591 -0.2490  0.2012 -0.4118
 2020SOL    HW117522   3.190   0.813   2.634 -1.6799  2.7791 -2.7171
 2020SOL    HW217523   3.113   0.695   2.669  0.4960 -1.1186 -1.0582
 2021SOL     OW17524   0.214   1.028   7.642 -0.0286 -0.5770  0.7687
 2021SOL    HW117525   0.253   1.103   7.596  0.2357 -0.3715  1.3286
 2021SOL    HW217526   0.139   1.015   7.584  2.1259  4.9493 -3.3564
 2022SOL     OW17527   1.866   4.658  14.497  0.2762  0.3815  0.2897
 2022SOL    HW117528   1.907   4.711  14.565 -0.9888  0.6184  0.8568
 2022SOL    HW217529   1.905   4.689  14.415  1.3480 -0.5060  0.4559
 2023SOL     OW17530   4.444   4.355   7.709 -0.6169 -0.3198 -0.0321
 2023SOL    HW117531   4.417   4.372   7.799  3.2492 -0.3169  1.1159
 2023SOL    HW217532   4.443   4.448   7.685 -1.4303 -0.0129  1.2004
 2024SOL     OW17533   2.614   0.937   1.929 -0.3149 -0.1553  0.1618
 2024SOL    HW117534   2.574   0.973   1.851 -0.4991 -3.2143 -1.1422
 2024SOL    HW217535   2.698   0.894   1.911 -1.3137 -2.0317  0.0087
 2025SOL     OW17536   3.317   2.585  11.257 -0.0734 -0.0214 -0.2050
 2025SOL    HW117537   3.275   2.668  11.277  0.2882 -0.2547  1.5334
 2025SOL    HW217538   3.252   2.520  11.285  2.3394 -1.2930  2.4201
 2026SOL     OW17539   1.790   4.366  14.311  0.0255  0.5504 -0.0113
 2026SOL    HW117540   1.748   4.415  14.240 -0.3916  1.6422  0.9754
 2026SOL    HW217541   1.879   4.399  14.321  0.0668  0.1370  1.0191
 2027SOL     OW17542   2.416   2.067   7.631  0.4290 -0.2073 -0.2165
 2027SOL    HW117543   2.335   2.036   7.671 -0.2224  1.5810 -0.1530
 2027SOL    HW217544   2.474   2.005   7.676  2.7451  2.7555  0.9059
 2028SOL     OW17545   4.111   0.947  10.428 -0.2821  0.1939 -0.0082
 2028SOL    HW117546   4.138   0.870  10.478  0.7126 -1.0295 -2.4122
 2028SOL    HW217547   4.177   1.016  10.436 -0.7679  0.4285  2.1179
 2029SOL     OW17548   0.447   4.201   6.706 -0.3503  0.0369 -0.1935
 2029SOL    HW117549   0.420   4.291   6.721 -1.8491 -0.4907  0.3167
 2029SOL    HW217550   0.364   4.153   6.705 -1.0475  1.2290  0.6094
 2030SOL     OW17551   4.616   1.942  11.286  0.2531 -0.2017  0.5908
 2030SOL    HW117552   4.526   1.909  11.294  0.1700  0.4416  2.3271
 2030SOL    HW217553   4.628   1.944  11.191 -0.2148  0.5609  0.5509
 2031SOL     OW17554   2.378   3.521   1.046 -0.1454  0.4321  0.2728
 2031SOL    HW117555   2.342   3.441   1.007 -0.4152  1.2222 -1.1081
 2031SOL    HW217556   2.467   3.503   1.016 -0.1173  0.8833  0.0952
 2032SOL     OW17557   1.587   1.876   4.127 -0.0138  0.1481  0.0313
 2032SOL    HW117558   1.564   1.803   4.069 -2.6225 -0.7044  2.1193
 2032SOL    HW217559   1.539   1.857   4.208  0.0328 -0.0834  0.0044
 2033SOL     OW17560   3.214   3.342  14.971  0.4206 -0.2684  0.3014
 2033SOL    HW117561   3.123   3.359  14.948  1.4427  3.6460 -0.8776
 2033SOL    HW217562   3.255   3.359  14.886 -0.1501 -0.6733 -0.0471
 2034SOL     OW17563   3.575   1.465   4.025 -0.3019  0.1985 -0.1996
 2034SOL    HW117564   3.516   1.533   3.992 -1.6141 -0.0684  1.5847
 2034SOL    HW217565   3.572   1.471   4.121  0.2830  0.4712 -0.1940
 2035SOL     OW17566   2.002   2.349  11.452  0.0919  0.1995 -0.2839
 2035SOL    HW117567   1.976   2.300  11.530  1.3802 -2.8514 -1.7748
 2035SOL    HW217568   2.060   2.288  11.406  2.4079  2.1148  0.0576
 2036SOL     OW17569   1.144   2.523  12.485 -0.3076 -0.3135  0.2392
 2036SOL    HW117570   1.084   2.468  12.534 -0.9843  1.8091  1.8128
 2036SOL    HW217571   1.219   2.464  12.482 -0.1072 -0.0239 -0.3910
 2037SOL     OW17572   2.371   2.620  13.493 -0.0936 -0.3952  0.5400
 2037SOL    HW117573   2.360   2.694  13.434  2.9616  0.6283  1.2575
 2037SOL    HW217574   2.331   2.663  13.568 -0.4553 -0.3693  0.3282
 2038SOL     OW17575   0.329   4.080   5.053  0.1630  0.4565  0.0888
 2038SOL    HW117576   0.240   4.046   5.050 -0.1535  1.3347 -0.7317
 2038SOL    HW217577   0.381   4.002   5.035 -1.6026 -0.9767  1.1771
 2039SOL     OW17578   2.931   4.619   6.772 -0.3142 -0.5945  0.7453
 2039SOL    HW117579   3.012   4.670   6.781 -1.4481  1.6048 -1.3043
 2039SOL    HW217580   2.914   4.603   6.679  4.0058  3.8559 -0.8552
 2040SOL     OW17581   3.109   3.217   5.675 -0.0025 -0.0418 -0.4469
 2040SOL    HW117582   3.072   3.296   5.714 -2.4155 -1.5728  0.3876
 2040SOL    HW217583   3.196   3.251   5.655  0.4535 -0.1714  1.3695
 2041SOL     OW17584   4.719   2.884   0.539  0.1584 -0.1483 -0.0820
 2041SOL    HW117585   4.687   2.962   0.585  1.0984  1.5056 -2.2361
 2041SOL    HW217586   4.651   2.865   0.475 -1.5754  0.4899  1.5901
 2042SOL     OW17587   1.667   2.613   9.213 -0.1601 -0.2893 -0.4034
 2042SOL    HW117588   1.746   2.609   9.267  0.4590  1.7767 -1.1377
 2042SOL    HW217589   1.603   2.564   9.265  0.2663 -0.2642  0.1477
 2043SOL     OW17590   3.923   3.943   9.069 -0.4067 -0.1112 -0.2344
 2043SOL    HW117591   4.018   3.944   9.081 -0.4904  0.2807  0.3868
 2043SOL    HW217592   3.905   4.036   9.056 -0.5107  0.2950  2.9319
 2044SOL     OW17593   4.121   1.490   3.215 -0.3216  0.2859  0.6123
 2044SOL    HW117594   4.194   1.542   3.183 -0.6342  0.0278 -0.5407
 2044SOL    HW217595   4.154   1.443   3.291  2.0857 -0.4337 -0.8773
 2045SOL     OW17596   3.466   1.853   4.666 -0.1223  0.1676  0.1664
 2045SOL    HW117597   3.510   1.878   4.585 -0.9257  1.3100  0.0903
 2045SOL    HW217598   3.415   1.931   4.686  2.6014  1.8443  0.5981
 2046SOL     OW17599   4.416   3.160  15.366  0.0364 -0.2350  0.4250
 2046SOL    HW117600   4.321   3.167  15.378 -0.0288 -0.3285 -0.0363
 2046SOL    HW217601   4.447   3.097  15.431  1.2581 -0.4386 -0.3641
 2047SOL     OW17602   3.012   2.954   5.719  0.3090 -0.2534  0.5312
 2047SOL    HW117603   3.004   2.951   5.814 -2.3921  2.8981  0.3971
 2047SOL    HW217604   3.072   3.028   5.704  0.8993 -1.0147 -0.8972
 2048SOL     OW17605   3.058   2.667   7.274 -0.0168 -0.4587  0.4012
 2048SOL    HW117606   3.119   2.631   7.209 -1.2577  0.9219 -1.5377
 2048SOL    HW217607   3.093   2.621   7.350  3.3546  2.4116  0.5883
 2049SOL     OW17608   4.167   1.283  12.635  0.5782 -0.3128 -0.1022
 2049SOL    HW117609   4.204   1.259  12.721  2.2077 -0.7471 -0.9306
 2049SOL    HW217610   4.084   1.237  12.648 -0.5616  1.1754 -2.1395
 2050SOL     OW17611   0.012   4.695   1.779 -0.8691 -0.2705 -0.0126
 2050SOL    HW117612   4.674   4.650   1.723 -2.4910  0.0351  1.5561
 2050SOL    HW217613   0.089   4.686   1.723 -1.9963  1.7165 -1.8560
 2051SOL     OW17614   1.568   4.505   7.917 -0.0358  0.2291 -0.1028
 2051SOL    HW117615   1.541   4.427   7.869  0.2536 -0.1381  0.3264
 2051SOL    HW217616   1.500   4.568   7.895  1.7935  1.5324 -2.0658
 2052SOL     OW17617   1.405   2.989   7.182  0.1819 -0.6949  0.4388
 2052SOL    HW117618   1.334   2.925   7.169  0.2519 -0.6883  0.0006
 2052SOL    HW217619   1.364   3.075   7.168 -1.0519 -1.1656  1.1544
 2053SOL     OW17620   0.008   2.905   0.126  0.2523 -0.0053 -0.7056
 2053SOL    HW117621   0.025   2.902   0.032 -0.5010 -0.3508 -0.8295
 2053SOL    HW217622   0.094   2.928   0.161 -0.5549 -0.1561  1.3697
 2054SOL     OW17623   4.312   3.945   2.780 -0.1701 -0.2080 -0.1679
 2054SOL    HW117624   4.295   3.980   2.692  2.0623  2.6205  0.5336
 2054SOL    HW217625   4.299   3.851   2.768  0.8041 -0.2412 -1.0413
 2055SOL     OW17626   0.886   2.336   7.811 -0.0915  0.0903  0.2418
 2055SOL    HW117627   0.828   2.263   7.788  1.7108 -1.3687  0.3021
 2055SOL    HW217628   0.844   2.398   7.751  1.4777  2.4684  1.6549
 2056SOL     OW17629   1.880   1.969   7.832  0.2504  0.4964 -0.0019
 2056SOL    HW117630   1.796   2.015   7.837  0.6639  1.2761 -0.2286
 2056SOL    HW217631   1.864   1.894   7.888 -2.0613  0.4983 -0.6857
 2057SOL     OW17632   0.695   3.067   2.809 -0.3335 -0.0591  0.0443
 2057SOL    HW117633   0.755   2.994   2.792 -1.1792 -0.6338 -0.4699
 2057SOL    HW217634   0.726   3.140   2.757 -1.3560 -0.4349 -1.0842
 2058SOL     OW17635   1.006   3.976   7.725  0.9144 -0.4825  0.0707
 2058SOL    HW117636   1.020   3.887   7.756 -1.1253 -1.4281 -1.6783
 2058SOL    HW217637   0.913   3.963   7.706 -0.0189  3.1301  2.0131
 2059SOL     OW17638   2.900   2.102   2.526 -0.4775 -0.2124  0.0984
 2059SOL    HW117639   2.865   2.014   2.535  0.4074 -0.3237  2.3900
 2059SOL    HW217640   2.887   2.139   2.613 -0.8901 -0.5363  0.1738
 2060SOL     OW17641   2.639   0.331   4.610  0.4774  0.0948  0.5407
 2060SOL    HW117642   2.637   0.245   4.568  0.9642  0.4409 -0.1863
 2060SOL    HW217643   2.647   0.299   4.700  2.1478  0.6774  0.5953
 2061SOL     OW17644   1.102   2.201   8.502 -0.2052  0.1549 -0.0100
 2061SOL    HW117645   1.176   2.218   8.443  0.4042 -1.6568  0.2266
 2061SOL    HW217646   1.092   2.283   8.550 -1.0172  0.2900 -0.4219
 2062SOL     OW17647   2.731   1.220   4.186 -0.1400 -0.0859  0.4359
 2062SOL    HW117648   2.713   1.127   4.173 -0.8221 -0.1127  1.5972
 2062SOL    HW217649   2.708   1.247   4.097 -0.6924  0.5191  0.7683
 2063SOL     OW17650   3.722   3.125   5.003  0.2883 -0.1000  0.1296
 2063SOL    HW117651   3.711   3.044   4.953 -0.5985  0.7719 -1.0863
 2063SOL    HW217652   3.771   3.176   4.938  1.2509  1.5081  2.1110
 2064SOL     OW17653   1.596   3.449   2.758  0.0090  0.1736 -0.3158
 2064SOL    HW117654   1.594   3.453   2.662  0.0786  0.4043 -0.3058
 2064SOL    HW217655   1.569   3.538   2.779 -0.1035  0.0947 -0.1273
 2065SOL     OW17656   0.378   1.436  17.380 -0.2126  0.3851  0.3490
 2065SOL    HW117657   0.339   1.479  17.456  0.9025 -0.6705  1.5206
 2065SOL    HW217658   0.472   1.444  17.394 -0.0109  0.1362 -0.7911
 2066SOL     OW17659   3.491   3.938   9.345  0.3236  1.1237 -1.3262
 2066SOL    HW117660   3.518   3.857   9.386 -0.2864  1.3861 -0.4068
 2066SOL    HW217661   3.513   3.991   9.421 -0.0921  1.3127 -1.3345
 2067SOL     OW17662   0.585   1.668   5.144  0.1405 -0.3026 -0.8064
 2067SOL    HW117663   0.577   1.603   5.214  0.5079  2.1384  1.5488
 2067SOL    HW217664   0.584   1.611   5.068  0.1941 -1.2187 -0.1233
 2068SOL     OW17665   1.705   3.821   5.852 -0.3365  0.1790 -0.0474
 2068SOL    HW117666   1.704   3.857   5.941 -0.3982 -2.4765  1.0048
 2068SOL    HW217667   1.661   3.885   5.796 -1.7520 -0.8339 -0.0856
 2069SOL     OW17668   3.869   2.822  14.062  0.1254  0.4255 -0.4692
 2069SOL    HW117669   3.818   2.757  14.012 -0.3620  0.5514 -0.1329
 2069SOL    HW217670   3.799   2.880  14.091  1.0263 -0.0168  2.6604
 2070SOL     OW17671   3.340   2.290   2.823  0.5630  0.0712  0.3015
 2070SOL    HW117672   3.292   2.308   2.743  0.0624 -0.2026  0.5430
 2070SOL    HW217673   3.347   2.376   2.864  0.0515  0.9423 -1.4414
 2071SOL     OW17674   0.303   3.794   7.884 -0.3257  0.4263  0.1067
 2071SOL    HW117675   0.246   3.738   7.937 -1.5759  2.5122  0.9516
 2071SOL    HW217676   0.381   3.741   7.862 -0.6155 -0.2981  0.8244
 2072SOL     OW17677   0.082   2.055   2.009  0.1134 -0.7388  0.1642
 2072SOL    HW117678   0.009   2.009   1.969 -1.3598  2.1005 -0.4072
 2072SOL    HW217679   0.131   2.061   1.927  3.4403  1.3543  2.2685
 2073SOL     OW17680   4.057   1.193   8.183 -0.0456  0.6926  0.3278
 2073SOL    HW117681   4.062   1.103   8.213  0.6239  0.1073 -1.4988
 2073SOL    HW217682   4.144   1.205   8.144 -0.7222  3.0458 -0.4506
 2074SOL     OW17683   3.114   0.537   5.756  0.1313 -0.5250 -0.0412
 2074SOL    HW117684   3.107   0.544   5.851  2.0309  1.1089 -0.0118
 2074SOL    HW217685   3.171   0.612   5.739 -0.2966 -0.1814  0.0671
 2075SOL     OW17686   0.489   3.986  10.048 -0.2184 -0.2764  0.1165
 2075SOL    HW117687   0.518   3.965   9.960  2.2937  1.2917  0.5876
 2075SOL    HW217688   0.396   4.012  10.046 -0.3078 -0.6175 -0.2103
 2076SOL     OW17689   3.441   2.763  15.484 -0.4854 -0.2375  0.1651
 2076SOL    HW117690   3.469   2.854  15.487 -1.7419  0.1721 -0.8428
 2076SOL    HW217691   3.446   2.736  15.576  0.2688  0.4709  0.3287
 2077SOL     OW17692   1.826   4.607  17.119  0.3715  0.0624 -0.3719
 2077SOL    HW117693   1.777   4.526  17.129  0.0244  0.4534  1.1888
 2077SOL    HW217694   1.778   4.651  17.050  1.4774  2.6893  0.5396
 2078SOL     OW17695   4.722   1.182   1.349 -0.2946 -0.1477  0.0513
 2078SOL    HW117696   4.652   1.138   1.397 -1.7635  2.0206 -0.0985
 2078SOL    HW217697   0.069   1.139   1.395  0.3130 -1.0213 -1.7445
 2079SOL     OW17698   1.648   1.640   6.904  0.2493 -0.1084  0.3473
 2079SOL    HW117699   1.680   1.690   6.829 -1.4022 -1.1409 -1.0486
 2079SOL    HW217700   1.595   1.705   6.949 -0.2057  0.3325 -0.8305
 2080SOL     OW17701   3.553   3.107   3.450  0.4171 -0.0042 -0.3411
 2080SOL    HW117702   3.629   3.069   3.406 -0.2873 -0.7628 -0.8931
 2080SOL    HW217703   3.523   3.166   3.382 -1.7650 -0.0953  0.5438
 2081SOL     OW17704   2.974   0.491   2.180  0.1873  0.2038 -0.6457
 2081SOL    HW117705   3.033   0.545   2.127  0.1180  1.2597  0.3321
 2081SOL    HW217706   2.894   0.487   2.129  0.5958 -0.0430 -1.2619
 2082SOL     OW17707   3.132   2.822   0.544 -0.4970 -0.0802 -0.1633
 2082SOL    HW117708   3.185   2.797   0.468  0.5524 -2.6714  1.4114
 2082SOL    HW217709   3.097   2.906   0.516 -0.9174  0.2443  1.3515
 2083SOL     OW17710   3.821   3.779   1.708 -0.0026  0.3553  0.0596
 2083SOL    HW117711   3.746   3.831   1.679  3.6569  4.3352 -2.3039
 2083SOL    HW217712   3.793   3.692   1.680  0.0450  0.0364  1.0199
 2084SOL     OW17713   1.997   3.772  13.609  0.3443 -1.1539 -0.1003
 2084SOL    HW117714   2.036   3.846  13.655 -0.8037 -0.5377 -0.1331
 2084SOL    HW217715   1.952   3.724  13.679 -0.9959  0.0345 -0.1374
 2085SOL     OW17716   1.521   3.908   4.469  0.1456 -0.1541 -0.1914
 2085SOL    HW117717   1.470   3.973   4.518  0.1747 -0.3571  0.1104
 2085SOL    HW217718   1.472   3.826   4.480  0.4180 -0.3740 -0.6315
 2086SOL     OW17719   1.345   1.578   6.695 -0.1043 -0.0463  0.6803
 2086SOL    HW117720   1.321   1.667   6.723  0.4015  0.4746 -0.5574
 2086SOL    HW217721   1.413   1.590   6.630 -0.2460 -0.4267  0.4656
 2087SOL     OW17722   4.530   3.047   5.437 -0.3469  0.3450  0.0256
 2087SOL    HW117723   4.479   3.079   5.364 -0.0469 -0.2759 -0.4611
 2087SOL    HW217724   4.603   3.012   5.385 -0.7472  2.7136 -2.1059
 2088SOL     OW17725   2.163   2.559   5.985  0.1458 -0.0403 -0.3503
 2088SOL    HW117726   2.233   2.506   6.023  0.4766  0.7087  0.0775
 2088SOL    HW217727   2.214   2.607   5.920 -0.3833  0.3714 -0.4664
 2089SOL     OW17728   0.059   1.662   7.017  0.0011 -0.3385  0.0796
 2089SOL    HW117729   0.128   1.653   7.083  0.1122  0.9175  0.1462
 2089SOL    HW217730   4.706   1.643   7.068  2.6196 -2.1725  3.4132
 2090SOL     OW17731   4.094   2.168   6.358  0.4571  0.0359 -0.2033
 2090SOL    HW117732   4.123   2.169   6.266  1.1754  2.1184  0.0623
 2090SOL    HW217733   4.170   2.220   6.383  0.8523 -1.4337  1.6147
 2091SOL     OW17734   2.962   0.707   0.411  0.1919 -0.0326 -0.0641
 2091SOL    HW117735   3.046   0.692   0.456 -1.6828 -1.0680  3.1258
 2091SOL    HW217736   2.917   0.624   0.428 -0.0885 -0.2139 -1.7003
 2092SOL     OW17737   4.577   0.172   4.954  0.3308  0.2160 -0.1783
 2092SOL    HW117738   4.665   0.181   4.991  0.3830 -1.6553  0.1430
 2092SOL    HW217739   4.532   0.256   4.966 -1.7295 -0.9408  0.1886
 2093SOL     OW17740   3.411   3.723  10.689 -0.3636 -0.3780 -0.8528
 2093SOL    HW117741   3.463   3.802  10.695 -1.3465  0.1294  0.8088
 2093SOL    HW217742   3.325   3.764  10.685  0.1386  0.6888 -0.7318
 2094SOL     OW17743   4.430   3.300   4.114  0.3214 -0.0679  0.0147
 2094SOL    HW117744   4.525   3.289   4.104  0.6773  2.7375  0.1818
 2094SOL    HW217745   4.404   3.210   4.095  0.1559  0.1647 -0.8723
 2095SOL     OW17746   1.686   2.082   5.395 -0.2645  0.1262  0.5184
 2095SOL    HW117747   1.692   2.114   5.485  1.4573  0.0537  0.4235
 2095SOL    HW217748   1.655   2.166   5.363  1.5718  0.6874  0.2231
 2096SOL     OW17749   2.326   1.886  16.858 -0.6149 -0.8112 -0.1547
 2096SOL    HW117750   2.402   1.848  16.902 -0.0529 -0.5189 -0.8637
 2096SOL    HW217751   2.356   1.881  16.768 -4.3672 -1.5259 -1.3657
 2097SOL     OW17752   2.005   1.373   7.246  0.0271 -0.4249  0.7731
 2097SOL    HW117753   2.069   1.345   7.180 -1.5484 -0.8496 -0.6002
 2097SOL    HW217754   1.977   1.285   7.272 -0.3439 -0.7385 -0.6544
 2098SOL     OW17755   3.311   1.256   8.802  0.1566  0.2261 -0.1798
 2098SOL    HW117756   3.280   1.219   8.719 -0.4286  1.0155 -0.3179
 2098SOL    HW217757   3.376   1.191   8.829 -2.4290 -2.4311 -0.3981
 2099SOL     OW17758   0.141   2.356   1.469  0.7672  0.3662 -0.4176
 2099SOL    HW117759   0.109   2.373   1.380  0.4037  0.8067 -0.2060
 2099SOL    HW217760   0.088   2.278   1.485 -0.2236  1.3560  1.1381
 2100SOL     OW17761   4.207   4.672   5.246 -0.1772 -0.8470  0.0214
 2100SOL    HW117762   4.178   4.581   5.242 -0.2413 -0.8030 -0.5350
 2100SOL    HW217763   4.229   4.688   5.337  0.1146  1.9061 -0.5322
 2101SOL     OW17764   3.246   2.853  11.124  0.0672 -0.1042  0.0202
 2101SOL    HW117765   3.164   2.833  11.079  0.5936 -0.9978 -0.5417
 2101SOL    HW217766   3.216   2.839  11.213 -0.3581 -0.3062 -0.1584
 2102SOL     OW17767   2.421   3.542   7.396  0.1240  0.5816  0.2797
 2102SOL    HW117768   2.381   3.613   7.445  1.0057 -0.5908  2.7205
 2102SOL    HW217769   2.513   3.564   7.382  1.3978 -4.7945 -0.1534
 2103SOL     OW17770   1.840   2.786   5.631 -0.4398  0.2977  0.7836
 2103SOL    HW117771   1.762   2.840   5.619  0.4067  1.5776  1.0204
 2103SOL    HW217772   1.900   2.830   5.571  1.8920 -0.4622  2.5534
 2104SOL     OW17773   0.524   1.789   8.487  0.4119 -0.3162  0.3424
 2104SOL    HW117774   0.535   1.763   8.578 -2.4030  0.8643  1.0294
 2104SOL    HW217775   0.429   1.782   8.477  0.4461 -0.5460  0.1609
 2105SOL     OW17776   4.477   3.476   5.181 -0.1990 -0.0231  0.5184
 2105SOL    HW117777   4.452   3.383   5.179 -1.5629  0.3912 -1.3307
 2105SOL    HW217778   4.479   3.499   5.089  0.2004 -1.8441  0.0625
 2106SOL     OW17779   2.501   0.689   9.286  0.0122 -0.5250  0.7431
 2106SOL    HW117780   2.460   0.618   9.237 -2.4250  0.4066  1.4499
 2106SOL    HW217781   2.581   0.644   9.312  0.5716  0.1636  0.2162
 2107SOL     OW17782   4.675   2.097   3.297  0.2593 -0.2028 -0.2283
 2107SOL    HW117783   4.652   2.018   3.248  1.0811  0.8270 -2.2729
 2107SOL    HW217784   4.584   2.119   3.320  1.3840  1.4605  2.6524
 2108SOL     OW17785   3.789   4.668   3.626 -0.2959  0.0044  0.0392
 2108SOL    HW117786   3.817   4.609   3.557 -2.4788 -1.9920  0.8683
 2108SOL    HW217787   3.778   0.023   3.575  0.5231  0.7207  0.9695
 2109SOL     OW17788   2.565   4.321   7.729 -0.4783  0.0728  0.5367
 2109SOL    HW117789   2.607   4.407   7.734  0.4189 -0.3430  0.0802
 2109SOL    HW217790   2.571   4.286   7.818  1.0601  0.8193  0.7228
 2110SOL     OW17791   1.113   2.083   3.874  0.5041 -0.0285 -0.1976
 2110SOL    HW117792   1.044   2.078   3.807 -0.7013 -0.8130  1.0880
 2110SOL    HW217793   1.129   2.177   3.875  0.6553 -0.0508 -0.4930
 2111SOL     OW17794   1.822   3.750   7.903  0.1509 -0.7971 -0.4454
 2111SOL    HW117795   1.877   3.722   7.976  1.2498 -1.5551 -1.5706
 2111SOL    HW217796   1.740   3.774   7.946 -0.1053 -4.1427  0.8611
 2112SOL     OW17797   0.619   0.164   6.732 -0.1425 -0.3886 -0.1729
 2112SOL    HW117798   0.676   0.198   6.663 -1.6003  1.3665 -0.5257
 2112SOL    HW217799   0.634   0.070   6.743  2.5976  0.0335 -0.4328
 2113SOL     OW17800   3.034   2.371  15.022  0.1118 -0.1726  0.7932
 2113SOL    HW117801   3.098   2.308  14.988 -2.0790 -1.4637 -0.8766
 2113SOL    HW217802   3.074   2.417  15.096  0.5039  0.8175 -0.0239
 2114SOL     OW17803   3.714   2.888  15.666  0.1341 -0.3236  0.2880
 2114SOL    HW117804   3.715   2.837  15.585  0.3911  0.3550 -0.1358
 2114SOL    HW217805   3.639   2.945  15.648  1.2442  1.0598  0.1167
 2115SOL     OW17806   3.400   2.172   3.810 -0.3962 -0.2297  0.2637
 2115SOL    HW117807   3.453   2.147   3.735 -0.5651 -0.7263  0.3091
 2115SOL    HW217808   3.322   2.211   3.769  0.4092  1.5302  0.3812
 2116SOL     OW17809   1.422   3.254   5.737 -0.1521 -0.0484  0.4004
 2116SOL    HW117810   1.484   3.306   5.687 -2.4501  1.2626 -1.0581
 2116SOL    HW217811   1.344   3.302   5.712 -0.9003 -2.5352 -2.0320
 2117SOL     OW17812   2.082   1.654  17.241 -0.2889  0.0996  0.3271
 2117SOL    HW117813   2.177   1.654  17.228 -0.2016  0.5527  0.9238
 2117SOL    HW217814   2.070   1.565  17.208 -1.1960  0.5392 -0.4917
 2118SOL     OW17815   1.250   0.471  10.394  0.5612 -0.7626 -0.2473
 2118SOL    HW117816   1.172   0.447  10.344  0.1844  0.0272 -0.0317
 2118SOL    HW217817   1.229   0.482  10.486 -2.6954 -0.4170 -1.0413
 2119SOL     OW17818   4.214   0.973   7.736 -0.0704 -0.5477  0.0495
 2119SOL    HW117819   4.288   1.001   7.790  1.0659  2.1790 -2.8703
 2119SOL    HW217820   4.155   0.938   7.803 -1.4755 -0.3769 -1.0971
 2120SOL     OW17821   2.702   1.594   8.494  0.2393  0.3986  0.0413
 2120SOL    HW117822   2.754   1.647   8.434 -0.5299 -0.8859 -1.8052
 2120SOL    HW217823   2.764   1.594   8.566 -1.5767 -0.3718  1.5930
 2121SOL     OW17824   3.898   4.669   8.316 -0.3435  0.1042 -0.1310
 2121SOL    HW117825   3.811   4.664   8.357 -0.3626  0.5325 -0.1196
 2121SOL    HW217826   3.924   0.035   8.334 -0.4420  0.0626  0.2346
 2122SOL     OW17827   2.881   2.248   2.749  0.3689  0.6221 -0.1978
 2122SOL    HW117828   2.914   2.291   2.828 -0.3665  0.1804  0.3461
 2122SOL    HW217829   2.792   2.235   2.781 -0.5447  1.7117 -2.2378
 2123SOL     OW17830   1.093   2.057  15.108  0.1899  0.2269 -0.4148
 2123SOL    HW117831   1.097   2.002  15.186 -0.7775 -0.1578 -0.6289
 2123SOL    HW217832   1.063   2.136  15.151 -0.1519  0.1550 -0.5198
 2124SOL     OW17833   3.736   1.269  12.696  0.8899 -0.1251 -0.1242
 2124SOL    HW117834   3.776   1.354  12.680  1.9970 -0.8419 -1.1573
 2124SOL    HW217835   3.809   1.208  12.709 -0.2568 -1.5205 -0.1723
 2125SOL     OW17836   3.484   2.501   3.534 -0.1568  0.0454  0.3242
 2125SOL    HW117837   3.536   2.579   3.552  0.7997 -0.9373  1.8182
 2125SOL    HW217838   3.444   2.491   3.620 -0.2816  1.5083  0.4346
 2126SOL     OW17839   3.350   2.226   5.484 -0.3246 -0.5663 -0.4932
 2126SOL    HW117840   3.282   2.218   5.551 -1.7693  1.7299 -1.6891
 2126SOL    HW217841   3.400   2.299   5.520 -2.7971 -0.4077  2.6010
 2127SOL     OW17842   4.361   3.846   4.958 -0.4662  0.5223  0.2749
 2127SOL    HW117843   4.311   3.824   4.879 -0.4354  0.1846  0.3498
 2127SOL    HW217844   4.305   3.917   4.989 -2.0661 -0.6218 -0.0004
 2128SOL     OW17845   0.071   1.385   8.019  0.0414  0.0226  0.2911
 2128SOL    HW117846   0.046   1.413   8.107 -0.3146 -1.7364  0.7532
 2128SOL    HW217847   0.039   1.455   7.962 -1.9732 -1.8746 -0.9009
 2129SOL     OW17848   1.721   0.555   5.535  0.0162 -0.2468  0.8383
 2129SOL    HW117849   1.641   0.504   5.519 -0.2688  0.9471 -1.6018
 2129SOL    HW217850   1.694   0.635   5.580 -1.4712  0.3277 -1.0488
 2130SOL     OW17851   0.204   3.410   2.895  0.0572 -0.4928  0.3061
 2130SOL    HW117852   0.273   3.344   2.896 -1.1407 -1.7516  1.1389
 2130SOL    HW217853   0.141   3.375   2.832  2.6775 -0.6868 -2.1779
 2131SOL     OW17854   4.437   1.833   3.601  0.2437  0.5543  0.1255
 2131SOL    HW117855   4.489   1.812   3.523 -0.2197  0.6743 -0.2107
 2131SOL    HW217856   4.467   1.771   3.668  1.2732  1.2859  0.3526
 2132SOL     OW17857   1.991   0.847   5.031  0.1481  0.6025  0.0361
 2132SOL    HW117858   1.991   0.752   5.047  0.1217  0.8967  1.7829
 2132SOL    HW217859   2.076   0.852   4.987  0.0212  0.3599 -0.2389
 2133SOL     OW17860   4.062   2.713   2.749 -0.2804  0.1005  0.6833
 2133SOL    HW117861   3.992   2.649   2.735 -1.0926  0.9880  0.6732
 2133SOL    HW217862   4.047   2.738   2.840 -2.0721 -2.5824  1.1320
 2134SOL     OW17863   4.479   2.624   2.941  0.2225  0.4336 -0.0167
 2134SOL    HW117864   4.468   2.647   3.033  0.2756  0.3678  0.0064
 2134SOL    HW217865   4.502   2.710   2.906  1.9928 -0.5572 -1.3392
 2135SOL     OW17866   1.695   0.147  11.118 -0.2175  0.1945  0.0854
 2135SOL    HW117867   1.709   0.060  11.154 -1.1371 -0.4579 -1.1225
 2135SOL    HW217868   1.748   0.204  11.173 -0.0464  0.4698 -0.3574
 2136SOL     OW17869   4.385   0.615  16.754 -0.7292  0.1295  0.3150
 2136SOL    HW117870   4.300   0.654  16.732  0.4449  2.5706  0.1003
 2136SOL    HW217871   4.355   0.526  16.769  1.5564 -0.9521 -1.6651
 2137SOL     OW17872   3.603   1.365   6.581  0.8135 -0.0659  0.1439
 2137SOL    HW117873   3.555   1.306   6.640 -1.4598 -0.1332 -1.8161
 2137SOL    HW217874   3.606   1.450   6.624  2.5440  1.0111 -2.1757
 2138SOL     OW17875   4.692   2.019   2.987  0.5548  0.1079 -0.7118
 2138SOL    HW117876   0.004   1.935   2.961 -0.6878 -0.3327 -1.0656
 2138SOL    HW217877   4.602   1.995   3.010  1.2033 -0.9278  0.7604
 2139SOL     OW17878   2.023   1.091   6.277  0.3033 -0.1538 -0.3857
 2139SOL    HW117879   2.090   1.141   6.322  1.1162 -1.7890  0.2163
 2139SOL    HW217880   2.040   0.998   6.294 -0.4216 -0.5203 -1.6240
 2140SOL     OW17881   1.814   2.994  16.646 -0.0671  0.2207  0.9134
 2140SOL    HW117882   1.816   3.079  16.689  1.1948  1.2211 -1.1226
 2140SOL    HW217883   1.907   2.993  16.626 -0.4756 -0.0103 -1.0081
 2141SOL     OW17884   2.250   0.088   2.172  0.0914  0.2948 -0.4321
 2141SOL    HW117885   2.177   0.115   2.116 -1.6879  2.1300  2.7586
 2141SOL    HW217886   2.297   0.168   2.150 -1.9125  0.8749 -2.6078
 2142SOL     OW17887   4.639   2.012   6.047 -0.6553 -0.2236 -0.3954
 2142SOL    HW117888   4.646   1.928   6.002  0.7482 -0.7092  0.7234
 2142SOL    HW217889   4.561   2.048   6.006 -0.4255 -1.0272 -1.5618
 2143SOL     OW17890   4.271   2.778   1.393  0.3115  0.0483 -0.2933
 2143SOL    HW117891   4.284   2.738   1.479  0.5880 -0.8610 -0.7588
 2143SOL    HW217892   4.360   2.769   1.357  0.4772 -1.8130  0.5880
 2144SOL     OW17893   3.091   1.914   6.473  0.1983 -0.3292  0.2924
 2144SOL    HW117894   3.025   1.934   6.406  1.1140 -2.9030 -1.3780
 2144SOL    HW217895   3.040   1.867   6.539  0.4331 -0.2955  0.4968
 2145SOL     OW17896   2.371   1.006  15.592  0.1542 -0.3452 -0.5322
 2145SOL    HW117897   2.284   0.967  15.588 -0.5531  1.2587 -0.9552
 2145SOL    HW217898   2.427   0.938  15.630  1.2937  1.5897  1.2426
 2146SOL     OW17899   3.409   4.675  10.561  0.0542 -0.1593  0.0453
 2146SOL    HW117900   3.477   4.637  10.505 -0.5375  0.4326 -1.0750
 2146SOL    HW217901   3.360   4.596  10.585 -0.9270  0.8983  1.5064
 2147SOL     OW17902   1.622   1.426   0.828  0.0110 -0.0482 -0.2721
 2147SOL    HW117903   1.623   1.475   0.911  0.6724 -0.1890 -0.1963
 2147SOL    HW217904   1.530   1.425   0.801 -0.2597 -2.4396  0.7400
 2148SOL     OW17905   2.014   0.032   7.065  0.5649 -0.5674  0.0956
 2148SOL    HW117906   2.084   0.077   7.112 -1.2947  0.7494  1.5794
 2148SOL    HW217907   1.947   0.033   7.133 -0.2936 -0.6901 -0.7503
 2149SOL     OW17908   4.581   0.015   3.979  0.2873 -0.4146  0.4840
 2149SOL    HW117909   4.641   4.666   3.981  0.6606 -0.0987  1.0912
 2149SOL    HW217910   4.597   0.050   4.067 -0.0061 -1.2367  0.8635
 2150SOL     OW17911   0.322   4.082  12.701 -0.1332  0.2489  0.1606
 2150SOL    HW117912   0.403   4.089  12.750 -0.4384  3.2525  0.2962
 2150SOL    HW217913   0.263   4.119  12.767 -2.7454 -2.7879 -0.4633
 2151SOL     OW17914   1.064   3.653   5.113  0.0816  0.0237 -0.4503
 2151SOL    HW117915   1.143   3.669   5.061  2.3206 -4.0031  1.7019
 2151SOL    HW217916   1.073   3.558   5.127  0.3669  0.2154  0.6526
 2152SOL     OW17917   0.768   1.699   6.406 -0.3956 -0.2588 -0.2558
 2152SOL    HW117918   0.724   1.783   6.398 -1.0937 -0.9502 -3.6471
 2152SOL    HW217919   0.807   1.693   6.493 -0.9126  0.3188  0.0083
 2153SOL     OW17920   3.436   1.813  13.045 -0.0265  0.5796  0.3817
 2153SOL    HW117921   3.464   1.722  13.032  1.1047  0.8084  1.2430
 2153SOL    HW217922   3.437   1.818  13.140  1.5047  2.2600  0.2857
 2154SOL     OW17923   1.002   2.296  11.932 -0.1417 -0.1109 -0.4886
 2154SOL    HW117924   0.911   2.274  11.949 -0.1235  0.9563  0.9556
 2154SOL    HW217925   1.039   2.319  12.018  0.8391  2.8511 -1.6852
 2155SOL     OW17926   2.336   2.850   2.278 -0.7293 -0.6065 -0.4143
 2155SOL    HW117927   2.325   2.755   2.284 -0.8640 -0.5758 -0.1930
 2155SOL    HW217928   2.338   2.859   2.182  0.8424  0.5008 -0.2800
 2156SOL     OW17929   2.666   2.766   8.935  0.2834 -0.0879 -0.3982
 2156SOL    HW117930   2.718   2.806   8.865  0.0409 -1.3660 -1.3182
 2156SOL    HW217931   2.722   2.699   8.975 -2.5378 -2.0217  0.2816
 2157SOL     OW17932   1.392   4.489  10.883  0.0138 -0.3207 -0.5256
 2157SOL    HW117933   1.303   4.494  10.919  0.6929 -2.4118  1.4393
 2157SOL    HW217934   1.401   4.570  10.832  1.0713 -0.1031  0.0155
 2158SOL     OW17935   0.266   2.922  15.829 -0.5991 -0.5813 -0.3062
 2158SOL    HW117936   0.309   2.838  15.841  1.2499  0.6453  1.7616
 2158SOL    HW217937   0.191   2.904  15.885 -0.2075 -1.9618 -0.2456
 2159SOL     OW17938   4.234   3.655   6.065  0.4730 -0.1262  0.0030
 2159SOL    HW117939   4.228   3.747   6.041  0.1096 -0.2032 -0.2135
 2159SOL    HW217940   4.290   3.623   5.994 -2.3395  1.0117 -2.7419
 2160SOL     OW17941   2.985   4.394   6.049  0.2288  0.6850  0.1537
 2160SOL    HW117942   2.959   4.386   6.141  1.2571 -1.5774  0.2385
 2160SOL    HW217943   3.076   4.372   6.069 -0.0655 -1.0539 -0.4682
 2161SOL     OW17944   3.882   1.931   8.257  0.6016  0.1118  0.4197
 2161SOL    HW117945   3.958   1.885   8.294  0.1002 -1.3004 -0.2725
 2161SOL    HW217946   3.830   1.852   8.241  1.4066 -0.2822 -0.2783
 2162SOL     OW17947   1.343   1.406   8.692 -0.6216  0.5711 -0.6911
 2162SOL    HW117948   1.249   1.419   8.705 -0.0536  3.0572  0.9782
 2162SOL    HW217949   1.360   1.491   8.732 -2.4362  0.2243  0.8245
 2163SOL     OW17950   4.499   0.438   0.295 -0.6187 -0.1247 -0.2228
 2163SOL    HW117951   4.448   0.441   0.376  0.6157 -1.6879  0.6360
 2163SOL    HW217952   4.467   0.511   0.243  1.7018  0.8152 -0.3466
 2164SOL     OW17953   0.911   3.685   3.520 -0.1557 -0.4233  0.3602
 2164SOL    HW117954   0.869   3.653   3.440  0.9910 -1.5483  0.2161
 2164SOL    HW217955   0.834   3.732   3.552 -0.7857 -0.4911 -1.0743
 2165SOL     OW17956   0.163   0.425   6.718 -0.2435  0.2194 -0.0151
 2165SOL    HW117957   0.095   0.378   6.669  0.9652 -0.7205 -0.7955
 2165SOL    HW217958   0.246   0.389   6.686  0.3563  1.8949 -0.3393
 2166SOL     OW17959   3.200   0.236   2.858  0.2532  0.5809  0.0259
 2166SOL    HW117960   3.294   0.252   2.846  0.0485  1.4519 -0.4130
 2166SOL    HW217961   3.163   0.261   2.774  1.2316  1.7451 -0.0767
 2167SOL     OW17962   1.227   4.226   5.350  0.4730 -0.4609 -0.3752
 2167SOL    HW117963   1.161   4.179   5.401 -2.2082  1.5819 -1.9340
 2167SOL    HW217964   1.180   4.225   5.267  0.0469 -1.6950 -0.1141
 2168SOL     OW17965   2.120   0.903  11.713 -0.2132  0.2239 -0.5903
 2168SOL    HW117966   2.164   0.859  11.641 -0.4868  1.4516 -1.5141
 2168SOL    HW217967   2.122   0.992  11.678  1.1740 -0.5247 -2.3686
 2169SOL     OW17968   2.969   3.134   7.485  0.3056  0.4024  0.3503
 2169SOL    HW117969   2.925   3.212   7.449 -0.3716 -0.2336 -0.2144
 2169SOL    HW217970   2.980   3.082   7.405 -0.4784 -0.4076  0.7721
 2170SOL     OW17971   0.116   2.878   6.665 -0.0029 -0.2306  0.4145
 2170SOL    HW117972   0.148   2.967   6.681 -1.4338  0.1804  0.9917
 2170SOL    HW217973   0.054   2.900   6.596 -0.7917 -0.8588  0.9235
 2171SOL     OW17974   3.197   3.871   3.621  0.3818 -0.1668  0.8749
 2171SOL    HW117975   3.182   3.794   3.565  0.8337 -0.4568  1.1589
 2171SOL    HW217976   3.270   3.846   3.677  0.8004 -1.4782 -0.2466
 2172SOL     OW17977   0.384   2.259   7.897 -0.0605  0.4077  0.3318
 2172SOL    HW117978   0.312   2.216   7.852  1.7557 -1.1035 -1.1179
 2172SOL    HW217979   0.419   2.189   7.953 -0.2466  1.1031  1.3091
 2173SOL     OW17980   0.675   2.823   1.612  0.2778  0.0783 -0.1205
 2173SOL    HW117981   0.641   2.888   1.551 -1.1262 -0.6694 -0.1350
 2173SOL    HW217982   0.731   2.878   1.666  1.0777 -2.3696  1.5752
 2174SOL     OW17983   2.276   1.993  15.442  0.2496 -0.3522  0.3175
 2174SOL    HW117984   2.334   1.989  15.519 -0.5285  0.5052  0.9431
 2174SOL    HW217985   2.198   2.029  15.485  0.5771  0.6460  0.0878
 2175SOL     OW17986   0.308   4.283   8.377 -0.4580 -0.3716 -0.2967
 2175SOL    HW117987   0.293   4.265   8.470 -1.5193  0.1050 -0.3834
 2175SOL    HW217988   0.399   4.310   8.387 -0.9333  0.8602  0.6025
 2176SOL     OW17989   1.944   0.133   1.113 -0.8695 -0.7967 -0.0663
 2176SOL    HW117990   1.942   0.088   1.197 -0.0863 -0.6470  0.0363
 2176SOL    HW217991   2.007   0.082   1.061 -0.6430  0.2773 -0.8566
 2177SOL     OW17992   4.717   1.261   3.185 -0.2978  0.2655 -0.2346
 2177SOL    HW117993   4.638   1.215   3.156 -0.0259  0.2002 -0.8825
 2177SOL    HW217994   0.002   1.328   3.118  0.3405 -0.3824 -0.7914
 2178SOL     OW17995   3.601   4.438   3.978 -0.5506 -0.2573 -0.2815
 2178SOL    HW117996   3.693   4.454   4.000 -1.0736  1.4038  0.7048
 2178SOL    HW217997   3.595   4.495   3.902  0.5868 -0.2109 -0.3378
 2179SOL     OW17998   4.436   2.082   1.629 -0.1502  0.6435  0.2279
 2179SOL    HW117999   4.517   2.125   1.601  0.6514  0.5748  2.4196
 2179SOL    HW218000   4.400   2.041   1.551 -0.2798 -0.3566  0.8154
 2180SOL     OW18001   2.996   0.034  10.184 -0.1690  0.4244 -0.0636
 2180SOL    HW118002   3.019   4.673  10.220  0.9136  0.4084 -0.7790
 2180SOL    HW218003   2.916   0.052  10.232  0.9095 -0.7362  2.1683
 2181SOL     OW18004   4.647   4.358   1.576  0.3407  0.5244 -0.3522
 2181SOL    HW118005   4.597   4.287   1.615 -2.4669  3.1559  0.8712
 2181SOL    HW218006   0.006   4.348   1.622 -0.0755 -0.8383  0.1061
 2182SOL     OW18007   0.298   3.955   5.633 -0.2578 -0.0895 -0.2422
 2182SOL    HW118008   0.206   3.942   5.611  0.4412 -1.9118 -2.0266
 2182SOL    HW218009   0.319   3.884   5.693  0.9532 -0.0684 -0.6434
 2183SOL     OW18010   0.358   3.766   1.478  0.2148 -0.8325 -0.4405
 2183SOL    HW118011   0.336   3.750   1.386  0.9855 -1.2325 -0.5525
 2183SOL    HW218012   0.319   3.693   1.526 -0.5457 -0.3409 -0.3157
 2184SOL     OW18013   1.458   4.024  14.446 -0.4482 -0.3850  0.5179
 2184SOL    HW118014   1.535   4.039  14.392 -1.4893  2.8304 -0.0632
 2184SOL    HW218015   1.460   4.103  14.500 -1.1025 -0.5291  0.7553
 2185SOL     OW18016   3.159   1.069   0.553  0.4715  0.2135  0.3949
 2185SOL    HW118017   3.188   1.097   0.466  0.7417 -1.2435  0.0119
 2185SOL    HW218018   3.070   1.102   0.545  1.1481  1.6331 -1.3816
 2186SOL     OW18019   2.822   3.340   0.188  0.3066  0.4729  0.2243
 2186SOL    HW118020   2.814   3.259   0.238  1.1341  1.6639  2.2703
 2186SOL    HW218021   2.876   3.304   0.117 -0.0809 -2.0179  1.1715
 2187SOL     OW18022   1.232   1.329   7.607  0.2604  0.3322  0.1707
 2187SOL    HW118023   1.308   1.365   7.562 -0.8201  1.8466 -0.4239
 2187SOL    HW218024   1.164   1.373   7.556  1.2725  1.8454  0.1177
 2188SOL     OW18025   4.024   4.446   7.975  0.4453  0.0835  0.6853
 2188SOL    HW118026   4.046   4.422   8.066  0.6280 -3.7323 -0.3675
 2188SOL    HW218027   3.930   4.460   7.978  0.3255 -0.7360  0.7128
 2189SOL     OW18028   1.304   0.919   3.957  0.7594 -0.0617  0.1623
 2189SOL    HW118029   1.354   0.999   3.973 -0.5278  0.7046  0.3470
 2189SOL    HW218030   1.304   0.900   4.051  3.2343 -2.9224 -0.4190
 2190SOL     OW18031   2.354   4.085   3.721  0.7339  0.4819 -0.0310
 2190SOL    HW118032   2.347   4.120   3.810  1.2255 -1.0248  0.5826
 2190SOL    HW218033   2.314   3.999   3.732  0.5049  0.8113  1.7384
 2191SOL     OW18034   0.392   2.196   6.907 -0.1598  0.3673 -0.3163
 2191SOL    HW118035   0.346   2.224   6.827 -0.5051  0.6016 -0.0330
 2191SOL    HW218036   0.468   2.143   6.883  0.1065  0.3849  0.4888
 2192SOL     OW18037   3.987   1.697   9.312  0.0157  0.2194 -0.8304
 2192SOL    HW118038   3.907   1.745   9.331  0.0849 -0.5896  1.4500
 2192SOL    HW218039   3.948   1.611   9.297 -0.3837  0.2531  0.0838
 2193SOL     OW18040   3.787   4.000   2.511 -0.9064 -0.5608  0.2744
 2193SOL    HW118041   3.845   4.068   2.547  0.1579 -0.9521 -0.7106
 2193SOL    HW218042   3.710   4.055   2.523 -0.1070  0.9153 -1.3890
 2194SOL     OW18043   4.270   0.446  14.776 -0.0176  0.6663 -0.0576
 2194SOL    HW118044   4.186   0.424  14.816  1.1961 -1.5138  1.2240
 2194SOL    HW218045   4.241   0.516  14.717  0.6563  0.3434 -0.7753
 2195SOL     OW18046   0.281   2.522   4.348  0.0680  0.5882 -0.4156
 2195SOL    HW118047   0.205   2.551   4.299  0.0991  2.4315  0.6050
 2195SOL    HW218048   0.357   2.540   4.292 -1.0845  0.5405 -1.9884
 2196SOL     OW18049   1.310   2.327   5.289 -1.0470  0.0120 -0.0491
 2196SOL    HW118050   1.253   2.365   5.356 -1.4204 -0.2448 -0.2210
 2196SOL    HW218051   1.302   2.382   5.211 -0.5706  2.3775  1.5750
 2197SOL     OW18052   2.316   2.545   9.998 -0.2268 -0.5675  0.0486
 2197SOL    HW118053   2.273   2.501   9.925  0.4121 -2.0847  0.6032
 2197SOL    HW218054   2.293   2.491  10.073 -0.6209  1.3295  1.3070
 2198SOL     OW18055   3.369   0.421  15.303  0.1075 -0.4235  0.5800
 2198SOL    HW118056   3.354   0.491  15.367 -1.9202 -3.1559  3.0718
 2198SOL    HW218057   3.368   0.477  15.226  1.2285  0.5126  1.2481
 2199SOL     OW18058   3.928   2.425   9.629 -0.5432  0.4565  0.5589
 2199SOL    HW118059   4.023   2.434   9.625 -0.5738  0.5705  0.0182
 2199SOL    HW218060   3.920   2.349   9.687 -1.6833  0.3347  0.2552
 2200SOL     OW18061   3.647   1.481  13.297  0.6122  0.0052 -0.0357
 2200SOL    HW118062   3.552   1.493  13.303  0.3933 -1.8019  0.1467
 2200SOL    HW218063   3.666   1.531  13.218  0.3753 -0.2425 -0.2505
 2201SOL     OW18064   2.200   1.959  15.171  0.5124  0.0252  0.0706
 2201SOL    HW118065   2.254   1.979  15.248  1.5358 -1.1800 -0.3314
 2201SOL    HW218066   2.131   2.025  15.171  1.4522  1.0218  0.5130
 2202SOL     OW18067   4.562   4.703  11.380 -0.2203 -0.0323  0.4763
 2202SOL    HW118068   4.535   4.622  11.338  0.4872  1.1309 -2.2236
 2202SOL    HW218069   4.634   0.002  11.322  0.2128 -0.0790  0.9921
 2203SOL     OW18070   2.731   2.288   4.410  0.1345  0.1460 -0.2570
 2203SOL    HW118071   2.692   2.376   4.411  1.2758  0.6328  0.4661
 2203SOL    HW218072   2.668   2.233   4.456  0.1981  0.8160  0.6289
 2204SOL     OW18073   2.137   3.077   0.200 -0.1584 -0.2654  0.2366
 2204SOL    HW118074   2.228   3.062   0.228  0.5520 -0.1177 -2.0402
 2204SOL    HW218075   2.148   3.084   0.106  1.2458  0.4083  0.4446
 2205SOL     OW18076   4.420   0.673   6.177  0.1811  0.3551 -0.1399
 2205SOL    HW118077   4.487   0.626   6.228 -0.4561  0.4016  0.7416
 2205SOL    HW218078   4.434   0.763   6.206  1.3156  0.0539  0.2684
 2206SOL     OW18079   2.168   0.341  10.357 -0.0571  0.0840 -0.5368
 2206SOL    HW118080   2.186   0.434  10.343  1.7856 -0.4102 -1.4371
 2206SOL    HW218081   2.079   0.350  10.390  0.6356 -2.0903  1.9476
 2207SOL     OW18082   0.273   3.185  14.513 -0.6986 -0.2685  0.6337
 2207SOL    HW118083   0.333   3.124  14.556 -0.0076  0.4337  0.6802
 2207SOL    HW218084   0.205   3.188  14.580 -2.2643  0.7794 -1.0072
 2208SOL     OW18085   3.141   1.651   9.401 -0.2395 -0.2054 -0.5000
 2208SOL    HW118086   3.188   1.675   9.481  0.7873  0.6692 -1.3763
 2208SOL    HW218087   3.213   1.630   9.343  0.2221 -0.2591  0.0928
 2209SOL     OW18088   3.156   2.106   6.089  0.2447 -0.5614 -0.1394
 2209SOL    HW118089   3.202   2.062   6.161  1.4881 -0.8700 -1.1230
 2209SOL    HW218090   3.216   2.089   6.017 -1.4900  0.5411 -1.8297
 2210SOL     OW18091   0.668   1.391   3.846  0.1320 -1.1759 -0.2108
 2210SOL    HW118092   0.613   1.313   3.838 -0.7451 -0.6066  0.4036
 2210SOL    HW218093   0.640   1.420   3.933 -2.9863 -3.3115 -0.5103
 2211SOL     OW18094   0.751   1.098   9.861 -0.0235  0.7238  0.2971
 2211SOL    HW118095   0.815   1.155   9.818 -0.8136  1.7708  0.5112
 2211SOL    HW218096   0.675   1.152   9.883 -0.9239 -1.1923  1.8720
 2212SOL     OW18097   1.062   0.954   3.452  0.1639 -0.3473 -0.0355
 2212SOL    HW118098   1.072   0.951   3.547  0.2007 -1.1053 -0.0628
 2212SOL    HW218099   1.074   0.862   3.427  0.4838 -0.7217  1.4908
 2213SOL     OW18100   0.936   1.185  10.263 -0.0699 -0.4842  0.1919
 2213SOL    HW118101   0.965   1.176  10.354 -1.8634  1.1709  0.9377
 2213SOL    HW218102   0.859   1.128  10.264 -0.0682 -0.4713  0.7911
 2214SOL     OW18103   3.072   2.575  12.121 -0.3414 -0.1596 -0.1649
 2214SOL    HW118104   3.146   2.516  12.134 -1.8099 -1.6181  1.5760
 2214SOL    HW218105   3.008   2.557  12.190 -2.2839  2.8189 -1.1555
 2215SOL     OW18106   1.380   2.168   3.591 -0.5015 -0.1679 -0.1682
 2215SOL    HW118107   1.375   2.101   3.659 -0.6545 -0.1499 -0.1618
 2215SOL    HW218108   1.296   2.150   3.548 -0.0961 -0.5235 -0.8084
 2216SOL     OW18109   3.942   4.300   8.467 -0.1460 -0.0845 -0.4743
 2216SOL    HW118110   3.939   4.391   8.438 -1.9648  0.2979  0.8747
 2216SOL    HW218111   3.870   4.261   8.419  0.1291 -1.5846  0.3376
 2217SOL     OW18112   0.154   2.626   2.468 -0.0859 -0.3840  0.0033
 2217SOL    HW118113   0.079   2.577   2.432 -1.5581  0.9409  1.2417
 2217SOL    HW218114   0.106   2.640   2.550 -0.8606  1.3457 -0.7608
 2218SOL     OW18115   1.949   2.339   5.647 -0.8528 -0.0050  0.1712
 2218SOL    HW118116   1.890   2.267   5.672  0.1559 -0.5058  1.0965
 2218SOL    HW218117   1.915   2.359   5.560  1.7571  1.7064 -0.4379
 2219SOL     OW18118   3.749   2.846   7.538  0.8150 -0.1158 -0.1866
 2219SOL    HW118119   3.704   2.879   7.616 -0.7182  0.9804 -1.5191
 2219SOL    HW218120   3.672   2.804   7.500  0.2031  1.4678 -0.7211
 2220SOL     OW18121   2.515   4.654   8.392 -0.4351 -0.6881  0.4619
 2220SOL    HW118122   2.467   4.683   8.470 -0.3909 -0.8758  0.5588
 2220SOL    HW218123   2.603   4.640   8.426 -0.5187 -1.0307  0.5342
 2221SOL     OW18124   2.600   0.300   0.385 -0.2818  0.2499  0.0969
 2221SOL    HW118125   2.607   0.325   0.292 -1.2065 -1.3419 -0.4094
 2221SOL    HW218126   2.690   0.269   0.389  0.9354  3.6938 -0.8820
 2222SOL     OW18127   2.434   2.431   1.593 -0.2883  0.6704  0.7092
 2222SOL    HW118128   2.386   2.363   1.545 -0.2969  0.1338  1.4718
 2222SOL    HW218129   2.387   2.508   1.562 -1.9098 -0.7905 -0.4913
 2223SOL     OW18130   2.527   0.565   8.050  0.4110 -0.0500 -0.2366
 2223SOL    HW118131   2.531   0.661   8.049  3.7071 -0.1742 -0.5375
 2223SOL    HW218132   2.619   0.538   8.057  0.4571 -0.5651 -2.6750
 2224SOL     OW18133   0.545   3.064  16.055  0.1345 -0.0236 -0.1608
 2224SOL    HW118134   0.510   2.983  16.091 -0.1202  0.0084 -0.3372
 2224SOL    HW218135   0.603   3.036  15.984 -0.3837  0.7301 -0.8878
 2225SOL     OW18136   0.439   2.379   8.474 -0.4267  1.1858  0.4773
 2225SOL    HW118137   0.401   2.432   8.545 -0.3662  0.0166  1.3707
 2225SOL    HW218138   0.409   2.290   8.492 -0.9425  0.8795 -1.8549
 2226SOL     OW18139   0.760   3.566   7.032 -0.0934  0.3563 -0.0489
 2226SOL    HW118140   0.809   3.648   7.035 -0.8191  0.9450 -4.3891
 2226SOL    HW218141   0.798   3.516   6.960  2.7289  1.4743  0.6450
 2227SOL     OW18142   4.473   3.563  11.948  0.3972 -0.5464  0.2737
 2227SOL    HW118143   4.530   3.595  11.877  0.5244 -0.1160  0.5664
 2227SOL    HW218144   4.438   3.649  11.973 -0.0702 -1.1317  1.6021
 2228SOL     OW18145   4.249   0.179   8.981  0.8543  0.2845  0.5041
 2228SOL    HW118146   4.302   0.099   8.992  0.2900 -0.1000  0.4436
 2228SOL    HW218147   4.268   0.226   9.062  0.2327 -0.6042  1.1740
 2229SOL     OW18148   2.024   1.996  10.259  0.3595 -0.1359  0.0294
 2229SOL    HW118149   1.978   1.969  10.338 -0.8910  0.5346 -0.4670
 2229SOL    HW218150   1.941   2.004  10.212 -0.8034 -2.3385  1.7227
 2230SOL     OW18151   1.831   2.526   2.568 -0.3103 -0.5708  0.3474
 2230SOL    HW118152   1.805   2.601   2.515  0.1862  0.7016  1.9122
 2230SOL    HW218153   1.920   2.554   2.588 -0.4752  1.0674 -1.2574
 2231SOL     OW18154   3.922   3.360   6.284 -0.9480  0.0781 -0.4228
 2231SOL    HW118155   3.891   3.310   6.209  0.7419 -0.4000 -0.8119
 2231SOL    HW218156   3.901   3.450   6.261 -1.7654 -0.5928 -2.2723
 2232SOL     OW18157   2.945   3.559   5.584  0.5177 -0.0545 -0.1808
 2232SOL    HW118158   2.980   3.500   5.650  0.5477 -0.3679 -0.4768
 2232SOL    HW218159   2.917   3.633   5.639  3.7200 -0.6000  2.1616
 2233SOL     OW18160   4.373   3.424   1.697  0.4828 -0.7024  0.3323
 2233SOL    HW118161   4.383   3.330   1.678  2.8349 -0.6438  1.2273
 2233SOL    HW218162   4.431   3.455   1.628 -1.8092  0.9007 -0.8419
 2234SOL     OW18163   1.245   1.104   6.413 -0.0850 -0.4148 -0.1239
 2234SOL    HW118164   1.337   1.085   6.428 -0.1098  1.2781  2.1590
 2234SOL    HW218165   1.208   1.078   6.498 -0.8126  1.8820  0.2704
 2235SOL     OW18166   2.939   4.284   7.031 -0.4784 -0.0944  0.4153
 2235SOL    HW118167   2.877   4.268   7.103  1.6877 -1.4223  1.9781
 2235SOL    HW218168   2.906   4.366   6.995  0.6175 -0.0929 -0.5738
 2236SOL     OW18169   0.244   2.089   3.647  0.8002  0.1799 -0.1322
 2236SOL    HW118170   0.339   2.080   3.662  1.2156  1.8432 -1.6883
 2236SOL    HW218171   0.223   2.181   3.638  0.4826 -0.0177 -1.4728
 2237SOL     OW18172   3.899   4.695   3.115  0.4643  0.1828 -0.0667
 2237SOL    HW118173   3.993   4.677   3.117  0.1983 -1.0002  2.3512
 2237SOL    HW218174   3.874   4.639   3.042  0.5689 -0.3356  0.2946
 2238SOL     OW18175   1.523   4.376   5.634  0.3547  0.1565  0.4856
 2238SOL    HW118176   1.597   4.436   5.631  1.6076 -1.2923  2.0240
 2238SOL    HW218177   1.558   4.330   5.711 -0.1669 -1.1023 -0.0315
 2239SOL     OW18178   4.603   3.846  11.123 -0.1258 -0.3173  0.4381
 2239SOL    HW118179   4.687   3.863  11.080 -0.3437  0.0725  0.1649
 2239SOL    HW218180   4.566   3.934  11.112 -1.2545 -0.6931  1.2387
 2240SOL     OW18181   0.855   2.210  10.801 -0.0361  0.0329 -0.1115
 2240SOL    HW118182   0.847   2.198  10.707  3.8479  0.0805 -0.4654
 2240SOL    HW218183   0.816   2.297  10.803 -0.3353 -0.1187  0.5027
 2241SOL     OW18184   2.925   0.881   6.811  0.6980 -0.3760 -0.3719
 2241SOL    HW118185   2.834   0.910   6.816  0.4543 -1.5243  1.4493
 2241SOL    HW218186   2.932   0.841   6.897 -0.1884 -1.4354 -0.8038
 2242SOL     OW18187   0.918   4.103   6.709 -0.6814  0.5412  0.1935
 2242SOL    HW118188   0.913   4.158   6.631 -0.0315 -1.7292 -1.4682
 2242SOL    HW218189   0.962   4.161   6.771 -0.4748  1.2534 -0.6146
 2243SOL     OW18190   1.820   0.946   8.501  0.2770 -0.4068  0.5925
 2243SOL    HW118191   1.905   0.948   8.545 -0.4697  3.4885  1.8848
 2243SOL    HW218192   1.759   0.955   8.574 -2.2708  0.9868 -1.7165
 2244SOL     OW18193   2.268   1.918   6.353  0.4991 -0.5773 -0.2058
 2244SOL    HW118194   2.336   1.945   6.415  1.3503 -1.7610 -0.6188
 2244SOL    HW218195   2.245   1.999   6.308 -0.9498 -0.0372  1.4591
 2245SOL     OW18196   3.663   1.977   2.089 -0.0582 -0.1735 -0.1050
 2245SOL    HW118197   3.752   2.010   2.074 -1.7189  3.7438 -1.2867
 2245SOL    HW218198   3.673   1.899   2.035 -0.3456 -1.3607  1.5503
 2246SOL     OW18199   2.829   2.796   2.774 -0.2511 -0.2299  0.0663
 2246SOL    HW118200   2.815   2.735   2.701  0.2014  0.3538 -0.5085
 2246SOL    HW218201   2.855   2.736   2.844 -1.8904  1.5280  2.1864
 2247SOL     OW18202   1.346   1.413   3.165  0.4972  0.2477 -0.0831
 2247SOL    HW118203   1.403   1.339   3.143  1.2612  0.3153  1.6744
 2247SOL    HW218204   1.272   1.366   3.204 -0.8058  1.3377 -1.2673
 2248SOL     OW18205   2.723   2.796   2.353  0.0964  0.3202  0.2277
 2248SOL    HW118206   2.674   2.828   2.277  2.2998 -0.5183 -1.5867
 2248SOL    HW218207   2.675   2.836   2.425 -0.9765  0.7234 -0.7198
 2249SOL     OW18208   4.533   1.878  11.665  0.2204 -0.5304  0.0901
 2249SOL    HW118209   4.628   1.888  11.673 -0.0135  1.4667  0.2646
 2249SOL    HW218210   4.521   1.811  11.598  1.6769 -2.0705  1.3600
 2250SOL     OW18211   0.322   0.250   3.687  0.2642 -0.5131  0.0946
 2250SOL    HW118212   0.398   0.195   3.671 -0.7603 -1.9138  0.0277
 2250SOL    HW218213   0.338   0.309   3.614 -2.0737 -0.3243 -0.2869
 2251SOL     OW18214   2.975   0.176   5.211 -0.5207  0.2931  0.2989
 2251SOL    HW118215   3.053   0.187   5.267 -2.1691  1.4090  2.3620
 2251SOL    HW218216   2.944   0.263   5.187 -0.1164  0.2631 -0.3253
 2252SOL     OW18217   2.170   2.129   6.955  0.4818  0.4097 -0.2328
 2252SOL    HW118218   2.215   2.209   6.926  2.3140 -1.4756 -2.4997
 2252SOL    HW218219   2.082   2.164   6.939  1.0138  1.5077 -0.8145
 2253SOL     OW18220   3.300   3.275   7.440 -0.8864  0.3045  0.1481
 2253SOL    HW118221   3.322   3.185   7.416 -1.2870  0.1581  0.3140
 2253SOL    HW218222   3.237   3.267   7.512 -1.3013  0.7310 -0.1679
 2254SOL     OW18223   0.083   4.221   4.031 -0.1080 -0.4214 -0.3600
 2254SOL    HW118224   0.048   4.146   4.080 -0.5466  0.6254  0.9176
 2254SOL    HW218225   0.176   4.220   4.050  0.1038  0.5151 -1.3608
 2255SOL     OW18226   3.545   2.445  15.537  0.4462  0.6445 -0.2266
 2255SOL    HW118227   3.450   2.439  15.538  0.5208 -0.5421 -0.7623
 2255SOL    HW218228   3.552   2.540  15.521  0.3553  0.9748  1.6925
 2256SOL     OW18229   1.108   0.603   4.889  0.0203  0.1058  0.5799
 2256SOL    HW118230   1.074   0.513   4.885 -1.8736  0.8108  1.0496
 2256SOL    HW218231   1.102   0.628   4.797 -0.9753  0.6896  0.8116
 2257SOL     OW18232   4.481   2.638   4.299  0.1839 -0.1759  0.3441
 2257SOL    HW118233   4.524   2.556   4.276  0.6401  0.4283 -0.9643
 2257SOL    HW218234   4.547   2.662   4.364  1.0383 -1.8160  0.0873
 2258SOL     OW18235   2.441   1.005   0.652 -0.2007 -0.4539  0.2857
 2258SOL    HW118236   2.459   0.936   0.588  0.6753  0.2835 -0.2646
 2258SOL    HW218237   2.532   1.032   0.668  0.3054 -0.7686 -1.9402
 2259SOL     OW18238   4.289   0.094   3.733 -0.5606  0.5098  0.2418
 2259SOL    HW118239   4.266   0.168   3.677 -0.3589  0.5607  0.2254
 2259SOL    HW218240   4.337   0.140   3.802 -0.9632  0.6746  0.4161
 2260SOL     OW18241   0.918   1.092   2.464  0.1687  0.5330 -0.5439
 2260SOL    HW118242   0.940   1.005   2.499  0.6972  0.6051 -0.6946
 2260SOL    HW218243   0.827   1.096   2.491  0.0836  0.0080 -0.7462
 2261SOL     OW18244   4.049   3.832   1.575  0.5150  0.1998 -0.1642
 2261SOL    HW118245   4.108   3.772   1.620  0.0003 -2.2419 -2.7533
 2261SOL    HW218246   3.965   3.801   1.611  0.5505  0.5475  0.2128
 2262SOL     OW18247   1.529   3.305   0.322 -0.3012 -0.2983  0.7053
 2262SOL    HW118248   1.485   3.355   0.253 -1.0187 -1.6557  0.1886
 2262SOL    HW218249   1.478   3.321   0.401 -1.3591 -0.0896 -0.0191
 2263SOL     OW18250   2.897   2.351  11.586 -0.2158  0.3885  0.8741
 2263SOL    HW118251   2.871   2.438  11.616 -0.5768  0.9526 -1.0855
 2263SOL    HW218252   2.838   2.298  11.638  1.2361 -1.0520  1.0490
 2264SOL     OW18253   3.531   3.582  17.404  0.2859 -0.2403 -0.6535
 2264SOL    HW118254   3.542   3.677  17.414 -6.3458  0.6079 -0.9951
 2264SOL    HW218255   3.444   3.587  17.363  0.2602  0.9980 -0.4577
 2265SOL     OW18256   3.981   2.925   4.328  0.1563  0.2766 -0.0141
 2265SOL    HW118257   4.038   2.998   4.351  2.4710 -1.0842 -1.5558
 2265SOL    HW218258   3.940   2.963   4.250 -1.0895  1.1466  1.0447
 2266SOL     OW18259   3.858   1.073   7.277  0.1459  0.4776  0.4266
 2266SOL    HW118260   3.779   1.126   7.264  0.1809  0.1685 -0.9914
 2266SOL    HW218261   3.817   0.997   7.318 -0.9854  0.8938  0.0825
 2267SOL     OW18262   3.480   2.790  10.183 -0.5648 -0.8929  0.1431
 2267SOL    HW118263   3.527   2.744  10.114 -1.5606 -0.2577 -0.9447
 2267SOL    HW218264   3.449   2.712  10.228 -1.3403 -0.4488  0.3916
 2268SOL     OW18265   3.031   0.611   0.880  0.1082 -0.0469 -0.0348
 2268SOL    HW118266   2.999   0.658   0.957 -0.3184  1.0635 -0.8943
 2268SOL    HW218267   3.037   0.688   0.823 -1.0571 -0.0469 -0.1570
 2269SOL     OW18268   2.643   2.797   3.907 -0.2805  0.0899  0.0814
 2269SOL    HW118269   2.598   2.729   3.856  0.4531 -0.3791  0.0627
 2269SOL    HW218270   2.672   2.745   3.982  1.7187 -0.1750 -0.8895
 2270SOL     OW18271   4.227   2.986  14.036 -0.5764 -0.0361  0.5464
 2270SOL    HW118272   4.154   3.025  14.083 -0.7061 -0.0670  0.3713
 2270SOL    HW218273   4.189   2.945  13.958 -2.1720  2.1198  0.1956
 2271SOL     OW18274   2.561   4.206   0.111  0.1224 -0.7344  0.3781
 2271SOL    HW118275   2.552   4.146   0.185 -0.3046  0.0652  0.9798
 2271SOL    HW218276   2.497   4.274   0.134 -0.7996 -1.6776  0.6258
 2272SOL     OW18277   2.785   3.583  13.674 -0.8078  0.4761  0.2705
 2272SOL    HW118278   2.713   3.532  13.637 -0.9249  0.0383  1.0969
 2272SOL    HW218279   2.788   3.653  13.609 -1.8452 -0.5993 -0.9247
 2273SOL     OW18280   3.259   2.625   2.837 -0.1825 -1.0704  1.0276
 2273SOL    HW118281   3.302   2.605   2.920  3.5482  4.0892  0.3226
 2273SOL    HW218282   3.333   2.606   2.779 -1.4903  1.1934 -1.3699
 2274SOL     OW18283   3.859   3.786   9.636 -0.0234  0.4639  0.4912
 2274SOL    HW118284   3.828   3.754   9.721  0.0747  0.0880  0.3866
 2274SOL    HW218285   3.793   3.757   9.573  0.4090  0.8508 -0.1412
 2275SOL     OW18286   1.051   0.428   3.085 -0.3026  0.4932  0.4958
 2275SOL    HW118287   1.104   0.498   3.047 -0.0211 -0.3568 -0.6588
 2275SOL    HW218288   1.078   0.363   3.021 -1.3889 -0.6785  1.2304
 2276SOL     OW18289   2.199   0.627   3.288 -0.0210 -0.1097 -0.0166
 2276SOL    HW118290   2.281   0.656   3.328  0.2399 -2.4182  1.0908
 2276SOL    HW218291   2.200   0.686   3.213 -0.4108  0.9276  0.7932
 2277SOL     OW18292   2.199   1.598   3.624 -0.3386  0.0203  0.7046
 2277SOL    HW118293   2.281   1.577   3.670  0.0495 -0.0511 -0.0290
 2277SOL    HW218294   2.186   1.685   3.663 -0.6674 -0.9268  2.7554
 2278SOL     OW18295   4.349   3.167   8.116 -0.1998 -0.2323 -0.0254
 2278SOL    HW118296   4.358   3.214   8.034  1.4241  1.2442  0.9992
 2278SOL    HW218297   4.319   3.236   8.175 -0.8405 -1.7453  1.4401
 2279SOL     OW18298   4.599   0.719  16.874 -0.7789 -0.0811  0.1160
 2279SOL    HW118299   4.518   0.682  16.837 -0.9137  0.9699 -0.6360
 2279SOL    HW218300   4.594   0.813  16.858 -0.0244  0.2776  1.9297
 2280SOL     OW18301   2.998   0.845   4.802 -0.3047  0.6323 -0.1922
 2280SOL    HW118302   2.994   0.923   4.858 -0.2327  2.0947 -2.2079
 2280SOL    HW218303   2.951   0.776   4.847 -0.0315  0.0910 -0.7375
 2281SOL     OW18304   2.290   4.288   2.620 -0.3304  0.1192  0.3220
 2281SOL    HW118305   2.381   4.265   2.638  0.0819  1.5206  0.0188
 2281SOL    HW218306   2.251   4.201   2.625  0.8743 -0.5079 -1.3798
 2282SOL     OW18307   2.891   0.768  16.194 -0.7766  0.3331 -0.0371
 2282SOL    HW118308   2.977   0.734  16.221  0.2552  1.5942 -1.7217
 2282SOL    HW218309   2.872   0.826  16.268  1.0936  0.1605  0.5785
 2283SOL     OW18310   3.495   3.183   3.190 -0.6656 -0.1251 -0.4595
 2283SOL    HW118311   3.418   3.146   3.146  0.3915 -2.1641 -0.5666
 2283SOL    HW218312   3.565   3.175   3.126 -0.8902  0.8452 -0.8274
 2284SOL     OW18313   3.263   2.660   9.092  0.2267  0.3116  0.6366
 2284SOL    HW118314   3.235   2.572   9.067 -1.3076  0.9351  0.2136
 2284SOL    HW218315   3.354   2.663   9.063  1.1498 -0.7844  3.4047
 2285SOL     OW18316   0.369   4.561   5.337  0.0317  0.4433  0.5001
 2285SOL    HW118317   0.380   4.653   5.361  0.6458  0.8477 -1.2677
 2285SOL    HW218318   0.379   4.566   5.241  1.7401  3.3988  0.8302
 2286SOL     OW18319   3.411   4.051  15.093 -0.2980 -0.1062  0.5445
 2286SOL    HW118320   3.444   3.962  15.080 -1.8841 -0.5889 -0.1585
 2286SOL    HW218321   3.474   4.072  15.162 -0.4449 -1.2010  1.0152
 2287SOL     OW18322   4.302   1.986  10.347  0.3263  0.4140  0.3228
 2287SOL    HW118323   4.311   1.943  10.261  2.2529  0.7132  0.3714
 2287SOL    HW218324   4.352   1.930  10.406  0.7131  0.5116  0.0915
 2288SOL     OW18325   0.690   2.063   8.496  0.3054  0.3360  0.4294
 2288SOL    HW118326   0.700   2.095   8.586 -0.0472  2.0734 -0.1514
 2288SOL    HW218327   0.768   2.007   8.496  0.5997  0.7590  2.1879
 2289SOL     OW18328   2.699   3.357   0.725 -0.1289  0.6031 -0.5701
 2289SOL    HW118329   2.795   3.359   0.716  0.0476  0.6690  1.1921
 2289SOL    HW218330   2.682   3.267   0.754 -0.5839  0.9562  0.2564
 2290SOL     OW18331   2.851   4.097   8.355 -0.0675 -0.0567 -0.1814
 2290SOL    HW118332   2.943   4.102   8.381 -0.4045 -0.8310  1.1969
 2290SOL    HW218333   2.818   4.038   8.423  2.1427  0.8635  1.6646
 2291SOL     OW18334   3.328   3.986   2.174 -0.0886 -0.5559  0.3822
 2291SOL    HW118335   3.275   4.043   2.228  1.9851  0.0146  1.8303
 2291SOL    HW218336   3.406   3.975   2.229  1.3788  2.7310 -1.0427
 2292SOL     OW18337   2.158   0.065  14.137  0.2203  0.1966 -0.2840
 2292SOL    HW118338   2.106   0.071  14.216 -1.3776  1.5988 -1.4334
 2292SOL    HW218339   2.122   4.710  14.100 -0.5393  0.3176  0.1928
 2293SOL     OW18340   1.558   2.518   6.183  0.0385 -0.2031 -0.4039
 2293SOL    HW118341   1.553   2.571   6.104 -0.3470  0.0137 -0.2320
 2293SOL    HW218342   1.654   2.516   6.191 -0.1549 -0.0436  1.8757
 2294SOL     OW18343   3.297   3.736   0.708 -0.6729  0.7643  0.4777
 2294SOL    HW118344   3.312   3.661   0.766  0.7764  0.2176 -0.6146
 2294SOL    HW218345   3.383   3.768   0.681  0.2640 -2.0638  0.0972
 2295SOL     OW18346   1.507   3.658   3.148  0.1792  0.5149 -0.0391
 2295SOL    HW118347   1.493   3.660   3.242 -0.7645 -0.0953 -0.1671
 2295SOL    HW218348   1.552   3.741   3.134 -0.5395  1.4992  3.5087
 2296SOL     OW18349   3.000   0.147   3.026 -0.4852 -0.1605  0.2846
 2296SOL    HW118350   3.083   0.176   2.987 -1.1549 -0.0262 -1.0321
 2296SOL    HW218351   2.941   0.156   2.951  0.9085 -0.2412 -0.8229
 2297SOL     OW18352   0.411   2.706  15.866 -0.0699 -0.7727  0.1035
 2297SOL    HW118353   0.507   2.699  15.868 -0.0093  0.2602  0.7369
 2297SOL    HW218354   0.394   2.612  15.857 -0.0255 -0.7613 -0.0837
 2298SOL     OW18355   2.636   3.216   8.992  0.6634 -0.1997 -0.4848
 2298SOL    HW118356   2.575   3.282   9.024  0.5477 -0.2150 -0.6714
 2298SOL    HW218357   2.671   3.179   9.073  0.1724 -1.7651 -0.9919
 2299SOL     OW18358   3.281   3.555  15.264 -0.0385 -0.5104 -0.0944
 2299SOL    HW118359   3.371   3.566  15.295 -0.8311 -0.7714  2.3057
 2299SOL    HW218360   3.238   3.633  15.298 -0.9876 -1.3613  0.6687
 2300SOL     OW18361   3.210   3.198  13.718  0.1114 -0.1926 -0.3806
 2300SOL    HW118362   3.171   3.224  13.801  1.3536 -0.2999  0.2350
 2300SOL    HW218363   3.246   3.283  13.691  1.0475 -0.7999 -1.0405
 2301SOL     OW18364   3.685   0.099  16.386 -0.0095  0.4937  0.0659
 2301SOL    HW118365   3.597   0.128  16.363 -0.8701 -2.4374 -0.3078
 2301SOL    HW218366   3.749   0.158  16.345 -1.1552  0.6653 -1.4744
 2302SOL     OW18367   0.266   2.326   2.417 -0.0735 -0.2355 -0.0611
 2302SOL    HW118368   0.268   2.261   2.347 -1.0358 -0.1419 -0.1705
 2302SOL    HW218369   0.176   2.358   2.417  0.4669  1.3204 -1.5669
 2303SOL     OW18370   2.152   3.072   4.961  0.0817  0.6263  0.5997
 2303SOL    HW118371   2.245   3.094   4.965  0.5674 -1.1029 -1.0370
 2303SOL    HW218372   2.155   2.987   5.005  1.4296  0.4366  0.1412
 2304SOL     OW18373   4.393   4.679   9.032  0.6146  0.2165 -0.2260
 2304SOL    HW118374   4.464   4.670   9.095 -0.5557 -0.4842  0.9929
 2304SOL    HW218375   4.338   4.609   9.067  0.5920  0.6506  0.6239
 2305SOL     OW18376   3.892   4.211   9.587 -0.9181 -0.3647 -0.3417
 2305SOL    HW118377   3.864   4.285   9.533 -0.9539  0.4392  0.7832
 2305SOL    HW218378   3.880   4.131   9.535  1.0223  0.4518 -2.0469
 2306SOL     OW18379   3.727   1.144  10.285 -0.1226 -0.0702 -0.2717
 2306SOL    HW118380   3.744   1.178  10.372 -1.7579 -0.1859  0.0938
 2306SOL    HW218381   3.812   1.102  10.272 -0.5151 -0.7187 -0.7615
 2307SOL     OW18382   2.780   1.407   6.356 -0.0460  0.0945  0.3291
 2307SOL    HW118383   2.831   1.476   6.315  0.8343  0.4610  2.0155
 2307SOL    HW218384   2.761   1.358   6.276  1.2481  1.5136 -0.8308
 2308SOL     OW18385   2.721   1.023  16.827 -0.4205 -0.3090 -0.2228
 2308SOL    HW118386   2.754   1.072  16.903 -1.4643  1.7450 -1.0805
 2308SOL    HW218387   2.804   0.981  16.804 -0.1577 -0.1084  0.3509
 2309SOL     OW18388   2.220   0.613  17.324 -0.1139 -0.2513  0.5183
 2309SOL    HW118389   2.262   0.698  17.336  0.5947 -0.6144  0.6264
 2309SOL    HW218390   2.129   0.642  17.315 -0.1856 -0.9035 -0.8765
 2310SOL     OW18391   4.418   2.444   7.995 -0.2563 -0.4668 -0.0733
 2310SOL    HW118392   4.336   2.400   8.020 -0.7471  0.8069  0.5614
 2310SOL    HW218393   4.469   2.382   8.048  1.5874 -0.3502 -1.7027
 2311SOL     OW18394   3.593   0.884   4.860  0.9258 -0.4348  0.0304
 2311SOL    HW118395   3.572   0.977   4.872  1.4291 -0.3693  0.4013
 2311SOL    HW218396   3.517   0.855   4.811  1.1899 -0.7563 -0.1926
 2312SOL     OW18397   1.991   2.229   7.197  0.0486 -0.3773 -0.5956
 2312SOL    HW118398   1.956   2.250   7.283  1.7003 -1.2349  0.2899
 2312SOL    HW218399   2.076   2.186   7.209  0.5108  1.6541  3.3062
 2313SOL     OW18400   4.712   0.304   6.330  0.4751 -0.3754 -0.0227
 2313SOL    HW118401   0.022   0.221   6.296 -1.4721 -1.2679  0.1611
 2313SOL    HW218402   0.009   0.352   6.250  0.3940 -0.2346  0.0408
 2314SOL     OW18403   0.236   1.017   3.261  0.5200 -0.1914 -0.5507
 2314SOL    HW118404   0.157   1.063   3.291  0.2736 -1.4719  0.7208
 2314SOL    HW218405   0.269   1.090   3.208  0.0284  0.9288  0.6893
 2315SOL     OW18406   1.871   3.453   1.541 -0.1233  0.5475 -0.4796
 2315SOL    HW118407   1.794   3.396   1.546  1.8417 -2.0785 -0.2737
 2315SOL    HW218408   1.853   3.521   1.606  0.3927  0.5935 -0.3807
 2316SOL     OW18409   4.640   1.434   8.537 -0.6717  0.2656  0.6621
 2316SOL    HW118410   4.698   1.435   8.613  3.2056 -0.4774 -2.2878
 2316SOL    HW218411   4.598   1.520   8.545  1.4004  1.4638 -1.3418
 2317SOL     OW18412   1.714   1.849   4.999  0.2167 -0.2359 -0.1150
 2317SOL    HW118413   1.651   1.921   4.990  0.3982 -0.1191 -0.4425
 2317SOL    HW218414   1.657   1.773   5.008 -0.9786  0.3747 -2.6443
 2318SOL     OW18415   1.247   2.969   2.153  0.1683 -0.6745 -0.3149
 2318SOL    HW118416   1.319   3.033   2.152 -0.1265 -0.4056 -3.9001
 2318SOL    HW218417   1.177   3.024   2.120 -1.5814 -1.4787  2.0905
 2319SOL     OW18418   0.354   3.768  14.623 -0.1210 -0.1578 -0.1178
 2319SOL    HW118419   0.429   3.828  14.629  0.5607 -0.9213 -1.0707
 2319SOL    HW218420   0.283   3.825  14.595 -0.9357 -1.4806 -0.7250
 2320SOL     OW18421   2.341   3.486   3.284 -0.1306 -0.2563  0.4832
 2320SOL    HW118422   2.287   3.422   3.330 -1.6827  0.9592  0.3537
 2320SOL    HW218423   2.365   3.440   3.204 -0.4577  0.0279  0.2253
 2321SOL     OW18424   1.608   1.141   7.019  0.3990  0.0022 -0.4050
 2321SOL    HW118425   1.577   1.062   6.976 -0.1188 -0.1487  0.2574
 2321SOL    HW218426   1.522   1.170   7.047  0.1372  0.5007 -1.7015
 2322SOL     OW18427   3.856   3.648   9.082 -0.1447  0.0266 -0.1734
 2322SOL    HW118428   3.891   3.736   9.066 -0.0447 -0.4113 -2.3251
 2322SOL    HW218429   3.923   3.589   9.048 -0.9316 -1.2334  0.4748
 2323SOL     OW18430   4.120   3.918   6.945 -0.2505  0.0655  0.1266
 2323SOL    HW118431   4.027   3.903   6.930 -0.1375 -2.4668  1.8312
 2323SOL    HW218432   4.143   3.934   6.854  1.2429 -1.0299  0.2996
 2324SOL     OW18433   2.061   4.193   2.956 -0.3256  0.2445 -0.0389
 2324SOL    HW118434   2.068   4.259   2.886  0.9484  1.1665  0.9481
 2324SOL    HW218435   2.055   4.260   3.024  0.9741  0.6589 -0.3215
 2325SOL     OW18436   1.943   0.811  10.323 -0.0041 -0.0807  0.0663
 2325SOL    HW118437   1.969   0.781  10.410  0.3708  1.6233  0.5286
 2325SOL    HW218438   2.030   0.822  10.285 -1.1302  1.3891 -2.0855
 2326SOL     OW18439   0.909   3.834  15.845 -0.3394 -0.2599 -0.0488
 2326SOL    HW118440   0.921   3.832  15.940  0.0282 -0.4503 -0.1026
 2326SOL    HW218441   0.921   3.741  15.828 -2.0853 -0.7499  1.3252
 2327SOL     OW18442   1.699   4.167   4.979 -0.1894  0.2839 -0.4956
 2327SOL    HW118443   1.639   4.097   5.003  0.3007 -0.0212 -0.1481
 2327SOL    HW218444   1.684   4.220   5.058  0.9294  1.0019 -0.7530
 2328SOL     OW18445   4.155   2.516   4.277  0.0139  0.2912  0.0670
 2328SOL    HW118446   4.227   2.459   4.306 -0.4926 -0.0756  0.6052
 2328SOL    HW218447   4.159   2.572   4.354 -1.6201  1.0129 -0.3809
 2329SOL     OW18448   3.567   4.329   1.743  0.1927 -0.0837 -0.0959
 2329SOL    HW118449   3.568   4.420   1.773  1.3339 -0.3647  0.7114
 2329SOL    HW218450   3.490   4.294   1.787  1.4999  1.7288  3.6117
 2330SOL     OW18451   4.468   4.500   6.523 -0.3794 -0.2587  1.2992
 2330SOL    HW118452   4.436   4.430   6.580 -0.1648 -1.1189  0.3663
 2330SOL    HW218453   4.489   4.458   6.440 -1.5775 -0.6521  1.1896
 2331SOL     OW18454   0.215   3.201  13.177  0.1415  0.9620  0.2359
 2331SOL    HW118455   0.231   3.266  13.109  2.7268 -1.1128 -1.1468
 2331SOL    HW218456   0.228   3.123  13.123  0.5160  2.9900 -2.5446
 2332SOL     OW18457   3.776   1.652  14.233 -0.3485  0.0124  0.1967
 2332SOL    HW118458   3.831   1.581  14.202 -0.2420 -0.7724  2.2040
 2332SOL    HW218459   3.767   1.635  14.327 -0.7739  2.8164  0.6844
 2333SOL     OW18460   0.250   3.888   3.743 -0.1228  0.0491  0.0736
 2333SOL    HW118461   0.236   3.948   3.669  0.1473 -0.6946 -0.5806
 2333SOL    HW218462   0.237   3.803   3.702 -0.4467  0.5518 -0.8609
 2334SOL     OW18463   2.105   3.693   7.163  0.2521  0.0759  0.5633
 2334SOL    HW118464   2.126   3.725   7.076  3.0115 -0.5090  1.0265
 2334SOL    HW218465   2.024   3.645   7.142  0.6206 -0.6766  0.8530
 2335SOL     OW18466   2.690   2.438   2.260  0.0077 -0.0483 -0.0635
 2335SOL    HW118467   2.651   2.442   2.347  0.3719  3.2055 -0.0572
 2335SOL    HW218468   2.769   2.387   2.281  0.4009  0.8499  0.6094
 2336SOL     OW18469   2.679   2.052   3.745  0.6241  0.1143  0.2593
 2336SOL    HW118470   2.587   2.066   3.767 -0.3591 -2.1038 -2.4288
 2336SOL    HW218471   2.677   2.021   3.654 -1.3416  0.9734 -0.0001
 2337SOL     OW18472   2.420   0.709  15.170 -0.4283 -0.5171  0.4616
 2337SOL    HW118473   2.388   0.631  15.125  1.2097 -1.7444  1.3866
 2337SOL    HW218474   2.428   0.687  15.263  2.7586  1.9720  0.7936
 2338SOL     OW18475   1.351   3.272   7.149  0.1096 -0.3977 -0.3520
 2338SOL    HW118476   1.414   3.310   7.088  1.3436 -0.2499  1.0191
 2338SOL    HW218477   1.270   3.279   7.099  0.1224 -0.9605 -0.4523
 2339SOL     OW18478   4.671   2.703   6.348  0.4430 -0.3148  0.0134
 2339SOL    HW118479   4.630   2.759   6.413  0.7778 -1.5761  1.2940
 2339SOL    HW218480   4.702   2.767   6.284  0.3184  0.4580  0.7324
 2340SOL     OW18481   2.745   3.682   8.909  0.0142 -0.3464 -0.2456
 2340SOL    HW118482   2.724   3.591   8.887 -1.3185  0.1780 -1.1540
 2340SOL    HW218483   2.709   3.734   8.837 -1.9139  0.7971  1.5119
 2341SOL     OW18484   1.370   0.412   4.751 -0.0215 -0.2720  0.1871
 2341SOL    HW118485   1.280   0.413   4.784 -0.1350 -1.2849 -0.0628
 2341SOL    HW218486   1.414   0.479   4.802 -0.7383  0.8112 -0.6300
 2342SOL     OW18487   3.849   1.468   3.336  0.1004 -0.6310  0.0004
 2342SOL    HW118488   3.924   1.516   3.300 -1.7032  0.1975 -2.6223
 2342SOL    HW218489   3.898   1.405   3.389 -1.1109 -0.2886  1.4950
 2343SOL     OW18490   3.796   4.360   8.724  0.4404 -0.1862 -0.1158
 2343SOL    HW118491   3.834   4.438   8.763 -3.7753  1.4593  0.7454
 2343SOL    HW218492   3.875   4.315   8.693  0.5728  0.2531 -0.4084
 2344SOL     OW18493   4.651   3.138  12.714  0.7672  0.4924  0.0141
 2344SOL    HW118494   4.699   3.055  12.717 -0.5951 -0.1664  4.6805
 2344SOL    HW218495   4.665   3.167  12.624 -0.2339 -0.4337 -0.4414
 2345SOL     OW18496   4.712   3.887   1.459 -0.4553 -0.6481  0.4995
 2345SOL    HW118497   0.022   3.799   1.440  1.1048 -0.4015  2.3283
 2345SOL    HW218498   4.684   3.880   1.550 -1.2826 -3.1675  0.0695
 2346SOL     OW18499   1.121   4.461  12.752  0.0417  0.2235  0.4247
 2346SOL    HW118500   1.211   4.492  12.752 -0.0816  0.5805  2.2120
 2346SOL    HW218501   1.106   4.437  12.844  0.8338  0.7348  0.6836
 2347SOL     OW18502   2.482   0.996   8.900 -0.3958 -0.1488 -0.1037
 2347SOL    HW118503   2.418   1.026   8.964  0.3180  2.3432 -0.5337
 2347SOL    HW218504   2.422   1.002   8.825 -1.9486 -0.1355  1.1540
 2348SOL     OW18505   3.997   2.939   9.759 -0.5181 -0.1580 -0.2639
 2348SOL    HW118506   4.015   2.853   9.722  1.6842  0.0468  0.2831
 2348SOL    HW218507   3.902   2.937   9.767 -0.5252 -1.1831 -0.6724
 2349SOL     OW18508   1.560   2.189   2.974  0.1975  0.0430 -0.1988
 2349SOL    HW118509   1.614   2.191   3.053 -0.7301  0.5334  0.4224
 2349SOL    HW218510   1.599   2.249   2.910 -0.8804  0.2005 -0.7139
 2350SOL     OW18511   1.445   0.701   2.054  0.1844 -0.6906 -0.2589
 2350SOL    HW118512   1.408   0.780   2.015  2.1047  0.3894  0.0828
 2350SOL    HW218513   1.533   0.732   2.075  0.1166 -0.1519 -0.7765
 2351SOL     OW18514   4.133   2.212   6.062 -0.0288  0.3266  0.1085
 2351SOL    HW118515   4.083   2.136   6.034 -0.4942  0.8266 -0.4128
 2351SOL    HW218516   4.125   2.271   5.987  0.1828 -2.3397 -1.9943
 2352SOL     OW18517   3.970   2.696   4.933 -0.5337  0.3216  0.0798
 2352SOL    HW118518   3.916   2.663   5.005  0.3516  2.3509  1.6743
 2352SOL    HW218519   3.890   2.715   4.885  0.2966  0.5843 -1.2024
 2353SOL     OW18520   3.712   0.352   7.506 -0.0950 -0.4919 -0.5316
 2353SOL    HW118521   3.732   0.422   7.444 -1.5055  1.9201  1.7342
 2353SOL    HW218522   3.744   0.277   7.456  0.5501 -0.0422 -0.7954
 2354SOL     OW18523   4.535   4.611   1.624  0.0959 -0.3446  0.3339
 2354SOL    HW118524   4.543   4.517   1.610 -1.1121 -0.6907  2.0575
 2354SOL    HW218525   4.441   4.614   1.604  0.2715  0.8708 -0.3371
 2355SOL     OW18526   1.547   2.842  17.080 -0.2129 -0.6958 -0.3602
 2355SOL    HW118527   1.461   2.816  17.114  0.1262  0.7166  1.5606
 2355SOL    HW218528   1.525   2.928  17.043 -2.2579 -0.5783  1.1410
 2356SOL     OW18529   0.215   3.173   4.509 -0.5907  0.4083 -0.3552
 2356SOL    HW118530   0.240   3.174   4.417 -0.7355  1.4131 -0.3874
 2356SOL    HW218531   0.275   3.104   4.536 -0.3938  0.5691 -0.3859
 2357SOL     OW18532   4.705   4.561   2.239 -0.0057 -0.6712 -0.6625
 2357SOL    HW118533   4.636   4.621   2.210  1.3293  0.6166 -1.1760
 2357SOL    HW218534   0.005   4.592   2.326  0.4801 -1.1700 -0.6217
 2358SOL     OW18535   1.723   1.592   1.714  0.1961 -0.1486 -0.2163
 2358SOL    HW118536   1.696   1.500   1.713  0.8741 -0.3633  1.0946
 2358SOL    HW218537   1.789   1.595   1.645  0.5378  2.9831  0.2151
 2359SOL     OW18538   3.301   0.424  13.167 -0.9990 -0.0952 -0.3257
 2359SOL    HW118539   3.223   0.376  13.193 -0.8931 -0.7657 -1.2247
 2359SOL    HW218540   3.262   0.504  13.132  2.1640  1.2004 -0.8754
 2360SOL     OW18541   3.944   4.130   3.138 -0.5549  0.5839 -0.1575
 2360SOL    HW118542   3.854   4.141   3.107 -1.2744  0.6644  2.0083
 2360SOL    HW218543   3.965   4.038   3.120 -0.3978  0.3484  1.2512
 2361SOL     OW18544   2.456   3.731   4.404  0.4275 -0.1021 -0.0188
 2361SOL    HW118545   2.520   3.738   4.474  0.4932 -2.3505  0.1655
 2361SOL    HW218546   2.502   3.778   4.335  0.9485  1.8811  1.7089
 2362SOL     OW18547   0.844   2.714   6.827  0.2269 -0.2415  0.1221
 2362SOL    HW118548   0.909   2.700   6.896  2.7046 -1.1069 -2.3380
 2362SOL    HW218549   0.866   2.641   6.769  0.5513 -0.0256 -0.0262
 2363SOL     OW18550   2.327   0.282   5.346 -0.0262  0.2708 -0.3088
 2363SOL    HW118551   2.284   0.347   5.401  0.0056  0.5872 -0.6599
 2363SOL    HW218552   2.269   0.210   5.371 -0.7070  0.6862 -0.6878
 2364SOL     OW18553   2.702   3.690   4.553  0.9285  0.5440 -0.0081
 2364SOL    HW118554   2.787   3.711   4.514  0.8558 -0.9748 -0.9764
 2364SOL    HW218555   2.720   3.665   4.644 -0.0604  1.7817  0.5361
 2365SOL     OW18556   2.895   1.188  15.827 -0.2000 -0.4012 -0.2663
 2365SOL    HW118557   2.905   1.262  15.767  1.2407  0.1896  0.7066
 2365SOL    HW218558   2.882   1.238  15.908  2.0423 -0.6865  0.2597
 2366SOL     OW18559   3.973   4.132   1.533  0.0322  0.0272 -0.0785
 2366SOL    HW118560   3.959   4.125   1.438  1.9080  0.9713 -0.4337
 2366SOL    HW218561   3.882   4.122   1.562  0.6335  2.0659  2.4248
 2367SOL     OW18562   2.022   1.061   8.678 -0.2720  0.2471  0.0865
 2367SOL    HW118563   2.037   1.116   8.755 -3.4644 -1.1449  1.6786
 2367SOL    HW218564   1.963   1.118   8.629 -2.8677 -3.0740 -0.6651
 2368SOL     OW18565   1.883   3.479   5.784  0.4918 -0.0783  0.0512
 2368SOL    HW118566   1.873   3.546   5.717 -0.8358 -1.6564 -1.3287
 2368SOL    HW218567   1.859   3.532   5.860  0.4788  2.0603 -1.4499
 2369SOL     OW18568   2.617   3.287   3.687  0.0336 -0.1023  0.7289
 2369SOL    HW118569   2.666   3.302   3.606  2.8726 -0.9084  2.2796
 2369SOL    HW218570   2.636   3.196   3.712  0.2462 -0.7316 -1.7022
 2370SOL     OW18571   3.322   0.297   7.342  0.2915  0.6281 -0.3642
 2370SOL    HW118572   3.275   0.222   7.381  1.7764  0.6917  1.5752
 2370SOL    HW218573   3.404   0.250   7.332 -0.9353 -1.4985 -0.5257
 2371SOL     OW18574   2.631   3.705   9.362 -0.0426  0.0648 -0.5139
 2371SOL    HW118575   2.704   3.766   9.371 -0.6954  1.0869 -2.1180
 2371SOL    HW218576   2.592   3.750   9.287 -0.1983  0.9620  0.1156
 2372SOL     OW18577   0.527   1.390   1.062  0.3419 -0.0131  0.0267
 2372SOL    HW118578   0.460   1.413   0.998 -0.0812 -0.3266  0.3566
 2372SOL    HW218579   0.481   1.400   1.146  1.8415  2.8193  0.5053
 2373SOL     OW18580   1.282   1.252  10.117 -0.4644 -0.3086  0.3017
 2373SOL    HW118581   1.366   1.295  10.102 -0.1532 -0.1318  2.5617
 2373SOL    HW218582   1.303   1.158  10.117 -0.6171 -0.3461 -2.5920
 2374SOL     OW18583   0.595   0.566   2.111  0.1573  0.5468 -0.2403
 2374SOL    HW118584   0.515   0.612   2.087  0.0347  1.1939  1.3723
 2374SOL    HW218585   0.616   0.511   2.036 -3.0775  1.8741 -2.0895
 2375SOL     OW18586   1.638   3.422   3.133  0.5158  0.4705 -0.2274
 2375SOL    HW118587   1.603   3.511   3.143  0.7295  0.6184 -0.7947
 2375SOL    HW218588   1.558   3.370   3.140  1.9161 -1.8692 -1.7692
 2376SOL     OW18589   2.087   0.868   7.547 -0.0478  0.0652  0.0845
 2376SOL    HW118590   2.107   0.805   7.477  0.5592 -0.4772  0.7496
 2376SOL    HW218591   2.034   0.932   7.499  0.3932  1.0508  0.9094
 2377SOL     OW18592   4.545   1.715   1.770 -0.0307  0.0944  0.3545
 2377SOL    HW118593   4.508   1.636   1.731 -2.0919  1.3272 -0.2025
 2377SOL    HW218594   4.602   1.739   1.696  0.6595 -0.6971  0.6320
 2378SOL     OW18595   0.672   0.990   0.803 -0.1087  0.7056  0.3207
 2378SOL    HW118596   0.688   1.038   0.884 -0.0466  3.0087 -1.0492
 2378SOL    HW218597   0.632   0.915   0.847  0.8992  0.2618  0.4612
 2379SOL     OW18598   3.411   1.141  17.512  0.3962 -0.2232  0.5900
 2379SOL    HW118599   3.368   1.224  17.491  0.2631 -0.2454  0.7741
 2379SOL    HW218600   3.502   1.171  17.506 -0.3753  1.7952 -1.0049
 2380SOL     OW18601   0.497   1.878   4.209  0.3733  0.1019  0.3179
 2380SOL    HW118602   0.437   1.815   4.170  0.6696 -0.5711  0.9506
 2380SOL    HW218603   0.494   1.854   4.302  0.8549  0.3851  0.4086
 2381SOL     OW18604   2.834   3.135   6.572  0.0493  0.0877  0.2973
 2381SOL    HW118605   2.875   3.153   6.657 -0.4807 -2.4155  1.0720
 2381SOL    HW218606   2.793   3.049   6.582  0.9452 -0.7597 -3.1403
 2382SOL     OW18607   3.999   0.099   0.036  0.2627  0.1074  0.0671
 2382SOL    HW118608   4.082   0.120  17.695 -0.4597 -0.5059 -1.6540
 2382SOL    HW218609   4.014   0.122   0.128  0.2900  1.2837 -0.2289
 2383SOL     OW18610   0.831   0.632  12.425 -0.1360 -0.1050  0.1098
 2383SOL    HW118611   0.835   0.671  12.513  1.2975 -0.8300  0.3610
 2383SOL    HW218612   0.829   0.709  12.368  0.9639 -0.3599 -0.2643
 2384SOL     OW18613   0.279   0.972   8.029 -0.6348 -0.1395 -0.7388
 2384SOL    HW118614   0.195   0.986   7.987 -1.0953  0.2037  0.2860
 2384SOL    HW218615   0.313   1.062   8.034 -0.4308 -0.3547  1.9923
 2385SOL     OW18616   2.504   0.994   8.171  0.0598 -0.4240 -0.6533
 2385SOL    HW118617   2.525   0.952   8.088 -1.7408 -0.9890 -0.8143
 2385SOL    HW218618   2.588   1.037   8.188  1.1981 -1.6585 -3.2335
 2386SOL     OW18619   3.210   2.451   5.910  1.2011  0.0577 -0.5042
 2386SOL    HW118620   3.287   2.497   5.877  0.3851  1.2760 -0.6845
 2386SOL    HW218621   3.237   2.456   6.001 -1.6685 -0.0276  0.3472
 2387SOL     OW18622   4.387   4.188   6.464  0.0783  0.4246  0.1352
 2387SOL    HW118623   4.479   4.167   6.447  0.2626  1.3747 -0.0454
 2387SOL    HW218624   4.388   4.222   6.553  1.8901  1.7135 -0.3671
 2388SOL     OW18625   2.336   0.465   8.226 -0.6065  0.2719  0.4378
 2388SOL    HW118626   2.408   0.433   8.281 -0.1913 -1.3927 -1.1109
 2388SOL    HW218627   2.387   0.487   8.148 -0.6240  0.9552  0.6115
 2389SOL     OW18628   3.284   2.782   7.712  0.0618 -0.3538  0.1168
 2389SOL    HW118629   3.265   2.691   7.735 -1.5700  0.1606  0.7692
 2389SOL    HW218630   3.202   2.830   7.704  0.1001  0.3431  4.0540
 2390SOL     OW18631   3.838   1.144   3.131  0.1989 -0.0421 -0.3941
 2390SOL    HW118632   3.838   1.199   3.053  2.2229  1.0739  0.3768
 2390SOL    HW218633   3.869   1.060   3.097 -0.6035  0.0803 -1.4152
 2391SOL     OW18634   2.800   4.092   7.883  0.1652 -0.6659  0.0140
 2391SOL    HW118635   2.735   4.071   7.950  0.4711  3.2182  1.5707
 2391SOL    HW218636   2.814   4.007   7.841 -1.0406 -1.7249  1.7676
 2392SOL     OW18637   4.463   4.334  12.659  0.1083  0.5827 -0.5572
 2392SOL    HW118638   4.370   4.321  12.679  0.6883  1.0319  2.3893
 2392SOL    HW218639   4.509   4.299  12.735 -0.8958  0.4457 -0.0122
 2393SOL     OW18640   2.769   3.142   0.891  0.3794 -0.3756 -0.0473
 2393SOL    HW118641   2.864   3.147   0.893  0.4919 -1.9359 -1.3715
 2393SOL    HW218642   2.751   3.184   0.974  1.2364  0.3423 -0.2300
 2394SOL     OW18643   1.534   1.213   3.666  0.7692  0.3764 -0.2554
 2394SOL    HW118644   1.626   1.190   3.652  0.8910  0.2842  0.6685
 2394SOL    HW218645   1.513   1.170   3.749  0.9624  1.9443  0.6173
 2395SOL     OW18646   3.695   0.432   3.838 -0.2673  0.4116 -0.0996
 2395SOL    HW118647   3.641   0.500   3.880  0.7529  0.7231  0.7075
 2395SOL    HW218648   3.664   0.366   3.900 -2.6875  0.6766 -1.0045
 2396SOL     OW18649   1.353   4.626   8.331  0.1193 -0.1557 -0.0629
 2396SOL    HW118650   1.292   4.595   8.264  0.5621 -1.2108  0.0225
 2396SOL    HW218651   1.345   4.568   8.406  2.1895 -1.8941 -1.1931
 2397SOL     OW18652   3.480   1.131   2.534 -0.1718  0.1599 -0.5572
 2397SOL    HW118653   3.557   1.114   2.480 -0.2373 -1.2556 -0.1946
 2397SOL    HW218654   3.519   1.202   2.586  0.4509 -0.8131  0.3001
 2398SOL     OW18655   3.258   3.211  11.520 -0.3099  0.2701  0.4475
 2398SOL    HW118656   3.291   3.148  11.583  1.6019  2.1507  1.3459
 2398SOL    HW218657   3.337   3.260  11.494 -0.2853  0.6421  1.2402
 2399SOL     OW18658   4.360   0.239   0.130 -0.6822 -0.4389  0.1089
 2399SOL    HW118659   4.331   0.161   0.176  2.1155 -1.2761  0.4811
 2399SOL    HW218660   4.388   0.293   0.205  0.1629 -2.4100  1.1983
 2400SOL     OW18661   4.630   3.101   6.918 -0.0505  0.3627  0.1670
 2400SOL    HW118662   4.663   3.058   6.997 -0.2731  1.3681  0.8075
 2400SOL    HW218663   4.699   3.165   6.899  1.1173 -1.0191 -0.1808
 2401SOL     OW18664   2.240   2.718   7.967 -0.0666  0.2297  0.1860
 2401SOL    HW118665   2.209   2.676   7.887  2.0935 -0.1779 -0.4349
 2401SOL    HW218666   2.264   2.806   7.939 -1.6224  0.1853 -1.2939
 2402SOL     OW18667   2.229   1.687   1.785 -0.5403  0.2487  0.2686
 2402SOL    HW118668   2.226   1.599   1.748  0.0126  0.5086 -0.4073
 2402SOL    HW218669   2.235   1.739   1.705 -0.2297  0.4210  0.4035
 2403SOL     OW18670   1.261   2.701   8.021 -0.6910 -0.1901  0.3840
 2403SOL    HW118671   1.168   2.707   8.043 -0.6699  1.5019  0.0211
 2403SOL    HW218672   1.267   2.779   7.965  0.2526  1.3138  2.5476
 2404SOL     OW18673   0.906   0.078   6.700  0.5307  0.2231 -0.3738
 2404SOL    HW118674   0.898   0.073   6.795  2.1815 -0.4109 -0.2573
 2404SOL    HW218675   1.002   0.074   6.690  0.3912 -0.3798 -1.4586
 2405SOL     OW18676   4.546   3.919   9.956 -0.4705  0.8033  0.1531
 2405SOL    HW118677   4.567   3.874  10.038  1.1411 -1.1452 -1.3637
 2405SOL    HW218678   4.555   4.010   9.986 -0.5055  0.7208  0.4151
 2406SOL     OW18679   0.680   2.729   4.445  0.4262 -0.0259  0.4871
 2406SOL    HW118680   0.638   2.678   4.375  0.3018 -0.4643  0.8847
 2406SOL    HW218681   0.688   2.819   4.413  2.4011 -0.4169 -0.1206
 2407SOL     OW18682   3.896   3.643   3.425 -0.1651  0.0465  1.3441
 2407SOL    HW118683   3.828   3.650   3.358 -0.1429  1.7125  1.4967
 2407SOL    HW218684   3.934   3.731   3.418 -0.0157 -0.1373 -0.0564
 2408SOL     OW18685   4.682   2.289   3.915 -0.4406 -0.1243  0.2937
 2408SOL    HW118686   4.652   2.241   3.992 -0.8047 -1.8939 -0.9422
 2408SOL    HW218687   4.669   2.215   3.856  1.7587 -1.6467  1.7299
 2409SOL     OW18688   1.587   0.918  15.264  0.5219 -0.3870 -0.5314
 2409SOL    HW118689   1.660   0.968  15.300 -2.0787  2.2791  1.0749
 2409SOL    HW218690   1.626   0.886  15.183 -1.7760 -1.9404 -1.0298
 2410SOL     OW18691   3.958   2.585  12.134  0.3599  0.2054 -0.1878
 2410SOL    HW118692   4.006   2.581  12.217  1.7338 -0.7493 -1.0189
 2410SOL    HW218693   3.968   2.678  12.114  0.4620  0.3626  0.5927
 2411SOL     OW18694   3.368   2.768  16.317  0.2333  0.8024  0.2262
 2411SOL    HW118695   3.454   2.805  16.295  0.9692 -1.2773 -0.4530
 2411SOL    HW218696   3.358   2.764  16.412 -1.2954  1.8348  0.1009
 2412SOL     OW18697   1.557   2.757   3.429 -0.1423 -0.0019  0.2894
 2412SOL    HW118698   1.564   2.669   3.390  1.3164 -0.0736  0.7050
 2412SOL    HW218699   1.640   2.798   3.405  1.2245 -2.5795  0.5674
 2413SOL     OW18700   0.046   1.914   6.927  0.2798 -0.1639  0.3186
 2413SOL    HW118701   0.056   1.820   6.944 -1.0928 -0.3455  0.1255
 2413SOL    HW218702   0.074   1.949   7.012 -0.7511 -0.0132  0.5931
 2414SOL     OW18703   3.391   2.876   1.895 -0.2427  0.6492 -0.3969
 2414SOL    HW118704   3.311   2.866   1.946  0.9748 -0.0936  1.3814
 2414SOL    HW218705   3.395   2.791   1.850 -0.6193 -0.5674  1.8341
 2415SOL     OW18706   1.267   0.974   7.108 -0.3293 -0.4239 -0.2278
 2415SOL    HW118707   1.327   0.935   7.171  1.1907 -0.4696 -1.7082
 2415SOL    HW218708   1.298   1.064   7.099  1.3938 -0.8035  1.7891
 2416SOL     OW18709   2.188   4.158  10.599 -0.5833  0.7294 -0.9325
 2416SOL    HW118710   2.179   4.228  10.663 -0.4929 -2.4312  2.5539
 2416SOL    HW218711   2.250   4.093  10.633 -0.8192  0.1674 -1.5837
 2417SOL     OW18712   0.450   4.293   5.126 -0.4861  0.3243 -0.2461
 2417SOL    HW118713   0.398   4.219   5.094 -0.2451  0.8017 -1.7471
 2417SOL    HW218714   0.531   4.297   5.075  0.6104  3.8587  1.7475
 2418SOL     OW18715   4.079   1.224  13.542 -0.0034  0.6175  0.3957
 2418SOL    HW118716   4.080   1.290  13.472 -2.3423 -2.1640 -2.2367
 2418SOL    HW218717   4.004   1.170  13.516  0.4936  1.1421 -2.1877
 2419SOL     OW18718   0.295   0.961   3.807  0.3922 -0.4230  0.9718
 2419SOL    HW118719   0.286   0.904   3.731  0.8197  0.2502  0.4184
 2419SOL    HW218720   0.223   1.020   3.785  2.1970  1.2124 -0.5342
 2420SOL     OW18721   0.021   0.514  17.696  0.0147  0.5095  0.4087
 2420SOL    HW118722   0.073   0.439  17.666  1.4226  0.9186  1.8566
 2420SOL    HW218723   4.666   0.474   0.029 -1.4671  2.3325 -0.8893
 2421SOL     OW18724   1.892   3.333  14.966  0.1124 -0.2575  0.2632
 2421SOL    HW118725   1.900   3.312  15.059  1.5260 -0.9921 -0.0242
 2421SOL    HW218726   1.815   3.279  14.947  0.2454 -0.2179 -0.3812
 2422SOL     OW18727   3.028   4.485   2.908  0.6252  0.3740  0.0655
 2422SOL    HW118728   3.070   4.433   2.839 -0.9624 -0.0879 -0.5377
 2422SOL    HW218729   2.935   4.489   2.887  1.1344  2.3514 -1.8024
 2423SOL     OW18730   1.144   4.070   4.148 -0.1123 -0.1812 -0.2511
 2423SOL    HW118731   1.117   4.004   4.084 -3.7915 -0.3911  1.5057
 2423SOL    HW218732   1.231   4.094   4.117  0.1303  0.8904  1.2515
 2424SOL     OW18733   0.312   3.660  15.732  0.2301  0.3963  0.1933
 2424SOL    HW118734   0.318   3.602  15.807  0.5092 -1.1899 -1.0616
 2424SOL    HW218735   0.373   3.622  15.668 -0.9615  0.4018 -0.9652
 2425SOL     OW18736   3.378   1.652   3.933 -0.5264  0.5457 -0.1837
 2425SOL    HW118737   3.382   1.671   3.839 -2.1583  0.0237 -0.3659
 2425SOL    HW218738   3.384   1.740   3.970 -1.5015  0.7913 -0.6125
 2426SOL     OW18739   1.145   4.443   2.844  0.2244 -0.0670  0.2875
 2426SOL    HW118740   1.073   4.506   2.838  0.2106 -0.0742  0.3750
 2426SOL    HW218741   1.123   4.407   2.930  1.7304  2.5293  1.7566
 2427SOL     OW18742   4.673   3.401   0.677 -0.2212 -0.0815  0.1460
 2427SOL    HW118743   4.710   3.465   0.738 -1.2491  0.8935 -0.2647
 2427SOL    HW218744   4.581   3.426   0.672 -0.5260 -1.1428  0.4112
 2428SOL     OW18745   4.204   0.890   8.117  0.8388 -0.0436 -0.4806
 2428SOL    HW118746   4.241   0.903   8.204  0.8987  0.9345 -0.6439
 2428SOL    HW218747   4.260   0.821   8.084 -0.2181 -1.0245 -0.2171
 2429SOL     OW18748   2.744   4.699   3.056  0.4557 -0.0060 -0.0233
 2429SOL    HW118749   2.833   0.005   3.075 -0.0202 -0.1459  2.4923
 2429SOL    HW218750   2.693   0.050   3.084  1.3362  1.2077 -1.7262
 2430SOL     OW18751   3.394   4.224   7.597  0.6524  0.4700  0.0744
 2430SOL    HW118752   3.452   4.222   7.521  1.3260 -1.1362  0.6250
 2430SOL    HW218753   3.453   4.182   7.660  0.3778 -0.8651 -0.5566
 2431SOL     OW18754   0.152   3.895  14.458  0.5143 -0.2230 -0.5274
 2431SOL    HW118755   0.135   3.821  14.399 -1.7370 -0.2688  0.1855
 2431SOL    HW218756   0.178   3.958  14.391 -1.8574  2.1592  0.7852
 2432SOL     OW18757   0.212   3.509   8.331  0.0918 -0.3549  0.4719
 2432SOL    HW118758   0.242   3.599   8.338 -0.0905 -0.5019  2.8893
 2432SOL    HW218759   0.140   3.509   8.393  2.8214  0.9896  3.6071
 2433SOL     OW18760   3.537   2.785  11.538 -0.4447 -0.1626  0.1082
 2433SOL    HW118761   3.568   2.740  11.617 -0.0987  0.5611  0.3829
 2433SOL    HW218762   3.488   2.857  11.575  1.0009  0.5896  0.5758
 2434SOL     OW18763   0.635   2.115   7.383 -0.4300  0.0961  0.1370
 2434SOL    HW118764   0.649   2.048   7.450  0.7157  1.6649  1.4544
 2434SOL    HW218765   0.580   2.170   7.438  1.6695  0.4704  1.8501
 2435SOL     OW18766   1.802   3.309   7.449 -0.1024  0.6157  0.0505
 2435SOL    HW118767   1.766   3.226   7.479  3.5005 -0.7747  0.4450
 2435SOL    HW218768   1.783   3.314   7.356  2.5424  2.3433 -0.4077
 2436SOL     OW18769   4.629   2.489   2.130 -0.4153 -0.2499 -0.0252
 2436SOL    HW118770   4.705   2.463   2.078 -0.9546 -3.7373  0.9001
 2436SOL    HW218771   4.560   2.449   2.077 -0.3763 -0.4071  0.0423
 2437SOL     OW18772   0.084   3.225   5.431  0.3564 -0.0678 -0.2651
 2437SOL    HW118773   0.037   3.182   5.359 -0.4312  1.1606 -0.4801
 2437SOL    HW218774   0.100   3.308   5.387 -1.0201  1.2031  1.6632
 2438SOL     OW18775   3.379   3.057   4.139  0.4569 -0.0683 -0.2210
 2438SOL    HW118776   3.465   3.018   4.122 -0.5121 -2.1353 -0.3197
 2438SOL    HW218777   3.387   3.082   4.231 -1.9424 -1.0695  0.2506
 2439SOL     OW18778   3.084   0.318   0.827  0.1217  0.2618 -0.2021
 2439SOL    HW118779   3.095   0.413   0.830  1.0941  0.1909 -2.1970
 2439SOL    HW218780   2.988   0.310   0.833  0.0177  1.4859 -0.2549
 2440SOL     OW18781   0.530   1.570   6.596  0.2517 -0.3600 -0.2954
 2440SOL    HW118782   0.572   1.537   6.517  2.4533  0.2756  0.5930
 2440SOL    HW218783   0.452   1.610   6.559  1.0676  1.7056  0.1983
 2441SOL     OW18784   1.224   4.427   7.230  0.4051 -0.2250 -0.4891
 2441SOL    HW118785   1.252   4.515   7.255  2.9735 -1.8713  2.4734
 2441SOL    HW218786   1.131   4.439   7.209  0.8258  1.0399 -1.6649
 2442SOL     OW18787   3.290   1.646   1.011  0.2557 -0.6093 -0.3084
 2442SOL    HW118788   3.202   1.608   1.011  0.3234 -0.7764 -1.6744
 2442SOL    HW218789   3.336   1.573   1.052  1.2057 -0.6838 -1.4842
 2443SOL     OW18790   1.768   1.840   6.691 -0.1393  0.0099 -0.5873
 2443SOL    HW118791   1.846   1.841   6.747 -0.4752 -1.2251 -0.0804
 2443SOL    HW218792   1.739   1.930   6.702  0.4265 -0.0092  1.0893
 2444SOL     OW18793   0.891   3.133   6.296  0.4409  0.1270 -0.3644
 2444SOL    HW118794   0.812   3.160   6.248  0.5251  0.6578 -0.1958
 2444SOL    HW218795   0.857   3.144   6.384 -1.1048  1.3228 -1.0945
 2445SOL     OW18796   0.934   4.194   3.642  0.1899 -0.1453 -0.1454
 2445SOL    HW118797   0.850   4.238   3.628  0.1933 -0.7554 -2.0498
 2445SOL    HW218798   0.991   4.268   3.619  0.1914 -0.8360 -2.3060
 2446SOL     OW18799   2.690   0.754   4.537  0.1360 -0.3191  0.0236
 2446SOL    HW118800   2.748   0.689   4.575 -0.2399 -1.0046 -0.5743
 2446SOL    HW218801   2.623   0.693   4.508 -2.4395  2.5284  0.0556
 2447SOL     OW18802   3.140   1.833  12.796 -0.1019  0.2201 -0.2357
 2447SOL    HW118803   3.047   1.817  12.782  0.0984 -0.0864 -1.2200
 2447SOL    HW218804   3.172   1.743  12.784 -0.7127 -0.0961  0.5601
 2448SOL     OW18805   0.159   3.591   8.030 -0.0758 -0.0496 -0.2130
 2448SOL    HW118806   0.203   3.567   8.111 -1.0789 -1.1470  0.0104
 2448SOL    HW218807   0.103   3.514   8.021 -1.8374  0.7999  3.4102
 2449SOL     OW18808   4.191   0.714  10.550 -0.7217 -0.6535 -0.0646
 2449SOL    HW118809   4.176   0.644  10.486  0.3486  0.7736 -1.9071
 2449SOL    HW218810   4.285   0.698  10.561 -0.8312 -0.5893  0.9196
 2450SOL     OW18811   3.858   1.607   5.544 -0.4190  0.1996 -0.3305
 2450SOL    HW118812   3.861   1.517   5.575  2.7963 -0.0421 -1.3049
 2450SOL    HW218813   3.855   1.599   5.449  0.7070  0.3665 -0.3757
 2451SOL     OW18814   3.219   4.567   1.047 -0.4483 -0.5021 -0.2804
 2451SOL    HW118815   3.313   4.550   1.053 -0.9224 -1.7422  3.3645
 2451SOL    HW218816   3.217   4.659   1.018  0.0869  0.1490  1.7669
 2452SOL     OW18817   4.477   1.397   1.954  0.0504 -0.1612 -0.3243
 2452SOL    HW118818   4.450   1.409   2.045  1.2051 -2.4933  0.3003
 2452SOL    HW218819   4.403   1.442   1.913 -0.2595 -1.0079 -0.6927
 2453SOL     OW18820   1.122   0.853  13.904  0.1703  0.1512 -0.4447
 2453SOL    HW118821   1.103   0.893  13.989  1.0677 -1.6876  0.6122
 2453SOL    HW218822   1.200   0.905  13.885  0.1195 -0.0266 -1.1492
 2454SOL     OW18823   0.625   3.972   3.910 -0.0981 -0.0555 -0.1590
 2454SOL    HW118824   0.617   4.064   3.936  0.1918  0.0748 -0.5162
 2454SOL    HW218825   0.691   3.934   3.968 -0.2027 -1.3435 -0.8972
 2455SOL     OW18826   2.299   1.077   8.664  0.2767 -0.4124  0.6849
 2455SOL    HW118827   2.327   1.018   8.595  0.9292  0.6909 -0.0009
 2455SOL    HW218828   2.209   1.093   8.636  0.5779  2.1234  1.1020
 2456SOL     OW18829   3.581   1.907   7.860 -0.6415  0.6624 -0.3159
 2456SOL    HW118830   3.661   1.936   7.902  0.7472 -2.1545 -1.0447
 2456SOL    HW218831   3.567   1.817   7.890  1.7628  0.6737  0.7854
 2457SOL     OW18832   2.201   2.402   7.472  0.0160  0.2562 -0.4313
 2457SOL    HW118833   2.265   2.332   7.460  1.2791  1.1238  1.2190
 2457SOL    HW218834   2.238   2.468   7.413  3.3238 -0.5461  0.7837
 2458SOL     OW18835   2.622   3.934   0.764 -0.1407 -0.1657 -0.0933
 2458SOL    HW118836   2.589   4.017   0.799 -1.6025 -1.2335  1.0645
 2458SOL    HW218837   2.544   3.878   0.759 -0.0318 -0.4250  0.9645
 2459SOL     OW18838   0.741   0.667   1.292 -0.0254 -0.2095 -0.2229
 2459SOL    HW118839   0.803   0.594   1.291  1.5591  1.0639  4.0179
 2459SOL    HW218840   0.797   0.739   1.319  0.0389 -1.7598  3.7414
 2460SOL     OW18841   3.348   4.544   8.665 -0.4895 -0.6265 -0.3521
 2460SOL    HW118842   3.358   4.560   8.572  2.0792  0.8770  0.1795
 2460SOL    HW218843   3.352   4.637   8.687 -0.3255 -1.1257  1.7493
 2461SOL     OW18844   1.085   0.167   1.783 -0.4277  0.4233  0.0983
 2461SOL    HW118845   0.992   0.151   1.767 -0.1773 -0.3830 -0.5115
 2461SOL    HW218846   1.119   0.228   1.718 -3.2441  2.5382  0.6109
 2462SOL     OW18847   4.439   4.297   4.973 -0.0599 -0.2419 -0.0394
 2462SOL    HW118848   4.436   4.381   4.927  0.6217  0.7517  1.7385
 2462SOL    HW218849   4.485   4.316   5.055 -0.7523 -0.2423  0.3521
 2463SOL     OW18850   2.569   3.587   7.653  0.3602  0.1830 -0.4769
 2463SOL    HW118851   2.659   3.609   7.629 -0.0322  1.2232 -0.9913
 2463SOL    HW218852   2.557   3.668   7.703 -0.6420  0.6016 -1.3853
 2464SOL     OW18853   2.144   4.118   2.343  0.2051 -0.3190 -0.1900
 2464SOL    HW118854   2.237   4.122   2.319 -0.3848 -2.1723 -2.8399
 2464SOL    HW218855   2.099   4.079   2.268  1.6393 -0.0217 -1.2055
 2465SOL     OW18856   3.662   3.261   2.631 -0.0437  0.4113  0.1965
 2465SOL    HW118857   3.596   3.305   2.578 -0.9527 -1.0721  0.1082
 2465SOL    HW218858   3.714   3.336   2.662 -1.5574  1.7946 -0.6155
 2466SOL     OW18859   4.327   0.780   8.385  0.3334 -0.3204 -0.2750
 2466SOL    HW118860   4.234   0.788   8.405  1.0240  0.3189  2.7217
 2466SOL    HW218861   4.341   0.686   8.381  0.0447 -0.4720  2.0975
 2467SOL     OW18862   1.180   2.652   7.610 -0.2814 -0.0771  0.6249
 2467SOL    HW118863   1.190   2.691   7.523 -0.4659  2.4140  1.7156
 2467SOL    HW218864   1.258   2.601   7.634 -0.2870 -0.3823 -0.0051
 2468SOL     OW18865   1.043   2.145   7.521  0.0502 -0.8501 -0.2334
 2468SOL    HW118866   1.079   2.123   7.607 -2.5137  1.2049  1.3511
 2468SOL    HW218867   1.013   2.235   7.524 -1.1681 -1.1850 -1.9743
 2469SOL     OW18868   3.955   1.800   5.691 -0.0112 -0.1602 -0.5624
 2469SOL    HW118869   3.926   1.726   5.638 -0.2931  0.3292 -1.0978
 2469SOL    HW218870   3.874   1.851   5.704 -0.7195 -1.0165 -1.5790
 2470SOL     OW18871   0.997   3.427   8.641  0.3220 -0.7777 -0.6153
 2470SOL    HW118872   0.978   3.496   8.704  3.4977  0.0508 -0.5627
 2470SOL    HW218873   1.024   3.356   8.699 -2.1766 -0.0814  1.4101
 2471SOL     OW18874   2.512   1.747   8.317 -0.1058 -0.0178  0.5209
 2471SOL    HW118875   2.456   1.790   8.381  0.2733  1.1723  0.0438
 2471SOL    HW218876   2.570   1.700   8.377  0.6571  2.2677  1.5701
 2472SOL     OW18877   0.075   2.043   5.113 -0.6552  0.6600  0.0575
 2472SOL    HW118878   0.124   2.072   5.190  0.9235  1.8740 -1.4083
 2472SOL    HW218879   0.106   1.952   5.109 -1.3660  0.3030  2.8485
 2473SOL     OW18880   3.135   3.447   0.161  0.4231  0.2208  0.1257
 2473SOL    HW118881   3.098   3.374   0.212  3.6667 -1.9788 -0.6780
 2473SOL    HW218882   3.056   3.498   0.147  0.4808  0.5382  0.9218
 2474SOL     OW18883   1.218   0.924  11.156 -0.1670 -0.1420 -0.5074
 2474SOL    HW118884   1.296   0.970  11.189 -0.3259 -0.2029 -0.0459
 2474SOL    HW218885   1.148   0.987  11.174 -3.1320 -2.8205 -2.8247
 2475SOL     OW18886   0.649   0.935   2.336 -0.6696  0.7196 -1.1188
 2475SOL    HW118887   0.731   0.892   2.361 -0.1739  0.7152 -2.7770
 2475SOL    HW218888   0.635   0.908   2.246  2.1067 -1.5973 -0.8338
 2476SOL     OW18889   4.295   1.563   7.575 -0.3810 -0.0233 -0.0224
 2476SOL    HW118890   4.295   1.510   7.655 -2.3205  0.8475  0.5528
 2476SOL    HW218891   4.225   1.525   7.523 -0.2137  0.2200 -0.4206
 2477SOL     OW18892   3.976   1.529   6.642  0.1029  0.1639  0.2761
 2477SOL    HW118893   4.063   1.523   6.603 -0.5398  0.5326 -1.2164
 2477SOL    HW218894   3.999   1.590   6.713 -0.4523 -0.4062  0.9408
 2478SOL     OW18895   3.094   0.025   3.676  0.6656  0.0416  0.1727
 2478SOL    HW118896   3.153   4.713   3.742 -1.5887  2.2510  3.4443
 2478SOL    HW218897   3.112   0.119   3.686 -0.7779  0.1530  1.7999
 2479SOL     OW18898   4.485   2.541  13.102 -0.1656 -0.5624  0.2978
 2479SOL    HW118899   4.449   2.489  13.030 -0.8483  0.7962 -0.3423
 2479SOL    HW218900   4.540   2.474  13.142 -1.1997 -1.6691 -0.1193
 2480SOL     OW18901   2.317   4.633   3.352  0.6098 -0.1391 -0.5162
 2480SOL    HW118902   2.227   4.661   3.370 -0.0318 -0.2343 -3.5073
 2480SOL    HW218903   2.345   4.614   3.441 -0.3727 -0.7454 -0.3302
 2481SOL     OW18904   0.653   1.058   8.014 -0.0302 -0.2522  0.7506
 2481SOL    HW118905   0.705   0.978   8.016  0.9837  0.3723 -0.6474
 2481SOL    HW218906   0.707   1.100   7.947 -0.4649 -1.2570 -0.2254
 2482SOL     OW18907   2.455   0.356   0.608  0.0221  0.4264 -0.0846
 2482SOL    HW118908   2.406   0.424   0.562  1.9362  1.5622 -0.4814
 2482SOL    HW218909   2.506   0.322   0.535  0.7601  0.2312  0.5212
 2483SOL     OW18910   3.354   0.305   0.798 -0.5727  0.3345 -0.5464
 2483SOL    HW118911   3.259   0.297   0.787 -0.9464  3.2144  0.5609
 2483SOL    HW218912   3.359   0.375   0.862  0.3340 -0.6028  0.4182
 2484SOL     OW18913   1.195   1.008   6.666  0.3007  0.5334  0.0691
 2484SOL    HW118914   1.178   1.018   6.760 -0.0657  1.8953 -0.1403
 2484SOL    HW218915   1.188   0.915   6.648  3.2948  0.4330 -0.6138
 2485SOL     OW18916   4.224   3.260   1.459  0.1505  0.0647 -0.0297
 2485SOL    HW118917   4.260   3.343   1.426 -1.4992  1.3829  1.4616
 2485SOL    HW218918   4.289   3.234   1.524 -0.1343  0.8218  0.5606
 2486SOL     OW18919   3.744   4.171   2.865  0.4299  0.1940 -0.0740
 2486SOL    HW118920   3.665   4.141   2.909 -0.6605  0.7758 -1.6362
 2486SOL    HW218921   3.786   4.086   2.854 -1.2490 -0.4381 -1.6099
 2487SOL     OW18922   3.635   0.902   8.123  0.2152 -0.0991  0.3053
 2487SOL    HW118923   3.674   0.990   8.120  1.9033 -0.8573  0.1125
 2487SOL    HW218924   3.576   0.903   8.198 -0.0656  1.4573  0.0723
 2488SOL     OW18925   4.058   3.057  17.028 -0.2724  0.1647 -0.4036
 2488SOL    HW118926   4.049   3.152  17.023  0.0648  0.2233  0.0812
 2488SOL    HW218927   4.116   3.036  16.955  3.2919  3.2637  1.5278
 2489SOL     OW18928   2.542   2.886   7.573 -0.2363  0.1028 -0.1238
 2489SOL    HW118929   2.608   2.904   7.506 -1.5049  2.9445 -0.6486
 2489SOL    HW218930   2.468   2.902   7.514 -0.7525  0.6526  0.6742
 2490SOL     OW18931   4.159   4.175  17.388 -0.0792 -0.0484 -0.0670
 2490SOL    HW118932   4.219   4.241  17.354  0.6402 -1.1910 -0.9683
 2490SOL    HW218933   4.085   4.235  17.403  1.3391  1.1519  2.1983
 2491SOL     OW18934   0.872   2.573   9.971  0.0101  0.3466 -0.5083
 2491SOL    HW118935   0.967   2.564   9.962  0.1227  0.5878  0.4716
 2491SOL    HW218936   0.864   2.612  10.058  1.4572  0.4184 -0.4096
 2492SOL     OW18937   4.674   4.508  16.487  0.5567 -0.7040  0.0086
 2492SOL    HW118938   4.650   4.598  16.509  2.9551 -0.0009 -0.3058
 2492SOL    HW218939   4.707   4.519  16.398 -3.8266 -0.7438 -1.6517
 2493SOL     OW18940   0.446   3.608   6.994  0.6746 -0.2652  0.1402
 2493SOL    HW118941   0.433   3.577   6.904 -1.1670  1.1131 -0.0640
 2493SOL    HW218942   0.534   3.584   7.021  0.8533 -0.1968 -0.3854
 2494SOL     OW18943   3.394   1.876   5.544  0.0793  0.2661  0.4130
 2494SOL    HW118944   3.331   1.825   5.493 -0.4395  0.0263  1.3045
 2494SOL    HW218945   3.474   1.860   5.495  0.0936  0.2497  0.4420
 2495SOL     OW18946   4.312   4.078   2.520 -0.7930  0.4177  0.3267
 2495SOL    HW118947   4.399   4.077   2.480 -1.9443 -1.4798 -2.1375
 2495SOL    HW218948   4.253   4.108   2.450 -1.9602  1.5911  1.8150
 2496SOL     OW18949   2.707   0.413   7.254 -0.0319 -0.2342  0.6594
 2496SOL    HW118950   2.756   0.354   7.197 -1.7101 -0.2786 -0.7277
 2496SOL    HW218951   2.617   0.382   7.256  0.0234 -0.6900 -3.3183
 2497SOL     OW18952   4.574   2.846   6.570 -0.2336  0.4717 -0.3379
 2497SOL    HW118953   4.500   2.805   6.616  0.6063 -0.6346  0.0465
 2497SOL    HW218954   4.531   2.915   6.521 -1.2456 -1.7913 -2.6449
 2498SOL     OW18955   4.554   1.627   3.780  0.1324  0.0765 -0.1159
 2498SOL    HW118956   4.595   1.553   3.825  0.8596 -0.2885 -1.4027
 2498SOL    HW218957   4.490   1.663   3.842 -0.5909 -1.4268  0.0236
 2499SOL     OW18958   1.352   3.819   5.234 -0.1067  0.6932  0.1820
 2499SOL    HW118959   1.278   3.815   5.295  0.4724  1.4734  0.9453
 2499SOL    HW218960   1.325   3.769   5.157  2.0187  1.8391 -1.3192
 2500SOL     OW18961   3.431   1.093   1.394  0.1628 -0.9328  0.0802
 2500SOL    HW118962   3.419   1.053   1.308  0.6451  0.3886 -0.6032
 2500SOL    HW218963   3.341   1.104   1.424 -0.5138 -0.6606 -2.0602
 2501SOL     OW18964   0.473   3.620   4.683  0.3241 -0.1265  0.1226
 2501SOL    HW118965   0.385   3.648   4.658 -0.5390 -0.8408  2.4480
 2501SOL    HW218966   0.483   3.527   4.664 -2.6836 -0.8181  1.9410
 2502SOL     OW18967   1.515   2.179   6.417 -0.1280  0.3451  0.0062
 2502SOL    HW118968   1.473   2.197   6.333 -0.4218 -3.8599 -0.7461
 2502SOL    HW218969   1.440   2.148   6.467  1.0599 -1.5601  0.6189
 2503SOL     OW18970   2.173   3.975   0.458 -0.1832 -0.2304 -0.2736
 2503SOL    HW118971   2.212   4.059   0.436 -2.7429  1.2841  0.9723
 2503SOL    HW218972   2.146   3.938   0.374 -0.7225  1.3653 -0.7866
 2504SOL     OW18973   2.783   1.236   4.837  0.0674  0.8007 -0.4497
 2504SOL    HW118974   2.771   1.321   4.879  0.4497  0.2915  0.6888
 2504SOL    HW218975   2.707   1.184   4.860 -0.3670  1.2327 -0.9126
 2505SOL     OW18976   3.717   3.515  14.786 -0.3902  0.5651 -0.4888
 2505SOL    HW118977   3.707   3.420  14.800 -1.1597  0.6232 -0.6502
 2505SOL    HW218978   3.762   3.546  14.864  0.0525 -2.8152  0.6350
 2506SOL     OW18979   3.629   1.945  16.767  0.2264  0.1185  0.2399
 2506SOL    HW118980   3.640   2.039  16.749 -1.5016 -0.3149 -3.0845
 2506SOL    HW218981   3.710   1.926  16.815 -0.5555 -2.0107  0.6724
 2507SOL     OW18982   2.836   0.538   4.642  0.1981 -0.2317  0.1520
 2507SOL    HW118983   2.781   0.459   4.644 -2.0886  1.3564 -0.9146
 2507SOL    HW218984   2.911   0.516   4.698 -0.9341 -0.0401  1.7509
 2508SOL     OW18985   0.042   4.094   4.821  0.1262  0.4112 -0.4039
 2508SOL    HW118986   4.704   4.080   4.751 -0.7748  0.4348  0.3945
 2508SOL    HW218987   0.067   4.186   4.825  2.0181 -0.1481  0.3608
 2509SOL     OW18988   2.195   1.033   5.727 -0.1370  0.3952 -0.0078
 2509SOL    HW118989   2.253   0.958   5.711 -1.6971 -0.4846 -1.5729
 2509SOL    HW218990   2.130   1.029   5.657  0.3708 -0.0355 -0.4591
 2510SOL     OW18991   3.783   4.329  15.364 -0.1230  0.1793 -0.4617
 2510SOL    HW118992   3.864   4.292  15.331  0.2694  0.2401  0.4228
 2510SOL    HW218993   3.793   4.314  15.458  0.0372  2.0001 -0.1842
 2511SOL     OW18994   1.184   3.762  16.526 -0.2847  0.1721 -0.3143
 2511SOL    HW118995   1.164   3.669  16.511 -0.0293  0.2948 -1.4375
 2511SOL    HW218996   1.220   3.789  16.441  0.1821  0.3834 -0.0493
 2512SOL     OW18997   3.122   1.649  11.942 -0.0354  0.0813 -0.0092
 2512SOL    HW118998   3.168   1.607  11.869 -0.1725 -0.3652  0.1608
 2512SOL    HW218999   3.043   1.687  11.902 -0.4945 -1.5626 -0.6675
 2513SOL     OW19000   0.251   3.229  16.471 -0.0354 -0.2092 -0.3507
 2513SOL    HW119001   0.302   3.255  16.395  0.0813  0.7980  0.0721
 2513SOL    HW219002   0.174   3.283  16.455 -0.3458 -0.5500 -0.0061
 2514SOL     OW19003   4.692   4.552   6.856 -0.4893 -0.1488  0.0282
 2514SOL    HW119004   0.015   4.626   6.819  1.6227 -1.9677 -0.8807
 2514SOL    HW219005   4.601   4.581   6.846 -0.6462 -1.1349 -1.3466
 2515SOL     OW19006   0.643   2.415   9.130  0.1319 -0.0582 -0.2053
 2515SOL    HW119007   0.737   2.425   9.140  0.3042 -0.1146 -1.8066
 2515SOL    HW219008   0.620   2.347   9.193 -1.1369  0.0503 -0.5504
 2516SOL     OW19009   0.769   4.339   6.313  0.6301  0.1872  0.0479
 2516SOL    HW119010   0.842   4.379   6.359 -2.0383  2.1765  2.5340
 2516SOL    HW219011   0.719   4.309   6.389 -1.3210  1.3573 -0.7568
 2517SOL     OW19012   1.038   1.696   8.274  0.4543  0.6386 -0.5048
 2517SOL    HW119013   1.097   1.699   8.349  1.8307  1.0763 -1.5981
 2517SOL    HW219014   1.049   1.604   8.250 -0.6129  0.4055 -0.0551
 2518SOL     OW19015   0.381   2.229  16.820  0.2327  0.2319 -0.3056
 2518SOL    HW119016   0.288   2.246  16.837  0.3757  1.1870 -0.4812
 2518SOL    HW219017   0.429   2.263  16.896 -1.0394 -1.3073  1.2059
 2519SOL     OW19018   2.847   4.665   3.740 -0.3693  0.0085  0.1264
 2519SOL    HW119019   2.883   4.600   3.680  0.1967  1.6154 -1.2746
 2519SOL    HW219020   2.900   0.015   3.712  0.9009 -0.6317  0.8308
 2520SOL     OW19021   1.654   4.289   0.740  0.6714  0.2256  0.1716
 2520SOL    HW119022   1.570   4.266   0.701  1.4771 -0.1478 -1.3236
 2520SOL    HW219023   1.659   4.224   0.809 -0.1778  0.1914  0.1967
 2521SOL     OW19024   1.117   0.286   3.994 -0.2719  0.4605  0.0452
 2521SOL    HW119025   1.134   0.349   3.925 -3.0801  1.5185  0.2921
 2521SOL    HW219026   1.203   0.246   4.006 -0.1638  0.2497 -1.5262
 2522SOL     OW19027   3.148   3.150  16.263 -0.0811  0.2070  0.0806
 2522SOL    HW119028   3.182   3.127  16.177 -2.0003 -1.3852 -0.2270
 2522SOL    HW219029   3.231   3.188  16.294 -1.7639  0.5176  4.2443
 2523SOL     OW19030   1.640   0.212   4.886  0.1334  0.2718  0.7394
 2523SOL    HW119031   1.733   0.188   4.885 -0.0583 -0.2523 -2.5230
 2523SOL    HW219032   1.648   0.299   4.926 -1.0563  0.9452 -0.5116
 2524SOL     OW19033   2.086   1.504   8.979  0.1682 -0.5680 -0.0465
 2524SOL    HW119034   2.090   1.580   9.037  0.6446 -1.4156  1.0398
 2524SOL    HW219035   2.060   1.538   8.894 -1.1180  1.3685  1.1208
 2525SOL     OW19036   3.695   2.104   7.603 -0.5490  0.0683 -0.0099
 2525SOL    HW119037   3.618   2.061   7.641  1.0290 -0.2009  2.9122
 2525SOL    HW219038   3.690   2.115   7.508  0.6330 -0.5882 -0.1544
 2526SOL     OW19039   3.423   4.475   0.112 -0.5741 -0.2781 -0.2513
 2526SOL    HW119040   3.332   4.464   0.085 -0.7834  2.0507 -0.5456
 2526SOL    HW219041   3.431   4.408   0.179 -1.2094 -0.9467 -0.8487
 2527SOL     OW19042   2.307   2.772   8.567  0.2608 -0.8616  0.3530
 2527SOL    HW119043   2.241   2.703   8.575 -0.8154  0.0001 -0.8369
 2527SOL    HW219044   2.342   2.773   8.656  1.7674  0.9582 -0.2624
 2528SOL     OW19045   4.597   2.027  12.417  1.0226  0.1271  0.3517
 2528SOL    HW119046   4.533   2.001  12.351 -0.2190  2.5314  0.6141
 2528SOL    HW219047   4.589   1.949  12.473  1.2424  0.0040  0.2119
 2529SOL     OW19048   4.707   2.889  16.452 -0.0039  0.2430  0.4718
 2529SOL    HW119049   4.621   2.873  16.491  0.7650 -1.7128  1.3592
 2529SOL    HW219050   0.012   2.949  16.520  0.7468  0.8910 -0.4275
 2530SOL     OW19051   4.050   0.624   8.804  0.4021 -0.7527  0.0003
 2530SOL    HW119052   4.139   0.593   8.788  0.1069 -0.3077 -2.5550
 2530SOL    HW219053   4.060   0.719   8.809  2.9814 -1.0195 -0.1248
 2531SOL     OW19054   2.155   3.818   6.069 -0.0318  0.0632  0.2866
 2531SOL    HW119055   2.105   3.736   6.071 -1.4095  0.8706 -0.8788
 2531SOL    HW219056   2.117   3.865   6.143  0.1942 -1.3898  1.3244
 2532SOL     OW19057   0.540   1.507   7.091  0.1642  0.0797 -0.2869
 2532SOL    HW119058   0.466   1.496   7.031 -0.7949  0.7501  0.7523
 2532SOL    HW219059   0.516   1.443   7.159 -1.3733 -0.1584 -1.0405
 2533SOL     OW19060   2.442   4.013   5.398 -0.1821 -0.3212  0.1793
 2533SOL    HW119061   2.506   4.024   5.329 -0.0298 -0.0670  0.3606
 2533SOL    HW219062   2.490   3.947   5.448 -1.2385 -0.6774  0.7403
 2534SOL     OW19063   0.882   2.203  12.299 -0.2256 -0.1779  0.3897
 2534SOL    HW119064   0.802   2.222  12.250 -0.6148 -1.0180  0.7084
 2534SOL    HW219065   0.937   2.270  12.258 -0.0274 -1.9151 -2.1501
 2535SOL     OW19066   3.116   3.417   7.718 -0.0183 -0.1730  0.2116
 2535SOL    HW119067   3.086   3.420   7.627  0.6998 -1.2629 -0.0625
 2535SOL    HW219068   3.126   3.324   7.738 -0.3770 -0.6934 -2.0620
 2536SOL     OW19069   2.574   1.532  14.969  0.2648  0.8597  0.2547
 2536SOL    HW119070   2.620   1.531  14.885  2.0937  1.0150  1.2568
 2536SOL    HW219071   2.545   1.623  14.970  0.4733  0.9476 -1.4911
 2537SOL     OW19072   4.343   2.283   5.219  1.0233 -0.0445  0.1376
 2537SOL    HW119073   4.423   2.251   5.178  0.6922 -2.7959  1.6644
 2537SOL    HW219074   4.325   2.219   5.288  0.6773  1.2624  1.2733
 2538SOL     OW19075   0.496   1.034   8.407  0.1229  0.0698 -0.3115
 2538SOL    HW119076   0.471   0.959   8.462  1.8136 -0.0011  0.3567
 2538SOL    HW219077   0.423   1.097   8.411 -0.8066 -1.0485  0.3761
 2539SOL     OW19078   1.170   0.087  12.386 -0.1175  0.3674 -0.2610
 2539SOL    HW119079   1.104   0.059  12.450  1.9227 -0.2576  1.5701
 2539SOL    HW219080   1.183   0.176  12.420 -0.4499  0.2605  0.1510
 2540SOL     OW19081   1.084   1.517  11.888  0.2278 -0.3303 -0.1511
 2540SOL    HW119082   1.104   1.424  11.883 -2.7088 -1.0429  1.3263
 2540SOL    HW219083   1.088   1.538  11.981  1.2221 -1.1974 -0.0008
 2541SOL     OW19084   1.781   4.415  14.627  0.4863  0.2363 -0.5253
 2541SOL    HW119085   1.837   4.479  14.582  1.3192  1.0372  1.6510
 2541SOL    HW219086   1.781   4.334  14.576 -2.1315 -1.1682  1.7420
 2542SOL     OW19087   1.133   2.469   7.865 -0.4162  0.2834 -0.5450
 2542SOL    HW119088   1.154   2.561   7.849  0.1663 -0.0647 -1.7488
 2542SOL    HW219089   1.054   2.436   7.822 -1.1772  0.5132  0.6456
 2543SOL     OW19090   4.125   1.957   3.003 -0.3842  0.7206  0.5736
 2543SOL    HW119091   4.052   1.896   3.016  0.3091 -0.0458  0.8984
 2543SOL    HW219092   4.178   1.899   2.950  0.1073  1.1170  0.6348
 2544SOL     OW19093   3.462   1.091   5.357  0.0804 -0.1911  0.0331
 2544SOL    HW119094   3.464   1.057   5.447 -1.3591  0.4552  0.2996
 2544SOL    HW219095   3.525   1.030   5.319 -0.7192 -0.8602 -0.2111
 2545SOL     OW19096   0.443   2.283  15.819 -0.2367 -0.3300 -0.2208
 2545SOL    HW119097   0.530   2.246  15.834 -0.6912 -1.4818 -0.4769
 2545SOL    HW219098   0.453   2.327  15.735  0.9240  2.0158  1.1460
 2546SOL     OW19099   4.428   4.505   8.011 -0.1402 -0.0988 -0.2409
 2546SOL    HW119100   4.350   4.548   8.044 -0.7397 -0.6585 -0.9351
 2546SOL    HW219101   4.474   4.585   7.983 -1.6364  0.5272 -0.9218
 2547SOL     OW19102   2.274   0.293  11.010 -0.0631  0.0598  0.3053
 2547SOL    HW119103   2.366   0.314  11.028  0.1617  0.0777 -0.8907
 2547SOL    HW219104   2.252   0.346  10.934  0.7678 -1.5418 -1.0484
 2548SOL     OW19105   2.246   2.508  12.135  0.1021 -0.6063 -0.3448
 2548SOL    HW119106   2.247   2.512  12.039 -1.1831 -0.0652 -0.3348
 2548SOL    HW219107   2.159   2.543  12.156 -1.1623 -4.2180  0.4650
 2549SOL     OW19108   1.372   4.171  16.918  0.5129  0.1669  0.2741
 2549SOL    HW119109   1.446   4.126  16.960 -0.5088 -0.4782  1.3890
 2549SOL    HW219110   1.395   4.164  16.825  1.3057  1.4505  0.3766
 2550SOL     OW19111   1.035   1.327  10.049  0.5871  0.5612 -0.5184
 2550SOL    HW119112   0.986   1.257  10.091  0.5757  0.3098 -0.9534
 2550SOL    HW219113   1.127   1.307  10.065  0.7623  1.3980 -0.4545
 2551SOL     OW19114   0.345   1.041   4.280  0.4779 -0.5591  0.6540
 2551SOL    HW119115   0.431   1.039   4.238 -0.4737 -0.2808 -1.3028
 2551SOL    HW219116   0.297   1.004   4.206 -0.1061 -0.8511  1.1795
 2552SOL     OW19117   1.324   0.699  16.030 -0.5035  0.0748  0.1929
 2552SOL    HW119118   1.243   0.724  16.073 -0.1478 -0.4352  1.1513
 2552SOL    HW219119   1.292   0.706  15.940 -0.8960  2.3848  0.5219
 2553SOL     OW19120   2.731   3.933   6.231 -0.0037 -0.0356 -0.4966
 2553SOL    HW119121   2.784   3.982   6.293 -0.3237  0.5740 -0.7145
 2553SOL    HW219122   2.791   3.932   6.156 -0.0861  0.5384 -0.5684
 2554SOL     OW19123   3.937   4.674  14.461 -0.4896 -0.1748  0.2799
 2554SOL    HW119124   3.962   4.583  14.474 -2.5176 -0.8883 -0.7656
 2554SOL    HW219125   3.853   4.687  14.505 -0.3987  2.8751 -0.4777
 2555SOL     OW19126   0.836   0.083   2.002  0.4566 -0.4222  0.2113
 2555SOL    HW119127   0.743   0.072   2.019  0.3990  0.0729  0.2177
 2555SOL    HW219128   0.847   0.112   1.911  1.1957  2.7086  1.2930
 2556SOL     OW19129   3.354   2.326  15.818 -0.0887  0.4233  0.4057
 2556SOL    HW119130   3.367   2.419  15.838  0.1639  0.4266  0.2371
 2556SOL    HW219131   3.439   2.295  15.786 -0.3830 -1.0178  1.0216
 2557SOL     OW19132   2.952   3.166  12.981  0.2825 -0.7163 -0.6485
 2557SOL    HW119133   2.965   3.097  13.046 -1.9110  0.6677  1.2617
 2557SOL    HW219134   2.860   3.189  12.991  0.8308  0.6641  1.2032
 2558SOL     OW19135   2.643   1.065  15.286  0.9249  0.7591 -0.0713
 2558SOL    HW119136   2.553   1.082  15.314  0.6956  1.7884 -1.4473
 2558SOL    HW219137   2.618   1.033  15.200  0.6806  0.6992  0.0225
 2559SOL     OW19138   2.356   1.785   5.088  0.7693  0.2473  0.0216
 2559SOL    HW119139   2.260   1.783   5.099  0.8221  0.3548  0.4987
 2559SOL    HW219140   2.383   1.874   5.109  2.5572 -0.1533 -0.6610
 2560SOL     OW19141   4.201   0.276   2.950 -0.3950  0.0469 -0.3208
 2560SOL    HW119142   4.259   0.203   2.929 -1.0968 -0.4316 -0.5699
 2560SOL    HW219143   4.270   0.338   2.976  0.8089 -0.4687 -2.2520
 2561SOL     OW19144   2.906   2.311   1.979 -0.5357  0.6619 -1.2004
 2561SOL    HW119145   2.986   2.291   1.930 -1.7466 -1.4116 -2.3185
 2561SOL    HW219146   2.943   2.296   2.065  0.3849  0.5454 -1.6146
 2562SOL     OW19147   1.788   3.282   0.061  0.4904  0.7737 -0.2804
 2562SOL    HW119148   1.704   3.266   0.104  0.4131 -1.0503 -1.0845
 2562SOL    HW219149   1.840   3.278   0.141 -1.3026 -1.1471  0.7833
 2563SOL     OW19150   2.272   1.005   7.215 -0.4920  1.0318  0.3635
 2563SOL    HW119151   2.331   1.036   7.284  0.2261 -0.8144  0.5948
 2563SOL    HW219152   2.270   0.914   7.244 -0.0777  0.5718 -1.0623
 2564SOL     OW19153   2.112   0.919  10.620 -0.2925 -0.1139 -0.1620
 2564SOL    HW119154   2.159   0.977  10.680 -2.4160  0.3112  1.1077
 2564SOL    HW219155   2.118   0.952  10.530 -0.5199  0.3287 -0.0116
 2565SOL     OW19156   0.393   2.906   2.630 -0.5556 -0.2323  0.1050
 2565SOL    HW119157   0.463   2.947   2.681 -0.5399  0.4109 -0.4347
 2565SOL    HW219158   0.365   2.841   2.695 -0.9690 -0.5783 -0.4215
 2566SOL     OW19159   2.471   2.063   9.060 -0.6103 -0.4704  0.4703
 2566SOL    HW119160   2.390   2.011   9.060 -0.5063 -0.6232 -1.1088
 2566SOL    HW219161   2.480   2.077   8.966  0.0342  1.2105  0.7773
 2567SOL     OW19162   0.262   4.261   4.553 -0.5032  0.6866  0.2382
 2567SOL    HW119163   0.325   4.265   4.625 -0.2279 -0.8975  0.0955
 2567SOL    HW219164   0.224   4.182   4.591  0.4469 -0.1035 -0.4330
 2568SOL     OW19165   1.881   0.596  15.695 -0.7225 -0.0410 -0.0117
 2568SOL    HW119166   1.805   0.567  15.746  0.5060 -1.4865  0.9846
 2568SOL    HW219167   1.916   0.656  15.761 -0.1988 -0.1904 -0.1513
 2569SOL     OW19168   1.815   3.589  15.447 -0.1827  0.6253  0.1461
 2569SOL    HW119169   1.903   3.603  15.484  0.5331 -2.4248 -0.4314
 2569SOL    HW219170   1.792   3.667  15.397 -0.6821  1.8672  2.3122
 2570SOL     OW19171   0.663   1.509   7.512  0.9296  0.4387 -0.5667
 2570SOL    HW119172   0.626   1.426   7.540  0.4934  1.1115  0.8458
 2570SOL    HW219173   0.712   1.530   7.591 -2.4330  0.5899  1.4711
 2571SOL     OW19174   2.892   1.930   6.279 -0.2818  0.0212 -0.3131
 2571SOL    HW119175   2.967   1.898   6.229  0.7507 -0.8685  1.7917
 2571SOL    HW219176   2.822   1.900   6.221  0.3750 -1.7852 -0.1589
 2572SOL     OW19177   1.880   4.475   7.586  0.3433  0.5621 -0.2179
 2572SOL    HW119178   1.844   4.387   7.571  1.2420  0.4590 -1.7355
 2572SOL    HW219179   1.946   4.462   7.655  0.4048  0.9581 -0.2049
 2573SOL     OW19180   2.301   1.628   3.016  0.1377 -0.3861  0.9157
 2573SOL    HW119181   2.228   1.688   2.996  0.6594 -0.6213 -1.7601
 2573SOL    HW219182   2.342   1.628   2.929 -1.7836 -1.5961 -0.0006
 2574SOL     OW19183   0.765   4.059   5.499 -0.1420  0.3862 -0.9267
 2574SOL    HW119184   0.736   4.001   5.569 -1.4755 -1.2863 -2.8438
 2574SOL    HW219185   0.696   4.057   5.432 -0.9378 -2.8530 -0.0047
 2575SOL     OW19186   1.947   4.315  16.095  0.0285 -0.0473  0.3617
 2575SOL    HW119187   1.927   4.229  16.134 -1.7054  0.5472  0.7993
 2575SOL    HW219188   1.860   4.355  16.087  1.1015  1.9322 -1.3357
 2576SOL     OW19189   1.341   3.273   8.379 -0.4389  0.2545 -0.6704
 2576SOL    HW119190   1.318   3.270   8.472  3.9060  0.0002  0.3741
 2576SOL    HW219191   1.254   3.256   8.341 -0.0432 -2.3383 -0.4345
 2577SOL     OW19192   0.185   3.679   3.531  0.4879 -0.0038 -0.0683
 2577SOL    HW119193   0.124   3.703   3.461 -0.7614  1.2319  1.4671
 2577SOL    HW219194   0.129   3.615   3.575  0.0572  0.2575 -0.2356
 2578SOL     OW19195   3.852   0.818   4.719  0.1449  0.1271  0.2405
 2578SOL    HW119196   3.794   0.842   4.791 -0.2747 -0.9377  0.2547
 2578SOL    HW219197   3.789   0.763   4.672  0.8016 -0.2257 -0.2391
 2579SOL     OW19198   0.104   2.214   2.867  0.1985 -0.7179  0.1673
 2579SOL    HW119199   0.144   2.154   2.804  0.8613 -1.7935  1.6230
 2579SOL    HW219200   0.054   2.148   2.915  1.8335 -1.5453  0.7169
 2580SOL     OW19201   1.828   0.066   7.872 -0.6151  0.2556  0.4285
 2580SOL    HW119202   1.878   0.127   7.927 -0.1106  0.4750 -0.2786
 2580SOL    HW219203   1.786   0.023   7.946  0.2753 -2.4163 -0.6440
 2581SOL     OW19204   3.374   1.857  11.120  0.4787 -0.0591 -0.3535
 2581SOL    HW119205   3.356   1.817  11.205  1.9900 -2.3698 -1.1007
 2581SOL    HW219206   3.352   1.779  11.070  0.4343 -0.7662  0.7780
 2582SOL     OW19207   3.768   0.017   1.716  0.0876  0.3026  0.2328
 2582SOL    HW119208   3.834   4.675   1.697 -0.5651 -0.5612  1.0039
 2582SOL    HW219209   3.695   4.684   1.738  0.3731 -0.6655 -1.3172
 2583SOL     OW19210   4.716   0.754   4.113  0.5745  0.1094 -0.0973
 2583SOL    HW119211   4.720   0.660   4.131 -2.2522 -0.2876 -1.5231
 2583SOL    HW219212   4.630   0.763   4.071 -0.0640  0.8820  1.3763
 2584SOL     OW19213   4.210   3.733   5.591 -0.1579  0.0485  0.2412
 2584SOL    HW119214   4.200   3.759   5.499  1.4972  0.3663  0.1446
 2584SOL    HW219215   4.171   3.646   5.590  2.1634 -0.9996 -1.0610
 2585SOL     OW19216   3.542   1.124   7.048  0.3844  0.1090 -0.2160
 2585SOL    HW119217   3.447   1.123   7.034  0.4268  0.1707 -0.5032
 2585SOL    HW219218   3.537   1.068   7.125 -2.0494 -1.4311 -1.5078
 2586SOL     OW19219   4.523   1.639   5.581 -0.1436  0.4622  0.2128
 2586SOL    HW119220   4.471   1.692   5.521 -2.5992 -0.2907  1.7231
 2586SOL    HW219221   4.566   1.585   5.514 -1.4857 -0.4074  0.0629
 2587SOL     OW19222   0.040   0.606   6.925 -0.2209 -0.1604  0.4432
 2587SOL    HW119223   0.084   0.555   6.857  1.4673 -0.9873  2.1837
 2587SOL    HW219224   0.112   0.606   6.988 -1.4668 -0.1828  1.8674
 2588SOL     OW19225   1.883   4.233  13.991  0.2248  0.3079  0.1892
 2588SOL    HW119226   1.970   4.269  14.011  0.5218  0.1061 -0.7216
 2588SOL    HW219227   1.853   4.304  13.934 -0.2994  0.0651  0.1624
 2589SOL     OW19228   1.611   2.601   2.724  0.1394 -0.1629  0.4114
 2589SOL    HW119229   1.626   2.614   2.630 -0.9187  1.7414  0.4967
 2589SOL    HW219230   1.670   2.529   2.744 -1.7908 -1.7805  0.2301
 2590SOL     OW19231   2.513   3.301   8.637 -0.3742 -0.0525  0.4965
 2590SOL    HW119232   2.435   3.350   8.663  0.1578  0.2147  1.6181
 2590SOL    HW219233   2.481   3.242   8.569  1.0040 -0.2491  0.0197
 2591SOL     OW19234   3.692   4.581  11.355 -0.6158 -0.1487 -0.2411
 2591SOL    HW119235   3.711   4.574  11.261 -3.1744  0.8849 -0.8624
 2591SOL    HW219236   3.688   4.493  11.391 -1.4329  0.9101  2.2053
 2592SOL     OW19237   3.446   1.770   9.809  0.3035 -0.2816  0.3004
 2592SOL    HW119238   3.520   1.709   9.806 -0.0183 -0.6383 -0.2626
 2592SOL    HW219239   3.491   1.853   9.828  0.7413 -0.5242  0.3422
 2593SOL     OW19240   3.006   3.385  15.246 -0.5342 -0.4685 -0.2554
 2593SOL    HW119241   2.916   3.368  15.276 -0.6101 -0.4302 -0.4604
 2593SOL    HW219242   3.064   3.370  15.320 -0.9978 -2.1760 -0.2439
 2594SOL     OW19243   1.025   0.662   5.155  0.8607  0.7589 -0.0965
 2594SOL    HW119244   0.989   0.580   5.190  5.0410 -0.0795  2.3029
 2594SOL    HW219245   1.062   0.630   5.072  0.1734  1.2796 -0.5956
 2595SOL     OW19246   1.603   3.764  11.205 -0.3248  0.1296 -0.0794
 2595SOL    HW119247   1.671   3.746  11.140  0.3696  0.6319  0.5123
 2595SOL    HW219248   1.657   3.757  11.284  0.8704 -1.6283 -1.0408
 2596SOL     OW19249   3.141   2.094   2.948 -0.2376  0.0514 -0.2500
 2596SOL    HW119250   3.062   2.050   2.918  0.4642 -1.7444  0.4922
 2596SOL    HW219251   3.094   2.167   2.987  0.3434 -0.0604  0.6679
 2597SOL     OW19252   3.115   3.044   4.020  0.6301  0.1076  0.2283
 2597SOL    HW119253   3.194   3.003   4.055  0.2953 -0.7460  0.0025
 2597SOL    HW219254   3.090   3.098   4.095  0.0316  0.2119 -0.0447
 2598SOL     OW19255   4.221   3.457   2.062 -0.2310  0.6755  0.1567
 2598SOL    HW119256   4.283   3.527   2.084  0.2770 -0.0270  1.0154
 2598SOL    HW219257   4.143   3.512   2.061 -1.4036 -1.0169 -1.0005
 2599SOL     OW19258   2.785   2.534  10.926  0.3586  0.1668 -1.4162
 2599SOL    HW119259   2.771   2.445  10.892 -1.2758 -0.2119  0.2706
 2599SOL    HW219260   2.727   2.573  10.861 -0.5699  0.5125 -0.3556
 2600SOL     OW19261   3.109   0.083   5.468 -0.0742 -0.5843 -0.1124
 2600SOL    HW119262   3.101   0.027   5.546 -1.3236 -1.3868 -0.8197
 2600SOL    HW219263   3.074   0.160   5.513  1.2229 -0.7880  1.2453
 2601SOL     OW19264   3.723   3.171  10.924  0.7695  0.0378 -0.0704
 2601SOL    HW119265   3.709   3.199  11.014 -0.5093 -0.1655 -0.1993
 2601SOL    HW219266   3.724   3.075  10.923 -1.7353  0.0021 -1.5238
 2602SOL     OW19267   2.919   2.399   0.137 -0.4023  0.0814 -0.4917
 2602SOL    HW119268   2.948   2.379   0.048 -0.4669  2.9911 -1.1814
 2602SOL    HW219269   2.850   2.335   0.153 -1.8132  1.2220 -1.9832
 2603SOL     OW19270   2.208   3.784   6.909  0.0399 -0.5684  0.0096
 2603SOL    HW119271   2.217   3.793   6.814  0.4598 -1.0997 -0.0003
 2603SOL    HW219272   2.141   3.851   6.927  1.5569  1.2873 -1.3418
 2604SOL     OW19273   1.828   1.933   3.119  0.3732  0.3338 -0.1258
 2604SOL    HW119274   1.904   1.958   3.171  0.2905 -2.0771  1.1510
 2604SOL    HW219275   1.763   1.978   3.174  0.1939  1.8236 -1.5487
 2605SOL     OW19276   1.074   2.049  14.689 -0.3622  0.2325  0.3869
 2605SOL    HW119277   1.141   2.026  14.625 -1.5344  0.1316 -0.8003
 2605SOL    HW219278   0.997   2.035  14.634  0.4197 -1.8489 -0.1734
 2606SOL     OW19279   0.954   3.724  12.914  0.2443 -0.6973  0.3527
 2606SOL    HW119280   1.000   3.734  12.831 -0.9456 -1.5545 -0.4071
 2606SOL    HW219281   0.862   3.729  12.889  0.0442 -3.4720  0.5467
 2607SOL     OW19282   1.673   1.112  14.845 -0.0984  1.2270  0.5908
 2607SOL    HW119283   1.659   1.128  14.752 -1.1348 -1.2589  0.3278
 2607SOL    HW219284   1.751   1.163  14.868 -0.0685  1.2084  0.5299
 2608SOL     OW19285   1.786   3.409   3.387  0.6586 -0.5325 -0.7976
 2608SOL    HW119286   1.718   3.419   3.320 -0.4070  2.2065  0.6862
 2608SOL    HW219287   1.772   3.316   3.405 -0.0121  0.0954  1.8508
 2609SOL     OW19288   4.658   4.347  16.989  0.0405 -0.1951  0.2480
 2609SOL    HW119289   4.662   4.430  17.036  1.1052  0.6908 -1.4247
 2609SOL    HW219290   4.570   4.360  16.954  1.0719 -2.3354 -3.1574
 2610SOL     OW19291   1.768   4.190   3.409  0.1179  0.2522 -0.2831
 2610SOL    HW119292   1.741   4.103   3.383  1.1177  0.4848 -2.1314
 2610SOL    HW219293   1.818   4.164   3.486  0.4691 -1.9314 -1.2506
 2611SOL     OW19294   0.856   1.597  14.812  0.1317 -0.3291 -0.3919
 2611SOL    HW119295   0.930   1.656  14.800 -0.1604  0.2743  0.7847
 2611SOL    HW219296   0.844   1.597  14.907  1.0613 -2.3397 -0.2767
 2612SOL     OW19297   4.668   1.701   3.470  0.4772  0.0392 -0.1916
 2612SOL    HW119298   0.039   1.701   3.464  0.4921  0.7412  0.0595
 2612SOL    HW219299   4.666   1.690   3.565  1.0007  0.6139 -0.1128
 2613SOL     OW19300   3.970   0.416   2.963 -0.0848 -0.4295  0.6160
 2613SOL    HW119301   4.053   0.382   2.930  0.1121  0.5783  0.0508
 2613SOL    HW219302   4.014   0.463   3.033  2.3896  0.3047 -1.4191
 2614SOL     OW19303   4.077   3.409   2.490 -0.0257  0.0989  0.2826
 2614SOL    HW119304   4.024   3.392   2.413 -0.7471  1.3287  0.5127
 2614SOL    HW219305   4.010   3.430   2.554  0.4112  0.8103  0.5053
 2615SOL     OW19306   0.326   0.825   4.930 -0.5872  0.4066 -0.3634
 2615SOL    HW119307   0.342   0.738   4.894 -2.6947  1.2301 -3.2880
 2615SOL    HW219308   0.305   0.878   4.853  2.8986  1.5687 -0.5031
 2616SOL     OW19309   4.165   0.209   3.231  0.1635 -0.2405 -0.0008
 2616SOL    HW119310   4.108   0.133   3.248  0.4291 -0.6395 -0.9115
 2616SOL    HW219311   4.142   0.234   3.142  1.6012  1.2244  0.0456
 2617SOL     OW19312   0.077   0.694   2.268  0.1852  0.0754 -0.5025
 2617SOL    HW119313   0.053   0.602   2.273  2.6130 -0.6948 -2.8307
 2617SOL    HW219314   0.123   0.692   2.352 -0.0848 -0.2763 -0.3612
 2618SOL     OW19315   2.760   2.115   6.437 -0.1492  0.1789  0.0250
 2618SOL    HW119316   2.822   2.188   6.425 -1.5546  1.1910 -1.0020
 2618SOL    HW219317   2.807   2.044   6.394  0.0900  0.6142 -0.4287
 2619SOL     OW19318   2.239   3.508  11.375  0.7067 -0.5161  0.3414
 2619SOL    HW119319   2.155   3.469  11.352 -0.5624  2.7001 -0.4434
 2619SOL    HW219320   2.283   3.430  11.410  1.9410 -1.4792 -3.3115
 2620SOL     OW19321   2.261   0.180  17.481 -0.1918  0.1521  0.1004
 2620SOL    HW119322   2.182   0.128  17.466  1.0757 -1.6114 -0.5547
 2620SOL    HW219323   2.270   0.172  17.576  0.1030  0.3554  0.0910
 2621SOL     OW19324   0.104   0.533   1.126  0.3764  0.3246 -0.4153
 2621SOL    HW119325   0.080   0.589   1.052 -0.7043 -0.3253 -0.5572
 2621SOL    HW219326   0.015   0.518   1.160  0.6343 -0.4435 -0.0831
 2622SOL     OW19327   3.007   2.145  11.456  1.0247  0.0323 -0.2766
 2622SOL    HW119328   2.952   2.080  11.499  2.2968 -1.4928 -0.9745
 2622SOL    HW219329   2.971   2.226  11.492  0.7222  1.2062 -3.2419
 2623SOL     OW19330   4.127   0.423   7.587 -0.1108  0.2223  0.4454
 2623SOL    HW119331   4.098   0.413   7.496 -0.7643  1.4513  0.5160
 2623SOL    HW219332   4.124   0.519   7.589  1.6234  0.2238  2.5558
 2624SOL     OW19333   2.818   2.429   4.842  0.2618 -0.2992  0.6740
 2624SOL    HW119334   2.910   2.440   4.865  0.4264 -1.6833  0.6707
 2624SOL    HW219335   2.815   2.333   4.837 -0.5661 -0.2627  0.4078
 2625SOL     OW19336   3.759   2.625   5.128  0.0400 -0.3269  0.2473
 2625SOL    HW119337   3.760   2.622   5.223  0.7042 -0.6531  0.2279
 2625SOL    HW219338   3.736   2.539   5.094  0.4202 -0.3315 -0.0027
 2626SOL     OW19339   4.607   2.862  15.781  0.1146 -0.4032  0.1188
 2626SOL    HW119340   4.634   2.805  15.709 -2.0444 -0.7900 -0.3851
 2626SOL    HW219341   4.692   2.902  15.801 -0.1710  1.5108 -2.6158
 2627SOL     OW19342   1.806   2.504   3.505 -0.1500  0.0291  0.6410
 2627SOL    HW119343   1.744   2.498   3.433 -0.3889 -0.6970  0.9146
 2627SOL    HW219344   1.890   2.507   3.460 -0.9730 -3.2053 -1.0949
 2628SOL     OW19345   0.418   0.541   5.686  0.0507  0.1417  0.1781
 2628SOL    HW119346   0.442   0.519   5.776  1.9429  0.5962 -0.2112
 2628SOL    HW219347   0.439   0.635   5.686  0.9578 -0.0626  1.9013
 2629SOL     OW19348   4.229   1.513  13.946  0.3077 -0.5480 -0.2259
 2629SOL    HW119349   4.172   1.590  13.949  0.0873 -0.7217  0.0119
 2629SOL    HW219350   4.234   1.504  13.851 -0.1532 -3.5459  0.0376
 2630SOL     OW19351   3.490   3.751  12.111 -0.8402  0.2304 -0.3658
 2630SOL    HW119352   3.403   3.790  12.103 -0.7548 -0.0721 -2.7038
 2630SOL    HW219353   3.550   3.826  12.108  0.4013 -0.7422 -0.0263
 2631SOL     OW19354   3.453   4.049  16.010  0.0196 -0.2780 -0.4680
 2631SOL    HW119355   3.498   4.115  16.063  0.2848 -0.3958 -0.5454
 2631SOL    HW219356   3.526   4.009  15.962  1.9842  0.3889  1.9328
 2632SOL     OW19357   1.540   2.286   3.786 -0.3439 -0.4763 -0.0703
 2632SOL    HW119358   1.516   2.241   3.705  4.9380 -1.1127 -1.2816
 2632SOL    HW219359   1.520   2.221   3.854 -0.2750  0.4074  0.7951
 2633SOL     OW19360   3.754   1.356   1.654 -0.2116 -0.3946 -0.0807
 2633SOL    HW119361   3.679   1.299   1.639  0.3794 -1.4161  0.8453
 2633SOL    HW219362   3.721   1.446   1.652  0.3326 -0.1839  0.2420
 2634SOL     OW19363   4.433   1.711   6.449  0.2743 -0.3245 -0.2091
 2634SOL    HW119364   4.403   1.771   6.517  1.5791  1.4151 -1.1727
 2634SOL    HW219365   4.523   1.740   6.458 -0.1191  0.4519  1.0944
 2635SOL     OW19366   3.108   2.336  16.675  0.1914 -0.2919  0.4839
 2635SOL    HW119367   3.098   2.264  16.737 -0.8170 -1.1663 -0.6919
 2635SOL    HW219368   3.125   2.410  16.733 -0.8230 -0.0929  0.5348
 2636SOL     OW19369   3.403   2.584  12.654  0.1626 -0.2749  0.5925
 2636SOL    HW119370   3.315   2.609  12.626  1.2309  0.6976 -1.9007
 2636SOL    HW219371   3.389   2.584  12.748  1.1217 -2.4536  0.7342
 2637SOL     OW19372   0.880   1.580   3.869 -0.4603 -0.2241  0.2196
 2637SOL    HW119373   0.802   1.525   3.865 -0.2018 -0.5422 -0.5695
 2637SOL    HW219374   0.906   1.585   3.777 -2.6357 -1.5794 -0.4657
 2638SOL     OW19375   2.708   1.626   7.983  0.4307  0.2115 -0.3648
 2638SOL    HW119376   2.716   1.599   7.892  0.3511 -2.1725  0.3195
 2638SOL    HW219377   2.671   1.548   8.025  2.1068  0.3440  1.3619
 2639SOL     OW19378   4.045   0.037   6.553  0.4650  0.2613 -0.0236
 2639SOL    HW119379   4.085   4.687   6.508  0.1484  0.1113 -0.0504
 2639SOL    HW219380   4.123   0.069   6.600  0.7513  2.0841 -1.7343
 2640SOL     OW19381   2.162   2.381   6.369  0.2689  0.2131  0.1437
 2640SOL    HW119382   2.108   2.452   6.335 -2.1332 -1.1619  1.0510
 2640SOL    HW219383   2.196   2.424   6.448  1.1781  0.5042 -0.4058
 2641SOL     OW19384   4.670   4.140   5.135 -0.2166  0.2233  0.1089
 2641SOL    HW119385   4.715   4.069   5.181 -0.4633  0.2275  0.3579
 2641SOL    HW219386   4.638   4.111   5.050 -1.3004 -0.1176  0.6266
 2642SOL     OW19387   1.949   4.062  16.194  0.0361  0.0231 -0.1673
 2642SOL    HW119388   2.023   4.015  16.158 -0.5880 -1.5611  0.6206
 2642SOL    HW219389   1.914   3.998  16.257 -0.7134  0.4116 -0.1877
 2643SOL     OW19390   0.165   3.957   5.903  0.0618  0.1980  0.0911
 2643SOL    HW119391   0.175   3.906   5.823  4.1844  1.2684 -0.0463
 2643SOL    HW219392   0.129   4.038   5.866 -0.1604  0.2092  0.3340
 2644SOL     OW19393   0.090   4.689  13.034  0.5398 -0.0042  0.3162
 2644SOL    HW119394   0.008   0.003  13.005  1.0973 -0.1757 -1.5107
 2644SOL    HW219395   0.137   0.045  13.052  2.5620 -0.8213 -1.1853
 2645SOL     OW19396   3.040   0.296   5.606 -0.0808 -0.0049 -0.0429
 2645SOL    HW119397   3.094   0.373   5.626  1.4316 -1.0391 -0.1093
 2645SOL    HW219398   3.024   0.256   5.692 -0.9912 -0.4656 -0.4299
 2646SOL     OW19399   4.070   0.510   5.407 -0.9179  0.1595 -0.3604
 2646SOL    HW119400   3.993   0.541   5.454  0.4654  1.2302  1.1795
 2646SOL    HW219401   4.115   0.452   5.468 -1.2473  0.6217  0.3293
 2647SOL     OW19402   1.635   0.348   6.251 -0.0882  0.0053  0.0322
 2647SOL    HW119403   1.598   0.339   6.164  0.1090 -1.4746  0.1110
 2647SOL    HW219404   1.606   0.434   6.281 -1.3762 -0.1683 -0.7373
 2648SOL     OW19405   0.823   2.690   8.978  0.1543 -0.3294 -0.4633
 2648SOL    HW119406   0.846   2.640   9.056  0.8764 -1.2558 -1.2572
 2648SOL    HW219407   0.827   2.774   9.022 -0.2408  0.3399 -1.7107
 2649SOL     OW19408   1.902   1.584  14.805  0.5457  0.1986 -0.0973
 2649SOL    HW119409   1.917   1.543  14.720 -0.0187  0.4269 -0.3010
 2649SOL    HW219410   1.811   1.556  14.815  1.1779 -1.5272  0.8707
 2650SOL     OW19411   0.875   2.111   5.682  0.5377 -0.2253 -0.2856
 2650SOL    HW119412   0.826   2.189   5.656 -1.3637 -1.2401  0.2702
 2650SOL    HW219413   0.810   2.050   5.647 -0.1185  0.8594 -0.9554
 2651SOL     OW19414   2.185   1.528  13.537 -0.3714 -0.3543 -0.4894
 2651SOL    HW119415   2.206   1.476  13.459 -1.4337  1.1615 -1.7794
 2651SOL    HW219416   2.182   1.464  13.609 -2.7860 -0.3395 -0.5867
 2652SOL     OW19417   2.228   4.640   1.774 -0.2032  0.0796 -0.0927
 2652SOL    HW119418   2.152   4.642   1.832  0.7629  0.3410  1.1635
 2652SOL    HW219419   2.298   4.635   1.839  0.4343  1.6932 -0.6489
 2653SOL     OW19420   1.853   4.362  17.637  0.4221 -0.0946 -0.5626
 2653SOL    HW119421   1.811   4.385   0.019 -2.0683  0.1962 -1.8939
 2653SOL    HW219422   1.881   4.450  17.612  0.5914 -0.8199 -2.9115
 2654SOL     OW19423   1.334   2.181   8.720  0.6614  0.2511  0.2266
 2654SOL    HW119424   1.420   2.221   8.734  0.0512  1.3887  0.8128
 2654SOL    HW219425   1.281   2.258   8.744  1.8694  0.9492  0.6752
 2655SOL     OW19426   3.733   2.970   8.956  0.0010 -0.6641  0.1509
 2655SOL    HW119427   3.692   2.924   8.882  0.9496  0.1791 -0.9049
 2655SOL    HW219428   3.771   2.899   9.008  0.7807 -0.4583 -0.1373
 2656SOL     OW19429   2.663   2.402  12.427  0.3007 -0.0474 -0.0587
 2656SOL    HW119430   2.651   2.307  12.431  1.7584 -0.1625  1.3139
 2656SOL    HW219431   2.607   2.428  12.353 -0.7594  0.5221  0.9370
 2657SOL     OW19432   2.906   1.648   4.426 -0.1657  0.4596 -0.1648
 2657SOL    HW119433   2.973   1.715   4.437  1.0597 -1.0049  1.2527
 2657SOL    HW219434   2.915   1.592   4.503  0.5779  2.2437  1.0338
 2658SOL     OW19435   2.211   2.371  16.080  0.6421  0.0226 -0.3804
 2658SOL    HW119436   2.182   2.450  16.035  1.5146 -0.9517 -2.6554
 2658SOL    HW219437   2.128   2.323  16.084 -0.8511  2.5643 -1.3241
 2659SOL     OW19438   4.088   1.588   2.546  0.3949 -0.6921 -0.4652
 2659SOL    HW119439   4.133   1.605   2.464 -1.4800  0.0342 -1.3591
 2659SOL    HW219440   4.136   1.523   2.598  2.2653  1.2878  0.2517
 2660SOL     OW19441   0.353   2.719   3.662 -0.4064 -0.1729  0.4092
 2660SOL    HW119442   0.434   2.767   3.643 -0.7642 -0.2725 -1.2924
 2660SOL    HW219443   0.290   2.745   3.595 -0.9739  1.9652  1.7705
 2661SOL     OW19444   0.146   4.254   9.063 -0.0933  0.4720  0.2796
 2661SOL    HW119445   0.157   4.165   9.028  0.5387  0.6765 -0.0459
 2661SOL    HW219446   0.096   4.239   9.143  1.5716 -1.4692  0.9425
 2662SOL     OW19447   1.318   3.975   4.816 -0.4454 -0.1187 -0.3438
 2662SOL    HW119448   1.324   4.049   4.877 -0.7521 -0.1759 -0.2427
 2662SOL    HW219449   1.295   4.024   4.737  0.9109 -2.0398 -1.9332
 2663SOL     OW19450   4.121   1.116   2.932 -0.2702 -0.4558 -0.2436
 2663SOL    HW119451   4.092   1.025   2.946  0.6487 -0.8163 -0.6434
 2663SOL    HW219452   4.203   1.123   2.981  0.0034 -0.9542 -0.6167
 2664SOL     OW19453   4.375   1.165   5.989 -0.0991 -0.4621  0.7291
 2664SOL    HW119454   4.291   1.204   6.013 -0.2913 -0.9510  0.8499
 2664SOL    HW219455   4.435   1.236   6.010  1.3311 -1.9848  1.7670
 2665SOL     OW19456   1.546   2.551   4.322  0.4314 -0.0703  0.3381
 2665SOL    HW119457   1.630   2.505   4.323 -0.9620 -2.6478 -0.8681
 2665SOL    HW219458   1.489   2.478   4.296 -0.6282  0.7654  0.2978
 2666SOL     OW19459   3.908   1.194   3.409 -0.3301 -0.2316 -0.3845
 2666SOL    HW119460   3.843   1.147   3.461  0.6586  0.0543  1.1275
 2666SOL    HW219461   3.875   1.177   3.321  0.2074 -4.8567  0.3413
 2667SOL     OW19462   4.275   3.310   7.597 -0.2034  0.3051 -0.6259
 2667SOL    HW119463   4.184   3.314   7.627 -0.4910  0.7952 -1.5517
 2667SOL    HW219464   4.292   3.402   7.580  2.6912  0.3024  2.4133
 2668SOL     OW19465   3.538   1.079   9.054 -0.5687  0.1548  0.3777
 2668SOL    HW119466   3.449   1.058   9.080 -0.4365 -1.6764 -0.6231
 2668SOL    HW219467   3.574   1.100   9.140  0.9859  0.1749 -0.2755
 2669SOL     OW19468   3.051   0.463   1.250  0.1484 -0.1008  0.3674
 2669SOL    HW119469   2.969   0.427   1.282  0.5670 -0.7036  0.7582
 2669SOL    HW219470   3.020   0.462   1.160  1.3769 -3.0557 -0.0165
 2670SOL     OW19471   1.395   4.320   7.446 -0.2707 -0.0570  0.2627
 2670SOL    HW119472   1.322   4.342   7.388 -2.1449 -1.8221  1.9425
 2670SOL    HW219473   1.476   4.345   7.401  0.2636 -0.4552  1.0169
 2671SOL     OW19474   3.267   4.681  17.666  0.1323  0.2197 -0.4499
 2671SOL    HW119475   3.363   4.675  17.662  0.0364 -1.2358 -0.7975
 2671SOL    HW219476   3.259   4.684   0.059  2.2097 -0.5720 -0.2365
 2672SOL     OW19477   1.138   1.938  11.983 -0.4187 -0.2360 -0.5199
 2672SOL    HW119478   1.133   1.972  11.894 -0.4272  0.1126 -0.3884
 2672SOL    HW219479   1.202   1.869  11.966 -1.5022 -1.8569  1.9233
 2673SOL     OW19480   1.446   2.554   1.821 -0.4526 -0.2065  0.3104
 2673SOL    HW119481   1.363   2.518   1.852 -0.7850 -1.7130 -2.3036
 2673SOL    HW219482   1.503   2.478   1.805  0.1166  0.0275  1.2757
 2674SOL     OW19483   1.199   3.925   8.374 -0.4606  0.2578  0.0341
 2674SOL    HW119484   1.191   3.946   8.467  1.3543 -0.0633  0.2473
 2674SOL    HW219485   1.147   3.845   8.368 -1.8927  1.2034 -0.2641
 2675SOL     OW19486   2.789   3.795   2.753 -0.1562 -0.4429 -0.3143
 2675SOL    HW119487   2.716   3.813   2.693 -1.0658  0.9339  1.1991
 2675SOL    HW219488   2.812   3.703   2.760  1.6551 -0.0075 -0.6637
 2676SOL     OW19489   0.195   0.095   8.612  0.3266 -0.4408  0.0139
 2676SOL    HW119490   0.170   0.187   8.609  0.3152 -0.3636  2.2547
 2676SOL    HW219491   0.285   0.104   8.646  0.9969  0.9119 -2.1328
 2677SOL     OW19492   0.923   3.466   6.401 -0.0623 -0.5123  0.2291
 2677SOL    HW119493   0.889   3.379   6.421  0.9438 -0.8981  0.2724
 2677SOL    HW219494   0.905   3.519   6.478  0.9238  1.5901 -0.9760
 2678SOL     OW19495   4.502   4.567   5.914  0.4032 -0.2651  0.0530
 2678SOL    HW119496   4.519   4.658   5.889 -0.2965 -0.5714 -1.5672
 2678SOL    HW219497   4.418   4.556   5.868 -0.8867  1.7577  1.9159
 2679SOL     OW19498   0.924   2.250  14.487 -0.0966  0.5977 -0.2252
 2679SOL    HW119499   1.001   2.268  14.541  1.1800 -1.5090 -1.3189
 2679SOL    HW219500   0.908   2.157  14.506 -1.1746  0.5993 -1.1074
 2680SOL     OW19501   0.247   0.201   6.375 -0.3026  0.1059  0.1321
 2680SOL    HW119502   0.250   0.146   6.453 -2.5298  0.9887  0.8629
 2680SOL    HW219503   0.328   0.186   6.327 -0.1444  2.0864 -0.2497
 2681SOL     OW19504   3.836   0.021   4.267 -0.0036 -0.4863 -0.6217
 2681SOL    HW119505   3.915   0.018   4.213 -0.5485 -1.6307 -1.3582
 2681SOL    HW219506   3.839   0.103   4.316 -0.2495  0.0052 -1.4386
 2682SOL     OW19507   3.481   0.457   8.857  0.1751 -0.1065 -0.6440
 2682SOL    HW119508   3.388   0.441   8.873 -0.1162  2.0686 -0.2026
 2682SOL    HW219509   3.520   0.370   8.855  0.6420  0.1049 -1.0779
 2683SOL     OW19510   2.654   1.185   6.046  0.0555 -0.1531 -0.7434
 2683SOL    HW119511   2.600   1.181   6.125  0.7756 -2.2030 -0.3597
 2683SOL    HW219512   2.650   1.095   6.015 -0.1416  0.4281 -2.4176
 2684SOL     OW19513   4.366   3.609   2.232 -0.4525  0.1297  0.1175
 2684SOL    HW119514   4.457   3.624   2.205 -0.8856  1.9831 -0.2515
 2684SOL    HW219515   4.347   3.695   2.270  4.9479  0.2723  2.5477
 2685SOL     OW19516   4.071   1.581  11.428  0.2743  0.3055 -0.7712
 2685SOL    HW119517   4.033   1.508  11.378  1.0723 -0.1726 -0.6778
 2685SOL    HW219518   4.023   1.650  11.383 -0.8934 -1.1885 -1.8628
 2686SOL     OW19519   4.265   0.092   6.676  0.3317  0.1515  0.1689
 2686SOL    HW119520   4.338   0.067   6.619  1.5721 -1.6661  2.5824
 2686SOL    HW219521   4.291   0.167   6.731  3.4703  0.5037 -1.7725
 2687SOL     OW19522   3.259   2.969   8.633  0.2620  0.1204 -0.1589
 2687SOL    HW119523   3.257   2.874   8.641 -0.4104  0.1166 -0.3169
 2687SOL    HW219524   3.306   3.000   8.710 -1.2492  1.1586  0.3414
 2688SOL     OW19525   3.308   4.420   9.600 -0.3308 -0.4230 -0.3520
 2688SOL    HW119526   3.360   4.350   9.561  0.3608 -1.5496  2.5852
 2688SOL    HW219527   3.361   4.496   9.578 -0.7827  0.1021  0.3276
 2689SOL     OW19528   0.260   0.700   7.496 -0.1836 -0.4225 -0.7459
 2689SOL    HW119529   0.328   0.757   7.461  0.0489 -1.1074 -1.4048
 2689SOL    HW219530   0.246   0.640   7.423 -0.4137  0.0377 -1.0760
 2690SOL     OW19531   4.606   2.763   2.192 -0.1407  0.5484  0.3679
 2690SOL    HW119532   4.608   2.676   2.151  1.4267  1.2274 -1.0180
 2690SOL    HW219533   4.590   2.741   2.284 -0.8708  2.4324  0.6904
 2691SOL     OW19534   2.436   2.791   1.714  0.4469  0.1334 -0.5375
 2691SOL    HW119535   2.406   2.732   1.645 -1.9186  0.6874  0.0366
 2691SOL    HW219536   2.386   2.859   1.669 -1.2103  0.1872  1.4069
 2692SOL     OW19537   0.238   1.866   8.500 -0.2176  0.2674 -0.1097
 2692SOL    HW119538   0.190   1.884   8.420  1.9003 -2.2720 -1.9238
 2692SOL    HW219539   0.179   1.895   8.570  2.6172  1.8095  1.6294
 2693SOL     OW19540   3.411   4.546   6.538 -0.2980 -0.4874  0.2716
 2693SOL    HW119541   3.458   4.626   6.514 -0.0790 -0.4101  0.9711
 2693SOL    HW219542   3.439   4.528   6.627 -0.7879 -2.0240  0.1165
 2694SOL     OW19543   1.989   4.605   1.919  0.1592 -0.6059 -0.3494
 2694SOL    HW119544   1.951   4.523   1.888 -0.9651 -0.8294  1.5949
 2694SOL    HW219545   1.993   4.594   2.014 -1.2153  0.6544 -0.1421
 2695SOL     OW19546   0.985   2.625   7.120 -0.5197 -0.4961 -0.4452
 2695SOL    HW119547   0.973   2.670   7.203 -1.4201 -2.0241  0.2494
 2695SOL    HW219548   1.056   2.564   7.140 -1.0999 -1.0849 -0.1664
 2696SOL     OW19549   1.529   2.212   2.654 -0.2584  0.0723 -0.0585
 2696SOL    HW119550   1.579   2.211   2.572  1.7956  2.4349  1.1769
 2696SOL    HW219551   1.603   2.253   2.697 -0.0360 -0.5564  0.1626
 2697SOL     OW19552   3.212   2.966  17.392 -0.1101 -0.1135 -0.3973
 2697SOL    HW119553   3.288   3.025  17.393 -0.1300 -0.1003  0.2017
 2697SOL    HW219554   3.256   2.885  17.369  1.5541  0.7028 -0.0712
 2698SOL     OW19555   3.087   2.957   7.638 -0.3760 -0.0393 -0.1079
 2698SOL    HW119556   3.124   3.028   7.690  1.8244 -0.9519 -0.4091
 2698SOL    HW219557   3.047   3.015   7.574 -0.3825  0.2467  0.1569
 2699SOL     OW19558   4.146   4.444   2.200 -0.1525 -0.3707  0.3747
 2699SOL    HW119559   4.146   4.374   2.136 -1.6472 -1.0421  1.1076
 2699SOL    HW219560   4.086   4.507   2.159  2.0908 -0.1085 -2.4479
 2700SOL     OW19561   1.706   0.446  15.255 -0.1747 -0.4171  0.5365
 2700SOL    HW119562   1.627   0.497  15.237  1.1534  1.6400  0.5383
 2700SOL    HW219563   1.774   0.488  15.201 -0.4181 -0.1191  0.4673
 2701SOL     OW19564   3.550   2.491  13.183  0.0900 -0.5416 -0.8672
 2701SOL    HW119565   3.464   2.532  13.179 -0.3684 -1.4424 -0.2283
 2701SOL    HW219566   3.528   2.412  13.133  0.0696 -0.0098 -1.7023
 2702SOL     OW19567   1.394   2.129   9.101  0.5763  0.5225  0.2237
 2702SOL    HW119568   1.340   2.204   9.074 -1.5525 -1.1292 -0.0872
 2702SOL    HW219569   1.427   2.175   9.179  0.5544 -1.0597  1.1626
 2703SOL     OW19570   1.990   3.941   6.987 -0.2912 -0.4397  0.5315
 2703SOL    HW119571   2.059   4.006   6.972 -0.0185 -0.6157  1.0430
 2703SOL    HW219572   1.917   3.997   7.014 -1.0346 -0.4269 -1.4810
 2704SOL     OW19573   4.703   2.644   6.014 -0.2731  0.4382  0.1010
 2704SOL    HW119574   0.034   2.702   6.066 -0.0733  0.0395  0.3359
 2704SOL    HW219575   0.027   2.633   5.932  1.3538 -0.5834  1.1973
 2705SOL     OW19576   3.436   2.313  12.012  0.4345 -0.2900 -0.3460
 2705SOL    HW119577   3.512   2.359  11.977 -0.2946  1.3628  0.2061
 2705SOL    HW219578   3.477   2.272  12.088  0.3540  0.0774 -0.1031
 2706SOL     OW19579   0.445   1.854   9.009  0.7714 -0.0506 -0.6394
 2706SOL    HW119580   0.359   1.862   9.051  1.6529  1.6577  0.8030
 2706SOL    HW219581   0.489   1.818   9.085 -0.7791  0.5998  0.5729
 2707SOL     OW19582   2.666   4.012  12.152 -0.3081  0.3011 -0.0531
 2707SOL    HW119583   2.591   4.071  12.142 -1.0028 -0.4422  0.8332
 2707SOL    HW219584   2.736   4.074  12.128  0.7891 -0.4743  1.2072
 2708SOL     OW19585   2.426   4.098   2.339 -0.4462  0.4406  0.2040
 2708SOL    HW119586   2.497   4.135   2.391  1.3146  1.1171 -2.7043
 2708SOL    HW219587   2.467   4.031   2.285 -0.0746  0.9031 -0.0837
 2709SOL     OW19588   1.134   0.316  10.034 -0.0438  0.0288  0.0057
 2709SOL    HW119589   1.117   0.231  10.076  0.0184  1.3883  2.8166
 2709SOL    HW219590   1.227   0.316  10.058 -0.4855  0.1328  1.7662
 2710SOL     OW19591   3.882   1.319   0.639  0.2535 -0.4447 -0.8713
 2710SOL    HW119592   3.892   1.328   0.544  0.5074  0.1752 -0.7850
 2710SOL    HW219593   3.850   1.229   0.638  1.4036 -0.8689  0.3372
 2711SOL     OW19594   1.350   1.381   0.564  0.2231  0.3735  0.3904
 2711SOL    HW119595   1.346   1.344   0.475  1.6402 -1.9409  1.2913
 2711SOL    HW219596   1.408   1.456   0.558 -0.5795  0.8653 -1.1865
 2712SOL     OW19597   0.079   2.746   4.828  0.0243  0.1806  0.1015
 2712SOL    HW119598   0.157   2.696   4.850  0.2312  0.3127 -0.3341
 2712SOL    HW219599   0.011   2.679   4.826 -0.4049  0.6073  0.3923
 2713SOL     OW19600   3.293   1.665   6.483  0.4652  0.6696  0.4299
 2713SOL    HW119601   3.294   1.760   6.472 -0.2764  0.3596 -2.3210
 2713SOL    HW219602   3.248   1.661   6.567 -3.7057  0.1744 -1.8396
 2714SOL     OW19603   4.151   0.836   6.175 -1.0187 -0.0537  0.1666
 2714SOL    HW119604   4.106   0.787   6.106 -1.1928  0.6780 -0.2323
 2714SOL    HW219605   4.208   0.890   6.121 -0.9831 -1.0039 -0.7534
 2715SOL     OW19606   0.711   3.430  15.866  0.1649 -0.2848  0.0886
 2715SOL    HW119607   0.652   3.452  15.793  1.8098 -1.9752 -1.7522
 2715SOL    HW219608   0.664   3.360  15.910 -0.4906 -1.7526 -2.9626
 2716SOL     OW19609   0.562   3.150   5.054 -0.1886 -0.0535 -0.1018
 2716SOL    HW119610   0.516   3.205   4.990 -1.0895  1.3795  1.7962
 2716SOL    HW219611   0.486   3.107   5.093  0.6350  0.4112  2.0028
 2717SOL     OW19612   0.029   3.619  16.824 -0.4449  0.5661 -0.0315
 2717SOL    HW119613   4.675   3.646  16.871 -0.2417 -0.7315  1.0848
 2717SOL    HW219614   4.723   3.610  16.734 -0.0886  2.9204 -0.3817
 2718SOL     OW19615   0.357   3.703   5.765  0.9174  0.7427 -0.0746
 2718SOL    HW119616   0.412   3.691   5.842  1.0091 -0.5024 -0.3338
 2718SOL    HW219617   0.320   3.617   5.745 -0.7379  0.6573  3.3658
 2719SOL     OW19618   0.311   1.250   8.101 -0.1930  0.7001 -0.1289
 2719SOL    HW119619   0.234   1.280   8.053 -0.9314 -1.1901 -0.1139
 2719SOL    HW219620   0.377   1.316   8.079 -0.2681  1.6511  2.4144
 2720SOL     OW19621   4.425   4.186  15.290  0.0393 -0.2647  0.2802
 2720SOL    HW119622   4.423   4.272  15.248  1.5137 -0.5053 -0.2725
 2720SOL    HW219623   4.509   4.161  15.252 -0.2671  0.5880 -0.9483
 2721SOL     OW19624   3.328   2.790   3.825 -0.1571  0.1258 -0.3763
 2721SOL    HW119625   3.359   2.710   3.781 -2.6678 -0.8096 -0.4493
 2721SOL    HW219626   3.393   2.856   3.802 -0.4018  0.7354  0.7038
 2722SOL     OW19627   2.060   1.128   4.452 -0.4677 -0.0922  0.1530
 2722SOL    HW119628   2.035   1.123   4.545  0.5681  0.6447  0.4764
 2722SOL    HW219629   2.137   1.071   4.459 -1.2148 -1.1605 -0.2017
 2723SOL     OW19630   2.020   3.061   4.190  0.1771 -0.1793 -0.2398
 2723SOL    HW119631   1.970   2.981   4.203  1.5917 -1.2114 -1.1973
 2723SOL    HW219632   2.064   3.068   4.275  1.3882 -0.3128 -0.8523
 2724SOL     OW19633   3.711   4.461   6.624  0.4449 -0.3913  0.0841
 2724SOL    HW119634   3.731   4.525   6.556 -1.5763  2.3703  2.0867
 2724SOL    HW219635   3.786   4.467   6.684  1.5802 -1.6329 -1.2005
 2725SOL     OW19636   2.616   2.650   3.424 -0.0807  0.3210  0.5510
 2725SOL    HW119637   2.534   2.604   3.411  1.1287 -1.8965  0.7770
 2725SOL    HW219638   2.605   2.708   3.348  0.6653 -2.2036 -1.4856
 2726SOL     OW19639   2.589   0.835  16.031  0.5526 -0.1095  0.3661
 2726SOL    HW119640   2.563   0.927  16.025  0.4449 -0.1352  0.4361
 2726SOL    HW219641   2.678   0.836  15.998  0.3182  0.2183 -0.2595
 2727SOL     OW19642   1.000   3.369  16.212 -0.2325  0.2754 -0.5883
 2727SOL    HW119643   0.945   3.445  16.195 -1.9169 -1.3479 -2.3295
 2727SOL    HW219644   1.028   3.374  16.121 -0.4611 -1.0284 -0.7314
 2728SOL     OW19645   2.776   1.921   5.809 -0.0263 -0.0680  0.0387
 2728SOL    HW119646   2.864   1.885   5.797  0.3873  0.1614  2.4377
 2728SOL    HW219647   2.775   1.993   5.746 -0.1795  0.2097  0.3585
 2729SOL     OW19648   1.408   0.137   6.408 -0.4254  0.3814 -0.2539
 2729SOL    HW119649   1.393   0.197   6.335 -0.1427 -0.0496 -0.6587
 2729SOL    HW219650   1.408   0.052   6.365 -2.8055 -0.1071  0.7132
 2730SOL     OW19651   2.613   0.521  11.604 -0.2303  0.2801 -0.1746
 2730SOL    HW119652   2.633   0.459  11.675  0.0958 -0.9250 -1.2996
 2730SOL    HW219653   2.603   0.468  11.525 -5.1198  0.4649  0.3672
 2731SOL     OW19654   1.242   3.083   8.687  0.1157 -0.1176 -0.5682
 2731SOL    HW119655   1.193   3.122   8.760 -0.8533  2.5747 -2.6748
 2731SOL    HW219656   1.316   3.144   8.689 -1.5109  1.7802  3.1366
 2732SOL     OW19657   4.022   2.593  11.851 -0.9503  0.0432 -0.0599
 2732SOL    HW119658   4.027   2.515  11.907 -2.8941 -0.0388  0.0182
 2732SOL    HW219659   3.981   2.650  11.916 -0.8132  0.8110 -0.6437
 2733SOL     OW19660   0.563   4.041   3.632 -1.3733  0.2325 -0.4744
 2733SOL    HW119661   0.547   4.134   3.612  0.2186  0.2195 -1.8405
 2733SOL    HW219662   0.592   4.042   3.723  0.0423  0.5020 -0.9304
 2734SOL     OW19663   3.154   3.775  15.356  0.5535  0.4087 -0.0941
 2734SOL    HW119664   3.170   3.818  15.440  1.8684 -1.1584  0.4475
 2734SOL    HW219665   3.081   3.823  15.317 -0.5555 -0.5952  0.7364
 2735SOL     OW19666   4.692   2.610  15.307  0.4054  0.2184  0.2513
 2735SOL    HW119667   0.055   2.596  15.273  0.8439  2.0467  0.6926
 2735SOL    HW219668   4.673   2.521  15.338  1.2218  0.4195  1.2837
 2736SOL     OW19669   2.512   4.286   4.370 -0.5728 -0.2305  0.1338
 2736SOL    HW119670   2.500   4.212   4.311 -0.0893 -0.9670  0.9728
 2736SOL    HW219671   2.526   4.243   4.454  0.6239 -1.9225 -0.9455
 2737SOL     OW19672   1.903   1.390  15.752 -0.1996  0.0310 -0.6410
 2737SOL    HW119673   1.981   1.444  15.738  1.0718 -1.6055  0.1573
 2737SOL    HW219674   1.895   1.380  15.847  0.1549 -3.7058 -1.0056
 2738SOL     OW19675   1.695   3.961   4.057  0.1437  0.0175 -0.0674
 2738SOL    HW119676   1.709   3.979   3.964  0.5697  0.2601  0.0430
 2738SOL    HW219677   1.779   3.988   4.095 -0.1657 -0.6663  1.0714
 2739SOL     OW19678   1.391   1.389   5.646 -0.0701  0.4542 -0.8410
 2739SOL    HW119679   1.482   1.412   5.626 -0.5738  2.8937 -0.4407
 2739SOL    HW219680   1.353   1.473   5.674 -3.2989 -1.9435  1.8315
 2740SOL     OW19681   2.724   3.918   8.512 -0.0724  0.1063  0.1236
 2740SOL    HW119682   2.742   3.856   8.442 -0.5564 -1.3062  1.2419
 2740SOL    HW219683   2.673   3.862   8.571 -2.2200  1.2174 -0.6979
 2741SOL     OW19684   1.410   3.357  13.794  0.1984  0.4495 -0.6411
 2741SOL    HW119685   1.383   3.321  13.879 -0.4297 -3.6300 -2.5361
 2741SOL    HW219686   1.338   3.328  13.738 -0.2249 -0.3606  0.3065
 2742SOL     OW19687   4.563   1.325  15.504 -0.7363 -0.3425  0.1538
 2742SOL    HW119688   4.487   1.373  15.538 -0.2001  0.3129  0.4358
 2742SOL    HW219689   4.591   1.274  15.580  1.2519  0.2811 -0.1539
 2743SOL     OW19690   3.860   2.706   8.041  0.1519  0.4336  0.4921
 2743SOL    HW119691   3.873   2.674   7.952 -1.8550 -1.5262  0.9146
 2743SOL    HW219692   3.859   2.622   8.085  1.2388  1.0364  1.6558
 2744SOL     OW19693   3.555   1.912   8.603 -0.6972 -0.3375  0.0668
 2744SOL    HW119694   3.640   1.951   8.581 -1.2463  0.8370  0.0191
 2744SOL    HW219695   3.551   1.853   8.528  0.3428  0.9772 -1.0286
 2745SOL     OW19696   4.290   2.760   8.504 -0.1847 -0.6400 -0.5415
 2745SOL    HW119697   4.242   2.794   8.580 -1.2594 -0.4855 -1.2840
 2745SOL    HW219698   4.377   2.788   8.533  0.2315 -1.6796 -0.7956
 2746SOL     OW19699   2.550   0.422   2.719  0.1297 -0.1209  0.1824
 2746SOL    HW119700   2.471   0.471   2.695 -0.2755 -2.2405 -2.8149
 2746SOL    HW219701   2.527   0.332   2.696  0.6061 -0.2431  0.1875
 2747SOL     OW19702   1.011   1.224  12.548  0.0246 -0.5042  0.0334
 2747SOL    HW119703   1.045   1.306  12.512 -1.3875  0.5972  1.2362
 2747SOL    HW219704   0.991   1.263  12.633  0.5865 -4.7407  2.1290
 2748SOL     OW19705   2.900   3.779  12.868 -0.1847  0.1039 -0.3799
 2748SOL    HW119706   2.986   3.817  12.889  0.5081 -1.3786 -0.5163
 2748SOL    HW219707   2.873   3.835  12.795  0.9729  0.6403 -0.3935
 2749SOL     OW19708   3.131   3.564   7.090 -0.2608  0.2579  0.5928
 2749SOL    HW119709   3.086   3.557   7.006  1.9143  1.1730 -0.6566
 2749SOL    HW219710   3.116   3.658   7.102 -1.3134  0.1527  0.1027
 2750SOL     OW19711   1.100   0.633   6.378 -0.0930 -0.0167  0.1927
 2750SOL    HW119712   1.127   0.541   6.377 -1.5307 -0.4226 -0.9422
 2750SOL    HW219713   1.154   0.664   6.306 -0.7402 -1.2025 -0.8121
 2751SOL     OW19714   1.201   2.644   3.202 -0.2436 -0.2756 -0.4027
 2751SOL    HW119715   1.132   2.658   3.138  0.0375  0.1597 -0.6086
 2751SOL    HW219716   1.181   2.550   3.202  2.2874 -0.8222  1.1043
 2752SOL     OW19717   0.040   4.702   5.488  0.2682 -0.3112  0.0993
 2752SOL    HW119718   0.033   4.606   5.488  1.5208 -0.3988 -0.9113
 2752SOL    HW219719   0.123   4.712   5.535  0.1711 -1.8025  0.5806
 2753SOL     OW19720   2.877   3.802   2.464 -0.5318  0.4662  0.7573
 2753SOL    HW119721   2.813   3.873   2.456  0.2087  0.9356 -0.9771
 2753SOL    HW219722   2.904   3.803   2.372 -1.4502 -2.5005  0.4576
 2754SOL     OW19723   3.234   4.231   9.185 -0.2844 -0.4846  0.6784
 2754SOL    HW119724   3.183   4.154   9.212  1.0172 -1.9010 -0.9519
 2754SOL    HW219725   3.229   4.221   9.090  0.4364 -1.3984  0.7383
 2755SOL     OW19726   2.406   2.999   5.252  0.2883  0.3685 -0.1813
 2755SOL    HW119727   2.373   2.923   5.300 -0.0738  1.2768  1.0209
 2755SOL    HW219728   2.496   2.973   5.233  0.4944  0.8170  0.1939
 2756SOL     OW19729   2.670   0.004   8.931  0.2646  0.1705 -0.5081
 2756SOL    HW119730   2.600   4.680   8.890 -0.2527 -0.3598  1.0042
 2756SOL    HW219731   2.682   4.681   9.014  0.3080  0.8050 -0.1461
 2757SOL     OW19732   4.250   3.948  15.466  0.7918  0.2975 -0.0265
 2757SOL    HW119733   4.299   4.023  15.499 -0.2037 -0.2873  2.7750
 2757SOL    HW219734   4.301   3.940  15.385 -0.8607 -0.9386 -0.9654
 2758SOL     OW19735   2.388   0.374   6.386 -0.7612  0.4811 -0.3937
 2758SOL    HW119736   2.403   0.466   6.364  2.8781  0.0401  0.1329
 2758SOL    HW219737   2.319   0.351   6.324  0.4880  0.6403 -1.8559
 2759SOL     OW19738   2.513   0.819   3.673  0.2003  0.0841 -0.0891
 2759SOL    HW119739   2.490   0.776   3.756  0.3118 -2.5300 -1.4141
 2759SOL    HW219740   2.551   0.902   3.702 -0.2142  0.1750  0.1942
 2760SOL     OW19741   0.188   0.408   8.662 -0.6548  0.3797  0.4123
 2760SOL    HW119742   0.106   0.398   8.710 -0.0780  0.7734  1.4962
 2760SOL    HW219743   0.164   0.452   8.581 -0.4705 -1.4189 -0.6230
 2761SOL     OW19744   4.315   1.649   4.955 -0.2348 -0.3723  0.2444
 2761SOL    HW119745   4.244   1.639   5.018 -0.2076 -0.1146  0.3175
 2761SOL    HW219746   4.381   1.588   4.987 -0.0264 -0.6066 -0.6395
 2762SOL     OW19747   0.297   2.738  15.000  0.4957 -0.4072 -0.1141
 2762SOL    HW119748   0.216   2.786  14.984 -0.2387 -1.2901  0.9229
 2762SOL    HW219749   0.319   2.738  14.907 -2.2311 -0.1115 -0.7613
 2763SOL     OW19750   0.877   0.830   6.839 -0.2792  0.4712  0.4380
 2763SOL    HW119751   0.894   0.924   6.844 -1.6578  0.6590  1.6548
 2763SOL    HW219752   0.828   0.819   6.758  0.1633  2.0181 -0.0287
 2764SOL     OW19753   2.908   2.521  13.449 -0.6826  0.0010 -0.1134
 2764SOL    HW119754   2.984   2.515  13.507 -2.4607  0.3106  2.2692
 2764SOL    HW219755   2.948   2.518  13.362 -0.5676 -0.7946 -0.0340
 2765SOL     OW19756   2.453   3.512   4.689  0.1317  0.2791  0.1009
 2765SOL    HW119757   2.469   3.474   4.602  2.4965  0.9026  0.2532
 2765SOL    HW219758   2.497   3.449   4.746  0.6903 -1.0579 -1.7977
 2766SOL     OW19759   2.942   2.675  15.394  0.2584 -0.1454 -0.2491
 2766SOL    HW119760   2.959   2.621  15.471 -0.9790  0.7400  0.6351
 2766SOL    HW219761   2.848   2.662  15.386  0.0957  0.9073 -0.0926
 2767SOL     OW19762   0.151   0.240   8.102  0.2450 -0.4067  0.1978
 2767SOL    HW119763   0.094   0.315   8.085 -1.1055 -1.2800  0.9373
 2767SOL    HW219764   0.147   0.230   8.197 -4.1099 -0.4875  0.0076
 2768SOL     OW19765   1.320   1.680   0.687  0.3214 -0.2548 -0.2916
 2768SOL    HW119766   1.401   1.721   0.718 -0.2135 -0.5587  1.5391
 2768SOL    HW219767   1.364   1.641   0.612 -0.6198 -1.2153 -0.3320
 2769SOL     OW19768   1.021   4.376  12.262 -0.3273  0.4690 -0.3440
 2769SOL    HW119769   1.102   4.352  12.307  0.3562 -0.3818 -2.0081
 2769SOL    HW219770   1.030   4.325  12.182  1.4530 -2.9058  1.9760
 2770SOL     OW19771   0.531   3.584   2.326  0.5964 -0.5518  0.3690
 2770SOL    HW119772   0.470   3.569   2.254  0.8406  0.5478 -0.0620
 2770SOL    HW219773   0.585   3.654   2.291 -2.4804  1.1030 -1.0211
 2771SOL     OW19774   1.661   2.216   2.422 -0.8012 -0.2083  0.0846
 2771SOL    HW119775   1.633   2.152   2.357 -0.3612  0.9051 -1.1945
 2771SOL    HW219776   1.735   2.255   2.375 -0.5503 -2.9658 -1.7884
 2772SOL     OW19777   2.401   3.129   6.379 -0.1039 -0.1882  0.1995
 2772SOL    HW119778   2.324   3.088   6.340  0.5413  1.3977 -2.7924
 2772SOL    HW219779   2.372   3.220   6.372  1.4371  0.2829 -0.0660
 2773SOL     OW19780   2.749   2.465   9.950  0.6317  0.2528 -0.1160
 2773SOL    HW119781   2.702   2.432  10.027  0.5708 -1.5373 -0.9093
 2773SOL    HW219782   2.820   2.401   9.951 -1.8166 -2.5821 -2.9212
 2774SOL     OW19783   3.019   4.347   7.334 -0.2873  0.0192 -0.0916
 2774SOL    HW119784   3.050   4.286   7.401  0.2067 -0.2786 -0.5949
 2774SOL    HW219785   2.966   4.278   7.297 -0.5427  1.3577 -2.2129
 2775SOL     OW19786   0.386   3.044   3.166 -0.1732 -0.2479  0.1134
 2775SOL    HW119787   0.459   3.024   3.108 -0.7416 -0.5965 -0.4736
 2775SOL    HW219788   0.359   2.952   3.172 -0.8824 -0.0450  0.1023
 2776SOL     OW19789   2.757   1.166   6.598 -0.2122  0.1416 -0.2800
 2776SOL    HW119790   2.741   1.230   6.529 -0.9745  0.3067  0.0420
 2776SOL    HW219791   2.711   1.093   6.556 -1.7462  0.1768  1.3001
 2777SOL     OW19792   3.140   2.195  16.908  0.1036  0.3575  0.2940
 2777SOL    HW119793   3.064   2.207  16.966  1.8128 -1.1039  2.8122
 2777SOL    HW219794   3.202   2.152  16.967  0.4609 -0.6399 -0.8274
 2778SOL     OW19795   1.065   0.336   4.819  0.0490 -0.2878  0.0895
 2778SOL    HW119796   0.998   0.292   4.872  0.2821 -0.0072  0.6104
 2778SOL    HW219797   1.042   0.314   4.728 -0.4736  0.0965  0.1295
 2779SOL     OW19798   1.751   4.347  16.548  0.0250  0.1676 -0.1781
 2779SOL    HW119799   1.751   4.406  16.473 -0.2850 -0.2760 -0.5299
 2779SOL    HW219800   1.725   4.404  16.620 -0.7120  0.1156 -0.4015
 2780SOL     OW19801   2.350   1.862   3.699  0.8348 -0.0688  0.0153
 2780SOL    HW119802   2.260   1.891   3.708  0.8228 -0.2675  0.5971
 2780SOL    HW219803   2.393   1.935   3.744  0.0269  0.6294 -0.3577
 2781SOL     OW19804   2.391   3.870   8.223 -0.2195 -0.0211  0.1791
 2781SOL    HW119805   2.374   3.886   8.315 -1.4414  0.7900 -0.1833
 2781SOL    HW219806   2.336   3.940   8.186  0.9470 -0.0568 -1.6597
 2782SOL     OW19807   2.530   2.222  11.980  0.0191 -0.2699 -0.2189
 2782SOL    HW119808   2.505   2.133  11.954 -0.0333 -0.1456 -0.5892
 2782SOL    HW219809   2.478   2.224  12.061 -2.2028  0.7143 -1.6772
 2783SOL     OW19810   2.345   1.387   9.197  0.2906  0.0746  1.1903
 2783SOL    HW119811   2.252   1.397   9.218  1.1777  2.8306  3.8506
 2783SOL    HW219812   2.378   1.326   9.263 -1.4280 -1.1969  0.8886
 2784SOL     OW19813   3.218   0.987  12.197  0.2546  0.1135 -0.1401
 2784SOL    HW119814   3.162   1.003  12.121  0.1282 -3.1376 -0.7449
 2784SOL    HW219815   3.157   1.005  12.268  0.1020 -0.5360 -0.1078
 2785SOL     OW19816   1.984   2.914   8.626 -0.6382 -0.2555  0.0516
 2785SOL    HW119817   1.956   2.844   8.567 -1.8464  0.1709  0.1112
 2785SOL    HW219818   1.930   2.894   8.703 -1.9387  0.6478 -0.6072
 2786SOL     OW19819   2.183   4.450   7.567 -0.2860 -0.0047 -0.6294
 2786SOL    HW119820   2.167   4.543   7.550 -1.0143  0.4563  2.5416
 2786SOL    HW219821   2.263   4.430   7.518  0.0475  0.7754 -0.4058
 2787SOL     OW19822   4.088   1.324   7.882 -0.1266  0.4666 -0.1130
 2787SOL    HW119823   4.079   1.383   7.957  0.1872  0.4744 -0.0833
 2787SOL    HW219824   3.997   1.316   7.852  0.4133 -0.3353 -1.5073
 2788SOL     OW19825   3.725   3.838   6.530 -0.6466  0.0763 -0.2453
 2788SOL    HW119826   3.642   3.826   6.576 -0.1981 -1.2637  0.2141
 2788SOL    HW219827   3.741   3.932   6.534 -0.7609  0.1085 -0.4955
 2789SOL     OW19828   4.677   0.797   3.420  0.2597 -0.1247  0.2424
 2789SOL    HW119829   4.599   0.836   3.459  0.8303  2.2941 -1.0609
 2789SOL    HW219830   4.651   0.705   3.427 -2.0177  0.3071 -2.8047
 2790SOL     OW19831   4.416   4.642  17.158  0.0275 -0.3149  0.0132
 2790SOL    HW119832   4.502   4.611  17.133  0.1774 -1.3652  1.8439
 2790SOL    HW219833   4.402   4.698  17.082  0.5857 -0.7343 -0.3936
 2791SOL     OW19834   3.321   2.370   8.523 -0.0848  0.0895  0.3435
 2791SOL    HW119835   3.331   2.431   8.450  0.6720  1.7236  1.8181
 2791SOL    HW219836   3.394   2.310   8.511  0.1156  0.0920  1.5614
 2792SOL     OW19837   2.356   1.145  17.204  0.6537 -0.5983  0.3932
 2792SOL    HW119838   2.421   1.098  17.152  0.0098  0.6724 -1.5287
 2792SOL    HW219839   2.417   1.206  17.245  1.8328 -1.6366  0.1854
 2793SOL     OW19840   1.580   1.470   8.554  0.5602  0.0614  0.0518
 2793SOL    HW119841   1.547   1.535   8.491  0.5791  0.0511  0.0311
 2793SOL    HW219842   1.491   1.452   8.582 -0.5211  0.7391 -2.9159
 2794SOL     OW19843   1.081   2.484   9.668  0.2439  0.2783 -0.2070
 2794SOL    HW119844   1.038   2.401   9.686  1.3406 -0.4721 -1.1171
 2794SOL    HW219845   1.113   2.509   9.755  0.6174  1.4786 -0.6817
 2795SOL     OW19846   1.358   1.830   5.629  0.0375  1.0425  0.1949
 2795SOL    HW119847   1.368   1.900   5.693 -0.2205  0.9577  0.3278
 2795SOL    HW219848   1.434   1.847   5.574 -0.7207 -1.7436 -1.7574
 2796SOL     OW19849   1.367   4.469   9.587  0.4008  0.3056 -0.0947
 2796SOL    HW119850   1.316   4.391   9.567 -0.1313  0.6026  0.1250
 2796SOL    HW219851   1.298   4.534   9.598 -0.0894 -0.3004  0.4394
 2797SOL     OW19852   1.982   1.783  15.580 -0.2264 -0.0221  0.1013
 2797SOL    HW119853   2.035   1.760  15.656  0.7683 -3.3038 -1.6047
 2797SOL    HW219854   1.896   1.748  15.604 -0.8530  1.7050  0.3679
 2798SOL     OW19855   3.056   2.360  11.886 -0.0023  0.3277  0.1400
 2798SOL    HW119856   3.028   2.448  11.912  0.0733  0.1458  0.8483
 2798SOL    HW219857   2.971   2.321  11.868  0.7539 -0.7196 -1.1026
 2799SOL     OW19858   1.465   4.520   6.420 -0.0160 -0.7222  0.3440
 2799SOL    HW119859   1.550   4.476   6.413 -0.0391 -0.5384 -1.2214
 2799SOL    HW219860   1.460   4.534   6.514  1.1686  0.2580  0.2581
 2800SOL     OW19861   2.169   4.723   7.545  0.1638 -0.5765 -0.4504
 2800SOL    HW119862   2.169   0.037   7.457  0.7121  2.1675  0.7622
 2800SOL    HW219863   2.122   0.059   7.601 -0.4267  0.6148 -2.2544
 2801SOL     OW19864   3.649   2.749   8.798  0.2390 -0.5087 -0.2247
 2801SOL    HW119865   3.708   2.677   8.778 -0.1509 -1.6789  2.8431
 2801SOL    HW219866   3.613   2.700   8.872  1.7764 -1.0639  0.1481
 2802SOL     OW19867   1.636   2.600   7.062  0.0886  0.0349 -0.1009
 2802SOL    HW119868   1.626   2.626   6.970  0.8412  2.1992  0.4164
 2802SOL    HW219869   1.628   2.681   7.113 -1.2248  0.1441 -0.4911
 2803SOL     OW19870   3.248   2.466   3.315  1.1078  0.0748  0.6179
 2803SOL    HW119871   3.203   2.401   3.368  1.1802 -0.6113 -0.1641
 2803SOL    HW219872   3.323   2.484   3.371  0.2054 -3.0372  2.7711
 2804SOL     OW19873   2.060   2.459   8.085 -0.4015 -0.1430 -0.0298
 2804SOL    HW119874   1.997   2.509   8.034  0.1932  1.0606  0.4189
 2804SOL    HW219875   2.039   2.370   8.056 -0.8791  0.4076 -1.3296
 2805SOL     OW19876   1.979   1.265   1.370 -0.0824  0.3519 -0.1453
 2805SOL    HW119877   1.895   1.263   1.325  1.4166  3.5611 -3.0447
 2805SOL    HW219878   2.021   1.340   1.327 -1.2973 -0.1914 -2.2470
 2806SOL     OW19879   0.405   2.451  16.023 -0.5224 -0.5898  0.1179
 2806SOL    HW119880   0.415   2.391  15.949  0.0344  0.4596 -0.6654
 2806SOL    HW219881   0.488   2.453  16.071  1.5118  0.6613 -3.4036
 2807SOL     OW19882   2.746   0.419   0.735 -0.2945 -0.2512  0.9582
 2807SOL    HW119883   2.737   0.374   0.819  1.8652  0.2484  1.4509
 2807SOL    HW219884   2.656   0.451   0.727 -0.2510 -0.2560  0.4748
 2808SOL     OW19885   3.200   4.520   9.280  0.1702 -0.1866  0.5024
 2808SOL    HW119886   3.207   4.428   9.254  0.5728 -0.0190  0.0069
 2808SOL    HW219887   3.290   4.551   9.273 -0.1481  0.3998 -1.0175
 2809SOL     OW19888   3.549   0.323  13.971  0.2901  0.5344  0.1735
 2809SOL    HW119889   3.571   0.342  14.063  1.2922 -1.9890  0.4426
 2809SOL    HW219890   3.484   0.391  13.955  0.1742  0.1626 -0.9413
 2810SOL     OW19891   0.134   3.613   3.062 -0.1274 -0.4974  0.1605
 2810SOL    HW119892   0.040   3.596   3.067 -0.2939 -0.0016 -1.2924
 2810SOL    HW219893   0.175   3.534   3.026 -0.4354  0.3894 -2.1633
 2811SOL     OW19894   2.025   4.396   1.202 -0.5660  0.4042 -0.0026
 2811SOL    HW119895   2.114   4.381   1.169 -0.1561 -0.2729  1.4243
 2811SOL    HW219896   2.053   4.424   1.289  1.7891 -0.1453 -0.5675
 2812SOL     OW19897   1.194   2.399   6.441 -0.6896 -0.4548 -0.2704
 2812SOL    HW119898   1.176   2.485   6.404  1.8818 -0.8542 -2.4580
 2812SOL    HW219899   1.243   2.363   6.367 -0.6073  0.0089 -0.4410
 2813SOL     OW19900   3.354   1.605  15.184  0.0602  0.3538  0.5052
 2813SOL    HW119901   3.421   1.625  15.250  0.4304  1.6128 -0.2512
 2813SOL    HW219902   3.360   1.683  15.129  2.1942  0.7348  1.2930
 2814SOL     OW19903   3.512   2.659   7.926  0.0446 -0.3612 -0.7346
 2814SOL    HW119904   3.422   2.647   7.957 -0.0169  0.7549 -0.4843
 2814SOL    HW219905   3.554   2.610   7.998  0.3090  2.3517  0.9652
 2815SOL     OW19906   2.739   3.915   4.961  0.6381 -0.5182 -0.3189
 2815SOL    HW119907   2.794   3.942   4.888  1.0319 -2.3137 -0.6928
 2815SOL    HW219908   2.659   3.888   4.915  0.8031 -1.7779  0.1237
 2816SOL     OW19909   1.441   4.463   6.732  0.2036  0.4495 -0.4808
 2816SOL    HW119910   1.482   4.506   6.807 -1.1235 -1.8316  1.5613
 2816SOL    HW219911   1.513   4.419   6.687  1.0061  0.7387  0.5358
 2817SOL     OW19912   0.604   0.438   5.930  0.1883 -0.1766 -0.5352
 2817SOL    HW119913   0.588   0.488   6.010  1.2008  1.3763 -1.2894
 2817SOL    HW219914   0.628   0.351   5.962  3.7165  0.4774 -1.3508
 2818SOL     OW19915   1.758   0.158   5.161  0.5359 -0.2740 -0.2992
 2818SOL    HW119916   1.821   0.230   5.157 -0.9409  0.9238 -1.4960
 2818SOL    HW219917   1.813   0.079   5.163  0.0760 -0.5745  1.3520
 2819SOL     OW19918   3.154   1.722   8.385 -0.7616 -0.1262 -0.0243
 2819SOL    HW119919   3.230   1.664   8.392 -0.1830  0.3701 -2.1775
 2819SOL    HW219920   3.185   1.802   8.344 -0.4367  0.0098  0.4958
 2820SOL     OW19921   3.926   3.719   7.697 -0.0017 -0.2263  0.5258
 2820SOL    HW119922   3.886   3.786   7.752  1.0570 -0.1945  1.2522
 2820SOL    HW219923   3.861   3.649   7.685  0.2884 -0.0652 -1.8379
 2821SOL     OW19924   1.052   3.056   5.941 -0.4938  0.4716 -0.1337
 2821SOL    HW119925   0.957   3.056   5.946 -0.4856 -0.3034  0.0910
 2821SOL    HW219926   1.071   3.146   5.968  1.1487  0.2800 -0.6622
 2822SOL     OW19927   3.972   2.342  15.560 -0.6096  0.1703  0.3699
 2822SOL    HW119928   3.913   2.330  15.486 -1.5919 -0.5492  1.2676
 2822SOL    HW219929   3.920   2.413  15.598  0.7516  1.3496  0.0130
 2823SOL     OW19930   4.704   4.077  12.735  0.1530 -0.7302  0.6914
 2823SOL    HW119931   4.636   4.138  12.763  1.6446  0.7123  1.1625
 2823SOL    HW219932   4.679   4.005  12.792  0.9716 -1.9804 -0.5416
 2824SOL     OW19933   3.304   2.839   5.007 -0.1755 -0.8208  0.1703
 2824SOL    HW119934   3.376   2.789   4.968  0.3806  1.6716 -2.0020
 2824SOL    HW219935   3.338   2.927   4.989  1.1578 -1.0090  1.7156
 2825SOL     OW19936   0.207   1.952   3.877  0.3214  0.0950 -0.6090
 2825SOL    HW119937   0.185   2.023   3.818  1.3734  0.2776 -0.7821
 2825SOL    HW219938   0.280   1.901   3.839  0.3534 -0.8698  0.7367
 2826SOL     OW19939   1.696   3.005  15.450 -0.5541 -0.2373  0.1980
 2826SOL    HW119940   1.776   3.057  15.459 -0.1223 -0.5727 -1.7059
 2826SOL    HW219941   1.637   3.070  15.412 -0.9142  0.5929  2.1610
 2827SOL     OW19942   0.503   3.036  13.201 -0.3999 -0.5130 -0.1480
 2827SOL    HW119943   0.524   2.994  13.285  1.6966 -0.9465 -0.8980
 2827SOL    HW219944   0.431   2.980  13.172 -1.5005  1.2152 -0.7167
 2828SOL     OW19945   2.090   3.124  14.894 -0.3669  0.2131 -0.1752
 2828SOL    HW119946   2.158   3.168  14.844 -0.4812 -0.0265 -0.5385
 2828SOL    HW219947   2.024   3.190  14.916  0.3539  1.5669 -2.0679
 2829SOL     OW19948   0.380   4.695   7.852 -0.1773  0.2736  0.0600
 2829SOL    HW119949   0.336   0.053   7.873 -1.0138 -0.1261 -0.1240
 2829SOL    HW219950   0.307   4.635   7.864  0.7860 -0.1366  3.6647
 2830SOL     OW19951   3.355   1.523   0.710 -0.0999 -0.0643 -0.0244
 2830SOL    HW119952   3.359   1.520   0.805 -1.8950 -1.7814  0.0057
 2830SOL    HW219953   3.442   1.490   0.687  0.5300  1.8172 -0.3110
 2831SOL     OW19954   1.040   4.180   2.468 -0.1225 -0.9041 -0.1060
 2831SOL    HW119955   1.106   4.116   2.443  0.7841  1.5707 -3.9886
 2831SOL    HW219956   1.015   4.226   2.388  0.1649  0.8193  0.7742
 2832SOL     OW19957   3.549   4.162   5.287  0.6674 -0.2078  0.4117
 2832SOL    HW119958   3.637   4.185   5.318  0.7363  0.4569 -0.2518
 2832SOL    HW219959   3.520   4.101   5.355  1.7113  0.0651  1.1133
 2833SOL     OW19960   0.374   0.933   3.532  0.6535  0.6777 -0.0062
 2833SOL    HW119961   0.423   1.015   3.544  1.9202 -0.3667  1.9561
 2833SOL    HW219962   0.358   0.926   3.438  2.2835  0.7639 -0.2852
 2834SOL     OW19963   2.635   4.638  16.481 -0.0299 -0.0321 -0.0882
 2834SOL    HW119964   2.597   4.587  16.552  0.8407 -0.6727 -0.0728
 2834SOL    HW219965   2.661   4.720  16.524  1.4785 -1.0054  0.8790
 2835SOL     OW19966   0.303   0.546   3.798  0.3374 -0.2356  0.3042
 2835SOL    HW119967   0.275   0.604   3.727  0.4043  0.8284  1.1492
 2835SOL    HW219968   0.247   0.469   3.798 -1.4823  1.1107 -1.2945
 2836SOL     OW19969   4.446   2.977   7.712 -0.5187 -0.2844 -0.1689
 2836SOL    HW119970   4.454   2.888   7.678  1.2940  0.6323 -2.1587
 2836SOL    HW219971   4.354   2.990   7.733 -0.2669 -0.8848  1.2711
 2837SOL     OW19972   4.158   2.425  10.593 -0.4515  0.0250  0.1161
 2837SOL    HW119973   4.202   2.345  10.564 -0.3981  0.8575 -2.0787
 2837SOL    HW219974   4.067   2.401  10.578 -0.1746 -0.9975  0.0746
 2838SOL     OW19975   2.641   0.818   7.978  0.0084  0.0054 -1.0644
 2838SOL    HW119976   2.736   0.812   7.963 -0.2239 -2.3803 -1.5019
 2838SOL    HW219977   2.602   0.867   7.905  1.3528 -1.8643 -3.0345
 2839SOL     OW19978   0.027   4.158   4.371  0.0764  0.0780 -0.1479
 2839SOL    HW119979   0.077   4.077   4.381  2.8815  1.9062  0.4124
 2839SOL    HW219980   4.682   4.141   4.434 -0.5204  0.2093 -0.7716
 2840SOL     OW19981   3.108   1.208   4.119  0.1497  0.1333  0.1040
 2840SOL    HW119982   3.103   1.119   4.153  0.4876 -0.3673 -1.1583
 2840SOL    HW219983   3.094   1.258   4.200 -2.0094 -0.0030 -0.1920
 2841SOL     OW19984   1.111   0.697  11.437  0.0523 -0.3352  0.0781
 2841SOL    HW119985   1.081   0.684  11.527 -1.8969 -1.0108 -0.6570
 2841SOL    HW219986   1.181   0.761  11.452 -1.6658  1.5363  0.0740
 2842SOL     OW19987   4.085   0.764   6.727 -0.0706  0.1643  0.2415
 2842SOL    HW119988   4.021   0.833   6.711  0.2630  0.8035  1.7026
 2842SOL    HW219989   4.171   0.803   6.709 -0.2570 -0.0471 -1.1306
 2843SOL     OW19990   2.484   3.127   2.876 -0.7761 -0.2693  0.0237
 2843SOL    HW119991   2.447   3.187   2.811 -1.0835 -0.0795  0.3795
 2843SOL    HW219992   2.576   3.121   2.850 -0.6549 -1.1761  0.6651
 2844SOL     OW19993   2.470   1.312   4.679 -0.0787  0.0795  0.4049
 2844SOL    HW119994   2.533   1.384   4.685  0.4584 -0.4595  1.2627
 2844SOL    HW219995   2.391   1.360   4.654  0.1217 -0.5222 -1.3441
 2845SOL     OW19996   1.948   0.683   8.386  0.0163 -0.2889  0.3074
 2845SOL    HW119997   2.003   0.747   8.431 -0.2581 -0.2461  0.5900
 2845SOL    HW219998   1.882   0.671   8.455  0.0077  0.7452  0.4829
 2846SOL     OW19999   3.334   2.024   6.342  0.0157  0.1402 -0.0498
 2846SOL    HW120000   3.254   1.981   6.371  1.2579 -1.2140  1.3704
 2846SOL    HW220001   3.316   2.116   6.359 -0.1364 -0.1844  1.5844
 2847SOL     OW20002   2.124   0.086   2.943  0.0438 -0.4460 -0.6617
 2847SOL    HW120003   2.113   0.181   2.941 -1.2125 -0.5078  2.9368
 2847SOL    HW220004   2.059   0.056   3.006 -1.1723  2.5672 -0.4514
 2848SOL     OW20005   1.417   0.006   5.745 -0.1407 -0.4437  0.2955
 2848SOL    HW120006   1.326   0.001   5.774  0.1383 -0.8221  1.0781
 2848SOL    HW220007   1.457   4.670   5.806  3.1502 -0.1916 -1.6273
 2849SOL     OW20008   0.714   4.524   1.955  0.1648  0.0933 -0.5845
 2849SOL    HW120009   0.663   4.605   1.956  1.8667  1.1855 -2.4329
 2849SOL    HW220010   0.702   4.493   2.045  0.8842  1.0303 -0.1696
 2850SOL     OW20011   4.198   3.214   5.921 -0.8016 -0.2658  0.0571
 2850SOL    HW120012   4.123   3.157   5.938 -0.7452 -0.0414  1.0631
 2850SOL    HW220013   4.147   3.294   5.936  0.6634  0.7045 -0.1463
 2851SOL     OW20014   2.375   2.446   0.255 -0.1746 -0.0963 -0.9600
 2851SOL    HW120015   2.395   2.440   0.348 -0.0258 -2.6550 -1.1752
 2851SOL    HW220016   2.286   2.412   0.247 -0.0593 -0.6335  0.1592
 2852SOL     OW20017   1.152   1.667   4.784 -0.7945 -0.6436 -0.0047
 2852SOL    HW120018   1.114   1.628   4.705  0.3112 -1.9735  0.1357
 2852SOL    HW220019   1.216   1.602   4.813  1.9817  0.8850 -2.6096
 2853SOL     OW20020   4.062   3.250   4.192  0.1190  0.0213 -0.6969
 2853SOL    HW120021   4.052   3.330   4.139  1.9862  1.1524  0.6688
 2853SOL    HW220022   4.069   3.185   4.123 -0.9911 -1.8739  0.9881
 2854SOL     OW20023   3.044   1.628   2.913 -0.2297 -0.1264  0.3166
 2854SOL    HW120024   3.004   1.542   2.910 -0.3797  0.0771 -3.0239
 2854SOL    HW220025   3.136   1.602   2.909 -0.7103 -2.2408  2.8509
 2855SOL     OW20026   3.114   0.660   1.949 -0.2127 -0.0189 -0.0784
 2855SOL    HW120027   3.209   0.647   1.953 -0.2995 -0.2523  1.1855
 2855SOL    HW220028   3.092   0.628   1.861  2.5975 -0.3457 -0.6668
 2856SOL     OW20029   0.547   1.236  17.122  0.1502 -0.1333  0.2097
 2856SOL    HW120030   0.569   1.287  17.044 -1.4266 -1.0783 -0.8502
 2856SOL    HW220031   0.453   1.254  17.118 -0.1726 -1.8064  0.3637
 2857SOL     OW20032   1.384   0.198   4.407 -0.0746 -0.3410 -0.0048
 2857SOL    HW120033   1.438   0.247   4.345  0.9514  0.0356  1.2072
 2857SOL    HW220034   1.426   0.203   4.493 -0.8331  0.2775  0.3312
 2858SOL     OW20035   4.199   2.295   3.780  0.3094 -0.4308 -0.2537
 2858SOL    HW120036   4.126   2.253   3.825 -0.7887  1.4951 -0.2434
 2858SOL    HW220037   4.252   2.327   3.854  1.2322  0.6164 -1.3691
 2859SOL     OW20038   4.387   0.485   6.602 -0.4034 -0.2916  0.0407
 2859SOL    HW120039   4.297   0.465   6.577  0.1351 -1.9776 -0.5925
 2859SOL    HW220040   4.386   0.580   6.602  2.1427 -0.2507  3.8400
 2860SOL     OW20041   4.622   0.156   8.729  0.0764 -0.1576 -0.1351
 2860SOL    HW120042   4.546   0.107   8.759  1.0911 -1.7835 -0.1932
 2860SOL    HW220043   4.689   0.088   8.716 -0.0440 -0.3631  0.3167
 2861SOL     OW20044   2.577   3.591   0.718  0.4158 -0.5328 -0.2838
 2861SOL    HW120045   2.617   3.592   0.805  0.2666  4.2823 -0.2278
 2861SOL    HW220046   2.604   3.505   0.686  1.3581 -1.1225  2.1261
 2862SOL     OW20047   2.396   2.805   5.443 -0.4940  0.0065  0.2862
 2862SOL    HW120048   2.418   2.736   5.505  1.8495  0.6737  0.2044
 2862SOL    HW220049   2.440   2.879   5.486 -2.8791  1.4172  0.3249
 2863SOL     OW20050   3.640   3.303   7.460 -0.5398  0.3720  0.0408
 2863SOL    HW120051   3.605   3.379   7.506 -0.5921  0.8096 -0.7060
 2863SOL    HW220052   3.625   3.324   7.367  2.0697  0.4150 -0.3696
 2864SOL     OW20053   1.269   4.286   9.906 -0.0527  0.1924  0.0027
 2864SOL    HW120054   1.232   4.198   9.919  1.5478 -0.4955 -0.0014
 2864SOL    HW220055   1.225   4.344   9.968  1.3998 -0.1962  1.4050
 2865SOL     OW20056   0.075   2.954   7.585  0.0649 -0.2477 -0.0205
 2865SOL    HW120057   0.038   2.906   7.510 -0.0322  1.8395 -1.3113
 2865SOL    HW220058   0.157   2.984   7.546 -0.9256  0.4258 -1.5639
 2866SOL     OW20059   2.005   2.635   3.383  0.4222  0.3906  0.5616
 2866SOL    HW120060   2.100   2.640   3.377  0.2067  1.9084 -1.5207
 2866SOL    HW220061   1.982   2.717   3.427 -0.9315  0.3554 -0.0743
 2867SOL     OW20062   0.626   4.021   8.016 -0.6540 -0.4631  0.9775
 2867SOL    HW120063   0.656   3.978   7.937  0.3023 -1.1064  1.6867
 2867SOL    HW220064   0.590   4.100   7.975 -2.2735  0.2157  3.6516
 2868SOL     OW20065   2.525   3.155   9.895 -0.4953 -0.1895 -0.4787
 2868SOL    HW120066   2.605   3.185   9.938 -1.6544  2.5356 -0.2011
 2868SOL    HW220067   2.521   3.213   9.820 -0.8736  1.2209  0.6230
 2869SOL     OW20068   1.891   0.327  10.433 -0.8609 -0.0310 -0.3688
 2869SOL    HW120069   1.845   0.271  10.370  1.5408 -2.1066 -0.2857
 2869SOL    HW220070   1.825   0.338  10.501  0.7682 -0.7823  1.3283
 2870SOL     OW20071   2.418   2.415   3.934 -0.4959  0.1442 -0.0617
 2870SOL    HW120072   2.355   2.343   3.943  0.0513 -0.2205  0.7879
 2870SOL    HW220073   2.447   2.447   4.019 -1.7165  1.0829  0.0073
 2871SOL     OW20074   1.032   4.539   1.882 -0.4641 -0.4533  0.4932
 2871SOL    HW120075   0.993   4.470   1.828  0.4415  1.5436 -2.7024
 2871SOL    HW220076   0.955   4.576   1.925 -2.0155 -1.1638 -1.6699
 2872SOL     OW20077   2.428   2.397   8.663 -0.2538 -0.7797  0.0344
 2872SOL    HW120078   2.463   2.402   8.574 -1.3196 -1.1491 -0.3982
 2872SOL    HW220079   2.508   2.412   8.715 -0.5422  0.2713  0.1924
 2873SOL     OW20080   3.525   1.234   1.660  0.4339 -0.3424  0.1078
 2873SOL    HW120081   3.501   1.145   1.634 -1.8519  0.3596 -0.1203
 2873SOL    HW220082   3.469   1.277   1.724  0.0276 -1.9235  0.8353
 2874SOL     OW20083   2.309   0.775   5.760  0.0560 -0.3257 -0.0706
 2874SOL    HW120084   2.229   0.723   5.768 -0.0857 -0.3674 -1.6512
 2874SOL    HW220085   2.365   0.751   5.834  0.0141 -2.3966 -0.6896
 2875SOL     OW20086   3.783   0.724  12.360 -0.1184  0.7545  0.0163
 2875SOL    HW120087   3.844   0.671  12.309  0.4321  1.2468  0.1559
 2875SOL    HW220088   3.710   0.663  12.372 -0.2014  0.7868 -0.3338
 2876SOL     OW20089   4.315   1.475  14.498 -0.0221  0.3012  0.7940
 2876SOL    HW120090   4.295   1.456  14.406  1.7961  0.8763  0.2950
 2876SOL    HW220091   4.278   1.562  14.506 -0.7465  0.0092  0.6545
 2877SOL     OW20092   1.320   3.920  16.356  0.2659  0.2676  0.4018
 2877SOL    HW120093   1.262   3.994  16.372  0.4274  0.5464 -0.3453
 2877SOL    HW220094   1.391   3.938  16.418  0.7935  0.6607 -0.3233
 2878SOL     OW20095   1.196   1.930   4.076  0.7203  0.1104  0.0076
 2878SOL    HW120096   1.166   1.978   3.999  0.4069  1.6605  1.0923
 2878SOL    HW220097   1.133   1.859   4.087 -1.1253  1.8213  0.5088
 2879SOL     OW20098   3.930   2.435  17.520 -0.0373  0.0019 -0.3544
 2879SOL    HW120099   3.991   2.469  17.455  0.3967 -1.5574 -0.7598
 2879SOL    HW220100   3.951   2.492  17.594  0.7953  0.1706 -0.7295
 2880SOL     OW20101   0.900   0.820   6.430  0.1747 -0.1858  0.0555
 2880SOL    HW120102   0.953   0.886   6.385 -0.9670  0.7329  0.0597
 2880SOL    HW220103   0.968   0.755   6.447  0.7665  0.9257  1.9676
 2881SOL     OW20104   4.451   0.975   1.233  0.7546 -0.5673 -0.4913
 2881SOL    HW120105   4.479   1.000   1.321  1.9474  0.2458 -1.1019
 2881SOL    HW220106   4.511   0.904   1.209 -0.9088 -2.1225 -0.0297
 2882SOL     OW20107   0.840   4.601  15.890 -0.5936  0.6802 -0.5192
 2882SOL    HW120108   0.783   4.575  15.963  0.0353 -0.0456 -0.2874
 2882SOL    HW220109   0.875   4.683  15.927 -0.0234  0.2661 -0.1364
 2883SOL     OW20110   2.063   2.197  15.069  0.2539  0.5751 -0.3019
 2883SOL    HW120111   2.107   2.273  15.106 -1.4963  1.2167  0.4503
 2883SOL    HW220112   1.979   2.201  15.113  0.6364 -0.3467  0.5083
 2884SOL     OW20113   3.781   0.724   6.883 -0.4510 -0.2285  0.1982
 2884SOL    HW120114   3.795   0.714   6.977 -1.1859 -0.7045  0.2585
 2884SOL    HW220115   3.797   0.815   6.860  2.3737 -0.7613  0.1135
 2885SOL     OW20116   4.147   2.578   2.262  0.4370 -0.0884 -0.1237
 2885SOL    HW120117   4.129   2.658   2.214 -0.5997  1.3554  2.6483
 2885SOL    HW220118   4.065   2.562   2.309 -0.5106  0.7153 -1.5147
 2886SOL     OW20119   1.473   2.925   5.955  0.4694 -0.1229 -0.0993
 2886SOL    HW120120   1.441   2.835   5.963  0.9371 -0.4224 -1.5728
 2886SOL    HW220121   1.395   2.962   5.915  0.9903  1.5044  0.4082
 2887SOL     OW20122   1.796   2.454   5.450 -0.3093 -0.2617 -0.4502
 2887SOL    HW120123   1.733   2.404   5.398  0.9274 -0.3905 -1.8154
 2887SOL    HW220124   1.829   2.519   5.389  0.8384  1.9991  2.5832
 2888SOL     OW20125   2.087   2.110  14.304  0.1781  0.1531 -0.1641
 2888SOL    HW120126   2.127   2.048  14.365 -0.9803  1.1265  1.5804
 2888SOL    HW220127   2.124   2.195  14.326 -0.7693  0.0210  1.9040
 2889SOL     OW20128   3.163   2.148   6.913  0.0350 -0.7118 -0.0484
 2889SOL    HW120129   3.170   2.126   6.820  1.9878  0.0996 -0.0968
 2889SOL    HW220130   3.182   2.058   6.943  0.3863 -0.1953  1.2890
 2890SOL     OW20131   0.204   0.710  12.496 -0.0404  0.1007 -0.2568
 2890SOL    HW120132   0.263   0.773  12.455  0.4344  0.7393  1.3899
 2890SOL    HW220133   0.128   0.768  12.500  0.1564  0.1953  2.2895
 2891SOL     OW20134   3.249   0.707  16.923 -0.0386  0.6357 -0.1486
 2891SOL    HW120135   3.202   0.697  16.841  0.1815  2.9085 -0.5657
 2891SOL    HW220136   3.228   0.795  16.955 -2.6608 -0.2793  0.6594
 2892SOL     OW20137   2.295   0.318   1.119  0.1772  0.2947 -0.1559
 2892SOL    HW120138   2.313   0.343   1.028 -2.2580  2.6051  0.0060
 2892SOL    HW220139   2.385   0.304   1.149 -0.7939 -2.2248  1.5752
 2893SOL     OW20140   0.833   0.184  11.711  0.4069 -0.1404 -0.0187
 2893SOL    HW120141   0.860   0.274  11.696 -0.9534  0.6137  2.0339
 2893SOL    HW220142   0.791   0.161  11.628 -0.2277  3.1215 -0.5805
 2894SOL     OW20143   0.632   4.033   7.115 -0.1089 -0.6420 -0.0271
 2894SOL    HW120144   0.696   4.045   7.045  0.1431  1.0964  0.5186
 2894SOL    HW220145   0.561   3.998   7.061 -1.3179  0.8567  0.6058
 2895SOL     OW20146   0.009   3.667  14.306  0.2548  0.0660 -0.0713
 2895SOL    HW120147   0.083   3.640  14.361 -1.1979  1.2610  2.4599
 2895SOL    HW220148   4.695   3.583  14.284  2.4751 -0.5961 -1.4678
 2896SOL     OW20149   4.616   4.366  10.890 -0.4611  0.3780  0.8776
 2896SOL    HW120150   4.641   4.295  10.831 -1.2234  1.2966 -0.5281
 2896SOL    HW220151   4.613   4.439  10.828 -0.4679  1.1941  1.8287
 2897SOL     OW20152   0.921   3.826  15.486 -0.8464  0.4104  0.1659
 2897SOL    HW120153   0.828   3.827  15.465 -0.3423  0.6250 -2.0014
 2897SOL    HW220154   0.939   3.732  15.479  2.2513  0.9091  1.3891
 2898SOL     OW20155   0.613   1.939  16.670 -0.2449 -0.5112  0.1038
 2898SOL    HW120156   0.643   1.868  16.612  0.3872  0.3582 -0.6472
 2898SOL    HW220157   0.702   1.961  16.698  0.4950 -0.5296 -2.1643
 2899SOL     OW20158   2.977   0.984   8.221  0.2918 -0.2400 -0.2310
 2899SOL    HW120159   3.064   0.980   8.182  0.7020  2.1156  0.4550
 2899SOL    HW220160   2.926   1.030   8.153  0.3684 -0.5057 -0.4670
 2900SOL     OW20161   4.423   3.537   6.219  0.1697 -0.8266  0.0381
 2900SOL    HW120162   4.417   3.446   6.189 -1.4202 -1.1239  1.2301
 2900SOL    HW220163   4.344   3.572   6.177  1.0505  2.6864  1.3365
 2901SOL     OW20164   4.702   2.642   2.684  0.2832  0.3313  0.6474
 2901SOL    HW120165   0.028   2.652   2.764 -0.3927  0.1472  1.1111
 2901SOL    HW220166   4.667   2.553   2.693 -0.0170  0.4188  0.3394
 2902SOL     OW20167   0.392   3.480   4.333  0.1922 -0.1372  0.4729
 2902SOL    HW120168   0.344   3.397   4.331  0.4367 -0.3244  2.0361
 2902SOL    HW220169   0.325   3.535   4.292 -0.0289  0.8652  2.1915
 2903SOL     OW20170   3.036   0.685   6.306 -0.1734 -0.2326 -0.4812
 2903SOL    HW120171   3.035   0.674   6.401 -2.9246 -0.5466 -0.5377
 2903SOL    HW220172   3.123   0.721   6.294 -0.2537  0.1554  0.0983
 2904SOL     OW20173   4.711   2.237   6.782 -0.4281  0.0807 -0.3350
 2904SOL    HW120174   4.654   2.197   6.848  1.0320  1.5940  1.8358
 2904SOL    HW220175   4.648   2.280   6.724 -1.0376 -0.1019  0.1875
 2905SOL     OW20176   0.749   0.097   5.353 -0.1418 -0.2643 -0.3631
 2905SOL    HW120177   0.722   0.061   5.269  0.7163 -0.3339 -0.6107
 2905SOL    HW220178   0.828   0.046   5.369  0.4182  0.7267  0.0452
 2906SOL     OW20179   3.525   1.222   6.798  0.6034  0.5641  0.4762
 2906SOL    HW120180   3.544   1.181   6.882 -0.2538  0.0729  0.4299
 2906SOL    HW220181   3.530   1.315   6.820  0.5630  0.6568  0.0930
 2907SOL     OW20182   0.702   4.613   0.462 -0.8720  0.0814  0.7069
 2907SOL    HW120183   0.771   4.614   0.395  0.2638 -0.4172  1.8886
 2907SOL    HW220184   0.674   4.705   0.452  1.2765  0.4196 -2.1320
 2908SOL     OW20185   3.090   0.944   7.883  0.2415  0.2209  0.0217
 2908SOL    HW120186   3.074   0.945   7.789  1.3188  1.6195 -0.1422
 2908SOL    HW220187   3.033   0.874   7.913  1.1497 -1.0290 -1.1996
 2909SOL     OW20188   3.824   3.660   4.811 -0.3795 -0.0642 -0.0012
 2909SOL    HW120189   3.765   3.718   4.763  0.0398  0.8871  0.6388
 2909SOL    HW220190   3.889   3.717   4.852  1.0446 -1.1903 -0.6641
 2910SOL     OW20191   4.536   3.681   0.560 -0.0877 -0.2448 -0.4532
 2910SOL    HW120192   4.598   3.700   0.489 -0.1691 -1.2869 -0.8133
 2910SOL    HW220193   4.580   3.659   0.642  1.3964  2.4186 -0.5464
 2911SOL     OW20194   2.855   0.189   0.442  0.7212  0.5855  0.2559
 2911SOL    HW120195   2.871   0.136   0.520 -0.8342 -0.4689 -0.1368
 2911SOL    HW220196   2.864   0.122   0.374 -0.3961 -1.3460  2.0016
 2912SOL     OW20197   0.771   4.161   5.160 -0.3645 -0.0082  0.8083
 2912SOL    HW120198   0.711   4.110   5.216  1.4509 -3.2005 -0.1339
 2912SOL    HW220199   0.838   4.094   5.174 -1.4391 -0.9426  1.5996
 2913SOL     OW20200   0.767   0.895   4.876 -0.1443  0.7756 -0.1990
 2913SOL    HW120201   0.771   0.805   4.909  1.4739  0.3480 -1.5724
 2913SOL    HW220202   0.689   0.898   4.820 -1.3950  0.8123  1.5460
 2914SOL     OW20203   4.581   2.049   8.985 -0.7175 -0.0945  0.3217
 2914SOL    HW120204   4.593   2.087   9.072 -1.3032  0.1467  0.2998
 2914SOL    HW220205   4.624   1.964   8.988 -0.8069 -0.1971 -1.7549
 2915SOL     OW20206   4.426   2.168   1.176  0.5527 -0.3330  0.3131
 2915SOL    HW120207   4.461   2.199   1.093 -0.0374 -0.6639 -0.0625
 2915SOL    HW220208   4.344   2.132   1.140 -0.9656  0.7282  2.7429
 2916SOL     OW20209   2.211   4.408   0.961  0.3813 -0.5619 -0.2382
 2916SOL    HW120210   2.147   4.479   0.971  2.4916  1.2475  0.3630
 2916SOL    HW220211   2.189   4.366   0.878  0.7543  1.0960 -1.1718
 2917SOL     OW20212   2.395   0.303   2.056 -0.3894 -0.0118 -0.3768
 2917SOL    HW120213   2.373   0.394   2.037  1.2219  0.7815  1.5304
 2917SOL    HW220214   2.469   0.307   2.116  0.6557 -2.4530 -1.5091
 2918SOL     OW20215   3.420   1.540   6.049  0.0740  0.2381 -0.2376
 2918SOL    HW120216   3.421   1.634   6.033  0.5660  0.0025 -1.5557
 2918SOL    HW220217   3.325   1.526   6.053 -0.0221  0.9444 -0.1441
 2919SOL     OW20218   2.082   0.123   0.697  0.2867  0.2095 -0.7006
 2919SOL    HW120219   2.174   0.112   0.720  0.1270 -2.8421 -1.6319
 2919SOL    HW220220   2.090   0.164   0.611 -0.5237 -0.3516 -1.0405
 2920SOL     OW20221   0.200   4.368   4.986 -0.0231  0.1049  0.5515
 2920SOL    HW120222   0.264   4.307   5.024  0.7414  0.7850  0.3725
 2920SOL    HW220223   0.146   4.382   5.064  1.7787  0.2791  1.7964
 2921SOL     OW20224   3.067   0.552  16.015 -0.1579  0.3617 -0.5048
 2921SOL    HW120225   3.114   0.470  16.026  1.2353  0.9873 -1.8491
 2921SOL    HW220226   3.096   0.601  16.092  2.5523 -1.7241 -0.2425
 2922SOL     OW20227   0.235   3.363   1.947 -0.9047  0.2594 -0.0615
 2922SOL    HW120228   0.293   3.400   2.014  1.9348 -1.8590 -1.3740
 2922SOL    HW220229   0.216   3.274   1.976  3.5556 -1.3004 -1.9453
 2923SOL     OW20230   0.607   2.767   9.224 -0.5176 -0.0165  0.1576
 2923SOL    HW120231   0.591   2.788   9.132 -0.7371 -1.2594 -0.0979
 2923SOL    HW220232   0.631   2.674   9.217 -0.8391 -0.0800 -0.0895
 2924SOL     OW20233   3.956   0.219   8.414 -0.0491  0.5201  0.6710
 2924SOL    HW120234   3.951   0.268   8.332 -0.0475  0.5167  0.6689
 2924SOL    HW220235   4.048   0.218   8.438 -0.1819 -0.7212  1.1326
 2925SOL     OW20236   3.851   3.959  13.242 -0.1328 -0.2766  0.5267
 2925SOL    HW120237   3.759   3.967  13.218 -0.7091  2.7497  3.7044
 2925SOL    HW220238   3.850   4.016  13.319 -2.9989  1.0285 -0.4866
 2926SOL     OW20239   4.301   1.442  12.349  0.0311  0.3010  0.3613
 2926SOL    HW120240   4.361   1.436  12.275  1.0239 -2.4688  1.4242
 2926SOL    HW220241   4.295   1.349  12.369  1.0937  0.2979  0.6579
 2927SOL     OW20242   4.016   3.735   4.624  1.1661  0.0304 -0.5066
 2927SOL    HW120243   3.960   3.660   4.645  0.2986  1.3032  1.6543
 2927SOL    HW220244   3.992   3.747   4.532  1.8726 -0.0086 -0.6954
 2928SOL     OW20245   2.670   3.341   3.134 -0.0808  0.0231  0.0097
 2928SOL    HW120246   2.591   3.307   3.174 -0.3461 -0.1744 -0.6805
 2928SOL    HW220247   2.645   3.429   3.106  1.0494  0.6130  0.8498
 2929SOL     OW20248   3.147   1.535   6.038  0.2379 -0.0236 -0.5898
 2929SOL    HW120249   3.134   1.547   5.944 -1.7608  1.6497 -0.1067
 2929SOL    HW220250   3.106   1.452   6.060 -1.1683  1.0479  0.7767
 2930SOL     OW20251   0.854   3.074   5.083 -0.1841 -0.6126  0.3280
 2930SOL    HW120252   0.872   3.066   4.989  1.2387 -0.9983  0.6348
 2930SOL    HW220253   0.759   3.088   5.079  0.0645  0.9379 -0.0707
 2931SOL     OW20254   0.654   4.605   5.662 -0.7419  0.1448 -0.1941
 2931SOL    HW120255   0.655   4.570   5.573  0.2627 -2.1274  0.7014
 2931SOL    HW220256   0.625   4.532   5.717  2.5818  0.3681  1.8230
 2932SOL     OW20257   2.376   4.373   0.196  0.6609 -0.5462  0.6425
 2932SOL    HW120258   2.288   4.348   0.168  0.3470  1.8929 -0.6017
 2932SOL    HW220259   2.367   4.469   0.196  0.7760 -0.5357  0.8926
 2933SOL     OW20260   2.013   3.214   1.278  0.1454  0.0814 -0.3626
 2933SOL    HW120261   2.049   3.278   1.340 -0.1674 -0.7540  0.6853
 2933SOL    HW220262   1.949   3.268   1.231 -0.0149  0.1815 -0.0320
 2934SOL     OW20263   0.187   2.500   3.192  0.4896 -0.0766  0.7344
 2934SOL    HW120264   0.243   2.451   3.132 -0.4658  1.5531 -1.4668
 2934SOL    HW220265   0.148   2.429   3.242 -0.3411 -1.2797 -1.6260
 2935SOL     OW20266   0.947   2.919  10.231 -0.1747 -0.0677 -0.0416
 2935SOL    HW120267   0.936   2.939  10.324  1.4236 -0.2567  0.1942
 2935SOL    HW220268   1.032   2.962  10.218 -0.3792  0.2844 -0.2128
 2936SOL     OW20269   3.302   0.572   7.251  0.8332  0.1862  0.8894
 2936SOL    HW120270   3.207   0.570   7.246  0.8577 -1.7584  1.0502
 2936SOL    HW220271   3.330   0.487   7.287 -1.7232 -0.6617  0.8532
 2937SOL     OW20272   4.199   3.221  14.377  0.1163 -0.1200  0.2419
 2937SOL    HW120273   4.180   3.310  14.347  4.6885  1.1606  1.1295
 2937SOL    HW220274   4.273   3.203  14.319  1.0922  1.3144  1.0547
 2938SOL     OW20275   1.891   4.260  17.336  0.0573  0.5648  0.1467
 2938SOL    HW120276   1.835   4.183  17.323  0.6329  0.2825 -0.6772
 2938SOL    HW220277   1.856   4.302  17.415 -0.0197 -1.2515  1.0982
 2939SOL     OW20278   1.718   4.062  10.664  0.4429 -0.4158 -0.0140
 2939SOL    HW120279   1.764   4.068  10.748  2.1945 -2.5756 -0.8038
 2939SOL    HW220280   1.792   4.063  10.603 -0.8005  2.7634 -1.4309
 2940SOL     OW20281   3.041   3.807   5.233  0.1620  0.2461 -0.4667
 2940SOL    HW120282   2.998   3.846   5.309  1.7359  0.6401  0.2147
 2940SOL    HW220283   3.104   3.871   5.201 -2.0732  2.0357 -1.2554
 2941SOL     OW20284   4.087   1.201   7.356 -0.2038 -0.4652  0.0914
 2941SOL    HW120285   4.003   1.171   7.321 -1.6134  1.5908  1.7124
 2941SOL    HW220286   4.085   1.175   7.448  1.2012  2.3141  0.9092
 2942SOL     OW20287   2.129   0.116   2.407  0.8955  0.2172 -0.2646
 2942SOL    HW120288   2.197   0.102   2.341  2.2917  1.5152  0.8901
 2942SOL    HW220289   2.129   0.028   2.446  0.0071  0.0639 -0.6033
 2943SOL     OW20290   2.877   1.576   8.712  0.3970 -0.1890 -0.2939
 2943SOL    HW120291   2.946   1.540   8.657 -0.8210 -0.8463 -1.4105
 2943SOL    HW220292   2.851   1.502   8.768  0.4152  0.5215  0.6378
 2944SOL     OW20293   4.477   1.510   2.709  0.7584 -0.3747 -0.1104
 2944SOL    HW120294   4.489   1.471   2.623 -0.4738 -1.1654  0.0768
 2944SOL    HW220295   4.544   1.576   2.724 -1.1755  1.9334 -1.7386
 2945SOL     OW20296   1.314   0.432   6.471  0.1500  0.1385  0.4952
 2945SOL    HW120297   1.311   0.356   6.530 -4.0257 -0.2999 -0.3129
 2945SOL    HW220298   1.296   0.391   6.386  2.1551  1.4957 -0.5819
 2946SOL     OW20299   1.800   2.857   5.150  0.1608  0.2832  0.1799
 2946SOL    HW120300   1.806   2.944   5.189  0.7320  0.7701 -0.9848
 2946SOL    HW220301   1.787   2.883   5.058  1.7623 -0.3956 -0.2353
 2947SOL     OW20302   0.471   4.549   4.466  0.8607  0.2639  0.2289
 2947SOL    HW120303   0.539   4.575   4.405 -0.0681  0.9530 -0.5060
 2947SOL    HW220304   0.449   4.463   4.429 -0.2872 -1.3618  4.7186
 2948SOL     OW20305   3.528   3.879  15.565 -0.1975 -0.4327 -0.3373
 2948SOL    HW120306   3.598   3.849  15.624  0.0822  0.2052 -0.3456
 2948SOL    HW220307   3.587   3.915  15.499 -0.3353  2.1078  0.9216
 2949SOL     OW20308   1.366   1.990   2.457 -0.0935 -0.5479  0.4277
 2949SOL    HW120309   1.292   2.005   2.516  0.6997  0.4666  1.1595
 2949SOL    HW220310   1.436   1.978   2.520 -0.1367 -0.0595  0.5732
 2950SOL     OW20311   3.358   2.362   6.984  0.3069 -0.1783 -0.4172
 2950SOL    HW120312   3.437   2.323   6.946  1.3726  0.2421  1.3749
 2950SOL    HW220313   3.290   2.299   6.959  0.7930 -0.5047 -0.9018
 2951SOL     OW20314   2.470   1.955  11.910  0.1025 -0.0872 -0.0007
 2951SOL    HW120315   2.431   1.873  11.939 -2.4553  0.7801 -0.9894
 2951SOL    HW220316   2.552   1.918  11.878  0.5929  1.4314 -0.4697
 2952SOL     OW20317   4.430   3.179   4.384  0.1291 -0.0052 -0.0212
 2952SOL    HW120318   4.347   3.134   4.371  1.1179 -1.5531 -1.0583
 2952SOL    HW220319   4.407   3.260   4.339  1.0210 -0.1111 -0.6793
 2953SOL     OW20320   0.520   0.212   4.633  0.6522  0.5810 -0.0920
 2953SOL    HW120321   0.551   0.123   4.647 -0.1215  0.4184  0.5822
 2953SOL    HW220322   0.588   0.268   4.672 -0.0862 -1.0904  3.6524
 2954SOL     OW20323   3.696   2.151  10.975  0.0987  0.7336 -0.0706
 2954SOL    HW120324   3.688   2.202  11.055  0.2899  0.9314 -0.1804
 2954SOL    HW220325   3.678   2.219  10.911  1.2188  2.1489  1.1376
 2955SOL     OW20326   4.599   0.045  12.905 -0.6062 -0.2938  0.2042
 2955SOL    HW120327   4.506   0.063  12.923 -0.2413 -0.9603  2.7836
 2955SOL    HW220328   4.593   4.687  12.858 -2.4806 -0.0447 -0.0115
 2956SOL     OW20329   0.649   2.829   7.669  0.4982 -0.3291 -0.3454
 2956SOL    HW120330   0.693   2.913   7.665 -0.1450  0.1042  1.7749
 2956SOL    HW220331   0.667   2.813   7.577 -1.8875  0.7242 -0.9808
 2957SOL     OW20332   3.711   2.306  11.728  0.4121 -0.2638 -0.2456
 2957SOL    HW120333   3.708   2.221  11.773 -0.4149  0.2223  0.6129
 2957SOL    HW220334   3.803   2.290  11.705  0.3191  0.7776 -1.2944
 2958SOL     OW20335   2.220   3.703   5.698  0.5042  0.0796 -0.3697
 2958SOL    HW120336   2.195   3.783   5.742  1.2188 -1.0527  2.0877
 2958SOL    HW220337   2.131   3.670   5.685  1.1080 -2.2526  1.4268
 2959SOL     OW20338   1.585   0.749   4.192  0.3192  0.1032  0.5130
 2959SOL    HW120339   1.575   0.829   4.244 -0.4005 -0.0795  0.6540
 2959SOL    HW220340   1.503   0.706   4.215  0.1468  1.2376  2.0653
 2960SOL     OW20341   2.286   2.921  17.434  0.0110 -0.0030 -0.3632
 2960SOL    HW120342   2.252   2.959  17.353  1.0926  1.1197 -0.2910
 2960SOL    HW220343   2.334   2.844  17.404  2.5028  1.2743  0.3383
 2961SOL     OW20344   1.041   3.664   9.277 -0.4231  0.3588  0.5369
 2961SOL    HW120345   0.980   3.624   9.339 -0.5117 -0.7043 -0.2539
 2961SOL    HW220346   1.008   3.754   9.289  0.4723  0.6839  0.5507
 2962SOL     OW20347   1.826   2.572   4.972  0.0081 -0.1523 -0.2793
 2962SOL    HW120348   1.873   2.628   4.911 -1.9568 -0.4083 -2.0301
 2962SOL    HW220349   1.864   2.596   5.057  0.0865  0.7435 -0.5691
 2963SOL     OW20350   1.190   0.871   5.319  0.2400 -0.0385 -0.0301
 2963SOL    HW120351   1.158   0.796   5.270  0.3162 -0.7558  1.0078
 2963SOL    HW220352   1.115   0.889   5.377 -0.2370 -2.4923  0.1248
 2964SOL     OW20353   0.792   2.138   5.075 -0.3758 -0.1976 -0.0504
 2964SOL    HW120354   0.855   2.154   5.004 -0.4453  2.4144  0.4682
 2964SOL    HW220355   0.745   2.057   5.056 -0.0550 -0.5462  0.6227
 2965SOL     OW20356   2.558   2.217  16.346  0.0696 -0.2128  0.9826
 2965SOL    HW120357   2.603   2.290  16.387 -1.3821  1.3859 -0.2529
 2965SOL    HW220358   2.516   2.266  16.275 -1.8453 -3.5302 -0.2046
 2966SOL     OW20359   1.628   2.414  12.621 -0.3917  0.0779 -0.3590
 2966SOL    HW120360   1.541   2.452  12.636 -0.2206  0.1685  0.4140
 2966SOL    HW220361   1.673   2.497  12.604 -0.2582 -0.1336 -0.9937
 2967SOL     OW20362   3.784   3.088  13.909 -0.6865  0.0655  0.4933
 2967SOL    HW120363   3.693   3.105  13.936 -0.4561  1.2439  0.5228
 2967SOL    HW220364   3.763   3.017  13.849  0.5894  0.5088 -0.4667
 2968SOL     OW20365   1.659   1.067   3.296 -0.0973 -0.4282 -0.3608
 2968SOL    HW120366   1.695   1.053   3.384  1.0252 -1.2246 -0.9458
 2968SOL    HW220367   1.577   1.110   3.319  0.0228 -1.3949  1.9171
 2969SOL     OW20368   3.707   3.049  17.410 -0.1542 -0.2205  0.2735
 2969SOL    HW120369   3.734   3.056  17.318  1.1259  1.5544  0.8055
 2969SOL    HW220370   3.765   3.110  17.454 -0.6396 -0.8541  1.8067
 2970SOL     OW20371   4.706   0.100  11.158  0.0736 -0.1762  0.9089
 2970SOL    HW120372   4.654   0.178  11.141 -0.0934 -0.3503  0.6420
 2970SOL    HW220373   0.071   0.133  11.159 -0.3656  0.9958  2.0030
 2971SOL     OW20374   0.585   0.047   2.319  0.0196  0.1658 -0.0955
 2971SOL    HW120375   0.621   0.105   2.251  1.4702  0.3191  0.8013
 2971SOL    HW220376   0.545   0.117   2.370  1.1589  0.7993 -0.0596
 2972SOL     OW20377   4.182   4.418   5.259 -0.2573 -0.0878  0.4275
 2972SOL    HW120378   4.266   4.380   5.232 -0.2793 -1.0926  1.7656
 2972SOL    HW220379   4.111   4.388   5.202 -0.6898 -0.2612  1.0632
 2973SOL     OW20380   4.545   3.182  14.576  0.0047  0.0484 -0.2655
 2973SOL    HW120381   4.542   3.119  14.503 -2.1003  0.9981 -0.9905
 2973SOL    HW220382   4.622   3.149  14.622 -0.0511 -0.4574 -0.5199
 2974SOL     OW20383   4.392   0.180  11.363  0.3632 -0.3201  0.3075
 2974SOL    HW120384   4.308   0.136  11.374  0.1114  0.0284 -0.1936
 2974SOL    HW220385   4.451   0.105  11.370  0.7497 -0.0378  0.0628
 2975SOL     OW20386   3.599   4.379   3.284  0.0977  0.1977  0.5765
 2975SOL    HW120387   3.507   4.394   3.304 -0.6803 -4.0707  0.0265
 2975SOL    HW220388   3.640   4.439   3.346  0.3664  0.8270 -0.2071
 2976SOL     OW20389   1.703   3.018   9.205 -0.9768  0.3197 -0.0339
 2976SOL    HW120390   1.746   2.958   9.145 -0.1809  0.1804  0.6755
 2976SOL    HW220391   1.618   2.976   9.215 -0.5876 -0.4904 -0.1945
 2977SOL     OW20392   2.935   0.944  14.672 -0.0767 -0.3826  0.0007
 2977SOL    HW120393   2.934   0.881  14.745 -0.4748  1.2321  1.4023
 2977SOL    HW220394   3.019   0.910  14.640  0.0291 -1.9500  1.9093
 2978SOL     OW20395   0.106   2.939  15.605 -0.0662  0.1174  0.7416
 2978SOL    HW120396   0.150   2.945  15.521 -0.4354 -1.7730  0.4244
 2978SOL    HW220397   0.171   2.913  15.671  0.6805  0.2581  0.0606
 2979SOL     OW20398   1.516   1.966  16.179 -0.0155  0.0878  0.4833
 2979SOL    HW120399   1.578   2.015  16.232  0.7237 -1.0538  0.6670
 2979SOL    HW220400   1.435   2.017  16.189 -1.0042 -1.2003 -0.9104
 2980SOL     OW20401   0.874   3.922   1.529 -0.3753  0.2769 -0.3996
 2980SOL    HW120402   0.930   3.972   1.588 -1.3283  0.6993  0.1665
 2980SOL    HW220403   0.860   3.981   1.455 -0.6977  0.8727  0.1271
 2981SOL     OW20404   3.387   2.285   2.248 -0.0275  0.0417 -0.0756
 2981SOL    HW120405   3.332   2.362   2.260 -0.1517  0.3504 -2.6799
 2981SOL    HW220406   3.467   2.324   2.212 -0.8684  2.2544  0.4285
 2982SOL     OW20407   2.029   1.232   3.968 -0.2813 -0.5550 -0.1075
 2982SOL    HW120408   1.960   1.218   4.034 -0.0749  1.1392  0.4594
 2982SOL    HW220409   2.039   1.326   3.955 -3.1398 -0.5483 -2.1169
 2983SOL     OW20410   2.787   2.583   3.641 -0.2543  0.3622 -0.5969
 2983SOL    HW120411   2.716   2.556   3.699  0.6192  0.3873  0.4732
 2983SOL    HW220412   2.748   2.604   3.556  0.3478  0.3852 -0.8696
 2984SOL     OW20413   4.066   1.812   1.256  0.3167  0.0354 -0.3092
 2984SOL    HW120414   4.140   1.819   1.317 -0.2846  0.8687  0.3384
 2984SOL    HW220415   4.037   1.722   1.271  2.1270 -0.6171 -0.7899
 2985SOL     OW20416   0.474   2.350  15.541  0.2142  0.3904 -0.6412
 2985SOL    HW120417   0.384   2.378  15.522  0.7170  1.4287 -1.4338
 2985SOL    HW220418   0.513   2.436  15.551 -0.6409  0.8887 -1.6216
 2986SOL     OW20419   1.118   3.522  16.441 -0.0192  0.3406  0.2958
 2986SOL    HW120420   1.135   3.443  16.493 -1.9441  0.3202  0.8965
 2986SOL    HW220421   1.054   3.481  16.382 -0.2827  1.6218 -0.2944
 2987SOL     OW20422   2.631   3.184   7.346  0.4715 -0.4130  0.0022
 2987SOL    HW120423   2.637   3.102   7.396 -0.5638 -0.2588  0.3709
 2987SOL    HW220424   2.565   3.229   7.398  1.3154 -0.3419  1.0273
 2988SOL     OW20425   0.986   3.345  12.048 -0.3951 -0.0559 -0.4222
 2988SOL    HW120426   0.946   3.400  11.981 -1.8861 -1.7907 -0.9404
 2988SOL    HW220427   0.966   3.261  12.007  0.1092  0.1674 -1.1259
 2989SOL     OW20428   1.378   4.391   1.128 -0.1198 -0.0959 -0.3139
 2989SOL    HW120429   1.415   4.430   1.049 -0.5115  2.8214  0.9606
 2989SOL    HW220430   1.455   4.342   1.156  0.9552  1.2460 -0.9436
 2990SOL     OW20431   3.019   4.267  15.200 -0.6919  0.4519 -0.9975
 2990SOL    HW120432   3.079   4.341  15.214  1.9170 -1.7475 -0.5928
 2990SOL    HW220433   3.064   4.238  15.121  0.8364 -0.7831  0.3403
 2991SOL     OW20434   3.707   1.496   7.115  0.2283  0.2003  0.0274
 2991SOL    HW120435   3.681   1.479   7.206  0.3660 -0.4947 -0.0590
 2991SOL    HW220436   3.643   1.562   7.087  1.5486  0.5654 -2.1052
 2992SOL     OW20437   0.373   2.897  17.650  0.2602  0.2573  0.1924
 2992SOL    HW120438   0.400   2.912   0.039 -0.0113 -0.9568  0.4787
 2992SOL    HW220439   0.302   2.833  17.650  0.7534 -0.3016  1.3645
 2993SOL     OW20440   4.296   3.879   2.247 -0.1518  0.3014 -0.3939
 2993SOL    HW120441   4.365   3.945   2.242 -0.4450  0.3795 -3.2880
 2993SOL    HW220442   4.215   3.928   2.233  1.7215  3.2133 -1.0786
 2994SOL     OW20443   0.095   1.851   4.124  0.1754 -0.3016  0.3086
 2994SOL    HW120444   0.060   1.764   4.104 -1.0995  0.3041 -0.1054
 2994SOL    HW220445   0.134   1.883   4.043  0.9424 -0.6146  0.5643
 2995SOL     OW20446   3.597   2.248   6.844  0.3225 -0.4388  0.0559
 2995SOL    HW120447   3.562   2.188   6.778 -0.1820  0.3815 -0.4256
 2995SOL    HW220448   3.632   2.188   6.909  1.1946  0.3826  0.3519
 2996SOL     OW20449   4.107   0.956  15.890  0.7063 -0.6945  0.0723
 2996SOL    HW120450   4.107   1.052  15.896  1.4091 -0.7208  0.5974
 2996SOL    HW220451   4.191   0.939  15.934 -1.1416 -0.6847  3.6008
 2997SOL     OW20452   2.924   2.448   6.806  0.1874  0.0382  0.3784
 2997SOL    HW120453   2.867   2.378   6.774 -1.2698  1.2395  0.3246
 2997SOL    HW220454   2.862   2.502   6.856 -1.3232 -3.0377  1.7991
 2998SOL     OW20455   2.571   0.953  17.160 -0.0177 -0.6777 -0.1445
 2998SOL    HW120456   2.575   0.933  17.254  1.4378  2.4861  0.4690
 2998SOL    HW220457   2.662   0.937  17.135  0.0271 -0.8861  0.1519
 2999SOL     OW20458   1.746   2.776  10.925  0.0845  0.1587 -0.0753
 2999SOL    HW120459   1.749   2.681  10.915  0.1213  0.1591 -0.0704
 2999SOL    HW220460   1.757   2.786  11.020 -2.1140 -1.1519  0.3023
 3000SOL     OW20461   0.358   4.020  14.072 -0.1374  0.1415  0.4656
 3000SOL    HW120462   0.287   4.079  14.048 -0.1971  0.3678  1.1948
 3000SOL    HW220463   0.302   3.966  14.128  2.0515 -3.2481 -0.5568
 3001SOL     OW20464   1.285   3.651   2.901  0.0490 -0.1088 -0.0336
 3001SOL    HW120465   1.233   3.713   2.952 -0.0204 -0.3066  0.1317
 3001SOL    HW220466   1.356   3.655   2.965  1.6847 -0.5314 -1.8163
 3002SOL     OW20467   3.318   3.044   3.013  0.0345 -0.1074 -0.1319
 3002SOL    HW120468   3.246   3.107   3.009  0.6470  0.5846 -0.0825
 3002SOL    HW220469   3.271   2.969   3.050  0.5919 -1.5976 -2.4625
 3003SOL     OW20470   0.344   0.902  12.720 -0.1784 -0.0835 -0.0005
 3003SOL    HW120471   0.385   0.816  12.717  0.6289  0.2947  0.2876
 3003SOL    HW220472   0.400   0.951  12.660  0.5658 -0.9300  0.0122
 3004SOL     OW20473   2.990   2.570   5.157 -0.4870  0.4613 -0.4801
 3004SOL    HW120474   3.032   2.533   5.080  1.2622 -1.0321  1.1808
 3004SOL    HW220475   2.995   2.504   5.226  1.5055  1.4818  0.3544
 3005SOL     OW20476   1.877   3.537   7.098 -0.2239  0.1380  0.0856
 3005SOL    HW120477   1.790   3.573   7.082 -0.6630 -0.6520  0.7189
 3005SOL    HW220478   1.863   3.445   7.119 -0.6108  0.0586 -0.5112
 3006SOL     OW20479   3.083   2.490   4.869  0.5001  0.1370  0.3345
 3006SOL    HW120480   3.101   2.404   4.909  2.3306  1.9714  3.5169
 3006SOL    HW220481   3.125   2.465   4.787  0.9654  0.1361  0.5725
 3007SOL     OW20482   1.737   2.749  14.095  0.6596  0.3083  0.4933
 3007SOL    HW120483   1.714   2.676  14.038  1.8738  0.0210  0.3590
 3007SOL    HW220484   1.833   2.747  14.093  0.6245 -0.4247 -0.5269
 3008SOL     OW20485   4.086   4.057   7.361  0.0322 -0.2124 -0.2020
 3008SOL    HW120486   4.103   4.027   7.450 -0.8111 -0.8920 -0.2710
 3008SOL    HW220487   4.140   4.136   7.361  0.3987 -0.4625 -0.4836
 3009SOL     OW20488   4.672   3.088  13.333 -0.1419 -0.3352 -0.2228
 3009SOL    HW120489   4.656   3.148  13.405 -0.4016 -0.2928 -0.3170
 3009SOL    HW220490   0.014   3.139  13.287 -0.4481  0.5517  0.3165
 3010SOL     OW20491   3.817   0.497   0.583  0.1111 -0.1323  0.3686
 3010SOL    HW120492   3.855   0.560   0.645 -0.0451  0.7820 -0.4772
 3010SOL    HW220493   3.869   0.522   0.507  0.3140 -1.8366 -0.0409
 3011SOL     OW20494   0.618   1.482  17.462  0.9926  0.1274  0.4271
 3011SOL    HW120495   0.694   1.520  17.419 -0.0829 -0.8157 -2.3141
 3011SOL    HW220496   0.649   1.405  17.510  1.0992 -0.5349 -0.7171
 3012SOL     OW20497   4.430   0.371   4.437 -0.1045 -0.5485  0.1158
 3012SOL    HW120498   4.524   0.359   4.422 -0.0557 -1.1702  0.9064
 3012SOL    HW220499   4.392   0.330   4.360  1.3612 -0.5301 -0.6125
 3013SOL     OW20500   0.811   2.552   5.790 -0.6550 -0.6914  0.8000
 3013SOL    HW120501   0.808   2.461   5.820 -1.7295 -1.0182 -0.2921
 3013SOL    HW220502   0.795   2.600   5.871  0.5133  0.4083  0.3699
 3014SOL     OW20503   1.948   3.930   0.604 -0.4934 -0.4090  0.2567
 3014SOL    HW120504   1.930   3.854   0.549  0.0436  0.7882 -1.5670
 3014SOL    HW220505   2.034   3.961   0.575 -1.1994  0.3838 -0.9785
 3015SOL     OW20506   0.351   3.920   8.787  0.0317 -0.6038 -0.1395
 3015SOL    HW120507   0.319   3.832   8.804 -0.5029 -0.9461 -2.9620
 3015SOL    HW220508   0.404   3.935   8.866 -0.8709 -1.7930  0.6985
 3016SOL     OW20509   3.426   1.325  10.644  0.3374  0.6021 -0.1772
 3016SOL    HW120510   3.393   1.265  10.578 -1.0311  2.6312 -1.3144
 3016SOL    HW220511   3.490   1.371  10.590 -1.5292 -0.1748 -2.9986
 3017SOL     OW20512   2.830   1.510  13.002 -0.1520 -0.6767 -0.5615
 3017SOL    HW120513   2.871   1.536  13.085  1.4440 -1.1485 -1.1888
 3017SOL    HW220514   2.738   1.528  13.019 -0.1095 -1.6290  0.6294
 3018SOL     OW20515   2.895   2.562  10.522  0.1705  0.0141  0.5285
 3018SOL    HW120516   2.963   2.540  10.585  0.4809  0.4353  0.3376
 3018SOL    HW220517   2.860   2.641  10.562 -4.5734 -1.3996 -0.8054
 3019SOL     OW20518   2.022   2.528   3.856  0.2108  0.1835  0.4426
 3019SOL    HW120519   2.036   2.506   3.948  0.3064  1.4404  0.7255
 3019SOL    HW220520   1.948   2.469   3.843 -0.4217  1.0917 -0.0352
 3020SOL     OW20521   3.473   3.191  15.744  0.0548  0.4785 -0.3038
 3020SOL    HW120522   3.433   3.276  15.724  1.0205  1.4113  1.7609
 3020SOL    HW220523   3.466   3.182  15.839 -1.8185  0.5971 -0.4408
 3021SOL     OW20524   0.532   0.159   6.006 -0.3716 -0.2600  0.1052
 3021SOL    HW120525   0.594   0.088   6.024  2.5756  1.5086 -2.8658
 3021SOL    HW220526   0.526   0.156   5.910  0.0518 -0.0879  0.0722
 3022SOL     OW20527   2.765   3.732   8.278  0.1600  0.3429 -0.0258
 3022SOL    HW120528   2.737   3.678   8.204 -1.2266 -1.7484  2.0208
 3022SOL    HW220529   2.723   3.683   8.349  0.8918 -1.3023 -0.7208
 3023SOL     OW20530   0.819   4.632   7.778  0.2955  0.2700 -0.3304
 3023SOL    HW120531   0.858   4.693   7.841 -0.1329  2.7882 -2.4599
 3023SOL    HW220532   0.730   4.666   7.765 -0.4458 -1.4118  0.3421
 3024SOL     OW20533   4.293   2.103   5.412 -0.9280  0.5315 -0.3241
 3024SOL    HW120534   4.324   2.015   5.436 -0.1856  0.7784 -0.3724
 3024SOL    HW220535   4.200   2.082   5.422 -0.9019 -0.0663 -1.3652
 3025SOL     OW20536   0.165   0.050   3.187  0.2861 -0.2734 -0.2125
 3025SOL    HW120537   0.243   0.045   3.130 -1.1004 -0.9328 -2.0534
 3025SOL    HW220538   0.207   0.051   3.273  1.8930 -1.1272 -0.9743
 3026SOL     OW20539   1.344   1.119   6.076 -0.2016 -0.5385 -0.1242
 3026SOL    HW120540   1.354   1.103   5.983  3.0926  1.7124 -0.1455
 3026SOL    HW220541   1.395   1.047   6.113 -0.9011 -1.7250 -1.5080
 3027SOL     OW20542   3.863   2.165   9.142 -0.0619 -0.3010  0.3241
 3027SOL    HW120543   3.924   2.105   9.186 -0.2619 -0.8838 -0.1995
 3027SOL    HW220544   3.812   2.202   9.214 -0.0419  0.1932  0.0804
 3028SOL     OW20545   2.368   1.861   3.169 -0.7257 -0.3586 -0.0013
 3028SOL    HW120546   2.307   1.882   3.239  1.2587 -2.4153  2.3499
 3028SOL    HW220547   2.321   1.794   3.119 -1.3579  0.7271 -0.8734
 3029SOL     OW20548   1.708   2.612  13.355  0.1475 -0.4855 -0.2631
 3029SOL    HW120549   1.626   2.576  13.390 -0.6430  2.4180  0.8364
 3029SOL    HW220550   1.735   2.677  13.419 -1.9046 -1.5969  1.7710
 3030SOL     OW20551   0.847   4.224   6.079 -0.3405 -0.4837 -0.8476
 3030SOL    HW120552   0.840   4.128   6.080 -1.5057 -0.3864  0.1597
 3030SOL    HW220553   0.802   4.253   6.158 -1.9127 -1.1209 -1.5001
 3031SOL     OW20554   3.366   3.796   6.044 -0.4705  0.2394 -0.5797
 3031SOL    HW120555   3.421   3.794   5.966 -1.7760 -1.8596 -1.4287
 3031SOL    HW220556   3.322   3.879   6.027  1.1951  1.7674  2.4625
 3032SOL     OW20557   1.440   0.447   5.556 -0.4462 -0.3422 -0.0399
 3032SOL    HW120558   1.376   0.504   5.599 -0.1331  0.1585 -0.2400
 3032SOL    HW220559   1.416   0.446   5.464 -0.0709  1.0936 -0.1537
 3033SOL     OW20560   2.729   3.629   3.584 -0.3369  0.2505 -0.5503
 3033SOL    HW120561   2.729   3.542   3.543 -3.7199  1.1392 -2.4886
 3033SOL    HW220562   2.637   3.652   3.569 -1.0881 -1.3701  1.4918
 3034SOL     OW20563   1.695   3.739   6.641 -0.5712 -0.4438 -0.0455
 3034SOL    HW120564   1.721   3.664   6.588 -2.7800  0.1338 -1.9409
 3034SOL    HW220565   1.765   3.750   6.706  0.4234 -0.5263 -1.1067
 3035SOL     OW20566   3.853   0.737   8.000  0.1140 -0.4674  0.8606
 3035SOL    HW120567   3.814   0.687   7.929 -0.2450  2.2428 -0.8266
 3035SOL    HW220568   3.786   0.729   8.068 -1.5395 -0.0990 -0.7452
 3036SOL     OW20569   3.757   3.464   8.476 -0.0595 -0.5709 -0.3668
 3036SOL    HW120570   3.734   3.556   8.465 -0.3828 -0.4159  1.7720
 3036SOL    HW220571   3.687   3.417   8.430 -0.5694 -0.0598 -0.0990
 3037SOL     OW20572   3.742   3.584   6.718 -0.3816 -0.5661  0.1032
 3037SOL    HW120573   3.779   3.522   6.655 -0.9304 -0.5049 -0.2845
 3037SOL    HW220574   3.709   3.531   6.790  0.5477 -0.0019  0.9354
 3038SOL     OW20575   0.190   0.914   4.064 -0.4037 -0.2431  0.3017
 3038SOL    HW120576   0.124   0.846   4.069  0.7246 -1.7124 -4.4060
 3038SOL    HW220577   0.230   0.909   3.977 -0.1683 -0.4191  0.4187
 3039SOL     OW20578   3.226   4.042  16.926  0.4102 -0.2035  0.2406
 3039SOL    HW120579   3.171   3.965  16.941  1.6236 -1.4983 -1.9881
 3039SOL    HW220580   3.227   4.055  16.831 -1.5393 -1.4588  0.0355
 3040SOL     OW20581   1.928   0.865   4.667 -0.5495 -0.0456 -0.0240
 3040SOL    HW120582   2.008   0.820   4.693 -0.7481  0.2515  1.0863
 3040SOL    HW220583   1.936   0.947   4.716 -1.6492 -0.0669  0.1864
 3041SOL     OW20584   2.164   1.805   7.103  0.1159 -0.0385 -0.0887
 3041SOL    HW120585   2.225   1.740   7.137 -0.4930  0.0709  1.1987
 3041SOL    HW220586   2.211   1.830   7.023  2.5045  2.7631  2.1978
 3042SOL     OW20587   3.374   2.337   1.783  0.2941  0.3470  0.0290
 3042SOL    HW120588   3.436   2.320   1.712  0.8453 -0.4444  0.7103
 3042SOL    HW220589   3.383   2.256   1.832  0.9096  0.8073  0.6726
 3043SOL     OW20590   4.162   3.340   6.426 -0.0447 -0.2180 -0.3488
 3043SOL    HW120591   4.078   3.344   6.381 -1.1646  1.6115  1.9553
 3043SOL    HW220592   4.172   3.250   6.457 -0.2681  0.0823  0.5891
 3044SOL     OW20593   1.560   0.731   5.260  0.5710 -0.1505 -0.6386
 3044SOL    HW120594   1.517   0.668   5.203  0.0264  1.2180 -1.7606
 3044SOL    HW220595   1.502   0.754   5.332 -0.1253 -2.0287 -0.6182
 3045SOL     OW20596   3.336   1.650   2.875  0.2915  0.0488  0.3002
 3045SOL    HW120597   3.282   1.572   2.858  0.6765 -0.1637  0.0491
 3045SOL    HW220598   3.418   1.604   2.855 -1.2117 -0.5656 -4.4742
 3046SOL     OW20599   2.381   0.014   8.614  0.3050  0.5886  0.2029
 3046SOL    HW120600   2.364   0.104   8.641 -2.0484  0.5909 -1.2719
 3046SOL    HW220601   2.298   4.692   8.626  0.6433 -0.1557 -0.3491
 3047SOL     OW20602   1.264   4.397   5.674  0.4426  0.1602  0.2439
 3047SOL    HW120603   1.355   4.411   5.649  0.5827 -0.2180  0.5687
 3047SOL    HW220604   1.285   4.347   5.752  1.3210 -1.6716 -1.1720
 3048SOL     OW20605   3.719   2.264   5.481  0.4417  0.3324 -0.0513
 3048SOL    HW120606   3.641   2.315   5.504  0.4123 -0.3071  1.3079
 3048SOL    HW220607   3.740   2.233   5.570  0.5141  1.4306  0.3160
 3049SOL     OW20608   4.230   1.139   6.858 -0.4426 -0.0357  0.3394
 3049SOL    HW120609   4.147   1.138   6.905 -1.2470  2.8775 -1.0117
 3049SOL    HW220610   4.214   1.182   6.774  1.0377  1.4230  0.7878
 3050SOL     OW20611   1.338   3.517   7.576 -0.1548 -0.2253  0.3092
 3050SOL    HW120612   1.391   3.595   7.592 -0.1551  0.1829 -1.7277
 3050SOL    HW220613   1.256   3.533   7.623  0.6687 -1.2654  2.1315
 3051SOL     OW20614   2.608   0.341   6.936  0.8482  0.1101  0.2223
 3051SOL    HW120615   2.638   0.343   6.845  0.4538 -0.3079  0.0837
 3051SOL    HW220616   2.695   0.343   6.975  0.5760 -1.9758  0.9457
 3052SOL     OW20617   4.054   0.596  15.683 -0.1601 -0.6084 -0.2068
 3052SOL    HW120618   4.139   0.569  15.649 -0.2648  1.2912 -1.9493
 3052SOL    HW220619   4.051   0.685  15.650 -0.5556 -1.1902 -1.7054
 3053SOL     OW20620   4.124   4.094   5.377  0.7336  0.1462  0.5064
 3053SOL    HW120621   4.131   4.134   5.464  1.0624 -0.9466  0.9773
 3053SOL    HW220622   4.215   4.072   5.360  0.7697 -0.4505  1.4583
 3054SOL     OW20623   1.888   0.379   3.313 -0.0389 -0.4949  0.1330
 3054SOL    HW120624   1.957   0.313   3.312  0.7458  0.2587  4.1436
 3054SOL    HW220625   1.873   0.385   3.219  0.4336  0.4639  0.1124
 3055SOL     OW20626   2.678   2.584   4.987  0.0760 -0.5498  0.1747
 3055SOL    HW120627   2.715   2.530   4.917 -0.9872 -1.4951  0.3372
 3055SOL    HW220628   2.711   2.668   4.956 -0.4219  0.6955  2.9811
 3056SOL     OW20629   0.996   4.321   9.128  0.2495  0.1417 -0.2022
 3056SOL    HW120630   1.017   4.365   9.210 -1.3697  0.4728  0.0255
 3056SOL    HW220631   0.970   4.398   9.079 -0.9346 -0.0752  0.0946
 3057SOL     OW20632   3.691   3.209  11.177  0.0028  0.0402  0.0492
 3057SOL    HW120633   3.621   3.170  11.229  0.9113 -3.0963 -1.0296
 3057SOL    HW220634   3.747   3.240  11.248 -1.4564  0.6568  0.9244
 3058SOL     OW20635   4.400   4.184   4.734  0.1569  0.1970  0.9249
 3058SOL    HW120636   4.306   4.196   4.723  0.6416  1.7165 -1.6228
 3058SOL    HW220637   4.407   4.234   4.815  2.5419 -1.5057  1.7936
 3059SOL     OW20638   3.723   3.330   0.961  0.0780  0.2234  0.3079
 3059SOL    HW120639   3.725   3.416   1.001 -3.2193  0.3811  0.1127
 3059SOL    HW220640   3.629   3.315   0.951  0.2306 -1.0000  0.6472
 3060SOL     OW20641   1.463   2.539  15.393  0.7388  0.3124  0.4538
 3060SOL    HW120642   1.537   2.550  15.333  1.7040 -0.7176  1.4628
 3060SOL    HW220643   1.475   2.623  15.438 -0.9452  0.3534  0.8438
 3061SOL     OW20644   2.167   1.129   2.209 -0.1801 -0.1535  0.4707
 3061SOL    HW120645   2.194   1.055   2.263 -0.2688 -0.6998 -0.2350
 3061SOL    HW220646   2.158   1.080   2.128 -0.6001  2.0229 -0.8105
 3062SOL     OW20647   3.654   3.820  10.242 -0.6026 -0.0523  0.4813
 3062SOL    HW120648   3.608   3.774  10.312 -1.3953  0.3811  0.2457
 3062SOL    HW220649   3.673   3.744  10.188 -1.1977  1.4642 -1.8464
 3063SOL     OW20650   1.682   4.200   3.724  0.0742  0.2432  0.2103
 3063SOL    HW120651   1.680   4.198   3.629  0.3224  2.0661  0.1621
 3063SOL    HW220652   1.629   4.275   3.751  0.4993  0.7251 -0.2972
 3064SOL     OW20653   1.113   2.111   3.489  0.3242 -0.2423  0.1804
 3064SOL    HW120654   1.063   2.096   3.569 -1.3639  1.6108 -0.5247
 3064SOL    HW220655   1.068   2.043   3.439  1.1620 -1.9056  1.6908
 3065SOL     OW20656   1.571   2.499   3.356 -0.3874  0.3840  0.3758
 3065SOL    HW120657   1.495   2.450   3.389 -1.9209 -0.1174 -3.8744
 3065SOL    HW220658   1.554   2.476   3.264 -2.3267  0.1593  0.7780
 3066SOL     OW20659   3.737   0.443   3.580  0.0337 -0.0526 -0.5517
 3066SOL    HW120660   3.724   0.416   3.671  1.4277  2.1980  0.3310
 3066SOL    HW220661   3.659   0.499   3.581 -0.4140 -0.6889  1.2415
 3067SOL     OW20662   3.634   4.686  10.401 -0.4075 -0.7119 -0.0049
 3067SOL    HW120663   3.723   4.650  10.402  0.3082  1.0494 -1.9265
 3067SOL    HW220664   3.646   0.050  10.434  1.2301 -1.4815  1.4884
 3068SOL     OW20665   3.355   0.798   6.671 -0.4322  0.4838  0.0139
 3068SOL    HW120666   3.447   0.816   6.651 -0.4484 -0.3192 -0.7518
 3068SOL    HW220667   3.308   0.808   6.588 -2.5861 -1.2375  1.0156
 3069SOL     OW20668   1.620   4.505   4.940 -0.1223 -0.2447 -0.5140
 3069SOL    HW120669   1.658   4.471   4.859  0.1306  0.6338 -0.7560
 3069SOL    HW220670   1.552   4.563   4.906  0.4300  0.5007 -0.3306
 3070SOL     OW20671   1.686   2.864  13.576  0.2810  0.3224  0.1877
 3070SOL    HW120672   1.728   2.913  13.505  1.3932  1.4764  1.6471
 3070SOL    HW220673   1.735   2.902  13.648 -0.6703  1.1198  0.4203
 3071SOL     OW20674   0.809   1.948   4.316 -0.6027  0.4843 -0.1834
 3071SOL    HW120675   0.796   2.019   4.378 -0.6171  1.1763 -0.9677
 3071SOL    HW220676   0.800   1.877   4.379  1.0326 -0.3723 -0.9304
 3072SOL     OW20677   2.624   2.850   4.609 -0.4293 -0.7566 -0.2192
 3072SOL    HW120678   2.550   2.903   4.637 -0.2607 -1.3496  1.3576
 3072SOL    HW220679   2.671   2.818   4.686 -0.9558  1.1817  0.9121
 3073SOL     OW20680   4.062   4.274   7.567 -0.1709 -0.1097 -0.1107
 3073SOL    HW120681   4.111   4.353   7.547 -0.0207  0.0212  0.7821
 3073SOL    HW220682   3.988   4.306   7.619  1.2265 -1.2921  2.5999
 3074SOL     OW20683   1.502   3.389   8.885 -0.3512  0.4525  0.1443
 3074SOL    HW120684   1.450   3.380   8.804 -0.3485  2.3754 -0.0623
 3074SOL    HW220685   1.526   3.298   8.902 -2.5046  0.2084  1.8645
 3075SOL     OW20686   3.301   1.604   7.498  0.0775 -0.0430 -0.1225
 3075SOL    HW120687   3.290   1.675   7.562  1.4211 -1.3129  1.5123
 3075SOL    HW220688   3.394   1.580   7.504  0.4268  0.8534 -1.9458
 3076SOL     OW20689   0.016   2.044   5.506 -0.2889  0.3846  0.8244
 3076SOL    HW120690   0.095   1.992   5.523 -0.9229 -1.2021 -0.9955
 3076SOL    HW220691   4.686   1.985   5.454  0.5502 -0.3933  0.8113
 3077SOL     OW20692   2.522   4.389   2.900 -0.6614  0.4888  0.1709
 3077SOL    HW120693   2.495   4.310   2.853  3.4857 -0.2389 -1.0170
 3077SOL    HW220694   2.511   4.355   2.989  2.1333 -1.5168 -0.2535
 3078SOL     OW20695   4.486   2.570   6.742 -0.1670 -0.7935 -0.2886
 3078SOL    HW120696   4.391   2.569   6.740 -0.2089 -0.4077  1.1320
 3078SOL    HW220697   4.500   2.639   6.807  0.2417  0.6669 -1.9433
 3079SOL     OW20698   2.966   2.100   5.430  0.0436 -0.4263 -0.1989
 3079SOL    HW120699   2.985   2.022   5.377  0.9767  1.0118 -1.9580
 3079SOL    HW220700   2.875   2.078   5.452 -0.1288 -0.1051 -0.5758
 3080SOL     OW20701   1.930   3.235  16.774  0.0828 -0.1553  0.2266
 3080SOL    HW120702   2.013   3.201  16.807  0.2792 -0.2992 -0.4142
 3080SOL    HW220703   1.923   3.307  16.838 -0.7287 -1.1013  1.1927
 3081SOL     OW20704   0.483   2.179   1.880  0.3811 -0.0579  0.1048
 3081SOL    HW120705   0.573   2.171   1.849  0.2828 -2.0654  0.2925
 3081SOL    HW220706   0.457   2.088   1.865 -1.3858  0.4276  0.2750
 3082SOL     OW20707   1.368   3.472   3.903  0.0994  0.4801 -0.2914
 3082SOL    HW120708   1.404   3.490   3.990 -0.7747  0.8110 -0.0024
 3082SOL    HW220709   1.281   3.504   3.926  0.9512  1.7002  1.2438
 3083SOL     OW20710   0.476   0.398   8.643  0.2773 -0.2289  0.1221
 3083SOL    HW120711   0.461   0.429   8.554 -0.4684 -0.3387  0.2068
 3083SOL    HW220712   0.391   0.406   8.686  0.9765  1.0417  1.2439
 3084SOL     OW20713   4.430   2.802   4.895 -0.8857 -0.1150 -0.7037
 3084SOL    HW120714   4.356   2.757   4.936 -0.8344  0.1619 -0.3062
 3084SOL    HW220715   4.450   2.751   4.816  2.3672  0.8574 -0.4929
 3085SOL     OW20716   1.260   4.434   8.511  0.0065  0.3622 -0.1601
 3085SOL    HW120717   1.263   4.500   8.580  0.6245  0.0093  0.1486
 3085SOL    HW220718   1.187   4.381   8.544 -0.4248  0.7238 -0.5249
 3086SOL     OW20719   3.517   1.123   0.633 -0.2050 -0.3626  0.0690
 3086SOL    HW120720   3.495   1.038   0.670 -3.6098 -0.1269 -1.4743
 3086SOL    HW220721   3.455   1.178   0.680  1.4345  2.1721 -0.7254
 3087SOL     OW20722   3.080   4.448   1.254  0.5321  0.2774 -0.0688
 3087SOL    HW120723   3.150   4.481   1.197 -1.3902  1.0038 -1.9945
 3087SOL    HW220724   3.104   4.355   1.254  0.4254  0.2482 -2.4729
 3088SOL     OW20725   1.442   4.128  10.606 -0.4938  0.1083  0.4316
 3088SOL    HW120726   1.423   4.044  10.565  0.2500 -0.0628  0.4326
 3088SOL    HW220727   1.533   4.109  10.629  0.0630  1.3596 -0.6583
 3089SOL     OW20728   0.935   0.375  12.459  0.2798 -0.1997  0.3117
 3089SOL    HW120729   1.029   0.361  12.467  0.0521 -1.2954  1.2249
 3089SOL    HW220730   0.915   0.464  12.487  1.5414  0.4503 -0.8483
 3090SOL     OW20731   0.088   3.951   6.947 -0.5377 -0.3804  0.0040
 3090SOL    HW120732   0.158   3.953   6.882  0.0574 -2.3974  0.5790
 3090SOL    HW220733   0.059   4.041   6.942  0.7739  0.1361  1.6583
 3091SOL     OW20734   3.885   1.805   2.938 -0.2368 -0.0377  0.4025
 3091SOL    HW120735   3.864   1.852   2.858  2.1151  0.9415  0.3505
 3091SOL    HW220736   3.799   1.769   2.960  0.0103 -1.3839 -0.8466
 3092SOL     OW20737   3.600   3.159   8.566  0.1621  0.0069 -0.1607
 3092SOL    HW120738   3.517   3.143   8.612  1.2043  0.7121  1.9745
 3092SOL    HW220739   3.646   3.183   8.646 -2.4043  0.8163  1.0685
 3093SOL     OW20740   4.658   1.110   4.047  0.0933  0.1460  0.3941
 3093SOL    HW120741   4.721   1.047   4.081  0.0760 -0.7549 -1.2817
 3093SOL    HW220742   4.583   1.100   4.106 -0.6650  2.5625 -0.1315
 3094SOL     OW20743   4.094   1.907   6.430 -0.2553  0.2735  0.2340
 3094SOL    HW120744   4.151   1.856   6.373 -0.7386 -0.7173  0.6444
 3094SOL    HW220745   4.094   1.997   6.396  1.9348  0.1772 -0.0077
 3095SOL     OW20746   0.576   0.480   1.201 -0.3126  0.0181  0.4347
 3095SOL    HW120747   0.520   0.546   1.158  0.4682 -1.1291 -2.3731
 3095SOL    HW220748   0.656   0.526   1.223 -0.0710  0.1954 -0.7846
 3096SOL     OW20749   3.263   1.205   4.954 -0.0731  0.1840 -0.4589
 3096SOL    HW120750   3.200   1.142   4.921 -0.0748  0.6624 -1.3756
 3096SOL    HW220751   3.219   1.287   4.932 -1.7713 -0.5486  0.1856
 3097SOL     OW20752   4.345   4.346   6.704 -0.1371 -0.4618  0.4881
 3097SOL    HW120753   4.254   4.318   6.710  0.1087 -1.1258  1.1129
 3097SOL    HW220754   4.394   4.282   6.755 -1.3446 -1.8546 -0.0982
 3098SOL     OW20755   0.111   2.218  17.116  0.1901  0.3343 -0.2635
 3098SOL    HW120756   0.046   2.284  17.138  0.0930 -1.0038  3.5784
 3098SOL    HW220757   0.103   2.235  17.022 -1.7265  1.8115  0.1641
 3099SOL     OW20758   1.656   3.610   8.171 -0.1623  0.4705  0.2323
 3099SOL    HW120759   1.650   3.693   8.123 -0.5345 -0.5164 -1.3888
 3099SOL    HW220760   1.581   3.619   8.230 -1.4075  0.0166 -1.3041
 3100SOL     OW20761   0.557   2.199   5.304 -0.3401  0.7523  0.1918
 3100SOL    HW120762   0.635   2.215   5.250 -2.4468  1.5382 -2.5761
 3100SOL    HW220763   0.477   2.204   5.253  1.1223 -1.5619 -2.3868
 3101SOL     OW20764   0.348   2.824   2.368 -0.2158 -0.2169 -0.5502
 3101SOL    HW120765   0.380   2.851   2.455 -0.0098  1.3648 -1.1212
 3101SOL    HW220766   0.287   2.758   2.400  0.9526 -0.5273  1.0616
 3102SOL     OW20767   2.483   0.104   5.635  0.2164 -0.0019  0.2748
 3102SOL    HW120768   2.545   0.175   5.618  2.3831 -1.6797  1.2259
 3102SOL    HW220769   2.513   0.042   5.569 -0.3267 -1.9603  1.8422
 3103SOL     OW20770   3.342   2.887   2.782 -0.1901  0.5482  0.6127
 3103SOL    HW120771   3.324   2.949   2.852 -2.3748 -0.4509  0.9350
 3103SOL    HW220772   3.292   2.809   2.808 -1.6373  0.0611 -3.5183
 3104SOL     OW20773   4.385   1.660   8.407 -0.4114  0.0542 -0.2344
 3104SOL    HW120774   4.447   1.635   8.475 -1.3314 -3.1945 -0.5500
 3104SOL    HW220775   4.329   1.722   8.454  1.2652  2.9299 -2.0356
 3105SOL     OW20776   1.782   1.159   1.615 -0.0793 -0.1840 -0.1229
 3105SOL    HW120777   1.722   1.105   1.564  0.3025 -1.6911  1.0133
 3105SOL    HW220778   1.856   1.180   1.559  0.2856 -0.6043  0.2036
 3106SOL     OW20779   1.132   0.347   1.572 -0.3320 -0.1662  0.0773
 3106SOL    HW120780   1.040   0.329   1.551 -0.1823 -0.6285 -0.1817
 3106SOL    HW220781   1.143   0.423   1.515  0.6105 -1.4948 -1.5050
 3107SOL     OW20782   3.987   0.553   0.380  0.1318 -0.5911 -0.6152
 3107SOL    HW120783   3.949   0.610   0.313 -2.4547 -3.6248 -1.7470
 3107SOL    HW220784   4.074   0.534   0.344 -0.4263  1.1747 -2.9248
 3108SOL     OW20785   3.314   4.602   8.375 -0.5043 -0.4611 -0.1685
 3108SOL    HW120786   3.243   4.559   8.329  0.4436  0.2233 -2.2559
 3108SOL    HW220787   3.325   4.676   8.316  3.0040 -0.4413  0.5345
 3109SOL     OW20788   2.957   1.641  12.727 -0.1340 -0.1917 -0.6537
 3109SOL    HW120789   2.883   1.626  12.669 -1.4918 -1.0918  1.2927
 3109SOL    HW220790   2.992   1.553  12.717 -0.9919 -0.4734 -1.1709
 3110SOL     OW20791   3.699   2.423   4.250  0.1136  0.0860  0.0254
 3110SOL    HW120792   3.747   2.463   4.322 -2.2905  2.3025  0.4154
 3110SOL    HW220793   3.778   2.389   4.208 -0.1139  0.9667 -1.1043
 3111SOL     OW20794   4.502   0.878  17.093 -0.6443  0.4019  0.3711
 3111SOL    HW120795   4.483   0.955  17.146  0.3462 -0.1257  1.4756
 3111SOL    HW220796   4.595   0.882  17.072 -0.7235  0.1681 -0.0262
 3112SOL     OW20797   0.511   1.198   6.426 -0.2974  0.3613  0.0645
 3112SOL    HW120798   0.540   1.137   6.358 -1.9614 -1.6170  1.1602
 3112SOL    HW220799   0.531   1.283   6.387  1.6539 -0.9082 -1.7294
 3113SOL     OW20800   3.082   3.031  13.227  0.2143 -0.2411  0.5910
 3113SOL    HW120801   3.171   3.053  13.199  0.2747 -0.9314  0.2406
 3113SOL    HW220802   3.080   3.088  13.304 -0.0456 -0.7214  0.9501
 3114SOL     OW20803   1.645   4.107   2.364  0.2171 -0.0816 -0.0711
 3114SOL    HW120804   1.714   4.134   2.304 -0.8642 -0.8157 -1.6546
 3114SOL    HW220805   1.639   4.187   2.416  1.0286 -0.3235  0.3880
 3115SOL     OW20806   2.734   0.386   3.036  0.1169  0.4183 -0.5516
 3115SOL    HW120807   2.647   0.353   3.058 -0.9322  2.4559 -1.7102
 3115SOL    HW220808   2.758   0.314   2.977 -0.0099 -1.0226  1.1310
 3116SOL     OW20809   3.616   3.946   0.256 -0.2400 -0.1907  0.5745
 3116SOL    HW120810   3.693   3.991   0.290  1.4984 -2.2516 -0.7110
 3116SOL    HW220811   3.660   3.863   0.239 -1.7297 -1.1646  1.4368
 3117SOL     OW20812   4.209   3.004  16.823  0.7875  0.4040  0.1389
 3117SOL    HW120813   4.293   3.049  16.820  0.3439  1.2086 -0.2240
 3117SOL    HW220814   4.158   3.073  16.780 -1.2303 -0.9481  0.3342
 3118SOL     OW20815   0.312   3.679   0.203  0.0077  0.0741 -0.1922
 3118SOL    HW120816   0.363   3.619   0.257 -1.2656  0.6583  1.6327
 3118SOL    HW220817   0.263   3.613   0.154 -0.9832  0.7226 -0.0600
 3119SOL     OW20818   3.745   1.163   9.578 -0.3754 -0.2033 -0.2341
 3119SOL    HW120819   3.818   1.148   9.638  0.8650 -1.9088 -2.1544
 3119SOL    HW220820   3.735   1.255   9.602 -0.4045 -0.1192 -0.5708
 3120SOL     OW20821   1.727   1.139   4.657 -0.1013 -0.3808 -0.4841
 3120SOL    HW120822   1.642   1.153   4.700  0.9528  1.4677  0.9895
 3120SOL    HW220823   1.786   1.118   4.730  0.5184  0.0613 -0.8658
 3121SOL     OW20824   3.466   3.337  15.090 -0.6450 -0.0254  0.1219
 3121SOL    HW120825   3.508   3.418  15.062  2.2815 -1.7800 -0.6147
 3121SOL    HW220826   3.376   3.361  15.071 -0.6183 -1.4297 -1.7671
 3122SOL     OW20827   4.132   1.194   4.205  0.0187 -0.3720  0.1295
 3122SOL    HW120828   4.120   1.151   4.289 -2.8434 -0.0899 -0.1563
 3122SOL    HW220829   4.159   1.278   4.242 -1.0865  0.9116 -1.9560
 3123SOL     OW20830   3.900   0.638  11.368  0.2404  0.4367 -0.0093
 3123SOL    HW120831   3.986   0.651  11.327 -0.4928  0.2199 -1.6144
 3123SOL    HW220832   3.859   0.725  11.368 -0.9599 -0.1253  0.7805
 3124SOL     OW20833   1.015   0.667   5.721  0.2814  0.2808 -0.2465
 3124SOL    HW120834   0.926   0.633   5.723 -0.6634  2.7103 -0.7647
 3124SOL    HW220835   1.013   0.725   5.796 -1.0603 -0.0203 -0.0432
 3125SOL     OW20836   4.576   3.769  15.199  0.3632  0.0487  0.5315
 3125SOL    HW120837   4.640   3.705  15.170  1.1429 -0.0294  2.4645
 3125SOL    HW220838   4.615   3.805  15.279  0.0016  0.4289  0.5365
 3126SOL     OW20839   0.524   2.060   2.784  0.4160  0.5143 -0.2330
 3126SOL    HW120840   0.601   2.106   2.752 -0.2527  0.7996 -1.4167
 3126SOL    HW220841   0.521   1.995   2.714 -0.1400  1.5669 -1.1875
 3127SOL     OW20842   4.404   1.569  13.472  0.1951 -0.4386 -0.3142
 3127SOL    HW120843   4.403   1.482  13.432 -0.0178 -0.7915  0.4606
 3127SOL    HW220844   4.411   1.546  13.565 -0.6556  4.2860  0.9494
 3128SOL     OW20845   1.951   0.527   6.821 -0.7269  0.0161 -0.0732
 3128SOL    HW120846   1.914   0.614   6.835  0.2325  0.9205 -3.2081
 3128SOL    HW220847   2.035   0.547   6.778  0.2713 -0.0330  1.8632
 3129SOL     OW20848   0.641   0.122   7.274 -0.0403  0.0928  0.4792
 3129SOL    HW120849   0.655   0.183   7.202 -2.0474  2.4569  2.0783
 3129SOL    HW220850   0.571   0.062   7.249  0.4914 -0.2407 -0.2089
 3130SOL     OW20851   4.451   1.482   5.145 -0.2076 -0.8313 -0.0676
 3130SOL    HW120852   4.462   1.502   5.238  1.3570 -2.7666  0.1550
 3130SOL    HW220853   4.543   1.469   5.124 -0.2583  1.4993 -1.7181
 3131SOL     OW20854   3.978   3.320   1.557  0.3340 -0.2358 -0.0695
 3131SOL    HW120855   4.051   3.298   1.500  1.9883  0.9005  1.5998
 3131SOL    HW220856   4.029   3.325   1.638  1.6801  1.6620 -1.0188
 3132SOL     OW20857   3.828   0.200   4.504 -0.4404 -0.3138  0.0264
 3132SOL    HW120858   3.750   0.245   4.535  0.7841  0.5808  1.7842
 3132SOL    HW220859   3.898   0.260   4.531 -0.7606 -0.8237  1.9832
 3133SOL     OW20860   1.064   4.246   5.023  0.1961  0.5645 -0.5097
 3133SOL    HW120861   1.042   4.153   5.028  1.4803  0.2270 -1.1858
 3133SOL    HW220862   1.159   4.238   5.012  0.1573  0.9756 -1.1568
 3134SOL     OW20863   0.310   1.981   9.713 -0.0968  0.1864 -0.5639
 3134SOL    HW120864   0.217   1.967   9.733  0.4072 -1.4835  0.6139
 3134SOL    HW220865   0.318   1.935   9.630 -0.6004  2.5478 -1.8862
 3135SOL     OW20866   1.971   0.351  17.558 -0.4292  0.4354 -0.2247
 3135SOL    HW120867   1.989   0.292  17.485  0.6607 -0.3718  0.7032
 3135SOL    HW220868   1.878   0.374  17.547  0.2234  1.9623 -2.4234
 3136SOL     OW20869   3.725   4.275   9.352  0.0400 -0.0285 -0.1650
 3136SOL    HW120870   3.756   4.184   9.349  1.1141  0.3572 -0.8629
 3136SOL    HW220871   3.640   4.263   9.308  1.1745 -0.5676 -2.2288
 3137SOL     OW20872   1.590   2.134   5.024  0.8561  0.0763  0.0874
 3137SOL    HW120873   1.546   2.201   4.972 -0.3449 -1.3684 -0.7554
 3137SOL    HW220874   1.675   2.178   5.033  1.2644 -0.5818 -0.5751
 3138SOL     OW20875   1.058   3.731   7.903  0.3729  0.3558  0.0468
 3138SOL    HW120876   0.981   3.675   7.916 -0.2507  1.1105 -0.3225
 3138SOL    HW220877   1.070   3.762   7.993 -0.7848  0.1910  0.2582
 3139SOL     OW20878   2.706   1.133  16.206 -0.0437 -0.4524  0.2368
 3139SOL    HW120879   2.665   1.102  16.126  1.7844  0.3269 -0.9930
 3139SOL    HW220880   2.675   1.222  16.189  1.4567  0.0954  0.3602
 3140SOL     OW20881   2.189   1.188   2.791 -0.0648 -1.0047  0.3007
 3140SOL    HW120882   2.131   1.259   2.818  4.1216  2.8348 -0.8004
 3140SOL    HW220883   2.151   1.165   2.706 -0.0489  0.4219 -0.0900
 3141SOL     OW20884   3.086   0.566  10.294  0.7584 -0.1128  0.6444
 3141SOL    HW120885   3.107   0.476  10.318  0.5503 -0.4075 -0.2485
 3141SOL    HW220886   3.152   0.573  10.224  0.6088 -2.4546  0.2669
 3142SOL     OW20887   0.132   1.929   0.212 -0.4099  0.2058 -0.5008
 3142SOL    HW120888   0.075   2.005   0.202  0.0838  0.2165 -3.1707
 3142SOL    HW220889   0.174   1.946   0.296 -1.4085 -2.2088  0.5001
 3143SOL     OW20890   3.270   4.324   5.468  0.1398 -0.2056  0.0478
 3143SOL    HW120891   3.185   4.362   5.492 -0.9662 -1.0124 -2.6103
 3143SOL    HW220892   3.238   4.288   5.385  0.8445 -1.4539  0.3076
 3144SOL     OW20893   2.665   0.488  14.932 -0.9913  0.3222 -0.2591
 3144SOL    HW120894   2.577   0.459  14.958 -0.8411  0.4522  0.4049
 3144SOL    HW220895   2.715   0.421  14.979 -0.5598 -0.2566 -1.5566
 3145SOL     OW20896   2.180   3.715   8.363  0.2514 -0.3793  0.2021
 3145SOL    HW120897   2.099   3.720   8.413  0.3652  1.9672  0.1440
 3145SOL    HW220898   2.215   3.795   8.402  1.9311 -0.9886 -0.0118
 3146SOL     OW20899   3.078   4.024   5.015 -0.1232  0.1254 -0.2247
 3146SOL    HW120900   3.047   4.047   4.927 -2.0959  2.1971  1.0222
 3146SOL    HW220901   3.161   4.071   5.014  0.2158 -0.4557  0.7129
 3147SOL     OW20902   3.829   1.774   5.998 -0.2693  0.3551  0.0629
 3147SOL    HW120903   3.794   1.699   6.047 -2.2672  2.0821  1.2509
 3147SOL    HW220904   3.774   1.775   5.920  2.1609  2.9402 -1.5823
 3148SOL     OW20905   1.908   1.741   3.983  0.2542 -0.3418 -0.3855
 3148SOL    HW120906   1.950   1.720   4.067 -3.0178  1.0511  1.5651
 3148SOL    HW220907   1.867   1.818   4.023 -1.3709 -2.0287  1.1331
 3149SOL     OW20908   0.884   0.718   3.590  0.1184 -0.1798  0.1729
 3149SOL    HW120909   0.929   0.658   3.531  1.0660 -0.2488  0.9734
 3149SOL    HW220910   0.821   0.661   3.634 -0.5413  1.5509  1.4968
 3150SOL     OW20911   3.478   4.314   5.661  0.2314 -0.0246 -0.2802
 3150SOL    HW120912   3.393   4.329   5.618 -1.7361  0.8849  3.9334
 3150SOL    HW220913   3.485   4.219   5.676 -1.7309 -0.1736 -0.3273
 3151SOL     OW20914   0.031   4.434   5.965  0.2404  0.1631 -0.3399
 3151SOL    HW120915   0.056   4.521   5.933  0.6408  0.9070  1.9743
 3151SOL    HW220916   4.667   4.432   5.928  0.5768 -0.6213 -1.1006
 3152SOL     OW20917   2.617   3.672   6.123  0.1946  0.1900  0.0319
 3152SOL    HW120918   2.617   3.605   6.191 -0.3900  0.3238  0.1642
 3152SOL    HW220919   2.631   3.759   6.162  0.6387 -0.4963  1.3925
 3153SOL     OW20920   4.470   1.538   4.278  0.8754  0.0463 -0.3272
 3153SOL    HW120921   4.520   1.533   4.197  1.7084 -1.1580  0.2596
 3153SOL    HW220922   4.530   1.498   4.340  0.8233  0.2807 -0.1269
 3154SOL     OW20923   4.144   3.226  15.372  0.4016 -0.9021 -0.2642
 3154SOL    HW120924   4.098   3.226  15.289 -0.4905  0.7974  0.2449
 3154SOL    HW220925   4.182   3.314  15.376  1.1700 -1.1821 -1.5489
 3155SOL     OW20926   0.253   4.436   8.630  0.2934  0.3123 -0.2206
 3155SOL    HW120927   0.233   4.367   8.693  2.3113  0.2973  0.3945
 3155SOL    HW220928   0.345   4.444   8.652  0.1797  2.1687 -0.3884
 3156SOL     OW20929   0.849   1.135   3.446  0.1090  0.2688  0.0509
 3156SOL    HW120930   0.925   1.084   3.417 -0.1782  0.2636 -0.6779
 3156SOL    HW220931   0.836   1.102   3.536  0.0566 -0.3347 -0.1750
 3157SOL     OW20932   4.564   0.875  12.305 -0.3636  0.9859  0.1023
 3157SOL    HW120933   4.600   0.954  12.345 -2.0691  0.2066  3.1629
 3157SOL    HW220934   4.628   0.853  12.237  0.8425  1.5013  1.0690
 3158SOL     OW20935   4.658   0.164  15.022 -0.0490  0.0050 -0.0216
 3158SOL    HW120936   4.565   0.182  15.040 -0.1264  0.4439 -0.8329
 3158SOL    HW220937   4.654   0.119  14.938 -1.3012  0.9088 -0.4499
 3159SOL     OW20938   2.244   4.255  13.001  0.4813 -0.6597 -0.0528
 3159SOL    HW120939   2.178   4.190  12.977  1.5413 -1.6375 -0.3177
 3159SOL    HW220940   2.258   4.300  12.918  1.1167 -0.0350  0.3990
 3160SOL     OW20941   4.649   1.154  16.191 -0.0656  0.3469 -0.6765
 3160SOL    HW120942   4.611   1.067  16.199  3.0473 -1.0895 -1.5148
 3160SOL    HW220943   4.657   1.178  16.283  0.0833  3.5098 -1.4957
 3161SOL     OW20944   4.669   4.238   6.453  0.1058  0.5450  1.0227
 3161SOL    HW120945   4.638   4.267   6.367  2.9895  2.1174  0.5027
 3161SOL    HW220946   0.030   4.205   6.429 -0.0974 -0.1614  1.2616
 3162SOL     OW20947   2.147   0.408   0.825  0.3209  0.1490  0.1733
 3162SOL    HW120948   2.081   0.470   0.794  0.8515  0.8820  0.5372
 3162SOL    HW220949   2.097   0.377   0.900  0.9121  0.0575  0.5282
 3163SOL     OW20950   4.282   2.346   6.389 -0.7604  0.5185 -0.1405
 3163SOL    HW120951   4.309   2.415   6.329  0.6751 -0.4063 -0.5675
 3163SOL    HW220952   4.239   2.393   6.461  0.0826  0.2171  0.5604
 3164SOL     OW20953   3.178   3.564   5.429 -0.1816 -0.9571  0.1441
 3164SOL    HW120954   3.192   3.656   5.450 -0.0946 -0.6906 -1.1286
 3164SOL    HW220955   3.088   3.556   5.462 -0.0909 -1.9644  0.1415
 3165SOL     OW20956   1.248   1.386   4.887  0.0203 -0.9464 -0.0635
 3165SOL    HW120957   1.309   1.332   4.837  0.8123 -1.1169  1.0884
 3165SOL    HW220958   1.191   1.318   4.922 -1.8701  0.2307 -0.8110
 3166SOL     OW20959   2.006   0.270   7.970 -0.2135  1.0289 -0.1926
 3166SOL    HW120960   2.085   0.231   8.009 -0.6971  0.7066  0.4671
 3166SOL    HW220961   2.008   0.354   8.014  1.9383  1.6875 -1.5139
 3167SOL     OW20962   3.661   2.025   9.697 -0.0072  0.1533 -0.3085
 3167SOL    HW120963   3.657   1.937   9.658  1.3407  0.0408 -0.2089
 3167SOL    HW220964   3.660   2.010   9.792 -1.2049  0.4302 -0.2787
 3168SOL     OW20965   3.835   4.296  12.780  0.1770 -0.1047  0.4779
 3168SOL    HW120966   3.798   4.220  12.734  2.5577 -0.8981 -0.1210
 3168SOL    HW220967   3.769   4.366  12.781  1.3542  0.9449  2.6107
 3169SOL     OW20968   2.295   2.974   7.807  0.2420 -0.9461  0.2596
 3169SOL    HW120969   2.264   2.960   7.717 -1.5730 -1.6691  0.9832
 3169SOL    HW220970   2.269   3.066   7.820  1.7179 -0.6454  1.0007
 3170SOL     OW20971   3.715   4.671   7.456  0.0367 -0.1155 -0.7296
 3170SOL    HW120972   3.698   4.616   7.380  0.6301 -1.3758  0.0530
 3170SOL    HW220973   3.765   4.615   7.515 -1.0680  0.3633  0.6684
 3171SOL     OW20974   0.281   4.409   3.901 -0.2801 -0.0852  0.4638
 3171SOL    HW120975   0.315   4.371   3.982  0.7042  3.3182  1.6752
 3171SOL    HW220976   0.223   4.471   3.945 -2.8821 -1.7704 -0.6242
 3172SOL     OW20977   3.419   4.206   0.191  0.3046 -0.2312  0.0624
 3172SOL    HW120978   3.487   4.140   0.204 -0.2953 -0.4069  2.2459
 3172SOL    HW220979   3.363   4.200   0.268 -2.4042  0.4267 -1.8552
 3173SOL     OW20980   1.924   2.799  14.508  0.7166 -0.7566  0.0986
 3173SOL    HW120981   2.007   2.838  14.482  0.4280 -1.1753 -1.4533
 3173SOL    HW220982   1.927   2.833  14.597 -1.5776  0.8698 -0.4734
 3174SOL     OW20983   0.839   3.208   6.960  0.1127  0.0745  0.2384
 3174SOL    HW120984   0.768   3.255   7.004 -1.0826 -1.9985  0.5425
 3174SOL    HW220985   0.861   3.139   7.022 -1.1503 -0.6281 -0.0844
 3175SOL     OW20986   0.428   4.693  17.298  0.0235  0.0846  0.2263
 3175SOL    HW120987   0.428   4.639  17.219  0.7806 -0.8776  0.8799
 3175SOL    HW220988   0.469   0.043  17.256  2.2445 -0.3893  1.5850
 3176SOL     OW20989   3.340   3.341  12.354 -0.5401  0.0524 -0.0006
 3176SOL    HW120990   3.429   3.340  12.319 -0.1365  0.5381  1.0053
 3176SOL    HW220991   3.321   3.248  12.362 -0.6459  0.3463  3.0182
 3177SOL     OW20992   0.431   1.274   3.504 -0.1367  0.0580  0.4474
 3177SOL    HW120993   0.455   1.349   3.559 -0.2301  1.2439 -1.0987
 3177SOL    HW220994   0.506   1.258   3.447 -1.1546  1.4068 -1.2807
 3178SOL     OW20995   1.875   0.584  15.091 -0.3228 -0.5654 -0.1914
 3178SOL    HW120996   1.937   0.524  15.048  0.9010 -0.7396  1.8056
 3178SOL    HW220997   1.822   0.618  15.019  0.3458 -0.3452 -0.5747
 3179SOL     OW20998   1.499   1.676  16.105 -0.6912 -0.1633 -0.3865
 3179SOL    HW120999   1.514   1.768  16.126  0.5309 -0.4601  0.0134
 3179SOL    HW221000   1.415   1.686  16.059 -0.6087 -0.1455 -0.5306
 3180SOL     OW21001   2.163   0.591   4.238  0.2770 -0.0921  0.0284
 3180SOL    HW121002   2.068   0.577   4.244  0.0744  0.6457 -1.3882
 3180SOL    HW221003   2.169   0.686   4.235  1.9152 -0.2042 -0.3778
 3181SOL     OW21004   1.968   4.628  17.537  0.1329  0.9200  0.1358
 3181SOL    HW121005   2.022   4.689  17.587 -0.4805  1.0889  0.5862
 3181SOL    HW221006   2.023   4.604  17.462  1.7750  3.2376  0.5804
 3182SOL     OW21007   0.935   2.380   8.635  0.2651 -0.1456  0.1681
 3182SOL    HW121008   0.933   2.378   8.539  3.5353  0.0111  0.0844
 3182SOL    HW221009   0.841   2.373   8.649  0.3583  0.6968  1.1978
 3183SOL     OW21010   1.912   4.075   0.310 -0.3417  0.0506  0.4827
 3183SOL    HW121011   1.984   4.028   0.270  0.8575  0.6776  1.9247
 3183SOL    HW221012   1.839   4.042   0.258 -0.9428  0.3566  1.1263
 3184SOL     OW21013   2.957   3.554   8.416  0.3379 -0.1381 -0.5077
 3184SOL    HW121014   2.922   3.617   8.352 -1.5298  0.6535  1.2727
 3184SOL    HW221015   2.924   3.471   8.382  1.7707 -0.4981 -1.0006
 3185SOL     OW21016   1.689   2.479   7.535  0.0341 -0.1041 -0.0845
 3185SOL    HW121017   1.746   2.455   7.608  0.1416  1.2285  0.2734
 3185SOL    HW221018   1.739   2.444   7.460  0.6414  1.0134 -0.2048
 3186SOL     OW21019   4.410   1.852   5.430  0.7230 -0.5290 -0.0235
 3186SOL    HW121020   4.391   1.845   5.336  0.3629 -0.1254  0.0169
 3186SOL    HW221021   4.327   1.824   5.468  0.6435  1.0967  0.9928
 3187SOL     OW21022   4.089   4.037   3.780  0.0234  0.1169 -0.2611
 3187SOL    HW121023   4.124   4.035   3.691 -0.5261 -1.4538 -0.4535
 3187SOL    HW221024   4.136   4.111   3.818  0.1227 -0.2540  0.3335
 3188SOL     OW21025   2.055   1.373   4.321  0.1120  0.3173 -0.0688
 3188SOL    HW121026   2.082   1.296   4.372  0.3656  1.2987  1.2936
 3188SOL    HW221027   2.133   1.429   4.329  0.3349 -0.0336  0.2287
 3189SOL     OW21028   2.347   4.238   6.398  0.7270 -0.2647 -0.3783
 3189SOL    HW121029   2.381   4.165   6.346 -2.7252 -1.9420 -0.2934
 3189SOL    HW221030   2.262   4.250   6.357 -0.1757 -0.5552  1.3827
 3190SOL     OW21031   0.267   0.994  13.808  0.3743  0.0281  0.3265
 3190SOL    HW121032   0.259   1.015  13.901  0.6401  0.9643  0.1354
 3190SOL    HW221033   0.355   0.957  13.802 -0.1238 -0.7674 -1.7662
 3191SOL     OW21034   3.027   1.273  12.981 -0.5178 -0.6908  0.1634
 3191SOL    HW121035   2.996   1.360  12.958  0.3239  0.1397  2.2535
 3191SOL    HW221036   3.054   1.290  13.071 -1.4133  2.2874 -0.1318
 3192SOL     OW21037   2.585   3.832  10.712 -0.5030  0.2730 -0.2659
 3192SOL    HW121038   2.554   3.923  10.707  0.4898  0.7550  2.1801
 3192SOL    HW221039   2.611   3.839  10.804 -1.9406  1.7545  0.0339
 3193SOL     OW21040   1.104   2.099   7.782  0.5883  0.0981  0.2397
 3193SOL    HW121041   1.192   2.136   7.785  0.6170 -0.0747  1.3643
 3193SOL    HW221042   1.057   2.134   7.857  0.4647 -1.6208  0.9654
 3194SOL     OW21043   4.540   2.139   4.150 -0.0768  0.2164  0.1382
 3194SOL    HW121044   4.546   2.054   4.194  0.4905  0.2220  0.0768
 3194SOL    HW221045   4.576   2.199   4.215 -0.5682 -0.0822  0.6877
 3195SOL     OW21046   0.319   2.860   8.420  0.0170 -0.2496  0.0994
 3195SOL    HW121047   0.336   2.870   8.514 -0.3038 -0.1572  0.1478
 3195SOL    HW221048   0.369   2.781   8.401  0.0924 -0.2458  0.2862
 3196SOL     OW21049   2.583   2.895   7.866  0.0853 -0.8741  0.5525
 3196SOL    HW121050   2.626   2.914   7.783  0.7709  0.6094  1.2589
 3196SOL    HW221051   2.502   2.946   7.853 -0.8965 -2.4635  0.4424
 3197SOL     OW21052   1.844   2.669  11.513 -0.6667 -0.0659  0.4720
 3197SOL    HW121053   1.767   2.717  11.541  0.4440  3.0427 -1.8085
 3197SOL    HW221054   1.800   2.586  11.496  0.9189 -0.9074  0.4407
 3198SOL     OW21055   4.280   3.147  14.649 -0.0221 -0.3819  0.5793
 3198SOL    HW121056   4.371   3.121  14.632 -0.8725 -3.6382  1.0518
 3198SOL    HW221057   4.251   3.175  14.562  0.8533  0.4185  0.5406
 3199SOL     OW21058   3.440   2.976   6.187  0.0734  0.4156  0.4420
 3199SOL    HW121059   3.393   3.047   6.231  2.1550  1.4269  1.0304
 3199SOL    HW221060   3.464   2.914   6.256  1.5273  1.6107  1.0030
 3200SOL     OW21061   2.622   3.231  14.287 -0.4422  0.0085 -0.2559
 3200SOL    HW121062   2.576   3.312  14.267  1.1370  0.9809  0.1354
 3200SOL    HW221063   2.588   3.222  14.376  1.5254 -1.6185  0.3352
 3201SOL     OW21064   2.467   4.215   5.001  0.4403 -0.5828  0.0686
 3201SOL    HW121065   2.390   4.167   5.030  0.5125 -1.1690 -0.7019
 3201SOL    HW221066   2.432   4.302   5.019  2.0338  0.3605 -1.3287
 3202SOL     OW21067   1.132   4.170  17.056  0.2623 -0.7830  0.3328
 3202SOL    HW121068   1.206   4.153  16.997  1.0630 -0.5349  1.2593
 3202SOL    HW221069   1.093   4.082  17.057 -1.0680 -0.2177 -1.6403
 3203SOL     OW21070   3.404   4.484   3.046 -0.5046 -0.0213  0.3226
 3203SOL    HW121071   3.374   4.440   3.126 -0.9117 -1.3219 -0.5536
 3203SOL    HW221072   3.446   4.557   3.092 -2.6406  1.2559  0.2459
 3204SOL     OW21073   0.852   0.300   4.093  0.1567 -0.0290 -0.1791
 3204SOL    HW121074   0.936   0.300   4.046  0.7727 -1.5582  0.9323
 3204SOL    HW221075   0.868   0.319   4.185 -0.8857  0.3538 -0.0783
 3205SOL     OW21076   3.014   0.210   5.886 -0.0437  0.6155 -0.5454
 3205SOL    HW121077   3.094   0.158   5.879 -0.5374 -0.3620  1.0237
 3205SOL    HW221078   3.032   0.251   5.970 -1.5480  0.1177  0.0309
 3206SOL     OW21079   4.487   4.265  16.757  0.5542 -0.0688 -0.3943
 3206SOL    HW121080   4.548   4.238  16.688  2.0572  2.2614  0.0280
 3206SOL    HW221081   4.492   4.358  16.736 -0.8340  0.1356  0.2332
 3207SOL     OW21082   0.807   0.841   3.278 -0.3580 -0.0945  0.3467
 3207SOL    HW121083   0.860   0.920   3.282 -0.6738  0.1382  0.0098
 3207SOL    HW221084   0.727   0.889   3.257  0.2461  1.0187  0.5998
 3208SOL     OW21085   0.791   1.536   8.873 -0.4687  0.2583  0.3124
 3208SOL    HW121086   0.789   1.631   8.863  0.4714  0.0992 -1.4127
 3208SOL    HW221087   0.862   1.515   8.934  0.0821 -1.2406 -0.8372
 3209SOL     OW21088   4.508   4.133   1.352 -0.3846 -0.4733  0.6153
 3209SOL    HW121089   4.439   4.194   1.380 -0.5006 -0.3025 -0.0541
 3209SOL    HW221090   4.500   4.072   1.426 -0.5059 -0.4420  0.6286
 3210SOL     OW21091   3.056   0.940   1.068 -0.2065  0.1284  0.7431
 3210SOL    HW121092   2.966   0.940   1.100  0.1687  0.0079  1.7725
 3210SOL    HW221093   3.091   0.879   1.131  1.0886 -0.1982 -0.3011
 3211SOL     OW21094   0.356   0.580   1.004  0.8047 -0.1333 -0.1601
 3211SOL    HW121095   0.356   0.488   0.975 -0.3410 -0.0158 -0.5312
 3211SOL    HW221096   0.268   0.599   1.036  1.7724 -1.3337  3.2375
 3212SOL     OW21097   0.709   2.740   7.417 -0.0810 -0.2835 -0.5024
 3212SOL    HW121098   0.714   2.775   7.329  0.9185  1.1192  0.1166
 3212SOL    HW221099   0.661   2.659   7.399 -0.3672 -0.3980  0.7361
 3213SOL     OW21100   2.103   1.276   5.018  0.0156  0.3822  0.1136
 3213SOL    HW121101   2.103   1.330   5.097 -0.2064 -1.2298  1.2416
 3213SOL    HW221102   2.197   1.270   5.001 -0.1645 -0.9326 -0.4272
 3214SOL     OW21103   0.911   4.617   2.961  0.0838 -0.2894 -0.2964
 3214SOL    HW121104   0.939   4.580   3.044 -1.5285 -0.8424  0.0070
 3214SOL    HW221105   0.846   4.678   2.996 -0.1793  0.0591 -1.3908
 3215SOL     OW21106   4.671   2.452   4.806 -0.0359  0.3681  0.7307
 3215SOL    HW121107   0.010   2.381   4.819 -0.7079 -0.2465  0.6686
 3215SOL    HW221108   4.613   2.441   4.881 -1.0680  0.7214 -0.0144
 3216SOL     OW21109   1.592   2.594  12.365 -0.6171 -0.6376  0.4279
 3216SOL    HW121110   1.574   2.674  12.316 -0.7711 -0.9742 -0.0684
 3216SOL    HW221111   1.555   2.617  12.450  2.1184  0.3675  1.3652
 3217SOL     OW21112   0.799   0.450   9.061  0.2892 -0.4307  0.4740
 3217SOL    HW121113   0.804   0.522   8.999  1.3265 -1.7462 -0.9517
 3217SOL    HW221114   0.836   0.486   9.142  1.4015  1.5994 -0.9388
 3218SOL     OW21115   4.537   0.655  11.995  0.3929 -0.2602  0.5476
 3218SOL    HW121116   4.615   0.702  12.025 -1.1567  0.9285  2.7592
 3218SOL    HW221117   4.562   0.608  11.916 -0.8015  3.0665 -1.8160
 3219SOL     OW21118   3.722   1.544  14.474  0.2711 -0.0269 -0.2822
 3219SOL    HW121119   3.762   1.495  14.546  1.2124 -0.8668 -1.3841
 3219SOL    HW221120   3.663   1.480  14.434  0.9410 -1.0120  0.2970
 3220SOL     OW21121   0.653   3.040   8.331  0.0751  0.3679  0.1275
 3220SOL    HW121122   0.667   2.950   8.303 -1.5756  0.8781 -2.3204
 3220SOL    HW221123   0.557   3.042   8.326  0.0865 -0.5614 -0.3903
 3221SOL     OW21124   1.520   3.185   8.635  0.0520 -0.3555  0.1521
 3221SOL    HW121125   1.533   3.271   8.595 -0.2508  0.2388  1.3536
 3221SOL    HW221126   1.610   3.151   8.643 -0.3462 -1.0505  1.6888
 3222SOL     OW21127   2.355   3.647   3.639  0.9988  0.9609 -0.1454
 3222SOL    HW121128   2.406   3.662   3.559 -1.0026  0.8983 -1.4308
 3222SOL    HW221129   2.282   3.586   3.632  2.1819 -0.4606 -0.1505
 3223SOL     OW21130   2.039   4.109  10.095  0.3510  0.4757 -0.0206
 3223SOL    HW121131   2.093   4.151  10.162 -0.0874 -0.9549  1.2213
 3223SOL    HW221132   2.091   4.035  10.066  2.0849  2.0028 -0.7996
 3224SOL     OW21133   2.846   1.765   6.965 -0.0947  0.0829  0.2695
 3224SOL    HW121134   2.787   1.689   6.973 -1.1390  0.7363 -1.0686
 3224SOL    HW221135   2.894   1.753   7.047 -3.3233 -1.7709  1.8841
 3225SOL     OW21136   1.051   1.800   8.886 -0.0504  0.0807 -0.2442
 3225SOL    HW121137   1.053   1.865   8.815  1.7840 -1.2715 -1.4281
 3225SOL    HW221138   1.134   1.814   8.933  0.0394 -2.5318  0.3290
 3226SOL     OW21139   0.448   3.374   7.951  0.0475 -0.3385 -0.0065
 3226SOL    HW121140   0.395   3.331   8.018  0.4200 -0.8692 -0.0510
 3226SOL    HW221141   0.488   3.431   8.017 -1.6165 -0.3033  0.9776
 3227SOL     OW21142   0.050   1.989  12.682  0.2366 -0.3162  0.2812
 3227SOL    HW121143   4.703   1.953  12.734  0.3721  1.1195  1.4698
 3227SOL    HW221144   0.077   2.048  12.753  2.7681 -1.4116  0.2128
 3228SOL     OW21145   3.173   2.467   9.810  0.2522 -0.1717  0.5746
 3228SOL    HW121146   3.162   2.515   9.892 -0.5736  1.7124 -0.6458
 3228SOL    HW221147   3.244   2.521   9.776 -0.2143  0.3354  0.4116
 3229SOL     OW21148   2.657   3.511   9.554  0.0045  0.0001  0.2861
 3229SOL    HW121149   2.715   3.555   9.617 -0.1491 -0.7167  0.9319
 3229SOL    HW221150   2.631   3.584   9.499 -0.1418  0.0019  0.3582
 3230SOL     OW21151   0.893   4.077  15.400  0.7724  0.3466 -0.6473
 3230SOL    HW121152   0.842   4.041  15.328  3.0865 -1.0582 -1.5572
 3230SOL    HW221153   0.931   4.007  15.454  2.0615 -0.9260 -3.2024
 3231SOL     OW21154   2.117   4.299   8.950 -0.7300 -0.9967  0.1439
 3231SOL    HW121155   2.039   4.284   8.897 -0.5196 -0.6550 -0.2595
 3231SOL    HW221156   2.096   4.380   8.996  2.1339 -0.6498  0.8491
 3232SOL     OW21157   1.904   3.015   7.736 -0.0881  0.4108 -0.0734
 3232SOL    HW121158   1.888   3.106   7.760  0.1314 -0.1378  2.1280
 3232SOL    HW221159   1.829   2.991   7.682 -0.2497  0.4997  0.1102
 3233SOL     OW21160   2.981   0.692   6.599 -0.3236 -0.1549 -0.1116
 3233SOL    HW121161   2.892   0.660   6.587 -0.6968  0.4507  1.0406
 3233SOL    HW221162   2.973   0.739   6.682  0.5880 -1.3374  0.6436
 3234SOL     OW21163   2.941   3.608   5.044  0.3820 -0.8736 -0.3434
 3234SOL    HW121164   2.953   3.666   5.118  3.2369 -1.0411 -0.6645
 3234SOL    HW221165   2.985   3.527   5.068  0.7189 -0.8685 -0.9318
 3235SOL     OW21166   4.632   3.021   3.972  0.1739  0.0579  0.4110
 3235SOL    HW121167   4.544   3.016   4.009  0.2436 -1.3991  0.3728
 3235SOL    HW221168   4.669   3.092   4.025 -0.0767 -0.1828  0.9032
 3236SOL     OW21169   2.935   3.019   9.423  0.2809  0.4677 -0.0495
 3236SOL    HW121170   2.848   3.026   9.463  0.0117 -2.2382 -0.1760
 3236SOL    HW221171   2.972   2.991   9.506  0.8182 -1.0476 -0.7981
 3237SOL     OW21172   0.757   1.880   7.705  0.2702  0.0407 -0.4325
 3237SOL    HW121173   0.851   1.864   7.701 -0.0858 -2.3491  0.5205
 3237SOL    HW221174   0.725   1.826   7.634  1.2993  0.8560 -1.5092
 3238SOL     OW21175   0.437   2.123   8.152 -0.2182 -0.0908 -0.2327
 3238SOL    HW121176   0.387   2.042   8.140 -1.7400  0.6862  0.7892
 3238SOL    HW221177   0.414   2.145   8.242  0.4713 -2.8558  0.6301
 3239SOL     OW21178   0.880   0.007   5.661  0.5495 -0.0222  0.6974
 3239SOL    HW121179   0.806   4.676   5.684 -0.8724  1.6783  0.2619
 3239SOL    HW221180   0.898   4.695   5.575 -4.1764 -1.6294  0.3978
 3240SOL     OW21181   3.152   0.063   0.525 -0.0543 -0.0316  0.0152
 3240SOL    HW121182   3.073   0.062   0.579 -0.4505  1.9949 -0.5423
 3240SOL    HW221183   3.191   4.702   0.537 -1.5370 -0.5931  0.8673
 3241SOL     OW21184   0.839   2.578   3.409  0.7092  0.0256  0.4598
 3241SOL    HW121185   0.925   2.537   3.414  1.0067  0.4831 -0.9557
 3241SOL    HW221186   0.815   2.555   3.319 -2.1893  0.5345  1.1095
 3242SOL     OW21187   3.870   1.256   6.581  0.7422  0.0130  0.0357
 3242SOL    HW121188   3.777   1.282   6.583  0.2179 -1.9064  0.6216
 3242SOL    HW221189   3.915   1.334   6.612 -0.8106 -0.8921  4.6157
 3243SOL     OW21190   1.460   2.314   4.228  0.4511  0.1092 -0.2580
 3243SOL    HW121191   1.524   2.268   4.174  0.3150  1.1671 -1.3123
 3243SOL    HW221192   1.372   2.280   4.208  0.2256 -0.7834  2.2839
 3244SOL     OW21193   3.858   0.339  16.399  0.6938 -0.0809 -0.0404
 3244SOL    HW121194   3.790   0.403  16.422 -0.4140 -1.1872 -0.2730
 3244SOL    HW221195   3.913   0.392  16.342 -1.4182  3.2370  0.9658
 3245SOL     OW21196   3.779   4.127   6.472 -0.4420  0.0457 -0.5857
 3245SOL    HW121197   3.735   4.141   6.555 -0.6689 -1.7244 -0.4179
 3245SOL    HW221198   3.788   4.217   6.440  0.5449  0.8874  2.0505
 3246SOL     OW21199   2.439   2.576   1.893 -0.0874 -0.0269  0.4864
 3246SOL    HW121200   2.528   2.542   1.887 -0.4078 -1.0241  1.3805
 3246SOL    HW221201   2.431   2.643   1.825  1.7344 -1.9384 -1.6019
 3247SOL     OW21202   2.135   2.394  16.851 -0.0356  0.2569  0.8154
 3247SOL    HW121203   2.196   2.427  16.785 -1.7103  1.3880 -0.1925
 3247SOL    HW221204   2.050   2.434  16.830  0.9745  2.5930  1.2662
 3248SOL     OW21205   4.684   1.430  11.719 -0.4300 -0.4734  0.2227
 3248SOL    HW121206   0.050   1.448  11.696 -0.4758  1.9887  2.0038
 3248SOL    HW221207   4.673   1.476  11.802  1.7849 -0.7391  0.6690
 3249SOL     OW21208   4.065   2.925  13.829 -0.1473  0.6799 -0.2332
 3249SOL    HW121209   4.059   2.860  13.759 -2.7050 -1.5045  1.9584
 3249SOL    HW221210   3.983   2.909  13.878 -0.8261  1.2357 -1.1919
 3250SOL     OW21211   0.225   1.084  10.788  0.0097 -0.2340  0.1835
 3250SOL    HW121212   0.184   1.020  10.730  2.5343 -0.4380 -1.3758
 3250SOL    HW221213   0.171   1.161  10.769 -1.6980 -2.1913 -2.9144
 3251SOL     OW21214   1.710   0.503   0.379 -0.2408 -0.0063 -0.5116
 3251SOL    HW121215   1.788   0.451   0.360 -0.7750 -0.7127 -0.7990
 3251SOL    HW221216   1.743   0.547   0.457  0.2744 -0.5186 -0.4410
 3252SOL     OW21217   3.912   2.551   2.427  0.0652 -0.7315 -0.7326
 3252SOL    HW121218   3.856   2.523   2.354 -1.2982 -0.5648  0.2505
 3252SOL    HW221219   3.857   2.557   2.505 -1.2805 -1.7438 -1.6025
 3253SOL     OW21220   2.993   2.649  11.887  0.2044 -0.4127  0.4222
 3253SOL    HW121221   2.965   2.740  11.893  1.6581  0.0015  0.7997
 3253SOL    HW221222   3.013   2.642  11.980  0.0001 -2.0851  0.3468
 3254SOL     OW21223   0.645   3.881  10.702 -0.7275  0.5472 -0.5220
 3254SOL    HW121224   0.680   3.847  10.785  0.0793  2.3588 -0.1320
 3254SOL    HW221225   0.601   3.803  10.667 -1.8543  0.7208  0.4633
 3255SOL     OW21226   2.298   3.422   1.594  0.1643 -0.1701 -0.2308
 3255SOL    HW121227   2.346   3.348   1.630  1.2894 -0.2511 -1.9093
 3255SOL    HW221228   2.267   3.465   1.674  0.8835 -1.4922  0.7561
 3256SOL     OW21229   2.405   0.227  12.632 -0.6139  0.4939  0.2952
 3256SOL    HW121230   2.318   0.201  12.662 -0.7653  0.4489 -0.1749
 3256SOL    HW221231   2.394   0.245  12.538  3.7768  1.9784  0.0453
 3257SOL     OW21232   3.292   1.929   3.920  0.4795  0.3512  0.1853
 3257SOL    HW121233   3.262   1.912   3.831  1.9491 -0.9262 -0.0881
 3257SOL    HW221234   3.343   2.006   3.898 -0.8974  1.2545  0.2122
 3258SOL     OW21235   0.319   4.222   0.797  0.0082  0.3596  0.5384
 3258SOL    HW121236   0.281   4.188   0.878  2.5958  0.1294  1.6506
 3258SOL    HW221237   0.242   4.273   0.769  2.1550  1.5066 -3.3028
 3259SOL     OW21238   0.626   1.347   8.147  0.0492  0.2797  0.2797
 3259SOL    HW121239   0.691   1.278   8.159  1.4451  1.6188  0.5035
 3259SOL    HW221240   0.562   1.307   8.088  1.3276 -1.8923  0.3633
 3260SOL     OW21241   2.206   2.898  14.502 -0.2044 -0.5199 -0.2577
 3260SOL    HW121242   2.233   2.954  14.429 -0.7977  0.9146  0.6148
 3260SOL    HW221243   2.220   2.815  14.457 -1.2007 -0.3018 -0.9682
 3261SOL     OW21244   3.591   1.572  13.008 -1.1193  0.0735  0.0118
 3261SOL    HW121245   3.652   1.499  13.006 -1.1955  0.0042  0.1763
 3261SOL    HW221246   3.619   1.615  12.927  0.5778  0.7158  0.9446
 3262SOL     OW21247   3.707   4.672   5.490  0.8985 -0.2032  0.0590
 3262SOL    HW121248   3.741   4.659   5.402  1.9225 -0.0702  0.4264
 3262SOL    HW221249   3.627   4.716   5.464  1.7502  0.1342 -1.9643
 3263SOL     OW21250   0.012   4.621   8.604 -0.2415 -0.2979 -0.7739
 3263SOL    HW121251   0.067   4.543   8.600 -0.5484 -0.5890  0.7404
 3263SOL    HW221252   0.076   4.688   8.627 -0.0492 -0.6817 -0.2055
 3264SOL     OW21253   0.402   3.537  15.971 -0.2097  0.4088 -0.3606
 3264SOL    HW121254   0.445   3.455  15.992 -0.3993  0.2551 -0.5712
 3264SOL    HW221255   0.446   3.588  16.039 -2.6082  0.1248  1.4281
 3265SOL     OW21256   2.346   0.318   7.433  0.2640  0.0426  0.0847
 3265SOL    HW121257   2.314   0.355   7.515 -1.0011 -3.5429  1.1946
 3265SOL    HW221258   2.439   0.305   7.450  0.4950  3.1403  1.1280
 3266SOL     OW21259   2.977   3.013   3.240  0.2805 -0.1720  0.2496
 3266SOL    HW121260   2.933   3.067   3.174 -0.0664 -0.3140  0.3610
 3266SOL    HW221261   3.030   3.083   3.278  0.8796 -1.3416  1.5621
 3267SOL     OW21262   0.073   3.567   9.433  0.1768 -0.7000 -0.3166
 3267SOL    HW121263   0.079   3.472   9.448 -0.5313 -0.6849  0.0753
 3267SOL    HW221264   4.721   3.589   9.486  1.5555  3.0618  0.0889
 3268SOL     OW21265   2.613   0.219   7.827  0.1477  0.0835  0.1696
 3268SOL    HW121266   2.551   0.266   7.883 -0.8671 -0.2660 -0.6575
 3268SOL    HW221267   2.558   0.150   7.789  1.0867 -0.8410  0.5057
 3269SOL     OW21268   1.458   3.985   8.411 -0.0643  0.1168  0.0899
 3269SOL    HW121269   1.367   3.957   8.405  0.2371 -0.3424 -2.4412
 3269SOL    HW221270   1.446   4.060   8.470  2.1077  0.9427 -0.4970
 3270SOL     OW21271   0.977   3.119   7.842 -0.1386 -0.9681  0.7090
 3270SOL    HW121272   1.058   3.087   7.882 -0.0986 -0.5966  0.9229
 3270SOL    HW221273   0.929   3.131   7.923  0.4557  1.9022  0.6165
 3271SOL     OW21274   1.201   1.541   9.294 -0.0624 -0.2071  0.0431
 3271SOL    HW121275   1.255   1.470   9.259 -0.1106 -0.4610  0.4767
 3271SOL    HW221276   1.230   1.541   9.385 -4.0917  0.4020  1.3242
 3272SOL     OW21277   3.137   1.282  14.559  0.1013  0.7335  1.3618
 3272SOL    HW121278   3.145   1.341  14.484  2.7424 -0.7914  0.4041
 3272SOL    HW221279   3.069   1.316  14.617 -0.5635 -1.5516  1.9224
 3273SOL     OW21280   4.450   1.080   6.544 -0.1725 -0.8520 -0.1935
 3273SOL    HW121281   4.412   1.080   6.456  3.4298  0.7263 -1.7611
 3273SOL    HW221282   4.384   1.132   6.590  1.0255  1.4349 -1.0328
 3274SOL     OW21283   0.883   0.725   6.034 -0.4722 -0.3511 -0.2622
 3274SOL    HW121284   0.860   0.638   6.067 -1.2818 -0.3066 -0.7024
 3274SOL    HW221285   0.853   0.776   6.109 -2.4442 -0.4449 -0.9808
 3275SOL     OW21286   2.145   3.879   1.297  0.4438 -0.0655  0.2789
 3275SOL    HW121287   2.177   3.796   1.261  2.2302  0.4789  0.6136
 3275SOL    HW221288   2.172   3.874   1.389  0.3021 -1.6339  0.2273
 3276SOL     OW21289   2.153   2.179  11.881  0.1080  0.6027  0.7304
 3276SOL    HW121290   2.115   2.211  11.799  0.3497 -1.0169 -0.0224
 3276SOL    HW221291   2.200   2.101  11.851  1.6054  0.9297  2.2698
 3277SOL     OW21292   2.368   4.586   2.765  0.1218  0.4820  0.1357
 3277SOL    HW121293   2.388   4.541   2.847 -2.3878  0.5458  0.8016
 3277SOL    HW221294   2.276   4.610   2.774  0.1001  0.1057  0.9243
 3278SOL     OW21295   1.972   3.274   0.542 -0.0124  0.3545  0.1100
 3278SOL    HW121296   1.991   3.193   0.588 -2.7020 -0.9707 -1.0834
 3278SOL    HW221297   1.975   3.334   0.616  1.8650 -2.0960  1.9780
 3279SOL     OW21298   2.957   3.995   7.172 -0.4948 -0.4867 -0.3464
 3279SOL    HW121299   2.920   4.005   7.259 -0.5107  0.7957 -0.4972
 3279SOL    HW221300   2.879   4.013   7.120  0.0597  3.7665  0.2916
 3280SOL     OW21301   0.767   0.163   1.769  0.2216 -0.4222 -0.0424
 3280SOL    HW121302   0.745   0.112   1.691 -1.1085  1.1431 -0.6933
 3280SOL    HW221303   0.678   0.196   1.777 -0.1619 -1.5496  0.3750
 3281SOL     OW21304   0.462   3.874   2.615  0.0223 -0.2572  0.1835
 3281SOL    HW121305   0.527   3.944   2.613 -1.3697  1.0569  1.0239
 3281SOL    HW221306   0.385   3.922   2.644 -0.5304 -1.2852  0.4164
 3282SOL     OW21307   4.371   3.606  15.064 -0.3896 -0.4326  0.6500
 3282SOL    HW121308   4.434   3.651  15.121  0.4143 -2.1831  1.1405
 3282SOL    HW221309   4.405   3.521  15.036 -0.9929 -0.6000  0.4317
 3283SOL     OW21310   2.456   1.335  16.080  0.0715 -0.4876  0.0054
 3283SOL    HW121311   2.405   1.409  16.046 -0.4477  0.0659  2.0318
 3283SOL    HW221312   2.543   1.369  16.101  0.0287  0.7936 -1.8965
 3284SOL     OW21313   3.740   4.140   3.566  0.1709  0.3853 -0.0414
 3284SOL    HW121314   3.783   4.136   3.481 -0.7882  1.6837 -0.5725
 3284SOL    HW221315   3.787   4.214   3.604 -1.2729  1.4636 -0.3911
 3285SOL     OW21316   2.259   1.956   9.904  0.6641 -0.6733  0.5678
 3285SOL    HW121317   2.320   2.011   9.953 -0.5768  0.1462  1.2061
 3285SOL    HW221318   2.232   1.896   9.974  1.5545 -2.3548 -0.5388
 3286SOL     OW21319   2.513   1.711  12.947  0.2567  0.1886  0.2225
 3286SOL    HW121320   2.575   1.706  12.874 -0.3714  0.3779 -0.3170
 3286SOL    HW221321   2.436   1.733  12.895  1.6594  1.9681 -1.0979
 3287SOL     OW21322   1.728   1.537   2.004 -0.3917  0.1836 -0.1266
 3287SOL    HW121323   1.716   1.605   1.938  1.8742 -0.6760 -1.4282
 3287SOL    HW221324   1.641   1.516   2.036 -0.4608  1.9960  0.8901
 3288SOL     OW21325   2.141   3.638  13.383 -0.2137 -0.2792 -0.2500
 3288SOL    HW121326   2.098   3.662  13.465  1.8524 -2.4149  1.4647
 3288SOL    HW221327   2.077   3.673  13.322 -0.6119 -2.8900 -1.3258
 3289SOL     OW21328   4.267   2.201  10.506  0.2043  0.0872  0.1234
 3289SOL    HW121329   4.288   2.147  10.429  0.3792  0.1085  0.1560
 3289SOL    HW221330   4.301   2.140  10.572 -2.0924  1.0771  2.2054
 3290SOL     OW21331   4.260   4.596   4.727 -0.6349 -0.1715  0.1443
 3290SOL    HW121332   4.323   4.599   4.799  0.9258 -1.1080 -1.1712
 3290SOL    HW221333   4.247   4.690   4.714  1.4755  0.1767  0.4638
 3291SOL     OW21334   3.885   0.332   4.141 -0.2058  0.2885  0.1652
 3291SOL    HW121335   3.921   0.256   4.096  0.3593  0.3893  0.4441
 3291SOL    HW221336   3.796   0.337   4.105  0.1431  1.1126 -0.5894
 3292SOL     OW21337   4.606   1.831  12.826  0.1389 -0.3706 -0.2498
 3292SOL    HW121338   4.522   1.863  12.795  0.0488  0.0676  0.4400
 3292SOL    HW221339   4.590   1.755  12.882  3.1048  0.4055  1.6234
 3293SOL     OW21340   0.988   1.533   6.482 -0.3655 -0.1323 -0.4262
 3293SOL    HW121341   1.070   1.490   6.458 -0.5239  0.2491 -1.6613
 3293SOL    HW221342   0.952   1.480   6.553 -2.6971  2.5515  0.3734
 3294SOL     OW21343   4.025   3.715   8.656  0.1763  0.0944 -0.3736
 3294SOL    HW121344   3.985   3.628   8.671 -0.6971  0.0207 -3.0652
 3294SOL    HW221345   3.949   3.771   8.642  1.6734  1.8507 -1.3577
 3295SOL     OW21346   1.527   0.964   6.824  0.4286 -0.1765  0.3790
 3295SOL    HW121347   1.604   0.992   6.774 -0.5827  1.8793 -0.0225
 3295SOL    HW221348   1.459   0.986   6.761  0.2970 -2.0918 -0.1432
 3296SOL     OW21349   0.033   1.339   1.946  0.0439  0.0046  0.1851
 3296SOL    HW121350   4.672   1.380   1.950 -0.3798 -0.5875 -2.7779
 3296SOL    HW221351   0.023   1.275   2.017  1.5264  0.0855  0.4730
 3297SOL     OW21352   1.033   1.519   5.450  0.4153  0.3676  0.3872
 3297SOL    HW121353   0.961   1.581   5.464 -0.0183 -0.2678  0.9454
 3297SOL    HW221354   1.058   1.534   5.359  0.6746 -1.6338  0.1474
 3298SOL     OW21355   4.331   3.283   3.340 -0.4808 -0.3322  0.1880
 3298SOL    HW121356   4.334   3.189   3.358 -1.9452 -0.7844 -1.9398
 3298SOL    HW221357   4.240   3.305   3.357 -0.1063 -0.1044  1.8380
 3299SOL     OW21358   0.686   2.728  14.354 -0.4889 -0.0748  0.0803
 3299SOL    HW121359   0.668   2.813  14.315  0.8323 -0.1442 -0.6672
 3299SOL    HW221360   0.738   2.689  14.284  1.2326  2.9528 -0.3289
 3300SOL     OW21361   1.883   3.410   6.364  0.2887  0.2438 -0.1990
 3300SOL    HW121362   1.845   3.351   6.299 -1.3213  1.1869 -0.1087
 3300SOL    HW221363   1.959   3.355   6.382 -1.8320 -2.8223 -0.6871
 3301SOL     OW21364   1.560   1.520   6.540  0.0563 -0.2977 -0.0713
 3301SOL    HW121365   1.555   1.431   6.575 -1.4229 -1.0209 -2.1529
 3301SOL    HW221366   1.648   1.538   6.573 -0.4736  0.1242  1.1175
 3302SOL     OW21367   4.230   0.261   3.508  0.1718 -0.2361 -0.0670
 3302SOL    HW121368   4.199   0.228   3.424 -0.9465 -0.1637  0.3253
 3302SOL    HW221369   4.321   0.272   3.478 -0.1182  1.3554 -0.3646
 3303SOL     OW21370   3.696   0.101   7.060 -0.3733 -0.1185 -0.4665
 3303SOL    HW121371   3.788   0.084   7.083 -0.4225  0.4004  0.0988
 3303SOL    HW221372   3.703   0.074   6.969  0.3806  1.7976 -0.9550
 3304SOL     OW21373   3.579   3.860   9.780 -0.9683 -0.1283  0.0312
 3304SOL    HW121374   3.657   3.843   9.832 -0.7421 -1.2175 -0.6505
 3304SOL    HW221375   3.554   3.769   9.760 -3.5485  0.1849  1.7745
 3305SOL     OW21376   1.244   4.701   3.788  0.8793  0.2385  0.2061
 3305SOL    HW121377   1.208   4.669   3.705  0.5270  2.2696 -0.4201
 3305SOL    HW221378   1.167   4.707   3.844  0.6376 -0.7166 -0.0112
 3306SOL     OW21379   1.966   3.039   4.497 -0.2512  0.3096  0.8975
 3306SOL    HW121380   2.031   3.110   4.496 -1.8586  1.7758  0.4021
 3306SOL    HW221381   1.882   3.085   4.496  0.4080  1.5378  1.1396
 3307SOL     OW21382   2.885   2.460  17.139  0.1694 -0.2160  0.2617
 3307SOL    HW121383   2.795   2.433  17.159 -0.6054  0.9853 -1.5333
 3307SOL    HW221384   2.929   2.374  17.141  2.2915  0.8659  0.0048
 3308SOL     OW21385   3.821   4.466   5.300  0.1741  0.3612 -0.3774
 3308SOL    HW121386   3.790   4.412   5.373  0.1149  0.7324 -0.1294
 3308SOL    HW221387   3.906   4.428   5.279  0.5550  1.0399 -0.0659
 3309SOL     OW21388   1.240   3.048  10.791 -0.5204  0.5146 -0.1501
 3309SOL    HW121389   1.260   3.082  10.878 -0.2505  0.9409 -0.3763
 3309SOL    HW221390   1.263   2.958  10.812 -0.1980  0.8354  0.8613
 3310SOL     OW21391   4.428   2.443   1.337 -0.6392 -0.5463  0.1562
 3310SOL    HW121392   4.368   2.424   1.410  0.8441 -0.8084  1.3156
 3310SOL    HW221393   4.429   2.369   1.276  0.4444 -0.9022  0.6068
 3311SOL     OW21394   3.941   3.791  10.134 -0.0287  0.3841  0.5052
 3311SOL    HW121395   3.979   3.714  10.177  4.2384  3.1688  1.6640
 3311SOL    HW221396   3.874   3.819  10.197  0.2877  1.8538  0.1678
 3312SOL     OW21397   2.346   4.721   8.196 -0.5720 -0.4876 -0.1263
 3312SOL    HW121398   2.395   4.700   8.275  1.0881 -0.1811 -1.0755
 3312SOL    HW221399   2.395   4.668   8.133  0.3835 -1.7883  1.6951
 3313SOL     OW21400   3.563   1.941   4.431 -0.0112  0.3685 -0.0267
 3313SOL    HW121401   3.492   1.975   4.378  1.0643  1.8564 -0.5252
 3313SOL    HW221402   3.642   1.985   4.400  0.8178 -1.2193 -0.2060
 3314SOL     OW21403   0.282   2.925   3.421  0.3787 -0.2229 -0.2006
 3314SOL    HW121404   0.223   2.850   3.422  1.2710 -0.9076  1.3129
 3314SOL    HW221405   0.319   2.910   3.334 -0.5884 -1.3736 -0.4077
 3315SOL     OW21406   2.639   3.508  12.887  0.1099  0.1471 -0.3058
 3315SOL    HW121407   2.582   3.442  12.846  0.8465 -0.6158 -0.1102
 3315SOL    HW221408   2.575   3.567  12.926  0.0254 -0.1107 -0.0474
 3316SOL     OW21409   1.379   3.974   3.214  0.0279 -0.0922 -0.7851
 3316SOL    HW121410   1.358   3.884   3.189 -0.3149  0.2339 -1.6683
 3316SOL    HW221411   1.297   4.010   3.180 -0.5550  0.2260  0.9804
 3317SOL     OW21412   2.288   1.509   4.360 -0.7896 -0.6455 -0.0636
 3317SOL    HW121413   2.270   1.565   4.284  1.7403  0.0256 -0.1962
 3317SOL    HW221414   2.375   1.470   4.348 -0.9042 -0.8832 -0.1126
 3318SOL     OW21415   2.245   4.117   6.622 -0.4183  0.7504  0.5934
 3318SOL    HW121416   2.279   4.182   6.561 -1.2920 -0.6163 -1.3542
 3318SOL    HW221417   2.239   4.161   6.707  2.7279  0.8778  0.7391
 3319SOL     OW21418   3.023   0.434   9.860 -0.5025 -0.7201  0.3998
 3319SOL    HW121419   3.002   0.518   9.901 -0.0701 -1.1034  1.4069
 3319SOL    HW221420   3.033   0.376   9.936 -1.1830 -0.1455  0.9294
 3320SOL     OW21421   1.621   0.182  17.677 -0.4359  0.6422  0.6091
 3320SOL    HW121422   1.622   0.259   0.033  0.3485  0.6823  0.5487
 3320SOL    HW221423   1.566   0.206  17.602 -3.2480 -0.5885  2.3085
 3321SOL     OW21424   2.646   2.154  12.999 -0.3473  0.2225 -0.1515
 3321SOL    HW121425   2.565   2.146  12.949 -0.0865  0.2756 -0.5930
 3321SOL    HW221426   2.712   2.154  12.929  0.1337  0.2388  0.3005
 3322SOL     OW21427   0.769   0.262  10.525  0.4221  0.0690 -0.0348
 3322SOL    HW121428   0.755   0.191  10.462  0.4441  0.6635 -0.7094
 3322SOL    HW221429   0.854   0.289  10.489  0.5785  0.7105  0.8191
 3323SOL     OW21430   4.001   3.638   1.025 -0.2148 -1.3111 -0.0772
 3323SOL    HW121431   3.954   3.599   1.098  0.5033 -0.8141  0.6493
 3323SOL    HW221432   3.952   3.709   0.982  0.5452 -1.5249 -1.3032
 3324SOL     OW21433   2.599   3.740   0.483 -0.2708 -0.1812  0.3144
 3324SOL    HW121434   2.597   3.691   0.565  1.4836 -2.7247 -1.1613
 3324SOL    HW221435   2.510   3.775   0.483  0.4481  1.6720  0.1703
 3325SOL     OW21436   4.357   4.177  11.729  0.1286  0.0151  0.5724
 3325SOL    HW121437   4.292   4.229  11.776  0.1699 -0.1742  0.8323
 3325SOL    HW221438   4.305   4.140  11.657  0.3706  1.6483 -0.4549
 3326SOL     OW21439   0.562   1.418  16.182 -0.5179  0.4067  0.5514
 3326SOL    HW121440   0.608   1.334  16.178  1.2388  1.4004 -0.3186
 3326SOL    HW221441   0.560   1.430  16.087  0.1245 -1.1828  0.3421
 3327SOL     OW21442   3.177   1.925   8.627 -0.0855 -0.9668 -0.7276
 3327SOL    HW121443   3.132   2.001   8.592 -1.0239 -1.5244 -0.7339
 3327SOL    HW221444   3.162   1.867   8.552  2.6771 -2.1302 -0.3812
 3328SOL     OW21445   0.295   2.724   7.674  0.4340  0.1304 -0.4556
 3328SOL    HW121446   0.268   2.815   7.661  0.5211 -0.1570 -2.7180
 3328SOL    HW221447   0.301   2.698   7.582 -0.6849 -2.1773  0.1209
 3329SOL     OW21448   1.144   3.851   1.968 -0.5228 -0.0476 -0.0138
 3329SOL    HW121449   1.182   3.778   2.017 -0.5012  0.6154  0.9545
 3329SOL    HW221450   1.057   3.849   2.007 -0.1085  0.9554  0.9595
 3330SOL     OW21451   3.175   0.657   4.678 -0.5628  0.1092 -0.4995
 3330SOL    HW121452   3.226   0.692   4.605 -1.3324  1.4542 -0.3862
 3330SOL    HW221453   3.114   0.728   4.698 -1.2457 -0.8422  0.8605
 3331SOL     OW21454   2.126   2.733   7.474 -0.2095 -0.2698  0.0297
 3331SOL    HW121455   2.141   2.821   7.508 -1.0505 -0.0355 -0.2050
 3331SOL    HW221456   2.202   2.715   7.418 -1.0981 -0.2590 -1.1761
 3332SOL     OW21457   0.278   1.941   5.500 -0.2944  0.3064  0.2549
 3332SOL    HW121458   0.355   1.966   5.552  1.2628 -0.5575 -1.6414
 3332SOL    HW221459   0.326   1.877   5.447 -0.2650  1.7037 -1.4048
 3333SOL     OW21460   0.282   2.820   8.903 -0.0315  0.2154 -0.3562
 3333SOL    HW121461   0.252   2.738   8.943 -1.8514  0.7889 -0.5249
 3333SOL    HW221462   0.368   2.828   8.943 -1.0267 -3.5136  2.4753
 3334SOL     OW21463   2.679   3.016   6.837 -0.5216 -0.3027  0.0701
 3334SOL    HW121464   2.620   2.959   6.789  0.3866  0.7494 -2.3056
 3334SOL    HW221465   2.623   3.030   6.913 -2.6027  1.3022 -1.7254
 3335SOL     OW21466   0.230   2.639   6.587 -0.1381  0.1278 -0.4054
 3335SOL    HW121467   0.189   2.723   6.604 -0.2875 -0.0173 -0.0369
 3335SOL    HW221468   0.296   2.656   6.520 -0.0922  1.3304 -0.0459
 3336SOL     OW21469   2.401   2.309   7.810 -0.0133 -0.6231 -0.1816
 3336SOL    HW121470   2.408   2.228   7.860  0.5780  1.1589  2.6049
 3336SOL    HW221471   2.335   2.288   7.744 -1.7178 -0.8288  1.5891
 3337SOL     OW21472   4.622   3.612   2.706 -0.1697  0.1600 -0.6961
 3337SOL    HW121473   4.688   3.679   2.725  1.6175 -1.0514 -2.6320
 3337SOL    HW221474   4.621   3.604   2.611 -0.0637 -4.6781 -0.3246
 3338SOL     OW21475   0.732   3.751   8.380 -1.0649 -0.3493  0.1936
 3338SOL    HW121476   0.657   3.788   8.333  0.6917  2.9410 -0.0161
 3338SOL    HW221477   0.702   3.660   8.376  1.1482 -1.1474  1.6965
 3339SOL     OW21478   1.049   4.044   5.503  0.3260 -0.1443 -0.5367
 3339SOL    HW121479   1.077   3.956   5.527  0.4097 -0.0979 -0.4638
 3339SOL    HW221480   0.953   4.044   5.509  0.2831  1.0689 -1.2896
 3340SOL     OW21481   0.206   3.680   4.675 -0.4205  0.0585  0.8371
 3340SOL    HW121482   0.122   3.685   4.630  0.2755  0.4226 -0.4212
 3340SOL    HW221483   0.174   3.637   4.754  2.7117 -0.5288  1.8161
 3341SOL     OW21484   1.630   3.339   5.335  0.7649  1.1447  0.2916
 3341SOL    HW121485   1.611   3.397   5.409 -1.5243  0.1889  0.4567
 3341SOL    HW221486   1.561   3.364   5.273 -0.0823 -0.2852  0.6791
 3342SOL     OW21487   2.394   3.838   0.168  0.0419  0.6448 -0.4289
 3342SOL    HW121488   2.422   3.917   0.213 -0.3555 -0.3256  1.5334
 3342SOL    HW221489   2.411   3.851   0.074  1.7017 -2.1431 -0.5238
 3343SOL     OW21490   4.646   0.397   8.087  0.0856  0.2319 -0.2066
 3343SOL    HW121491   4.676   0.440   8.007  0.0017 -3.1034 -2.0718
 3343SOL    HW221492   4.593   0.329   8.044  1.6147 -0.7816 -0.5142
 3344SOL     OW21493   3.579   0.843   3.634 -0.1790  0.1256  0.6424
 3344SOL    HW121494   3.492   0.881   3.622  0.4856  1.0600 -1.3454
 3344SOL    HW221495   3.581   0.801   3.720  1.2402 -2.3247 -0.5925
 3345SOL     OW21496   2.267   3.424   7.916  0.0785  0.3630  0.7869
 3345SOL    HW121497   2.302   3.477   7.989 -0.7742 -0.0608  1.5001
 3345SOL    HW221498   2.236   3.485   7.849  1.8298 -1.2831 -1.4903
 3346SOL     OW21499   1.093   0.517   8.537 -0.3710 -0.5657  0.1223
 3346SOL    HW121500   1.144   0.469   8.471  1.0947  0.3940  0.5469
 3346SOL    HW221501   1.150   0.534   8.612 -0.0295  0.4000 -0.3515
 3347SOL     OW21502   3.762   0.577   5.830  0.5669  0.0109 -0.2383
 3347SOL    HW121503   3.733   0.553   5.918  1.9646 -1.2431 -0.1156
 3347SOL    HW221504   3.678   0.613   5.801 -0.3190 -2.2468 -0.4792
 3348SOL     OW21505   3.093   4.652   7.882  0.7186 -0.3073  0.0438
 3348SOL    HW121506   3.054   4.577   7.927 -0.3361  0.7491  0.8847
 3348SOL    HW221507   3.012   4.686   7.845  1.1166 -0.0446 -0.5939
 3349SOL     OW21508   3.809   4.281   5.874 -0.9448 -0.5950  0.4539
 3349SOL    HW121509   3.726   4.325   5.893  0.3354  1.9394  0.1782
 3349SOL    HW221510   3.776   4.199   5.838  0.4860 -0.8905 -0.1987
 3350SOL     OW21511   2.362   0.578  12.046 -0.1277  0.3742  0.7136
 3350SOL    HW121512   2.392   0.572  12.136 -1.4807 -0.9527  1.0730
 3350SOL    HW221513   2.411   0.656  12.019  0.3540 -0.5543 -1.0849
 3351SOL     OW21514   2.710   4.597   4.318 -0.2378 -0.2575  0.0199
 3351SOL    HW121515   2.764   4.518   4.305  0.9955  0.7703 -1.0765
 3351SOL    HW221516   2.630   4.576   4.271  0.1895  1.7456 -1.6138
 3352SOL     OW21517   4.606   3.245   8.553  0.4700  0.3365 -0.3836
 3352SOL    HW121518   4.611   3.240   8.457  1.1245  1.2326 -0.3956
 3352SOL    HW221519   4.544   3.317   8.570 -0.5509 -0.4200 -0.8467
 3353SOL     OW21520   4.488   1.297   3.710 -0.1930 -0.1668  0.1253
 3353SOL    HW121521   4.399   1.264   3.723 -0.7040  0.8544 -0.7749
 3353SOL    HW221522   4.491   1.354   3.633 -0.0225 -0.0822  0.1937
 3354SOL     OW21523   2.393   3.275   3.112 -0.1997  0.2437 -0.1268
 3354SOL    HW121524   2.311   3.228   3.122 -1.6146  2.3326 -1.8646
 3354SOL    HW221525   2.429   3.232   3.034 -3.0362 -3.0746  0.4405
 3355SOL     OW21526   4.671   1.279  15.788 -0.2287  0.0336 -0.0709
 3355SOL    HW121527   0.016   1.342  15.802 -0.2504  0.2965 -1.1706
 3355SOL    HW221528   4.698   1.204  15.841  2.7942  2.3700  1.6456
 3356SOL     OW21529   1.640   0.028  11.969 -0.0236 -0.0073 -0.5141
 3356SOL    HW121530   1.642   4.661  11.995  0.7883  0.2025  0.1701
 3356SOL    HW221531   1.581   0.028  11.894 -2.3824  0.0355  1.3366
 3357SOL     OW21532   1.015   0.169   8.804  0.4425 -0.8450  0.4113
 3357SOL    HW121533   0.943   0.174   8.867 -0.7754  3.2217 -1.2694
 3357SOL    HW221534   1.006   0.076   8.786  0.4237 -1.4655  3.5855
 3358SOL     OW21535   2.865   1.671  10.168 -0.3168 -0.0219  0.2189
 3358SOL    HW121536   2.857   1.720  10.086  2.0279  0.1491  0.0768
 3358SOL    HW221537   2.941   1.713  10.207  1.9105 -2.1464 -1.7746
 3359SOL     OW21538   1.742   0.418  16.344  0.1138  0.1652  0.1939
 3359SOL    HW121539   1.719   0.332  16.309  1.4192 -0.1657  0.1803
 3359SOL    HW221540   1.832   0.410  16.374  0.1245 -0.5653 -0.0255
 3360SOL     OW21541   0.352   3.883   2.372  0.7146  0.8982  0.4914
 3360SOL    HW121542   0.391   3.881   2.284 -0.0173  2.2398  0.1414
 3360SOL    HW221543   0.430   3.876   2.427  1.0346 -0.7086 -0.1523
 3361SOL     OW21544   2.694   2.304   6.636  0.0073 -0.1965  0.2692
 3361SOL    HW121545   2.652   2.314   6.551  0.4703 -2.5584 -0.2106
 3361SOL    HW221546   2.623   2.259   6.682  0.2768 -0.9696 -0.0755
 3362SOL     OW21547   1.455   0.778   8.370  0.0221  0.5429 -0.0449
 3362SOL    HW121548   1.400   0.706   8.338 -0.2861  0.2789  1.0792
 3362SOL    HW221549   1.394   0.852   8.370 -0.7614 -0.1134  1.4655
 3363SOL     OW21550   2.161   1.345   5.816  0.0459 -0.5100  0.3200
 3363SOL    HW121551   2.167   1.249   5.810  1.0326 -0.3781 -0.7973
 3363SOL    HW221552   2.251   1.366   5.840  0.5320  1.2816 -3.0767
 3364SOL     OW21553   2.068   2.068  14.018 -0.6017 -1.3236 -0.0150
 3364SOL    HW121554   2.027   1.985  13.994 -1.9222 -0.2042 -1.7036
 3364SOL    HW221555   2.060   2.070  14.113  1.0517  0.3246  0.0951
 3365SOL     OW21556   0.176   0.649   9.485  0.6259  0.1681 -0.1205
 3365SOL    HW121557   0.232   0.678   9.413 -2.0783  0.0481 -2.2513
 3365SOL    HW221558   0.131   0.730   9.511  0.0125 -0.6619  1.4605
 3366SOL     OW21559   2.167   3.520   3.969  0.1323 -0.4988 -0.1485
 3366SOL    HW121560   2.190   3.429   3.988  0.7402 -0.1932  0.5806
 3366SOL    HW221561   2.140   3.512   3.878 -0.9312 -1.8176  0.2878
 3367SOL     OW21562   2.018   2.786  14.120 -0.5414 -0.5069 -0.2860
 3367SOL    HW121563   2.074   2.737  14.180 -1.3632  0.9184  1.6500
 3367SOL    HW221564   2.028   2.876  14.151 -1.6164  0.4551 -2.7243
 3368SOL     OW21565   3.770   2.288   6.482 -0.0976  0.1364 -0.1276
 3368SOL    HW121566   3.788   2.209   6.430 -1.2219 -0.5538  0.5419
 3368SOL    HW221567   3.840   2.292   6.547  0.4933 -1.2234 -0.6669
 3369SOL     OW21568   0.116   3.935   8.194 -0.1642 -0.1852 -0.0901
 3369SOL    HW121569   0.089   3.902   8.279 -0.0268 -1.0076 -0.3650
 3369SOL    HW221570   0.198   3.981   8.215 -1.3627  0.8243  2.3930
 3370SOL     OW21571   0.919   2.775   2.010  0.0245  0.0274  0.2738
 3370SOL    HW121572   0.878   2.749   2.093 -0.5465  0.7660  0.2205
 3370SOL    HW221573   0.977   2.699   2.001 -0.9062 -0.8387  1.5078
 3371SOL     OW21574   2.495   1.572   6.468  0.1010 -0.1148 -0.3232
 3371SOL    HW121575   2.478   1.605   6.556  0.5666 -0.5995 -0.0572
 3371SOL    HW221576   2.526   1.482   6.481  1.1457  0.2626 -0.2634
 3372SOL     OW21577   3.138   2.872   0.833 -0.1920 -0.1003 -0.1899
 3372SOL    HW121578   3.113   2.869   0.741 -2.5345  1.6614  0.3981
 3372SOL    HW221579   3.164   2.963   0.850  0.4090 -0.1930 -0.6388
 3373SOL     OW21580   1.899   4.051   2.562  0.1838  0.0233 -0.2654
 3373SOL    HW121581   1.873   4.022   2.475 -0.9063 -2.3099  0.8503
 3373SOL    HW221582   1.815   4.045   2.608 -0.2064 -0.6492 -1.0708
 3374SOL     OW21583   1.462   4.302   2.535  0.0373  0.2016 -0.0276
 3374SOL    HW121584   1.480   4.396   2.543  0.0994  0.1407  0.5071
 3374SOL    HW221585   1.378   4.298   2.579  0.0054 -0.1442 -0.1173
 3375SOL     OW21586   4.713   3.333  16.398 -0.9249 -0.0874 -0.2169
 3375SOL    HW121587   4.709   3.263  16.331  1.0096  0.6848 -1.1452
 3375SOL    HW221588   4.693   3.411  16.347  0.1172  1.0527  1.1270
 3376SOL     OW21589   3.698   4.109   8.659 -0.7282  0.4915  0.2379
 3376SOL    HW121590   3.722   4.201   8.676  2.1736 -0.0402 -1.0490
 3376SOL    HW221591   3.602   4.113   8.651 -0.4978  1.1634 -2.1360
 3377SOL     OW21592   1.378   4.720  10.737 -0.1020  0.3976  0.2911
 3377SOL    HW121593   1.418   0.081  10.750 -1.9844  1.2579  0.4449
 3377SOL    HW221594   1.284   0.013  10.741 -0.3035 -0.6116  0.0027
 3378SOL     OW21595   2.330   3.490   4.380 -0.3046 -0.2688  0.7193
 3378SOL    HW121596   2.244   3.528   4.396  0.7815  2.0959  0.9894
 3378SOL    HW221597   2.386   3.556   4.423 -0.2018 -1.3409  2.2143
 3379SOL     OW21598   3.960   2.264   3.960 -0.2924  0.4259 -0.3358
 3379SOL    HW121599   3.889   2.205   3.984  0.4951 -0.3864  0.0006
 3379SOL    HW221600   3.993   2.270   4.050 -2.4448  1.2361  0.4050
 3380SOL     OW21601   1.674   0.971   9.154  0.8803  0.2315 -0.0421
 3380SOL    HW121602   1.670   0.907   9.083 -0.2767  0.7026 -0.3982
 3380SOL    HW221603   1.669   0.908   9.226 -0.0928 -2.1299 -2.1715
 3381SOL     OW21604   2.819   3.907   9.742  0.1420  0.2899 -0.2441
 3381SOL    HW121605   2.741   3.943   9.785  1.0681  0.4090  1.3074
 3381SOL    HW221606   2.881   3.974   9.770 -0.4585  0.1192  1.4884
 3382SOL     OW21607   1.184   2.891   3.973  0.0010  0.4055  0.1477
 3382SOL    HW121608   1.133   2.969   3.949  0.4143  0.7683  0.4499
 3382SOL    HW221609   1.270   2.923   3.943 -0.8608  1.3616 -1.3434
 3383SOL     OW21610   1.894   0.647   6.400 -0.1901 -0.1340  0.2010
 3383SOL    HW121611   1.804   0.633   6.426  0.2264 -1.2727  1.0045
 3383SOL    HW221612   1.920   0.560   6.370  1.0634  0.7248 -1.2632
 3384SOL     OW21613   3.332   3.341   4.876  0.6451  0.2764 -0.3603
 3384SOL    HW121614   3.361   3.374   4.791 -0.5341  1.2862 -0.3740
 3384SOL    HW221615   3.346   3.412   4.938  1.6747 -0.3719  0.1524
 3385SOL     OW21616   2.252   2.663  16.253 -0.6242  0.1418 -0.2560
 3385SOL    HW121617   2.259   2.734  16.189 -0.9843 -0.1819 -0.6486
 3385SOL    HW221618   2.165   2.680  16.289 -0.9041 -1.8058 -0.0197
 3386SOL     OW21619   4.558   2.934   8.389 -0.1808  0.5360 -0.1837
 3386SOL    HW121620   4.630   2.874   8.411  0.2812  0.1899 -2.6288
 3386SOL    HW221621   4.607   3.016   8.388  0.1364  0.3554  0.4652
 3387SOL     OW21622   1.973   4.016   5.209 -0.7283 -0.0652  0.6201
 3387SOL    HW121623   1.905   4.048   5.149 -0.0587  0.7706  0.3049
 3387SOL    HW221624   1.989   3.930   5.170 -1.9601 -0.0617  0.1111
 3388SOL     OW21625   0.052   3.456   5.241  0.1252 -0.2636  0.3900
 3388SOL    HW121626   4.705   3.436   5.182  1.0948 -0.7203 -0.6429
 3388SOL    HW221627   0.128   3.417   5.198  0.0255  2.6153 -2.3094
 3389SOL     OW21628   1.397   4.388  11.260  0.3278  0.2409  0.2389
 3389SOL    HW121629   1.414   4.443  11.336 -0.3057  1.1350 -0.2607
 3389SOL    HW221630   1.313   4.434  11.253 -1.2853 -2.5877  0.6148
 3390SOL     OW21631   2.610   1.185  14.802  0.6481  0.2106 -0.0291
 3390SOL    HW121632   2.676   1.216  14.740 -0.4741 -1.0650 -1.8464
 3390SOL    HW221633   2.530   1.231  14.776 -0.0298 -0.3054  1.1587
 3391SOL     OW21634   2.475   0.378  15.320  0.3332 -0.5887 -0.2463
 3391SOL    HW121635   2.383   0.406  15.326  0.8746  0.8886  1.1343
 3391SOL    HW221636   2.481   0.370  15.225  0.1423  2.9331 -0.5669
 3392SOL     OW21637   4.065   2.553  16.624  0.3562 -0.3307  0.2125
 3392SOL    HW121638   4.076   2.611  16.548 -1.6703  0.4578  0.5218
 3392SOL    HW221639   4.065   2.608  16.702  0.4479  1.0702 -0.7833
 3393SOL     OW21640   0.874   3.650   5.398 -0.1286  0.1817 -0.3731
 3393SOL    HW121641   0.910   3.627   5.312  0.7409  0.7323 -0.1599
 3393SOL    HW221642   0.796   3.701   5.378 -0.9072 -1.3534 -1.2265
 3394SOL     OW21643   3.537   0.358   2.807 -0.0570 -0.5487  0.2283
 3394SOL    HW121644   3.480   0.432   2.828 -1.3856 -1.6770  0.6031
 3394SOL    HW221645   3.615   0.402   2.772 -0.3065 -0.5736 -0.3491
 3395SOL     OW21646   2.078   4.365   2.776  0.5384 -0.2695  0.0098
 3395SOL    HW121647   2.032   4.439   2.736 -0.9396 -0.7329  0.8449
 3395SOL    HW221648   2.161   4.380   2.732  0.2678  0.6084 -0.1997
 3396SOL     OW21649   3.066   2.864   8.046 -0.3993  0.4422  0.1942
 3396SOL    HW121650   3.010   2.933   8.011  0.0838  1.2267  0.9591
 3396SOL    HW221651   3.017   2.791   8.008 -1.4340  0.6614  1.0953
 3397SOL     OW21652   2.752   2.566  12.692  0.9619 -0.2736  0.3357
 3397SOL    HW121653   2.780   2.499  12.753  0.5344  0.9093  1.8312
 3397SOL    HW221654   2.702   2.510  12.632 -1.4090  0.4314  1.6464
 3398SOL     OW21655   1.108   2.783   9.636  0.1564  0.1146  0.0446
 3398SOL    HW121656   1.058   2.702   9.647 -0.8258  0.3711 -2.5380
 3398SOL    HW221657   1.199   2.753   9.635  0.2083  0.2674  0.0579
 3399SOL     OW21658   0.915   0.364   8.132  0.4653 -0.1761 -0.2387
 3399SOL    HW121659   0.922   0.381   8.039  0.4634 -0.8284 -0.3585
 3399SOL    HW221660   0.843   0.301   8.133  2.3493 -2.3271 -0.4543
 3400SOL     OW21661   0.361   4.002   9.126  0.2077  0.2632 -0.1838
 3400SOL    HW121662   0.272   3.970   9.112  0.0439  1.3684 -1.6693
 3400SOL    HW221663   0.345   4.085   9.171  1.8790 -0.7870  2.3402
 3401SOL     OW21664   3.387   2.081   4.269  0.1057  0.3427 -0.5154
 3401SOL    HW121665   3.380   2.174   4.291 -0.7659 -0.5126  2.8080
 3401SOL    HW221666   3.418   2.098   4.180  2.9966 -1.8577  0.0810
 3402SOL     OW21667   1.299   0.787   4.932 -0.2384 -0.4158  0.5312
 3402SOL    HW121668   1.237   0.715   4.921 -0.1997 -0.1388 -1.6075
 3402SOL    HW221669   1.381   0.743   4.915  0.6322  0.9529  1.1646
 3403SOL     OW21670   4.061   2.387   7.806 -0.2311  0.4086 -0.1839
 3403SOL    HW121671   4.017   2.384   7.721 -0.0708  0.8026 -0.2780
 3403SOL    HW221672   4.134   2.342   7.763 -0.0299 -0.6629  1.2829
 3404SOL     OW21673   4.456   3.031   0.865  0.9763  0.2195 -0.3184
 3404SOL    HW121674   4.443   2.997   0.776  1.1389 -1.0823  0.1464
 3404SOL    HW221675   4.413   2.970   0.925  3.0959 -1.5659 -0.6052
 3405SOL     OW21676   3.533   1.000   5.630 -0.4977  0.1867  0.6630
 3405SOL    HW121677   3.554   0.939   5.700  1.5206  0.7019  0.4969
 3405SOL    HW221678   3.593   1.074   5.640 -0.9421  0.3938  1.7724
 3406SOL     OW21679   1.707   1.082   7.635 -1.0647 -0.2407 -0.3743
 3406SOL    HW121680   1.717   1.013   7.700  0.6683 -1.4059 -1.8872
 3406SOL    HW221681   1.619   1.116   7.653 -0.3951  2.0891 -1.4642
 3407SOL     OW21682   0.940   0.774   2.158 -0.0817  0.2700 -0.5141
 3407SOL    HW121683   1.024   0.733   2.141  0.1162  0.5939 -0.3143
 3407SOL    HW221684   0.968   0.866   2.160  0.4017  0.1450 -1.5193
 3408SOL     OW21685   1.342   1.403   8.171 -0.5606 -0.1612 -0.5803
 3408SOL    HW121686   1.390   1.441   8.245  0.1000 -1.4578 -0.3554
 3408SOL    HW221687   1.352   1.308   8.179  0.1696  0.0304  0.9140
 3409SOL     OW21688   0.946   3.832   8.163  0.0763  0.2743 -0.6182
 3409SOL    HW121689   0.868   3.805   8.114 -0.1003  0.4314 -0.4269
 3409SOL    HW221690   0.951   3.771   8.238 -2.5322 -1.4184 -1.7880
 3410SOL     OW21691   0.596   2.363  14.485 -0.2444 -0.7974 -0.1063
 3410SOL    HW121692   0.666   2.300  14.502  0.3312 -0.1560 -0.1044
 3410SOL    HW221693   0.634   2.417  14.415 -2.3231  1.0505  0.1796
 3411SOL     OW21694   2.944   4.525  11.191  0.7990 -0.1482  0.1773
 3411SOL    HW121695   2.896   4.467  11.251 -0.9612  1.3206  0.2188
 3411SOL    HW221696   3.036   4.501  11.202  1.3566  1.7798 -0.2440
 3412SOL     OW21697   1.432   1.247  10.463  0.1389  0.0493 -0.4470
 3412SOL    HW121698   1.478   1.314  10.413  0.8555  1.6030  2.2762
 3412SOL    HW221699   1.379   1.206  10.395  0.5114  1.0966 -1.3603
 3413SOL     OW21700   0.362   3.193   5.794  0.7348 -0.4624  0.3105
 3413SOL    HW121701   0.282   3.141   5.797 -1.2096  2.4396 -1.6717
 3413SOL    HW221702   0.360   3.245   5.874  1.1769 -0.9638  0.6490
 3414SOL     OW21703   0.455   4.486  15.650 -0.2548  0.7936 -0.0051
 3414SOL    HW121704   0.466   4.574  15.613  0.9674  0.3963 -0.5936
 3414SOL    HW221705   0.385   4.506  15.711  0.4593  0.9241  0.7658
 3415SOL     OW21706   0.924   0.379   7.857 -0.4180  0.1238 -0.4183
 3415SOL    HW121707   0.911   0.284   7.860 -1.2759  0.2569  0.2739
 3415SOL    HW221708   0.855   0.397   7.793 -0.2141  2.3648 -0.0100
 3416SOL     OW21709   1.298   4.437   2.273  0.3514  0.6002 -0.7685
 3416SOL    HW121710   1.270   4.407   2.186  1.4820 -0.6879 -0.6900
 3416SOL    HW221711   1.378   4.385   2.281  1.3284  1.7773 -2.9068
 3417SOL     OW21712   0.967   3.144  11.847 -0.1848 -0.1203 -0.5969
 3417SOL    HW121713   0.929   3.139  11.759  1.2744 -1.5126 -1.1579
 3417SOL    HW221714   1.056   3.172  11.829 -0.6725  1.2598 -0.8108
 3418SOL     OW21715   0.189   2.515   4.639  0.5093  0.0839 -0.1239
 3418SOL    HW121716   0.276   2.557   4.641  0.1809  0.6092  2.2354
 3418SOL    HW221717   0.168   2.514   4.732  2.1248  0.3191  0.2419
 3419SOL     OW21718   2.965   2.935   3.810 -0.1315 -0.1256  0.0835
 3419SOL    HW121719   3.028   2.954   3.880  1.3269 -0.6701 -1.0688
 3419SOL    HW221720   2.981   2.841   3.795  1.0030  0.0471  0.2214
 3420SOL     OW21721   2.435   2.048  14.903  0.3392  1.2041 -0.1226
 3420SOL    HW121722   2.494   2.035  14.828  2.9535  1.6520  1.8848
 3420SOL    HW221723   2.361   2.091  14.859 -0.4225  0.0025 -0.0165
 3421SOL     OW21724   1.379   0.224   3.202  0.2686  0.4174 -0.4478
 3421SOL    HW121725   1.455   0.253   3.253  1.6277  0.3954 -2.4182
 3421SOL    HW221726   1.406   0.263   3.119  0.4826 -1.3594 -1.2125
 3422SOL     OW21727   0.992   2.115   4.191  0.0363  0.2531  0.6535
 3422SOL    HW121728   1.077   2.074   4.203  0.1731  0.4273  0.2619
 3422SOL    HW221729   0.934   2.060   4.245 -2.6170  1.3010 -1.1387
 3423SOL     OW21730   1.576   2.416   8.990  0.1800 -0.1134 -0.0897
 3423SOL    HW121731   1.631   2.463   9.053  0.6358  1.1991 -1.4276
 3423SOL    HW221732   1.492   2.451   9.018  0.4874 -0.7098  1.5810
 3424SOL     OW21733   3.687   3.900   8.881 -0.2404 -0.0813  0.0097
 3424SOL    HW121734   3.647   3.987   8.873  1.7719  0.9761  1.5291
 3424SOL    HW221735   3.758   3.914   8.943  0.5967 -1.6567 -0.5932
 3425SOL     OW21736   3.550   4.056   9.583 -0.0221  0.0942  0.2463
 3425SOL    HW121737   3.597   4.137   9.604  0.9350 -0.8861  1.9225
 3425SOL    HW221738   3.575   4.020   9.668 -1.7500 -0.1263  0.6659
 3426SOL     OW21739   1.478   1.128   3.954  0.3715 -0.1535 -0.6048
 3426SOL    HW121740   1.571   1.151   3.962 -0.3696  3.1046 -1.6101
 3426SOL    HW221741   1.436   1.206   3.989 -1.6726 -1.0269 -1.1192
 3427SOL     OW21742   1.747   2.657   4.595 -0.3089  0.0833 -0.0762
 3427SOL    HW121743   1.696   2.690   4.521  0.4198  0.4104 -0.4347
 3427SOL    HW221744   1.691   2.669   4.672 -0.2650  2.9386 -0.4915
 3428SOL     OW21745   0.830   2.320   4.172  0.2004 -0.3795 -0.1354
 3428SOL    HW121746   0.887   2.245   4.188  2.1163  1.2104  0.4257
 3428SOL    HW221747   0.810   2.348   4.261 -1.1131 -0.7640 -0.3153
 3429SOL     OW21748   0.250   0.220  11.112  0.2293 -0.2230 -0.6101
 3429SOL    HW121749   0.258   0.286  11.181  1.9062 -1.8544  0.7432
 3429SOL    HW221750   0.276   0.270  11.035 -1.4025  0.6180 -0.6155
 3430SOL     OW21751   3.802   0.946   7.738 -0.1973  0.9814  0.8190
 3430SOL    HW121752   3.886   0.974   7.775  0.4212  0.9097 -0.5084
 3430SOL    HW221753   3.771   0.877   7.796  2.9415 -0.6009  0.6378
 3431SOL     OW21754   3.886   1.183   8.675 -0.2526 -0.3950 -0.1220
 3431SOL    HW121755   3.803   1.187   8.722  0.0979 -1.7634  0.5980
 3431SOL    HW221756   3.927   1.268   8.691 -0.2108 -0.5940  0.8463
 3432SOL     OW21757   4.297   3.873   9.792 -0.9179  0.3492  0.0725
 3432SOL    HW121758   4.322   3.951   9.743 -0.9698  0.8236  0.8043
 3432SOL    HW221759   4.356   3.895   9.864 -1.0150  1.1884 -0.1067
 3433SOL     OW21760   3.518   0.740   2.337 -0.2661 -0.4381  0.2909
 3433SOL    HW121761   3.534   0.682   2.413 -0.9359 -1.0940 -0.0686
 3433SOL    HW221762   3.426   0.714   2.329 -0.6300  0.7241  0.7386
 3434SOL     OW21763   0.896   3.807   2.039 -0.3379  0.2211  0.1856
 3434SOL    HW121764   0.825   3.810   2.102 -0.7841  0.5510 -0.3273
 3434SOL    HW221765   0.865   3.811   1.948  0.9473 -0.1996 -0.2840
 3435SOL     OW21766   4.354   3.190   5.195  0.1925 -0.5610  0.0893
 3435SOL    HW121767   4.289   3.209   5.127  1.6439 -1.2306 -1.5047
 3435SOL    HW221768   4.404   3.117   5.159 -2.7210 -1.4656 -2.0989
 3436SOL     OW21769   1.881   4.718   3.995  0.4795  1.2252 -0.0611
 3436SOL    HW121770   1.857   4.637   3.949  0.1100  0.6489  1.1544
 3436SOL    HW221771   1.976   4.718   3.983  0.1368 -0.3605 -2.9007
 3437SOL     OW21772   1.372   1.585   6.336  0.2282  0.1886 -0.3570
 3437SOL    HW121773   1.364   1.492   6.314  0.2771  0.9449 -3.6699
 3437SOL    HW221774   1.450   1.581   6.391  0.3096 -1.5999 -0.5913
 3438SOL     OW21775   2.180   1.193   7.619  0.0881  0.3039  0.1272
 3438SOL    HW121776   2.150   1.282   7.602 -0.7096  0.5311  2.7144
 3438SOL    HW221777   2.091   1.160   7.635  0.6405 -2.3545 -2.1550
 3439SOL     OW21778   2.708   2.886  12.359 -0.2161  0.1942  0.1304
 3439SOL    HW121779   2.762   2.873  12.282  1.9816  0.5836  1.6259
 3439SOL    HW221780   2.653   2.808  12.349  0.5179 -0.0977 -1.5822
 3440SOL     OW21781   2.900   1.833   7.906 -0.6108 -0.4114  0.0590
 3440SOL    HW121782   2.958   1.761   7.883 -1.0541 -0.7253 -0.0654
 3440SOL    HW221783   2.819   1.787   7.929 -1.4804  1.8014  1.4246
 3441SOL     OW21784   0.842   1.332   7.922 -0.5457  0.4757 -0.0537
 3441SOL    HW121785   0.936   1.335   7.904 -0.4061  3.0094  1.0466
 3441SOL    HW221786   0.837   1.290   8.008  2.4278  1.0932  0.4261
 3442SOL     OW21787   1.733   1.285  10.254 -0.0591  0.6407  0.6866
 3442SOL    HW121788   1.827   1.278  10.242 -0.2524  0.8424 -0.8844
 3442SOL    HW221789   1.716   1.200  10.294 -0.2654  0.0879 -0.5879
 3443SOL     OW21790   1.037   2.112   2.629 -0.4723 -0.4038 -0.6372
 3443SOL    HW121791   1.094   2.187   2.649 -0.4634 -0.2582 -1.2256
 3443SOL    HW221792   1.013   2.131   2.538  2.3643  2.3562 -0.8015
 3444SOL     OW21793   4.362   0.629   1.009 -0.0838 -0.1499  0.0599
 3444SOL    HW121794   4.400   0.557   0.960  0.4860  0.2765 -0.1241
 3444SOL    HW221795   4.346   0.588   1.094  2.7442 -0.9996  0.1633
 3445SOL     OW21796   1.766   3.593  10.154 -0.2355  0.4772 -0.3395
 3445SOL    HW121797   1.783   3.519  10.096  0.5051 -0.0773  0.5873
 3445SOL    HW221798   1.854   3.625  10.174 -0.0475  0.2346 -0.7876
 3446SOL     OW21799   3.164   0.984  14.497  0.1466  0.7300 -0.4539
 3446SOL    HW121800   3.166   1.079  14.484 -1.2723  1.1365  2.4280
 3446SOL    HW221801   3.108   0.945  14.430  0.5546 -0.3751 -0.1683
 3447SOL     OW21802   2.279   2.802   9.939  0.1576 -0.7491 -0.4913
 3447SOL    HW121803   2.302   2.712   9.960 -0.7571 -1.1811 -1.3007
 3447SOL    HW221804   2.183   2.804   9.931  0.1533  0.9617 -0.1959
 3448SOL     OW21805   2.575   1.223   5.137  0.1835 -0.1136  0.2511
 3448SOL    HW121806   2.506   1.205   5.201 -0.3549 -0.0067 -0.2980
 3448SOL    HW221807   2.605   1.313   5.151 -0.6873  0.4622 -1.5489
 3449SOL     OW21808   1.920   2.764   6.704  0.4091 -0.6051 -0.3986
 3449SOL    HW121809   1.930   2.830   6.773 -1.1054 -2.2242  1.3489
 3449SOL    HW221810   1.836   2.795   6.671  0.5111  1.4280  1.1914
 3450SOL     OW21811   4.332   2.393   7.090 -0.0591  0.0390 -0.0055
 3450SOL    HW121812   4.305   2.398   6.999 -0.6931 -0.8416  0.1387
 3450SOL    HW221813   4.362   2.482   7.108  0.7327 -0.4642  1.1843
 3451SOL     OW21814   1.125   1.037   8.171  0.0949 -0.7090 -0.0445
 3451SOL    HW121815   1.155   0.946   8.179 -0.8502 -0.8572  1.9558
 3451SOL    HW221816   1.207   1.086   8.167 -1.5405  2.0468  0.2959
 3452SOL     OW21817   0.435   2.085   5.722 -0.1526  0.0547  0.3166
 3452SOL    HW121818   0.447   2.179   5.727 -0.6163  0.0989  0.5313
 3452SOL    HW221819   0.478   2.057   5.803 -0.5800 -0.4955  0.3590
 3453SOL     OW21820   2.922   0.025   0.655  0.3789  0.7491 -0.4093
 3453SOL    HW121821   2.934   0.032   0.750  0.1000  0.8806 -0.3850
 3453SOL    HW221822   2.867   4.673   0.661  2.6791 -0.8732 -0.0601
 3454SOL     OW21823   2.786   4.687   8.520  0.3435  0.2640 -0.2757
 3454SOL    HW121824   2.767   4.605   8.566  1.2901  1.1494  1.7128
 3454SOL    HW221825   2.881   4.672   8.519 -0.0532 -2.2176  1.0754
 3455SOL     OW21826   2.587   1.787   2.872 -0.2209  0.1753  0.3060
 3455SOL    HW121827   2.634   1.704   2.874 -2.1924 -0.9047  1.2144
 3455SOL    HW221828   2.506   1.764   2.827  1.1334 -1.5713 -1.2424
 3456SOL     OW21829   1.496   0.185   4.649 -0.0578  0.4315 -0.7372
 3456SOL    HW121830   1.566   0.182   4.714  0.8340 -0.6909 -1.7521
 3456SOL    HW221831   1.445   0.254   4.691 -0.4073  1.0746 -2.2058
 3457SOL     OW21832   2.947   2.020  12.270 -0.0177  0.9381  0.1693
 3457SOL    HW121833   2.870   2.055  12.225  0.8418  0.5366 -1.5983
 3457SOL    HW221834   3.013   2.071  12.223 -3.5529  4.6825 -0.6912
 3458SOL     OW21835   3.904   4.486   7.281 -0.5008  0.4165 -0.0222
 3458SOL    HW121836   3.892   4.395   7.311  1.6211  0.5560  1.2790
 3458SOL    HW221837   3.816   4.519   7.265 -0.8224 -0.6054 -0.3832
 3459SOL     OW21838   4.521   3.890  12.541 -0.1747 -0.5316 -0.2322
 3459SOL    HW121839   4.522   3.959  12.474  2.5571 -0.8034 -0.4711
 3459SOL    HW221840   4.613   3.884  12.567 -0.3371 -0.9991  0.2223
 3460SOL     OW21841   2.840   4.283   8.148 -0.6642  0.2692 -0.2985
 3460SOL    HW121842   2.864   4.214   8.086  0.9323  1.1343 -0.6319
 3460SOL    HW221843   2.856   4.234   8.229  2.4077 -1.3235 -1.8573
 3461SOL     OW21844   2.143   4.581  11.480  0.6330  0.0443  0.4489
 3461SOL    HW121845   2.180   4.661  11.441  1.0703  0.8208  2.4695
 3461SOL    HW221846   2.160   4.510  11.418  0.6342 -1.0772  1.7308
 3462SOL     OW21847   1.574   4.018   5.696  0.0134 -0.8033  0.3694
 3462SOL    HW121848   1.563   4.079   5.769 -0.8073  0.4516 -0.7999
 3462SOL    HW221849   1.531   4.064   5.624  0.4331 -0.6550  0.2094
 3463SOL     OW21850   0.401   4.106   0.574 -0.0384  0.6017  0.7221
 3463SOL    HW121851   0.484   4.154   0.578  0.4673 -0.3026  1.1044
 3463SOL    HW221852   0.369   4.142   0.657  0.3835  3.3867 -0.3257
 3464SOL     OW21853   2.584   4.555   5.624 -0.5356  0.6614  0.0499
 3464SOL    HW121854   2.491   4.559   5.604 -0.9104 -0.4679  1.5958
 3464SOL    HW221855   2.573   4.482   5.685  0.1170  0.4479 -0.0900
 3465SOL     OW21856   1.722   1.855   8.295 -0.1573 -0.6661  0.0656
 3465SOL    HW121857   1.667   1.790   8.252 -0.4647 -0.2713 -0.1367
 3465SOL    HW221858   1.731   1.919   8.225 -0.1184 -0.6358  0.0988
 3466SOL     OW21859   0.884   1.855  13.359  0.3065 -0.1908 -0.1626
 3466SOL    HW121860   0.895   1.873  13.452  1.0690 -1.2631 -0.0524
 3466SOL    HW221861   0.956   1.794  13.344  1.8702  1.6285 -0.0805
 3467SOL     OW21862   0.456   3.011   3.824  0.3738  0.1489 -0.6373
 3467SOL    HW121863   0.522   3.045   3.885  1.2714 -0.9782 -0.9747
 3467SOL    HW221864   0.506   3.002   3.743 -0.9274 -0.1538 -1.4105
 3468SOL     OW21865   0.946   2.803   5.556  0.1641  0.2248  0.1136
 3468SOL    HW121866   0.970   2.834   5.643  1.3947 -0.9177  0.1726
 3468SOL    HW221867   0.960   2.708   5.559 -0.8233  0.1016  1.0521
 3469SOL     OW21868   1.715   3.929   3.340 -0.0444 -0.8052  0.3663
 3469SOL    HW121869   1.741   3.857   3.397  0.7108 -1.2155 -0.5017
 3469SOL    HW221870   1.724   3.887   3.254  3.1134 -0.7261  0.6581
 3470SOL     OW21871   0.614   1.146   1.272  0.2910  0.2972  0.6888
 3470SOL    HW121872   0.550   1.216   1.261 -1.3797 -1.2511  0.4496
 3470SOL    HW221873   0.579   1.060   1.249  0.2172  0.6001 -0.3286
 3471SOL     OW21874   3.550   2.116  12.245  0.4921 -0.2883 -0.2495
 3471SOL    HW121875   3.581   2.026  12.236  1.9403  0.2032 -0.1387
 3471SOL    HW221876   3.630   2.165  12.260 -0.6031  1.1453  0.8364
 3472SOL     OW21877   1.448   4.460  14.846 -0.0626 -0.0586  0.0734
 3472SOL    HW121878   1.405   4.540  14.878 -0.4807 -0.3674  0.2871
 3472SOL    HW221879   1.378   4.395  14.859 -2.9691  3.0659  0.1891
 3473SOL     OW21880   3.082   1.328   7.283  0.1414 -0.5784 -0.2439
 3473SOL    HW121881   3.107   1.273   7.209 -0.4653 -2.0457  0.6441
 3473SOL    HW221882   2.987   1.331   7.280  0.2302  1.5202 -0.8689
 3474SOL     OW21883   0.752   2.225   1.800 -0.1291  0.2578 -0.2965
 3474SOL    HW121884   0.810   2.162   1.843  0.5110  0.4722 -0.8393
 3474SOL    HW221885   0.762   2.310   1.844 -1.5489  0.9146 -1.2494
 3475SOL     OW21886   1.236   1.815   8.121 -0.2283 -0.1346 -0.0918
 3475SOL    HW121887   1.247   1.745   8.057 -1.4474 -2.0473  1.7637
 3475SOL    HW221888   1.149   1.807   8.161 -0.6051  0.2426 -0.8311
 3476SOL     OW21889   0.192   2.959   1.374  0.4301  0.3932  0.0673
 3476SOL    HW121890   0.164   2.925   1.289 -0.1062 -0.1661  0.4640
 3476SOL    HW221891   0.192   3.051   1.349  0.0861  0.0443 -1.2062
 3477SOL     OW21892   1.241   0.641   4.303 -0.0951  0.5177 -0.1902
 3477SOL    HW121893   1.269   0.583   4.232 -0.2009 -2.7602  2.4281
 3477SOL    HW221894   1.162   0.673   4.258  0.4416  0.3910 -1.2221
 3478SOL     OW21895   3.852   4.334   3.744  0.5342  0.3746  0.0363
 3478SOL    HW121896   3.838   4.337   3.839  1.6584  2.5049  0.1407
 3478SOL    HW221897   3.908   4.409   3.721 -0.0715  1.1331  1.0127
 3479SOL     OW21898   3.113   2.599  15.175 -0.0484 -0.0757  0.5718
 3479SOL    HW121899   3.051   2.638  15.113  2.1374  1.4419 -0.6584
 3479SOL    HW221900   3.075   2.625  15.259 -2.5019  1.5215 -0.9984
 3480SOL     OW21901   1.499   1.881   6.951  0.1382  0.3790  0.0864
 3480SOL    HW121902   1.434   1.842   6.893 -2.3284  1.3016  2.1940
 3480SOL    HW221903   1.445   1.951   6.987 -0.7185  0.7520 -1.9536
 3481SOL     OW21904   3.466   2.851   8.281 -0.4389  0.1390  0.4563
 3481SOL    HW121905   3.510   2.798   8.347 -0.3463  0.8423  0.9544
 3481SOL    HW221906   3.535   2.887   8.224  0.2897 -2.9811 -0.6624
 3482SOL     OW21907   0.419   3.420   1.468  0.6165  0.0281 -0.4306
 3482SOL    HW121908   0.500   3.387   1.428  0.1869  1.1408 -2.2543
 3482SOL    HW221909   0.431   3.417   1.563 -2.1526  2.0566 -0.0066
 3483SOL     OW21910   2.107   0.487   6.047  0.3137 -0.3402 -0.4488
 3483SOL    HW121911   2.035   0.425   6.039 -0.8838  0.9026  0.7739
 3483SOL    HW221912   2.143   0.442   6.124  1.4685  0.5855 -0.4357
 3484SOL     OW21913   2.898   0.542   8.658  0.1558  0.3575  0.2292
 3484SOL    HW121914   2.931   0.584   8.737  1.3291 -1.2059  0.5761
 3484SOL    HW221915   2.980   0.505   8.627 -0.3872 -0.3625 -0.3539
 3485SOL     OW21916   2.197   2.228   2.832  0.5381  0.4538  0.5711
 3485SOL    HW121917   2.124   2.239   2.772 -1.0040 -1.4633  2.0802
 3485SOL    HW221918   2.251   2.165   2.785 -0.7937 -0.7810  0.6853
 3486SOL     OW21919   0.323   1.055   1.715  0.1585  0.4583 -0.2982
 3486SOL    HW121920   0.251   0.996   1.738  0.5014  0.0199 -0.3518
 3486SOL    HW221921   0.332   1.111   1.792 -2.4936 -0.6917  0.8270
 3487SOL     OW21922   3.312   3.321   5.903 -0.1103  0.7185  0.2620
 3487SOL    HW121923   3.300   3.335   5.809  4.3536  1.2828 -0.2316
 3487SOL    HW221924   3.319   3.415   5.919  2.7885  0.6467 -0.4582
 3488SOL     OW21925   1.344   1.941   1.917  0.5621 -0.0267  0.0363
 3488SOL    HW121926   1.321   1.934   2.010 -0.0381  0.1471 -0.1008
 3488SOL    HW221927   1.411   1.874   1.903  0.7734  0.0806  0.5271
 3489SOL     OW21928   4.288   3.285   8.433 -0.0130 -0.2536  0.2190
 3489SOL    HW121929   4.264   3.270   8.524 -0.0258  2.1635  0.6097
 3489SOL    HW221930   4.299   3.380   8.435 -1.8491 -0.0698  1.9283
 3490SOL     OW21931   4.032   0.590   8.450  0.1630 -0.4096 -0.1097
 3490SOL    HW121932   4.083   0.597   8.369 -1.1931  2.5450 -0.6818
 3490SOL    HW221933   3.982   0.671   8.452 -1.7014 -1.5274 -1.7210
 3491SOL     OW21934   1.011   3.691   8.417 -0.0605 -0.1740 -0.7682
 3491SOL    HW121935   1.028   3.598   8.405 -0.5908 -0.1335 -1.7915
 3491SOL    HW221936   0.916   3.693   8.419  0.0473  2.8121  1.9187
 3492SOL     OW21937   2.206   1.257   7.104 -0.1261  0.2026  0.1226
 3492SOL    HW121938   2.282   1.269   7.047 -0.9149  1.9806 -0.5664
 3492SOL    HW221939   2.232   1.176   7.146  1.0651  0.8758  0.6818
 3493SOL     OW21940   3.846   2.497   2.696 -0.3735  0.2810 -0.2470
 3493SOL    HW121941   3.879   2.408   2.709  0.6922  0.4456 -1.7994
 3493SOL    HW221942   3.764   2.504   2.744 -1.1614 -1.3994 -1.3712
 3494SOL     OW21943   1.006   3.009  14.059  0.2915  0.3123  0.0695
 3494SOL    HW121944   1.004   2.953  14.136 -0.6601 -1.3178 -1.1547
 3494SOL    HW221945   1.097   3.004  14.032 -0.6440  1.3224 -3.2823
 3495SOL     OW21946   0.081   1.950  17.304 -0.3263  0.1167  0.0474
 3495SOL    HW121947   0.070   2.033  17.258 -2.1727  0.0085  0.3094
 3495SOL    HW221948   0.175   1.936  17.313 -0.7127 -2.5722  0.0059
 3496SOL     OW21949   4.583   3.592   3.154 -0.5082 -0.0578 -0.2789
 3496SOL    HW121950   4.523   3.634   3.093 -0.9279 -1.6831 -0.9872
 3496SOL    HW221951   4.554   3.501   3.157 -1.7283  0.3101 -1.1501
 3497SOL     OW21952   2.826   2.900  12.816 -0.3827  0.0924 -0.1261
 3497SOL    HW121953   2.831   2.878  12.722  5.1057 -0.5311  0.2988
 3497SOL    HW221954   2.746   2.862  12.851  0.9070 -2.3839  0.2216
 3498SOL     OW21955   0.096   2.483   8.107  0.2733  0.0558  0.0357
 3498SOL    HW121956   0.066   2.509   8.020  1.0390 -1.8692 -0.7984
 3498SOL    HW221957   0.168   2.427   8.078 -0.6954 -1.0488 -0.2493
 3499SOL     OW21958   2.035   2.678  16.667 -0.0601 -0.5590  0.5585
 3499SOL    HW121959   1.990   2.650  16.747 -1.3799  1.3300  0.4755
 3499SOL    HW221960   1.987   2.644  16.592  0.0487  0.8526 -0.1424
 3500SOL     OW21961   2.482   4.198  12.127  0.3003 -0.3354  0.1008
 3500SOL    HW121962   2.421   4.252  12.178  0.4454  2.0604 -2.2727
 3500SOL    HW221963   2.479   4.246  12.044  2.1757  1.6344  1.1835
 3501SOL     OW21964   2.727   0.584   6.622 -0.1488 -0.4454  0.2670
 3501SOL    HW121965   2.661   0.651   6.604  0.1701 -0.3192 -0.4220
 3501SOL    HW221966   2.694   0.534   6.697  0.2519 -0.1726  0.6270
 3502SOL     OW21967   1.618   4.653   6.870 -0.4554 -0.2860 -0.1959
 3502SOL    HW121968   1.566   4.690   6.942 -1.4379  1.7535 -1.9712
 3502SOL    HW221969   1.642   0.008   6.824 -0.2183  0.0908  0.5719
 3503SOL     OW21970   1.639   4.120  17.011  0.0043  0.3051  0.1516
 3503SOL    HW121971   1.637   4.093  16.920  0.8452  1.3871 -0.1859
 3503SOL    HW221972   1.642   4.215  17.000  0.1399  0.3547  0.5866
 3504SOL     OW21973   4.659   4.163   7.632 -0.2749  0.2838  0.5305
 3504SOL    HW121974   4.600   4.227   7.671 -1.3542 -0.0247 -0.5947
 3504SOL    HW221975   4.620   4.080   7.658  0.1665 -1.2421 -3.6435
 3505SOL     OW21976   0.218   0.447   2.520 -0.2851 -0.3950  0.5456
 3505SOL    HW121977   0.141   0.410   2.477  0.4375 -1.5661  0.2346
 3505SOL    HW221978   0.223   0.537   2.488 -2.7027 -0.0984  1.0685
 3506SOL     OW21979   2.450   1.346   3.931 -0.1183 -0.4774  0.5405
 3506SOL    HW121980   2.423   1.348   4.023 -0.8426  0.9386  0.2985
 3506SOL    HW221981   2.454   1.432   3.891 -1.0023 -0.0937  1.2814
 3507SOL     OW21982   1.539   2.706   7.466 -0.1250  0.3761  0.0296
 3507SOL    HW121983   1.563   2.762   7.541 -0.4349 -0.6076  0.8648
 3507SOL    HW221984   1.576   2.620   7.484  1.2435  0.5419 -2.0479
 3508SOL     OW21985   4.413   3.061   6.455 -0.6855  0.1359  0.5251
 3508SOL    HW121986   4.465   3.097   6.383 -0.8009  0.2106  0.4789
 3508SOL    HW221987   4.340   3.025   6.405 -0.8754  1.0276  0.1661
 3509SOL     OW21988   2.531   0.497  17.196 -0.1954 -0.0800 -0.8610
 3509SOL    HW121989   2.452   0.542  17.166  0.7016  1.1174 -1.4394
 3509SOL    HW221990   2.499   0.414  17.230  0.1501  0.4769  0.8251
 3510SOL     OW21991   1.980   4.086   3.924 -0.3917 -0.5074  0.3416
 3510SOL    HW121992   2.009   3.994   3.919  0.0421 -0.4346  1.4955
 3510SOL    HW221993   2.060   4.134   3.902 -1.4783  0.6708 -1.0099
 3511SOL     OW21994   1.733   1.103  11.737  0.4799 -0.3823 -0.2535
 3511SOL    HW121995   1.653   1.151  11.757  1.0104 -0.4275  2.0161
 3511SOL    HW221996   1.774   1.103  11.824  1.2726 -1.5623 -0.6206
 3512SOL     OW21997   4.054   4.626   1.780  0.0160  0.2365  0.2209
 3512SOL    HW121998   4.004   4.549   1.753 -0.3827  1.0124 -1.2322
 3512SOL    HW221999   4.016   4.644   1.866  1.3647  2.5755  0.3308
 3513SOL     OW22000   1.874   3.773   4.807  0.1836  0.1233 -0.0554
 3513SOL    HW122001   1.789   3.756   4.767  0.0760  0.5944 -0.0364
 3513SOL    HW222002   1.883   3.869   4.805  0.9817  0.0199 -1.2876
 3514SOL     OW22003   4.123   2.215   1.379 -0.3046 -0.3118 -0.1535
 3514SOL    HW122004   4.108   2.147   1.445  0.3057 -1.3290 -1.0532
 3514SOL    HW222005   4.062   2.182   1.312  0.9038 -0.0760 -1.3819
 3515SOL     OW22006   3.194   0.581   0.492 -0.0632  0.1177 -0.7375
 3515SOL    HW122007   3.216   0.584   0.399 -3.5889  2.0485 -1.5098
 3515SOL    HW222008   3.183   0.487   0.501  0.0488  0.0506 -1.3197
 3516SOL     OW22009   3.034   3.490   4.361 -0.4761 -0.4194  0.1371
 3516SOL    HW122010   2.997   3.483   4.273  0.0798  3.3722 -0.3850
 3516SOL    HW222011   3.121   3.455   4.343  0.2134  2.1334 -1.3147
 3517SOL     OW22012   2.696   0.559   9.417  0.4779  0.0947 -0.6350
 3517SOL    HW122013   2.642   0.480   9.421  1.6975 -0.8148 -1.9098
 3517SOL    HW222014   2.756   0.542   9.490 -1.0457 -0.7346  0.4157
 3518SOL     OW22015   3.812   2.232   3.539 -0.3896  0.4914 -0.3698
 3518SOL    HW122016   3.864   2.225   3.459 -2.1559  1.8996 -1.6401
 3518SOL    HW222017   3.859   2.309   3.572 -0.3791  0.5448 -0.5090
 3519SOL     OW22018   1.162   0.172  13.736 -0.5838  0.2343 -0.6735
 3519SOL    HW122019   1.197   0.105  13.794 -1.5927  0.8548  0.6656
 3519SOL    HW222020   1.216   0.168  13.657 -1.7507  1.6019 -1.5512
 3520SOL     OW22021   3.022   0.428  13.014 -0.1944  0.0779 -0.4770
 3520SOL    HW122022   2.973   0.367  13.068  1.5990 -3.3340 -2.6608
 3520SOL    HW222023   3.034   0.505  13.070 -1.5251 -0.0317 -0.0496
 3521SOL     OW22024   4.229   3.097   6.235  0.2585  0.2583 -0.0726
 3521SOL    HW122025   4.267   3.181   6.210  0.1303  0.1625 -0.5859
 3521SOL    HW222026   4.230   3.046   6.154 -1.3031 -1.1335  0.7976
 3522SOL     OW22027   3.593   4.285  12.502  0.0159 -0.4702 -0.6364
 3522SOL    HW122028   3.669   4.274  12.444  0.7835  1.6109 -0.0321
 3522SOL    HW222029   3.622   4.211  12.554  1.4545  0.2262 -0.4353
 3523SOL     OW22030   3.267   4.008   9.602 -0.3082  0.0968  0.1941
 3523SOL    HW122031   3.361   3.999   9.616 -0.2217 -0.9754 -1.1396
 3523SOL    HW222032   3.234   3.994   9.690  0.7330 -1.0976  0.3867
 3524SOL     OW22033   3.096   1.850   5.765  0.0617  0.1500  0.2098
 3524SOL    HW122034   3.189   1.829   5.762 -0.1209 -0.6405  0.0639
 3524SOL    HW222035   3.100   1.938   5.728  1.9450 -0.2635 -0.5702
 3525SOL     OW22036   3.756   3.142   4.464  0.0871 -0.0463 -0.0576
 3525SOL    HW122037   3.770   3.087   4.387  0.4494  1.1735 -0.8689
 3525SOL    HW222038   3.811   3.216   4.437  0.3964 -0.5141 -0.7275
 3526SOL     OW22039   0.430   2.586   5.385 -0.2960  0.3080  0.6284
 3526SOL    HW122040   0.362   2.535   5.429  0.5610  0.7970  2.5380
 3526SOL    HW222041   0.491   2.603   5.457 -2.0429  1.1437  1.9032
 3527SOL     OW22042   4.707   3.865  13.165  0.0318 -0.0201 -0.1314
 3527SOL    HW122043   4.623   3.866  13.210  0.9252  0.0744  1.5321
 3527SOL    HW222044   0.024   3.795  13.215 -1.0227 -1.0601 -0.7079
 3528SOL     OW22045   4.565   3.830   0.986  0.5207  0.3543 -0.8292
 3528SOL    HW122046   4.488   3.879   1.014 -0.5326 -1.7716 -0.0528
 3528SOL    HW222047   4.629   3.879   1.038 -1.3059 -2.9551  4.5547
 3529SOL     OW22048   4.336   2.718   7.983 -0.2209 -0.0460 -0.5963
 3529SOL    HW122049   4.258   2.713   7.927 -1.1571 -0.1193  0.7302
 3529SOL    HW222050   4.365   2.627   7.981  0.3712  0.0640  3.1994
 3530SOL     OW22051   2.762   1.020   1.645 -0.2088  0.1143 -0.3063
 3530SOL    HW122052   2.820   1.071   1.702 -2.9320  0.0154  2.5329
 3530SOL    HW222053   2.680   1.065   1.663 -0.0404 -0.1838  1.2425
 3531SOL     OW22054   3.237   3.720   2.833 -0.1795  0.3482  0.3167
 3531SOL    HW122055   3.297   3.765   2.773 -0.9344  1.6703  0.5496
 3531SOL    HW222056   3.180   3.797   2.842  0.1887  0.4954  1.3848
 3532SOL     OW22057   4.123   0.610  16.361  0.2961  0.2179 -0.7390
 3532SOL    HW122058   4.192   0.544  16.373 -1.7921 -1.8031  0.0879
 3532SOL    HW222059   4.072   0.560  16.297 -0.5213  1.0349 -0.7130
 3533SOL     OW22060   1.031   3.064   5.309  0.3553  0.2978 -0.0781
 3533SOL    HW122061   0.988   3.090   5.228 -0.5149 -1.3864 -0.1546
 3533SOL    HW222062   1.013   3.139   5.366  0.3832  1.8851 -2.1458
 3534SOL     OW22063   3.967   2.803   6.413  0.0491  0.5673  0.3637
 3534SOL    HW122064   3.932   2.771   6.496 -0.2555 -2.9472 -1.1218
 3534SOL    HW222065   4.027   2.734   6.386 -2.7460 -1.1186 -1.5411
 3535SOL     OW22066   1.225   0.565   2.261 -0.1994  0.5968  0.4680
 3535SOL    HW122067   1.318   0.577   2.246 -1.1865  3.6422 -3.0713
 3535SOL    HW222068   1.202   0.542   2.171 -1.4667  0.5623  0.8000
 3536SOL     OW22069   2.129   3.402   8.393 -0.3656 -0.3331 -0.1855
 3536SOL    HW122070   2.058   3.347   8.426 -1.4705 -0.9236 -3.5444
 3536SOL    HW222071   2.086   3.487   8.384 -3.2411 -1.7820 -0.0063
 3537SOL     OW22072   4.085   3.040   6.462 -0.1909 -0.0381  0.4141
 3537SOL    HW122073   4.035   2.958   6.456  2.3859 -1.7559  2.1716
 3537SOL    HW222074   4.121   3.042   6.374  0.2210  0.6504  0.5992
 3538SOL     OW22075   1.632   0.214   0.557  0.5589 -0.4779 -0.1546
 3538SOL    HW122076   1.702   0.216   0.623 -0.6126  2.6212  1.0112
 3538SOL    HW222077   1.674   0.272   0.493  0.3271 -1.5462 -1.2580
 3539SOL     OW22078   1.472   3.924  10.014  0.5531 -0.1803 -0.3886
 3539SOL    HW122079   1.458   3.977  10.092  0.8743 -1.3245  0.4450
 3539SOL    HW222080   1.393   3.946   9.965  0.6464 -0.2100 -0.5513
 3540SOL     OW22081   0.719   3.605   2.612 -0.5416 -0.0608  0.6088
 3540SOL    HW122082   0.770   3.678   2.577 -1.9202  0.5228 -0.1806
 3540SOL    HW222083   0.652   3.588   2.545  0.5240  2.6192 -1.1230
 3541SOL     OW22084   0.628   3.227   7.331  0.1633 -0.1325  0.1024
 3541SOL    HW122085   0.534   3.237   7.347 -0.0289  0.9793 -1.7575
 3541SOL    HW222086   0.662   3.252   7.416 -0.3125  2.1823 -0.3983
 3542SOL     OW22087   3.153   4.322   2.687 -0.2871  0.5985  0.1513
 3542SOL    HW122088   3.219   4.313   2.618 -0.1949  1.3779  0.1388
 3542SOL    HW222089   3.211   4.318   2.763 -0.8184 -1.3946  0.4613
 3543SOL     OW22090   0.405   4.499  12.991  0.6725 -0.8664  0.1346
 3543SOL    HW122091   0.446   4.577  13.027 -0.2145  0.1439 -1.0452
 3543SOL    HW222092   0.459   4.432  13.032  0.7913  0.2753  1.8320
 3544SOL     OW22093   3.696   3.503  10.054  0.6547  0.1700 -0.2132
 3544SOL    HW122094   3.726   3.412  10.053 -0.9043 -0.3203 -1.9233
 3544SOL    HW222095   3.611   3.493  10.097  0.3567 -0.0206 -0.8453
 3545SOL     OW22096   2.566   4.601   5.272  0.9865  0.2104 -0.3848
 3545SOL    HW122097   2.503   4.661   5.233 -1.6720 -1.8235  0.8064
 3545SOL    HW222098   2.651   4.633   5.242  2.2501 -1.9601  0.8968
 3546SOL     OW22099   0.307   1.855   3.290  0.2735  0.8689 -0.2165
 3546SOL    HW122100   0.304   1.928   3.351  2.1871  0.1785  0.7399
 3546SOL    HW222101   0.254   1.793   3.341 -1.1418  0.2096 -2.5120
 3547SOL     OW22102   3.835   1.219   2.007  0.2015  0.3591  0.8698
 3547SOL    HW122103   3.758   1.274   2.022  0.0282  0.2615  0.3436
 3547SOL    HW222104   3.804   1.171   1.930  0.1299 -0.9044  1.6741
 3548SOL     OW22105   2.512   2.059   8.758  0.6278 -0.4159  0.0518
 3548SOL    HW122106   2.592   2.105   8.731  0.0079  1.3802  1.2682
 3548SOL    HW222107   2.550   1.973   8.774  1.2941 -0.5994 -2.4449
 3549SOL     OW22108   0.952   0.353   7.385  0.0727  0.2814  0.9688
 3549SOL    HW122109   0.900   0.291   7.435 -1.1158  0.1786 -0.3952
 3549SOL    HW222110   0.923   0.431   7.431 -0.3524 -1.0712  2.9998
 3550SOL     OW22111   4.285   0.818   4.230  0.5443 -0.4296  0.2012
 3550SOL    HW122112   4.206   0.848   4.186  1.7531 -1.1248 -2.4750
 3550SOL    HW222113   4.244   0.757   4.291 -1.3202  0.1504 -0.4693
 3551SOL     OW22114   2.354   1.314  16.985  0.5414 -0.0324  0.4028
 3551SOL    HW122115   2.348   1.268  17.069 -0.9775 -0.0930  0.2729
 3551SOL    HW222116   2.383   1.256  16.914 -1.3101 -2.7656  1.8473
 3552SOL     OW22117   3.999   3.320   7.645  0.4352  0.3733 -0.3796
 3552SOL    HW122118   3.938   3.368   7.590 -0.0340  0.2180  0.0072
 3552SOL    HW222119   3.957   3.236   7.666 -1.7815  1.3655 -0.9178
 3553SOL     OW22120   1.430   3.928   3.735 -0.2095 -0.0325  0.3654
 3553SOL    HW122121   1.424   3.913   3.641 -0.3463 -1.9364  0.6653
 3553SOL    HW222122   1.524   3.928   3.748 -0.0096 -0.1598 -1.0807
 3554SOL     OW22123   0.521   0.035  13.888 -0.6224 -0.3857 -0.3187
 3554SOL    HW122124   0.461   0.101  13.856 -1.5498 -0.5431  1.0822
 3554SOL    HW222125   0.466   4.682  13.876 -0.5618 -0.5572  0.4522
 3555SOL     OW22126   4.580   2.793  10.176  0.0349 -0.0625  0.0143
 3555SOL    HW122127   4.624   2.858  10.231  1.6043 -0.0671 -1.2559
 3555SOL    HW222128   4.487   2.811  10.191 -0.4730 -1.6170 -1.2266
 3556SOL     OW22129   4.502   0.395   7.604  0.5000  0.2915 -0.0823
 3556SOL    HW122130   4.488   0.440   7.521 -2.6489  0.5367  0.5831
 3556SOL    HW222131   4.428   0.334   7.606 -0.2744  1.2006 -1.3521
 3557SOL     OW22132   3.191   1.316   9.030 -0.0801 -0.4271 -0.6573
 3557SOL    HW122133   3.196   1.411   9.030  0.0932 -0.4431 -2.6743
 3557SOL    HW222134   3.209   1.295   8.939  0.8201 -0.0040 -0.5771
 3558SOL     OW22135   4.596   3.875   6.761  0.2936 -0.4559 -0.7105
 3558SOL    HW122136   4.528   3.808   6.769  0.5990 -0.6714  0.1143
 3558SOL    HW222137   4.641   3.862   6.844  2.0516 -0.9184 -1.7320
 3559SOL     OW22138   1.966   2.434   4.106 -0.0119  0.2888  0.1347
 3559SOL    HW122139   1.888   2.395   4.146  0.5346 -1.7434 -0.8033
 3559SOL    HW222140   2.013   2.459   4.186  0.3003 -0.9650  0.3505
 3560SOL     OW22141   2.475   4.012   0.325  0.7585 -0.1685 -0.2335
 3560SOL    HW122142   2.561   3.998   0.363 -0.3203 -0.9363  1.9219
 3560SOL    HW222143   2.439   4.049   0.405  0.3467  0.8116 -0.8688
 3561SOL     OW22144   3.729   4.100   1.902  0.1448 -0.0775 -0.4122
 3561SOL    HW122145   3.680   4.175   1.936 -0.2370  1.5125 -4.4094
 3561SOL    HW222146   3.743   4.128   1.811 -1.1169  1.2801 -0.1994
 3562SOL     OW22147   2.010   1.999   7.459  0.3357  0.2906 -0.3909
 3562SOL    HW122148   2.068   1.990   7.534  0.0009  0.1341 -0.1524
 3562SOL    HW222149   1.928   2.023   7.501  1.5198  2.7458  0.5479
 3563SOL     OW22150   2.574   3.051   4.023 -0.4570  0.0862  0.1587
 3563SOL    HW122151   2.650   3.103   3.994  1.6690 -3.3053 -0.3717
 3563SOL    HW222152   2.601   2.961   4.004  1.6426  0.8689 -0.5831
 3564SOL     OW22153   1.784   0.992  10.458 -0.2069  0.0313  0.1477
 3564SOL    HW122154   1.855   0.931  10.436 -0.4665 -0.2636  0.1149
 3564SOL    HW222155   1.790   1.000  10.553  0.7424 -0.0703  0.0918
 3565SOL     OW22156   0.558   1.357   1.601 -0.8793 -0.2205 -0.0341
 3565SOL    HW122157   0.619   1.284   1.591  1.0921  1.1435  2.0893
 3565SOL    HW222158   0.615   1.419   1.646 -1.0200 -2.5762  3.3660
 3566SOL     OW22159   1.924   0.558   0.181 -0.0047  0.4148 -0.0063
 3566SOL    HW122160   1.990   0.517   0.125 -0.5926 -1.0345  0.3575
 3566SOL    HW222161   1.855   0.566   0.115 -0.1676 -0.4696  0.0651
 3567SOL     OW22162   0.516   2.234   2.497 -0.1507 -0.3625 -0.4541
 3567SOL    HW122163   0.513   2.185   2.415  1.2149 -0.8159 -0.2359
 3567SOL    HW222164   0.438   2.289   2.488  0.3391  0.0642 -2.1235
 3568SOL     OW22165   1.324   1.491  12.622 -0.0045 -0.0075  0.0742
 3568SOL    HW122166   1.336   1.408  12.669  1.2721 -0.8505 -1.7128
 3568SOL    HW222167   1.407   1.491  12.574 -0.5540 -1.8025 -0.9087
 3569SOL     OW22168   0.765   1.411   2.141 -0.1211  0.1632 -0.3182
 3569SOL    HW122169   0.779   1.317   2.156  0.2016  0.3650  0.6185
 3569SOL    HW222170   0.680   1.434   2.180  0.1910  0.4469  0.1904
 3570SOL     OW22171   4.163   3.144   4.422  0.2417  0.3038  0.1690
 3570SOL    HW122172   4.109   3.182   4.492 -0.2888  0.7919 -0.5067
 3570SOL    HW222173   4.119   3.186   4.348  0.7147 -0.7984 -0.7445
 3571SOL     OW22174   1.399   2.333   4.799  0.3418 -0.1570  0.3378
 3571SOL    HW122175   1.413   2.350   4.706  2.3902 -0.3284  0.6204
 3571SOL    HW222176   1.348   2.253   4.791 -2.5148  1.7138 -0.3561
 3572SOL     OW22177   1.049   2.948  12.697 -0.4261 -0.3262  0.1490
 3572SOL    HW122178   1.117   2.906  12.749  0.7618  0.1273 -1.0296
 3572SOL    HW222179   1.029   3.022  12.754 -1.0062  0.7273 -1.4282
 3573SOL     OW22180   4.560   1.575   7.495 -0.3497 -0.1417 -0.2274
 3573SOL    HW122181   4.473   1.557   7.458 -0.4074  0.7334 -0.5085
 3573SOL    HW222182   4.551   1.550   7.587  1.8746  1.2192  0.3315
 3574SOL     OW22183   2.262   3.426   5.881 -0.3033 -0.2470  0.4857
 3574SOL    HW122184   2.345   3.474   5.880 -0.3090 -0.2359  0.5240
 3574SOL    HW222185   2.202   3.501   5.876  1.0103  0.5874 -2.2317
 3575SOL     OW22186   3.097   4.092   8.433  0.1645  0.2960 -0.3188
 3575SOL    HW122187   3.126   4.173   8.477 -0.6234 -0.7117  2.0426
 3575SOL    HW222188   3.112   4.030   8.504 -1.1949  0.9207  0.4960
 3576SOL     OW22189   1.101   3.901   6.636  0.6431 -0.8839  0.6224
 3576SOL    HW122190   1.057   3.818   6.620  0.0461 -0.3725 -0.4359
 3576SOL    HW222191   1.028   3.956   6.664  0.9649  0.9515 -2.1254
 3577SOL     OW22192   0.526   4.464   4.144  0.0007 -0.3893  0.0420
 3577SOL    HW122193   0.489   4.404   4.210 -0.7943  1.3407  1.1565
 3577SOL    HW222194   0.577   4.524   4.197 -1.7417  1.7874 -0.7547
 3578SOL     OW22195   3.358   2.233   9.368 -0.0637 -0.2101 -0.3007
 3578SOL    HW122196   3.269   2.254   9.339  0.0421  2.7367  1.5564
 3578SOL    HW222197   3.388   2.198   9.284 -0.4339  0.3465 -0.6611
 3579SOL     OW22198   4.725   3.199   3.506  1.1721  0.0456 -0.5254
 3579SOL    HW122199   4.715   3.235   3.595  0.3870  3.4462 -2.0139
 3579SOL    HW222200   0.069   3.137   3.530  0.4902 -0.2605  0.6865
 3580SOL     OW22201   2.394   3.278   7.485 -0.0682  0.0063  0.1673
 3580SOL    HW122202   2.405   3.363   7.441  0.8450 -0.2922 -0.1712
 3580SOL    HW222203   2.301   3.258   7.473  1.0298 -3.3492 -2.4902
 3581SOL     OW22204   2.063   4.548  13.105 -0.1063  0.0822 -0.5658
 3581SOL    HW122205   2.115   4.533  13.026 -0.6018  0.5213 -0.9804
 3581SOL    HW222206   2.055   4.644  13.101 -0.3752  0.0158 -1.5162
 3582SOL     OW22207   1.118   4.571   9.593 -0.3621  0.1187  0.3145
 3582SOL    HW122208   1.047   4.618   9.549 -0.3606 -1.1519 -1.0224
 3582SOL    HW222209   1.089   4.480   9.595 -0.7496  0.2204 -0.9653
 3583SOL     OW22210   3.158   2.515   6.697  0.5321 -0.0225  0.0558
 3583SOL    HW122211   3.127   2.440   6.647  0.6677  0.9910 -1.5454
 3583SOL    HW222212   3.080   2.509   6.754  0.1834 -0.5622 -0.4839
 3584SOL     OW22213   3.905   3.448   8.693 -0.1550 -0.5594 -0.0225
 3584SOL    HW122214   3.851   3.472   8.618  0.5523 -2.7382 -1.2431
 3584SOL    HW222215   3.852   3.385   8.743 -2.0938 -0.1075 -1.5119
 3585SOL     OW22216   0.457   4.309   3.673 -0.0298  0.6457  0.4645
 3585SOL    HW122217   0.370   4.329   3.640 -1.2257 -2.6297  1.6118
 3585SOL    HW222218   0.447   4.328   3.766  0.2177 -0.8222  0.7989
 3586SOL     OW22219   2.482   2.263   2.725 -0.3607  0.2978  0.6557
 3586SOL    HW122220   2.553   2.318   2.691 -1.6872  1.7672  0.2928
 3586SOL    HW222221   2.419   2.330   2.749  0.0186  1.2068 -0.9087
 3587SOL     OW22222   1.363   4.467   0.678 -0.1356  0.5578  0.1752
 3587SOL    HW122223   1.435   4.526   0.654 -0.0056  1.0897  1.9002
 3587SOL    HW222224   1.400   4.379   0.672 -0.3716  0.3928  1.0945
 3588SOL     OW22225   2.842   3.152   3.040 -0.1129  0.1022 -0.6126
 3588SOL    HW122226   2.787   3.134   2.964 -1.5009  3.6206 -0.4641
 3588SOL    HW222227   2.795   3.233   3.061  1.2177  1.4265 -2.7760
 3589SOL     OW22228   1.547   3.941   6.331 -0.1365 -0.0814 -0.6702
 3589SOL    HW122229   1.473   3.919   6.388  1.2604 -1.7226  0.5242
 3589SOL    HW222230   1.616   3.975   6.388 -1.1516 -0.4383  0.7623
 3590SOL     OW22231   1.434   2.913   3.594  0.1385 -0.0011  0.2065
 3590SOL    HW122232   1.342   2.891   3.606 -0.5300  3.9039  2.4357
 3590SOL    HW222233   1.462   2.843   3.536 -0.6496  0.7945 -1.1175
 3591SOL     OW22234   2.696   0.932   3.013  0.1713 -0.1545 -0.3004
 3591SOL    HW122235   2.676   0.951   3.105 -0.3349 -0.1133 -0.4158
 3591SOL    HW222236   2.788   0.914   3.028 -0.3603 -1.9513  0.7663
 3592SOL     OW22237   3.990   1.654  13.954 -0.3850 -0.3366  0.6092
 3592SOL    HW122238   3.944   1.665  13.871  0.2749 -0.3934  0.2322
 3592SOL    HW222239   3.978   1.745  13.982 -0.7574  0.2726 -1.4642
 3593SOL     OW22240   1.906   2.538   7.810  0.4477 -0.3330  0.1506
 3593SOL    HW122241   1.907   2.628   7.844 -0.3491 -0.5035  0.6162
 3593SOL    HW222242   1.997   2.533   7.779  0.4871 -2.5964  0.6449
 3594SOL     OW22243   0.682   2.621  15.859  0.1817  0.6232  0.1290
 3594SOL    HW122244   0.710   2.557  15.794  0.0961  0.3570  0.3513
 3594SOL    HW222245   0.722   2.573  15.932 -3.5361 -0.5637  1.4070
 3595SOL     OW22246   2.293   1.165  16.684 -0.2206 -0.1392  0.0020
 3595SOL    HW122247   2.332   1.120  16.759 -1.1825 -1.3599 -0.2264
 3595SOL    HW222248   2.257   1.084  16.648 -0.2870 -1.6714  3.5455
 3596SOL     OW22249   2.129   2.668   1.048 -0.0567 -0.1580  0.1090
 3596SOL    HW122250   2.039   2.675   1.016 -0.1500  2.0640  0.8668
 3596SOL    HW222251   2.177   2.630   0.974  0.5346  0.8019 -0.0042
 3597SOL     OW22252   1.495   4.246  14.071 -0.2056  0.2894 -0.6761
 3597SOL    HW122253   1.557   4.218  14.138  0.2903  3.1910  0.0972
 3597SOL    HW222254   1.422   4.184  14.074  1.0512 -1.1555 -0.2102
 3598SOL     OW22255   3.185   1.175   5.298 -0.3261 -0.5872  0.1685
 3598SOL    HW122256   3.142   1.089   5.297 -3.9489  1.2280  0.4498
 3598SOL    HW222257   3.274   1.140   5.294 -0.6928 -1.2728 -1.9966
 3599SOL     OW22258   3.201   0.805   6.045 -0.3296 -0.1262 -0.4224
 3599SOL    HW122259   3.255   0.882   6.062  0.5195 -1.4089  2.7350
 3599SOL    HW222260   3.267   0.738   6.062 -2.0115 -1.2897  1.6255
 3600SOL     OW22261   2.215   0.589   6.716  0.1737 -0.5197  0.5844
 3600SOL    HW122262   2.289   0.532   6.737  1.1224  0.8703  1.0053
 3600SOL    HW222263   2.258   0.652   6.658 -1.2891 -1.2659 -1.3552
 3601SOL     OW22264   3.978   2.058  11.791 -0.4691  0.5085 -0.0914
 3601SOL    HW122265   3.969   1.981  11.735  1.7840  0.0867  0.1345
 3601SOL    HW222266   3.892   2.064  11.833 -0.4814 -0.3939  0.0068
 3602SOL     OW22267   4.443   3.005   3.383  0.5773  0.1689 -0.0367
 3602SOL    HW122268   4.456   2.949   3.460  1.7802  1.4182  0.6963
 3602SOL    HW222269   4.531   3.043   3.371  0.3594  0.1260 -1.6737
 3603SOL     OW22270   0.961   4.329   9.785  0.3360  0.4150 -0.0093
 3603SOL    HW122271   0.984   4.287   9.702 -2.4418 -0.1119 -0.5076
 3603SOL    HW222272   1.040   4.332   9.839 -0.4945  1.6577  1.1358
 3604SOL     OW22273   3.132   2.391  11.257 -0.3639  0.1034  0.0759
 3604SOL    HW122274   3.086   2.443  11.191 -0.7923 -2.2556 -1.4824
 3604SOL    HW222275   3.100   2.304  11.233  0.5099  0.3996 -2.0985
 3605SOL     OW22276   1.747   0.967  16.332 -0.0496  0.4045  0.3440
 3605SOL    HW122277   1.677   0.929  16.280  1.0902  1.1874 -1.7964
 3605SOL    HW222278   1.797   0.889  16.354  0.3557  0.8402  0.9918
 3606SOL     OW22279   3.251   3.137   6.324 -0.1325  0.2391 -0.1805
 3606SOL    HW122280   3.156   3.151   6.323 -0.2657 -0.6690 -0.4844
 3606SOL    HW222281   3.271   3.214   6.272 -1.4245  1.3242  0.9249
 3607SOL     OW22282   2.567   0.320   5.099  0.1732 -0.0531  0.0987
 3607SOL    HW122283   2.641   0.361   5.145 -0.5823  2.7199 -1.1660
 3607SOL    HW222284   2.527   0.405   5.082  0.2347  0.3145  1.7766
 3608SOL     OW22285   0.215   1.675   6.253  0.0061  0.4012  0.6798
 3608SOL    HW122286   0.179   1.719   6.175  1.5631  1.4154  0.5343
 3608SOL    HW222287   0.178   1.587   6.243  1.4624 -0.0619 -0.5140
 3609SOL     OW22288   3.680   3.447   5.782 -0.2423  0.3172 -0.2496
 3609SOL    HW122289   3.769   3.482   5.785  0.2973 -0.9495 -1.3860
 3609SOL    HW222290   3.670   3.412   5.871 -1.0430  1.2122  0.0068
 3610SOL     OW22291   3.143   3.086   5.423  0.2033  0.7106  0.1150
 3610SOL    HW122292   3.104   3.142   5.356 -0.5939 -0.9024 -0.7627
 3610SOL    HW222293   3.110   3.128   5.502  1.1604  1.0082  0.3591
 3611SOL     OW22294   3.099   2.422   9.092  0.2766 -0.4617 -0.2418
 3611SOL    HW122295   3.003   2.431   9.089  0.2800 -0.2212  0.5005
 3611SOL    HW222296   3.119   2.372   9.171 -0.3786 -0.7816 -0.2760
 3612SOL     OW22297   0.386   1.492   4.560 -0.6153  0.3913  0.0347
 3612SOL    HW122298   0.398   1.398   4.551 -1.6286  0.3204 -0.7002
 3612SOL    HW222299   0.320   1.495   4.629 -0.8719  0.4960 -0.2114
 3613SOL     OW22300   2.009   3.538   5.022 -0.8167  0.0425 -0.0234
 3613SOL    HW122301   2.041   3.565   4.935  0.7329  0.0441  0.5374
 3613SOL    HW222302   1.925   3.497   5.001 -0.4691 -0.5124 -0.3333
 3614SOL     OW22303   0.074   2.430   5.287 -0.2496 -0.2310 -0.3267
 3614SOL    HW122304   0.166   2.402   5.291  0.0092  0.4953 -1.3880
 3614SOL    HW222305   0.080   2.484   5.209  0.5399 -0.7997 -0.6666
 3615SOL     OW22306   3.878   2.023   5.092  0.5651  0.1085  0.3780
 3615SOL    HW122307   3.949   1.998   5.152 -0.1508  0.7854  1.4904
 3615SOL    HW222308   3.825   2.073   5.153 -1.2832 -0.7229 -0.5680
 3616SOL     OW22309   1.116   2.044  12.261 -0.3492 -0.0778  0.6112
 3616SOL    HW122310   1.034   2.094  12.270 -0.3604  0.4702 -2.4094
 3616SOL    HW222311   1.157   2.069  12.178  1.1683 -1.9933  0.8025
 3617SOL     OW22312   1.398   4.532  12.797  0.1560  0.1169  0.2557
 3617SOL    HW122313   1.416   4.514  12.889  0.7855 -1.2540 -0.1466
 3617SOL    HW222314   1.483   4.547  12.755  0.4231 -0.6403  0.5348
 3618SOL     OW22315   3.806   0.528   5.517 -0.1504 -0.1128  0.2372
 3618SOL    HW122316   3.776   0.446   5.479 -0.6727 -0.9786  2.5014
 3618SOL    HW222317   3.727   0.554   5.564  0.7193  0.0848  1.6035
 3619SOL     OW22318   2.076   3.554  15.221 -0.0301  0.4159 -0.0056
 3619SOL    HW122319   2.021   3.616  15.173  0.2197  1.7522  1.3979
 3619SOL    HW222320   2.164   3.577  15.189  0.6248 -2.2410 -0.0714
 3620SOL     OW22321   4.228   0.270  11.638  0.3072 -0.0117 -0.0417
 3620SOL    HW122322   4.215   0.240  11.548 -0.5777  0.1099  0.0485
 3620SOL    HW222323   4.316   0.241  11.664  0.1832  0.2759  0.7071
 3621SOL     OW22324   3.621   0.866   6.617  0.0676 -0.0706  0.8976
 3621SOL    HW122325   3.646   0.893   6.705 -2.7147 -1.5661  2.1519
 3621SOL    HW222326   3.684   0.798   6.594 -1.1220 -1.5363  1.9547
 3622SOL     OW22327   2.954   1.224   3.591 -0.4200 -0.0868 -0.0447
 3622SOL    HW122328   2.946   1.230   3.496  1.4564  1.5560 -0.0960
 3622SOL    HW222329   2.902   1.303   3.605  1.4663  1.2595 -0.6204
 3623SOL     OW22330   0.627   3.452  11.003  0.4798 -0.3806  0.3316
 3623SOL    HW122331   0.635   3.414  11.090 -0.3721 -0.6837  0.2767
 3623SOL    HW222332   0.682   3.393  10.952  1.4224  2.1120 -1.5761
 3624SOL     OW22333   3.380   2.662   9.715  0.0217 -0.3495  0.2732
 3624SOL    HW122334   3.360   2.748   9.678  1.6031  1.9619  4.7176
 3624SOL    HW222335   3.431   2.629   9.641 -1.9691 -1.4233 -0.6308
 3625SOL     OW22336   2.446   3.535   6.859  0.0044  0.2844  0.4431
 3625SOL    HW122337   2.392   3.566   6.932  0.0561 -0.0878  0.6407
 3625SOL    HW222338   2.448   3.442   6.881 -1.5083  0.5131  1.5806
 3626SOL     OW22339   0.620   1.304  16.493  0.0687 -0.1281 -0.5942
 3626SOL    HW122340   0.657   1.267  16.413  0.1361  0.7627 -0.9757
 3626SOL    HW222341   0.686   1.372  16.507 -1.6524  1.5377 -0.6519
 3627SOL     OW22342   1.880   2.605   8.635 -0.1988 -0.2407 -0.6506
 3627SOL    HW122343   1.973   2.596   8.611 -0.3573  1.9184 -2.0368
 3627SOL    HW222344   1.860   2.530   8.692 -0.2384  0.0605 -0.2746
 3628SOL     OW22345   4.070   1.689   2.111  0.1484 -0.1477  0.2052
 3628SOL    HW122346   4.093   1.723   2.025  0.8647  2.1024  1.2956
 3628SOL    HW222347   3.995   1.635   2.084  1.0570 -1.0974 -0.4157
 3629SOL     OW22348   4.019   0.267   0.244 -0.3676 -0.0658 -0.3041
 3629SOL    HW122349   4.067   0.347   0.222  0.3700  0.4998  3.3743
 3629SOL    HW222350   3.979   0.288   0.328  1.0579  1.0730  0.0838
 3630SOL     OW22351   1.318   4.327   8.251 -0.4555  0.8481  0.5907
 3630SOL    HW122352   1.324   4.332   8.347  0.9986  0.4945  0.5159
 3630SOL    HW222353   1.372   4.250   8.233  2.2006  2.5898  0.9599
 3631SOL     OW22354   2.390   0.290   1.459  0.3388 -0.1338 -0.1126
 3631SOL    HW122355   2.349   0.267   1.542  0.5924  0.8978  0.3015
 3631SOL    HW222356   2.452   0.217   1.458  1.2368  0.5964  2.5149
 3632SOL     OW22357   3.014   2.686   2.222 -0.0821  0.2001  0.1501
 3632SOL    HW122358   2.941   2.677   2.161  0.3196  1.1732 -0.4683
 3632SOL    HW222359   2.978   2.730   2.299  1.9717  1.3827  0.4585
 3633SOL     OW22360   4.429   4.211   7.470 -0.1296 -0.5737 -0.0924
 3633SOL    HW122361   4.430   4.249   7.558  1.1452  2.4112 -1.4144
 3633SOL    HW222362   4.493   4.142   7.485 -1.1034 -1.1510  1.4082
 3634SOL     OW22363   3.047   0.052   8.570 -0.5967 -0.0665 -0.0232
 3634SOL    HW122364   3.115   0.096   8.519 -0.1780 -1.1384 -0.3931
 3634SOL    HW222365   3.006   0.123   8.618 -1.5875  0.1431 -1.1711
 3635SOL     OW22366   0.286   1.343   3.811  0.3505 -0.8665  0.3195
 3635SOL    HW122367   0.204   1.305   3.780 -0.4605  1.1025  0.0767
 3635SOL    HW222368   0.350   1.335   3.741 -1.1724  1.2978 -1.3519
 3636SOL     OW22369   0.562   1.516   4.903 -0.0600  0.3586 -0.7552
 3636SOL    HW122370   0.643   1.477   4.870  0.6997 -0.1849  1.7430
 3636SOL    HW222371   0.516   1.449   4.954 -0.4350  2.1579  1.2433
 3637SOL     OW22372   0.514   0.231  10.965 -0.5228  0.2065  0.5492
 3637SOL    HW122373   0.458   0.153  10.955 -1.3455  0.9255 -0.4437
 3637SOL    HW222374   0.525   0.255  10.873 -0.2710 -0.5717  0.3759
 3638SOL     OW22375   2.042   4.464   3.445  0.4510  0.3479 -0.0160
 3638SOL    HW122376   2.089   4.381   3.456 -1.9193 -1.2459 -1.9653
 3638SOL    HW222377   2.004   4.476   3.532 -0.4446 -1.2357 -0.1782
 3639SOL     OW22378   0.393   0.559   5.418  0.1404  0.0599 -0.1723
 3639SOL    HW122379   0.392   0.557   5.514  0.2885 -0.5219 -0.1869
 3639SOL    HW222380   0.488   0.550   5.407  0.2116  0.6603 -0.0586
 3640SOL     OW22381   2.954   4.138   2.739  0.6950 -0.0946  0.5868
 3640SOL    HW122382   3.013   4.203   2.700 -2.9107  1.2625 -2.5219
 3640SOL    HW222383   2.878   4.171   2.691  2.5895  0.3239 -2.1071
 3641SOL     OW22384   3.181   1.257   8.267 -0.2075 -0.1495  0.2459
 3641SOL    HW122385   3.091   1.280   8.241  0.0962  0.1843 -0.4973
 3641SOL    HW222386   3.194   1.181   8.210 -2.0773  0.1919 -0.6417
 3642SOL     OW22387   1.467   4.154   5.466  0.2284 -0.0144  0.2998
 3642SOL    HW122388   1.386   4.177   5.421  1.9017 -2.3629 -3.8394
 3642SOL    HW222389   1.499   4.233   5.509  0.7325 -0.8276  1.4265
 3643SOL     OW22390   3.997   1.806   9.641 -0.1706  0.2524 -0.0004
 3643SOL    HW122391   3.905   1.834   9.640 -0.0880  0.5487  0.4404
 3643SOL    HW222392   4.009   1.793   9.735  1.3499  0.5145 -0.1657
 3644SOL     OW22393   2.026   0.092   8.960 -0.2724 -0.2927  0.3603
 3644SOL    HW122394   2.013   0.147   9.038  0.5376 -2.3419  1.9357
 3644SOL    HW222395   1.951   0.104   8.902 -0.2612 -3.1111 -0.2004
 3645SOL     OW22396   3.632   4.318  15.123 -0.1358  0.1298 -0.0191
 3645SOL    HW122397   3.660   4.361  15.204  1.9910  0.5741 -1.0096
 3645SOL    HW222398   3.594   4.242  15.169  2.3632 -0.5596  0.8955
 3646SOL     OW22399   2.803   1.526   6.605 -0.4395 -0.0394  0.6428
 3646SOL    HW122400   2.808   1.479   6.522  0.8643  3.2700 -1.1486
 3646SOL    HW222401   2.724   1.578   6.594 -0.3643  0.2373  1.4019
 3647SOL     OW22402   3.384   1.102   6.570 -0.3171  0.5656  0.0913
 3647SOL    HW122403   3.465   1.081   6.617  0.8364  0.9142 -1.7318
 3647SOL    HW222404   3.323   1.079   6.640  0.9501  1.3135  1.4211
 3648SOL     OW22405   0.106   0.710  14.623  0.1145 -0.1194 -0.1208
 3648SOL    HW122406   0.170   0.669  14.566 -0.1149  2.1980 -2.0475
 3648SOL    HW222407   0.027   0.668  14.590 -1.8656  1.5204  2.4922
 3649SOL     OW22408   0.045   0.168   2.836  0.2752  0.5696 -0.2229
 3649SOL    HW122409   4.705   0.185   2.767  0.2685 -0.1633 -0.3896
 3649SOL    HW222410   0.091   0.092   2.801 -1.0216  0.5320 -1.8685
 3650SOL     OW22411   2.105   1.769   5.198 -0.2885  0.2384  0.0083
 3650SOL    HW122412   2.029   1.778   5.256  0.7077 -0.2941  1.3911
 3650SOL    HW222413   2.172   1.814   5.249  0.0559  0.5884 -0.7451
 3651SOL     OW22414   2.079   2.605   2.638  0.5694  0.6374  0.4811
 3651SOL    HW122415   2.155   2.589   2.693  0.9588 -1.2913 -0.6195
 3651SOL    HW222416   2.095   2.528   2.584  0.6282 -0.1725  1.6735
 3652SOL     OW22417   0.297   1.749   1.676  0.1111 -0.2426  0.5173
 3652SOL    HW122418   0.359   1.820   1.692  0.7384 -0.6863  0.0376
 3652SOL    HW222419   0.329   1.670   1.720  1.0982  0.0879  0.3976
 3653SOL     OW22420   0.885   4.441   8.567  0.1507 -0.3465  0.2418
 3653SOL    HW122421   0.960   4.385   8.546 -0.6042 -0.1676 -2.9127
 3653SOL    HW222422   0.841   4.442   8.482  0.3383 -1.8545  0.1250
 3654SOL     OW22423   1.651   1.355   8.190 -0.5085 -0.8532 -0.0585
 3654SOL    HW122424   1.642   1.304   8.271  1.1090 -1.0097  0.0360
 3654SOL    HW222425   1.658   1.293   8.118 -2.2128 -2.0121  0.7688
 3655SOL     OW22426   2.856   1.237  15.307 -0.8264 -0.2639 -0.0875
 3655SOL    HW122427   2.825   1.294  15.377 -0.0139 -0.4546  0.4287
 3655SOL    HW222428   2.793   1.165  15.300  0.5228 -1.5913  1.4907
 3656SOL     OW22429   0.989   4.288   2.225 -0.7062 -0.4756  0.0502
 3656SOL    HW122430   1.050   4.250   2.162 -2.6409 -1.9379 -0.9565
 3656SOL    HW222431   1.013   4.378   2.202  2.1589 -1.2332  0.1934
 3657SOL     OW22432   4.350   1.362   8.412  0.1374  0.7908 -0.2985
 3657SOL    HW122433   4.413   1.432   8.430  1.7399 -0.6168 -0.4292
 3657SOL    HW222434   4.287   1.390   8.346  0.9480  1.5825 -0.7449
 3658SOL     OW22435   1.566   3.065  16.923 -0.1601  0.8739 -0.2578
 3658SOL    HW122436   1.492   3.105  16.969  1.0153  1.4243  1.1423
 3658SOL    HW222437   1.530   3.087  16.837  0.4313  3.1702  0.0813
 3659SOL     OW22438   4.512   0.464  10.790  0.1026  0.0424  0.5309
 3659SOL    HW122439   4.565   0.518  10.848  0.2935  0.3809  0.0434
 3659SOL    HW222440   4.577   0.395  10.775 -0.9964 -1.4139  2.4415
 3660SOL     OW22441   2.757   3.381   3.452 -0.3979  0.7292 -0.7997
 3660SOL    HW122442   2.725   3.363   3.363  1.2031 -2.1899 -0.7770
 3660SOL    HW222443   2.827   3.443   3.430  0.4100  1.1335  2.9164
 3661SOL     OW22444   2.853   3.720   7.085  0.3940  0.2899  0.6945
 3661SOL    HW122445   2.796   3.794   7.064  1.4924  0.7958 -0.5374
 3661SOL    HW222446   2.897   3.702   7.002  0.8414 -0.6434  1.1235
 3662SOL     OW22447   3.316   0.503  13.879  0.0418 -0.6723  0.5356
 3662SOL    HW122448   3.274   0.581  13.914 -3.2167 -1.5511 -1.3910
 3662SOL    HW222449   3.397   0.550  13.860 -0.6801  1.1198  1.9334
 3663SOL     OW22450   3.606   0.569   7.231 -0.6112 -0.3375 -0.2042
 3663SOL    HW122451   3.634   0.502   7.169  1.8582  0.6234 -0.1361
 3663SOL    HW222452   3.513   0.545   7.224 -0.6799 -0.0069 -0.4202
 3664SOL     OW22453   3.614   1.757   2.990  0.2214 -0.3640  0.4481
 3664SOL    HW122454   3.620   1.843   3.030  0.2037 -0.5126  0.7664
 3664SOL    HW222455   3.537   1.774   2.935  0.8137 -1.4412 -0.7388
 3665SOL     OW22456   0.070   1.106  15.964 -0.2389 -0.1416 -0.7047
 3665SOL    HW122457   0.154   1.081  16.003  0.1025 -1.4471 -2.2737
 3665SOL    HW222458   0.035   1.133  16.049 -0.3033  1.1816 -1.1494
 3666SOL     OW22459   4.312   1.173  12.452  0.2821 -0.6429  0.0907
 3666SOL    HW122460   4.253   1.220  12.510  1.2186  1.4449 -0.6678
 3666SOL    HW222461   4.253   1.109  12.412  0.6349 -0.0058 -1.4334
 3667SOL     OW22462   2.151   0.216   8.413 -0.0242 -0.2472  0.5177
 3667SOL    HW122463   2.139   0.139   8.357 -1.5525 -1.2090  2.1587
 3667SOL    HW222464   2.103   0.285   8.367 -0.6078 -0.1018  1.3398
 3668SOL     OW22465   4.134   2.928   8.656  0.4593 -0.0156 -0.3429
 3668SOL    HW122466   4.056   2.898   8.609  0.0588  0.7149 -0.1340
 3668SOL    HW222467   4.126   2.883   8.740  0.0402 -1.9708 -1.4314
 3669SOL     OW22468   2.502   4.527   8.818 -0.1098  0.0853  0.8631
 3669SOL    HW122469   2.433   4.498   8.878 -1.3543  0.2775 -0.4672
 3669SOL    HW222470   2.452   4.597   8.776 -1.6706 -0.9980  0.9189
 3670SOL     OW22471   2.414   3.009   3.669 -0.5433  0.4096 -0.3276
 3670SOL    HW122472   2.371   2.981   3.588 -1.4478 -2.0806  0.9984
 3670SOL    HW222473   2.484   2.944   3.672  0.9715  2.2343  3.7256
 3671SOL     OW22474   2.434   4.683   7.303  0.0238 -0.1446 -0.2514
 3671SOL    HW122475   2.512   4.628   7.306  1.4669  1.9815  1.1145
 3671SOL    HW222476   2.367   4.620   7.330  2.4216 -2.2174  0.8516
 3672SOL     OW22477   0.108   3.789   2.843 -0.2024 -0.1521  0.0374
 3672SOL    HW122478   0.132   3.882   2.835 -1.7807  0.0753 -2.0445
 3672SOL    HW222479   0.104   3.778   2.937  2.4734 -0.2655  0.1599
 3673SOL     OW22480   2.934   3.627  17.014 -0.1211  0.0772  0.3582
 3673SOL    HW122481   2.884   3.590  17.086 -2.8292  2.4480 -0.3034
 3673SOL    HW222482   2.941   3.553  16.954 -0.6445  0.7810 -0.5653
 3674SOL     OW22483   4.073   3.813  13.218  0.5579  0.4994 -0.4408
 3674SOL    HW122484   4.110   3.768  13.294  0.8710 -1.1900 -1.6019
 3674SOL    HW222485   3.985   3.841  13.243  0.4695  0.1528 -0.3594
 3675SOL     OW22486   1.369   1.863   6.711  0.1366 -0.0327  0.3356
 3675SOL    HW122487   1.421   1.940   6.690 -1.5274  0.5030 -1.8389
 3675SOL    HW222488   1.296   1.884   6.652  2.7398  1.3582 -2.3489
 3676SOL     OW22489   2.278   3.868   2.727  0.6077 -0.4881 -0.1843
 3676SOL    HW122490   2.246   3.937   2.669 -0.1194 -0.4516  0.2650
 3676SOL    HW222491   2.228   3.885   2.806 -0.1862  0.4139 -0.8713
 3677SOL     OW22492   1.067   2.044   7.094  0.3483 -0.1088  0.4980
 3677SOL    HW122493   0.973   2.041   7.077 -0.0257  0.5976  2.4838
 3677SOL    HW222494   1.100   2.117   7.041 -1.0268  0.2940  0.2165
 3678SOL     OW22495   4.031   3.448   3.724  0.2567 -0.0983 -0.0018
 3678SOL    HW122496   4.113   3.400   3.712  0.5357 -0.0792  1.6918
 3678SOL    HW222497   3.997   3.409   3.644 -0.0952 -0.8440  0.5152
 3679SOL     OW22498   0.722   4.107   8.271 -0.7347  0.0260 -0.2547
 3679SOL    HW122499   0.756   4.183   8.224 -2.8441  1.5213  0.6437
 3679SOL    HW222500   0.709   4.049   8.196  3.0138  1.8694 -2.3318
 3680SOL     OW22501   2.405   1.860   0.426  0.5021  0.2219 -0.2558
 3680SOL    HW122502   2.431   1.827   0.512  0.9187  2.2994  0.4215
 3680SOL    HW222503   2.313   1.883   0.439  0.7120 -0.0335  1.5643
 3681SOL     OW22504   0.213   4.205   6.358 -0.2852  0.4497  0.2802
 3681SOL    HW122505   0.296   4.253   6.358 -0.2049  0.3142  0.6645
 3681SOL    HW222506   0.217   4.185   6.265 -0.6315 -0.8403  0.5421
 3682SOL     OW22507   0.182   0.769   3.629  0.6653 -0.6160 -0.3431
 3682SOL    HW122508   0.101   0.738   3.588 -0.9583  1.6289  1.1400
 3682SOL    HW222509   0.233   0.803   3.556  2.7544 -1.4294  0.7574
 3683SOL     OW22510   3.963   2.902  14.970  0.4285 -0.0244  0.0084
 3683SOL    HW122511   3.917   2.887  14.888 -0.7752 -0.1619  0.7003
 3683SOL    HW222512   4.023   2.969  14.937  0.6010  1.3284  2.9863
 3684SOL     OW22513   0.784   4.076  15.723 -0.4463 -0.1978  0.2621
 3684SOL    HW122514   0.818   4.041  15.806 -0.6926  0.6766  0.7264
 3684SOL    HW222515   0.754   3.992  15.686  0.0515 -0.5574  0.6746
 3685SOL     OW22516   3.827   1.529   5.278  0.2485  0.0221  0.4901
 3685SOL    HW122517   3.802   1.577   5.199  1.3238  0.2767  0.3061
 3685SOL    HW222518   3.783   1.446   5.261  0.9778 -0.1470 -0.5974
 3686SOL     OW22519   4.526   2.634   9.444 -0.1887  0.3284  0.3211
 3686SOL    HW122520   4.592   2.680   9.393  0.8082 -0.2760  1.0543
 3686SOL    HW222521   4.584   2.578   9.497 -0.1102 -1.3074 -1.5066
 3687SOL     OW22522   4.526   3.520   1.476 -0.1332 -0.1922 -0.2513
 3687SOL    HW122523   4.616   3.489   1.488 -0.5117 -1.7703 -1.5312
 3687SOL    HW222524   4.543   3.572   1.397 -1.4202 -0.7522 -0.8982
 3688SOL     OW22525   0.314   2.059   4.872 -0.1984  0.7905  0.1512
 3688SOL    HW122526   0.340   1.987   4.930 -2.0279 -0.5880 -0.7483
 3688SOL    HW222527   0.385   2.116   4.902 -0.1809  1.3109 -0.8518
 3689SOL     OW22528   2.196   0.506  15.824  0.1643 -0.1143  0.2026
 3689SOL    HW122529   2.239   0.548  15.750 -1.1569 -0.2013 -0.6333
 3689SOL    HW222530   2.226   0.560  15.896 -3.2987  1.0247  0.8097
 3690SOL     OW22531   3.383   4.649   9.491 -0.2289 -0.4283 -0.2599
 3690SOL    HW122532   3.366   4.627   9.399 -0.8728  0.0401 -0.2560
 3690SOL    HW222533   3.319   4.719   9.503  1.2865  0.7141  1.0576
 3691SOL     OW22534   3.708   2.494  17.684  0.0641  0.6310  0.1994
 3691SOL    HW122535   3.765   2.423  17.653 -1.9594 -0.7659 -0.3513
 3691SOL    HW222536   3.647   2.511  17.612  1.0585 -0.0082 -0.7847
 3692SOL     OW22537   2.987   2.396   5.363  0.0514 -0.1646  0.5233
 3692SOL    HW122538   3.020   2.402   5.452 -1.1930 -0.2116  0.9916
 3692SOL    HW222539   2.997   2.303   5.345 -0.0424 -0.0782  0.0012
 3693SOL     OW22540   0.469   3.672   6.324  0.1453  0.0424 -0.3260
 3693SOL    HW122541   0.425   3.757   6.326  1.6061  0.7474  1.1305
 3693SOL    HW222542   0.537   3.685   6.390 -0.6429  0.5244  0.3990
 3694SOL     OW22543   4.611   3.977   3.315 -0.3107  0.2108  0.7559
 3694SOL    HW122544   4.520   3.947   3.318 -0.2727 -0.1001 -1.6737
 3694SOL    HW222545   4.652   3.892   3.304  1.2235  1.3565 -2.2766
 3695SOL     OW22546   2.174   4.545   0.564 -0.1602 -0.1635  0.4329
 3695SOL    HW122547   2.112   4.487   0.520 -0.8821  0.8623  0.1095
 3695SOL    HW222548   2.148   4.630   0.528 -1.1634 -1.0182 -0.8839
 3696SOL     OW22549   1.678   2.990   4.406  0.6942  0.0413 -0.3975
 3696SOL    HW122550   1.596   2.947   4.381  0.3875  0.8960 -0.8622
 3696SOL    HW222551   1.753   2.956   4.358  0.3965  0.0573 -0.8752
 3697SOL     OW22552   2.557   0.907  17.424  0.4388  0.4595  0.4466
 3697SOL    HW122553   2.513   0.963  17.488 -1.1152 -1.2768  0.8852
 3697SOL    HW222554   2.513   0.825  17.447 -1.4797  1.4001  0.1507
 3698SOL     OW22555   3.184   0.256  15.016  0.5489  0.3623 -0.0138
 3698SOL    HW122556   3.123   0.326  14.992  1.2866  1.2854  0.8391
 3698SOL    HW222557   3.140   0.220  15.093  0.0786 -0.1895 -0.5328
 3699SOL     OW22558   0.102   0.672   5.475  0.4144  0.1031  0.0750
 3699SOL    HW122559   0.125   0.595   5.527  1.6299  0.1677 -0.3667
 3699SOL    HW222560   0.186   0.692   5.433  0.9608 -2.1815  0.0462
 3700SOL     OW22561   3.672   3.515   7.281  0.1985 -0.0660  0.1863
 3700SOL    HW122562   3.767   3.505   7.288  0.5771  2.7858 -0.9011
 3700SOL    HW222563   3.668   3.603   7.243 -2.0066  0.2806  1.2490
 3701SOL     OW22564   4.395   1.133  10.954 -0.0955  0.3177  0.1614
 3701SOL    HW122565   4.391   1.199  11.024 -0.3682 -2.9560  3.2600
 3701SOL    HW222566   4.465   1.161  10.896 -0.2263 -0.1337 -0.2139
 3702SOL     OW22567   0.995   1.753  10.152  0.0979  0.3826 -0.4058
 3702SOL    HW122568   1.046   1.681  10.117 -1.3188 -0.1744 -1.3104
 3702SOL    HW222569   0.922   1.711  10.198  1.6850  0.3196  2.0489
 3703SOL     OW22570   3.889   0.743   7.225  0.4836  0.1302  0.2004
 3703SOL    HW122571   3.950   0.743   7.299 -1.3056 -2.1115  1.6887
 3703SOL    HW222572   3.953   0.743   7.154  0.6431  0.6373  0.3412
 3704SOL     OW22573   0.322   3.733   9.530  0.0199 -0.0307  0.2166
 3704SOL    HW122574   0.333   3.676   9.453 -4.1989  1.8603 -1.7648
 3704SOL    HW222575   0.231   3.717   9.556 -0.1783  2.2339  0.8908
 3705SOL     OW22576   0.520   0.596   6.961  0.3981  0.0068  0.3782
 3705SOL    HW122577   0.441   0.604   7.014 -0.5407  0.6798 -1.1070
 3705SOL    HW222578   0.550   0.507   6.976 -0.2071 -0.2846 -0.1191
 3706SOL     OW22579   1.980   3.258   5.919 -0.0683 -0.1876  0.2441
 3706SOL    HW122580   1.919   3.328   5.899 -0.5080 -0.9941 -1.1958
 3706SOL    HW222581   2.058   3.314   5.914 -0.6484  0.5008 -1.1455
 3707SOL     OW22582   2.970   2.049   8.098 -0.1972  0.0780  0.8821
 3707SOL    HW122583   2.912   2.020   8.169 -0.9396 -1.2583 -0.2731
 3707SOL    HW222584   2.945   1.974   8.045  1.6580  0.5530 -0.6509
 3708SOL     OW22585   4.178   2.850   6.804  0.0267 -0.4498 -0.2685
 3708SOL    HW122586   4.104   2.820   6.857  0.6171 -0.6992  0.4190
 3708SOL    HW222587   4.191   2.938   6.840 -2.6857  0.2988 -1.1178
 3709SOL     OW22588   2.808   0.840   6.242 -0.1478  0.0791  0.7121
 3709SOL    HW122589   2.806   0.862   6.149  0.3472  0.1883  0.7299
 3709SOL    HW222590   2.896   0.808   6.261  1.4268  1.6922 -3.9093
 3710SOL     OW22591   2.213   4.265   3.926  0.1023 -0.0103 -0.1878
 3710SOL    HW122592   2.188   4.347   3.884  0.8023  1.1843  1.7471
 3710SOL    HW222593   2.186   4.287   4.015  0.1909 -0.9309  0.0655
 3711SOL     OW22594   4.590   4.461   7.405 -0.6594  0.0568 -0.0351
 3711SOL    HW122595   4.563   4.369   7.413 -0.8577  0.1270  0.1110
 3711SOL    HW222596   4.555   4.493   7.322  0.0527  0.3488 -0.2173
 3712SOL     OW22597   4.507   1.186   3.005 -0.3470 -0.3850 -0.4673
 3712SOL    HW122598   4.429   1.141   3.037  0.0831 -1.7030 -1.2819
 3712SOL    HW222599   4.519   1.134   2.926  1.6463  1.0661 -1.1129
 3713SOL     OW22600   0.434   0.060  11.209 -0.4314  0.1014  0.0596
 3713SOL    HW122601   0.509   0.085  11.155 -1.3209  0.0046 -1.2114
 3713SOL    HW222602   0.368   0.113  11.165 -1.4994 -1.1811  0.1189
 3714SOL     OW22603   4.713   1.466   2.237 -0.2884  0.0619  0.1322
 3714SOL    HW122604   4.724   1.389   2.180 -3.0855 -1.2451  1.3490
 3714SOL    HW222605   4.710   1.535   2.170 -0.9595 -1.3133 -1.2708
 3715SOL     OW22606   0.207   0.689   8.086 -0.0591 -0.4799  0.1993
 3715SOL    HW122607   0.289   0.664   8.128 -0.7083 -0.6297  1.3720
 3715SOL    HW222608   0.236   0.773   8.051  2.6671 -0.7719  1.8042
 3716SOL     OW22609   0.985   2.319  15.192  0.2706 -0.1953 -0.3264
 3716SOL    HW122610   0.940   2.311  15.276  1.1144 -1.3398  0.0176
 3716SOL    HW222611   1.075   2.338  15.219 -0.1732 -0.4633  1.4020
 3717SOL     OW22612   0.154   4.067  15.677 -0.3443 -0.1826  0.7038
 3717SOL    HW122613   0.122   4.105  15.595  0.6606  0.6478  0.7007
 3717SOL    HW222614   0.133   3.974  15.664  2.5300 -1.1910  3.1883
 3718SOL     OW22615   1.985   1.524  10.278 -0.2582  0.1372 -0.1612
 3718SOL    HW122616   1.899   1.511  10.318  1.0029  0.2015  2.5961
 3718SOL    HW222617   1.959   1.547  10.189  1.3988 -0.0183 -0.6945
 3719SOL     OW22618   2.647   3.516   8.126 -0.2659  0.3282  0.1872
 3719SOL    HW122619   2.634   3.461   8.203  1.6985 -0.0653  0.2396
 3719SOL    HW222620   2.670   3.446   8.065  1.3706  1.2050 -0.2065
 3720SOL     OW22621   2.338   4.692   3.064 -0.1518 -0.4159 -0.1818
 3720SOL    HW122622   2.306   4.670   3.152 -0.8278  1.3305 -0.0062
 3720SOL    HW222623   2.253   4.703   3.022 -0.5528  0.3586  0.8203
 3721SOL     OW22624   2.457   4.069  10.700 -0.0747  0.2630 -0.3299
 3721SOL    HW122625   2.433   4.119  10.778  2.2677 -1.4778  1.4979
 3721SOL    HW222626   2.501   4.142  10.656  0.8545  0.2935  0.6681
 3722SOL     OW22627   2.557   2.558   3.768  0.1843  0.1740  0.0598
 3722SOL    HW122628   2.494   2.607   3.717 -1.5519 -5.4079 -3.1737
 3722SOL    HW222629   2.494   2.503   3.814  2.9187 -4.8832 -2.2567
 3723SOL     OW22630   4.715   1.050  11.936 -0.0061  0.4685 -0.0107
 3723SOL    HW122631   4.667   1.128  11.964 -1.1498  0.2511 -1.4215
 3723SOL    HW222632   0.072   1.100  11.934  1.5178 -2.0324 -0.4337
 3724SOL     OW22633   3.365   2.599  10.368 -0.3447  0.1265  0.2281
 3724SOL    HW122634   3.313   2.679  10.371  0.1753  0.5667 -1.8545
 3724SOL    HW222635   3.417   2.601  10.448 -1.1909 -0.5195  0.7855
 3725SOL     OW22636   3.478   3.555   1.768 -0.3076  0.2306 -0.3560
 3725SOL    HW122637   3.439   3.643   1.773 -1.9336 -0.4757 -0.7081
 3725SOL    HW222638   3.419   3.489   1.803  0.2683 -0.4236 -0.6231
 3726SOL     OW22639   1.862   2.554  16.840  0.8032  0.2052 -0.0730
 3726SOL    HW122640   1.825   2.542  16.927 -1.3525 -0.6665 -1.0944
 3726SOL    HW222641   1.808   2.495  16.787  0.5028 -0.7084  1.2575
 3727SOL     OW22642   1.821   0.250   0.354  0.3515 -0.1133  0.6013
 3727SOL    HW122643   1.896   0.242   0.295 -0.1495 -0.3767  0.0061
 3727SOL    HW222644   1.801   0.157   0.354 -0.6848  0.0929 -3.0422
 3728SOL     OW22645   1.058   0.662   0.520 -0.3180  0.0470 -0.2842
 3728SOL    HW122646   1.106   0.624   0.594  1.8008 -0.0626 -1.7211
 3728SOL    HW222647   0.973   0.687   0.556 -0.3352  0.5228 -0.6622
 3729SOL     OW22648   4.653   3.169   2.958 -0.0064  0.0721 -0.1031
 3729SOL    HW122649   4.679   3.214   2.878  2.5202  0.9375  1.2255
 3729SOL    HW222650   0.012   3.172   3.005 -0.1004 -2.1667  0.2006
 3730SOL     OW22651   2.605   3.544   8.423  0.2903 -0.4159  0.0286
 3730SOL    HW122652   2.537   3.549   8.489 -0.2096  1.1767 -0.6229
 3730SOL    HW222653   2.611   3.450   8.405 -2.2333 -1.0255  2.5144
 3731SOL     OW22654   2.619   4.037   5.179  0.7292 -0.4565  0.0482
 3731SOL    HW122655   2.581   4.112   5.133  3.1623  0.4776 -0.4627
 3731SOL    HW222656   2.662   3.988   5.110 -0.5951 -0.5941 -0.6715
 3732SOL     OW22657   2.691   0.734  15.250 -0.0967  0.0977 -0.2492
 3732SOL    HW122658   2.665   0.726  15.341  0.4508 -0.5438 -0.1505
 3732SOL    HW222659   2.617   0.781  15.210 -0.2667 -0.3375 -0.4419
 3733SOL     OW22660   3.393   2.968   9.791  0.1585  0.2115 -0.3576
 3733SOL    HW122661   3.313   3.017   9.772 -1.0556 -1.4799  0.4012
 3733SOL    HW222662   3.350   2.906   9.851 -0.2194 -0.9687 -1.8553
 3734SOL     OW22663   3.261   0.460   3.922 -0.1711 -0.3200  0.2863
 3734SOL    HW122664   3.176   0.504   3.927 -0.7841 -1.4297 -0.3108
 3734SOL    HW222665   3.227   0.371   3.935 -2.2121  0.7124  2.0112
 3735SOL     OW22666   0.295   2.293  13.817  0.3048  0.0044 -0.2385
 3735SOL    HW122667   0.249   2.215  13.848  0.6666  0.5974  1.7473
 3735SOL    HW222668   0.342   2.261  13.740  0.3406  1.2425 -0.7260
 3736SOL     OW22669   1.112   1.950  16.552  0.1608 -0.4237 -0.2821
 3736SOL    HW122670   1.163   1.993  16.621  0.2235 -2.4612  0.9430
 3736SOL    HW222671   1.126   2.016  16.484  0.5961 -0.1051  0.1184
 3737SOL     OW22672   1.769   1.054   1.867  0.3283  0.8467  0.0077
 3737SOL    HW122673   1.790   1.109   1.792  0.4116 -1.6244 -1.7896
 3737SOL    HW222674   1.674   1.063   1.860  0.1209  0.3319  2.1189
 3738SOL     OW22675   1.261   3.613   8.520  0.5921 -0.7062 -0.1361
 3738SOL    HW122676   1.288   3.664   8.596  0.2695  1.0782 -1.2198
 3738SOL    HW222677   1.171   3.644   8.527 -0.1218 -2.7349 -0.0854
 3739SOL     OW22678   3.388   0.142  15.280 -0.0428  0.3724  0.6235
 3739SOL    HW122679   3.376   0.236  15.287  1.7815  0.7460 -1.6200
 3739SOL    HW222680   3.301   0.122  15.245 -0.0040  1.1007  0.1223
 3740SOL     OW22681   3.866   1.737   7.358  0.6216  0.2332  0.6547
 3740SOL    HW122682   3.899   1.819   7.321  1.0676 -0.6693 -0.9059
 3740SOL    HW222683   3.929   1.675   7.321  0.9201 -0.6557  2.6310
 3741SOL     OW22684   3.293   1.538  12.985 -0.6406 -0.0774  0.2346
 3741SOL    HW122685   3.377   1.492  12.988 -0.5950  0.0074  0.2594
 3741SOL    HW222686   3.298   1.558  12.891  1.3625 -1.6065  0.0133
 3742SOL     OW22687   4.215   3.806  11.120 -0.1106 -0.0034 -0.2428
 3742SOL    HW122688   4.126   3.776  11.099 -0.7964  1.0108  1.1388
 3742SOL    HW222689   4.271   3.730  11.107 -2.8245 -1.7838 -1.6434
 3743SOL     OW22690   3.456   2.356   4.335  0.5533 -0.0840 -0.3845
 3743SOL    HW122691   3.549   2.370   4.317  0.4406  2.5590  1.1146
 3743SOL    HW222692   3.427   2.445   4.319  0.0327  0.1133  1.6726
 3744SOL     OW22693   4.213   0.979   4.796  0.2460  0.2095 -0.2517
 3744SOL    HW122694   4.204   0.965   4.891 -3.2871 -1.5552 -0.8292
 3744SOL    HW222695   4.250   1.067   4.793  0.3738  0.1892  0.7377
 3745SOL     OW22696   2.086   0.935  15.658  0.4436 -0.2139 -0.3374
 3745SOL    HW122697   2.029   0.895  15.724 -0.0545 -0.9501 -1.2128
 3745SOL    HW222698   2.045   1.021  15.653 -0.2008 -0.4552  0.7318
 3746SOL     OW22699   3.584   1.561   2.762 -0.1458 -0.1041  0.1170
 3746SOL    HW122700   3.674   1.530   2.770  0.2553  1.6830  2.3112
 3746SOL    HW222701   3.598   1.651   2.732  2.5967 -1.0925 -1.6168
 3747SOL     OW22702   1.891   1.850  10.413 -0.1202  0.0556 -0.2599
 3747SOL    HW122703   1.810   1.825  10.368 -0.7789 -0.4324  1.1901
 3747SOL    HW222704   1.848   1.911  10.473  0.9265 -2.8773  3.4734
 3748SOL     OW22705   3.117   4.450   8.256 -0.2674  0.1980  0.2861
 3748SOL    HW122706   3.175   4.378   8.233 -1.5071 -0.5474 -0.5616
 3748SOL    HW222707   3.038   4.430   8.205  0.3817 -0.8301 -0.3043
 3749SOL     OW22708   2.134   0.225   5.797 -0.4644  0.2894 -0.8567
 3749SOL    HW122709   2.202   0.293   5.802  0.4767 -0.7549  0.5770
 3749SOL    HW222710   2.177   0.140   5.792 -0.3852  0.2887 -0.0996
 3750SOL     OW22711   0.169   0.444   5.625 -0.0781 -0.4559 -0.4053
 3750SOL    HW122712   0.149   0.371   5.683  1.6698 -0.1944  0.5014
 3750SOL    HW222713   0.260   0.460   5.649 -0.1056  0.4115 -0.9034
 3751SOL     OW22714   2.851   4.068   4.368 -0.5214 -0.3948  0.0451
 3751SOL    HW122715   2.870   4.156   4.399 -1.8532 -0.4038  0.8945
 3751SOL    HW222716   2.939   4.030   4.364  0.8417  2.9041 -0.9756
 3752SOL     OW22717   3.897   2.235   2.801 -0.2620  0.1031 -0.0945
 3752SOL    HW122718   3.852   2.152   2.785 -0.3155  0.0823  0.1657
 3752SOL    HW222719   3.940   2.222   2.885 -0.3652  0.5528  0.0319
 3753SOL     OW22720   3.078   3.261   1.311  0.0168 -0.0633  0.6590
 3753SOL    HW122721   3.071   3.168   1.331  0.8922  0.0298  1.3949
 3753SOL    HW222722   3.172   3.273   1.327  0.0268 -1.7185  1.8714
 3754SOL     OW22723   0.770   1.395   4.722 -0.5464  0.2624  0.4339
 3754SOL    HW122724   0.731   1.353   4.646 -0.0310  1.5794 -0.5659
 3754SOL    HW222725   0.839   1.333   4.744 -0.2280  0.0429 -1.2253
 3755SOL     OW22726   3.883   4.634  15.365 -0.0110  0.2309 -0.2500
 3755SOL    HW122727   3.830   4.663  15.291 -3.0123  0.2620  1.9054
 3755SOL    HW222728   3.847   4.545  15.366 -0.7072  0.5118  0.0529
 3756SOL     OW22729   0.903   1.773   1.939 -0.0051  0.2578 -0.2109
 3756SOL    HW122730   0.944   1.858   1.922 -0.4388 -0.0364 -2.7645
 3756SOL    HW222731   0.890   1.740   1.850  0.7435  0.8950 -0.5565
 3757SOL     OW22732   1.960   0.652   3.971  0.4086 -0.2973 -0.0705
 3757SOL    HW122733   1.955   0.653   4.066 -1.3056 -1.5519 -0.1383
 3757SOL    HW222734   1.868   0.675   3.953  0.0379 -1.3065  0.5542
 3758SOL     OW22735   4.040   3.278   1.109  0.4708  0.3867 -0.0745
 3758SOL    HW122736   4.118   3.224   1.119  0.7437  0.5211 -1.4433
 3758SOL    HW222737   4.038   3.342   1.180  1.3184 -1.4022  1.5408
 3759SOL     OW22738   1.560   0.223   5.657 -0.2909  0.1221 -0.1509
 3759SOL    HW122739   1.533   0.306   5.616 -0.5486  0.1929  0.1629
 3759SOL    HW222740   1.491   0.157   5.654 -1.7539  1.6021  0.4219
 3760SOL     OW22741   4.418   1.852   5.172 -0.2611  0.0170  0.1679
 3760SOL    HW122742   4.371   1.916   5.117  0.9385 -0.7833 -1.7783
 3760SOL    HW222743   4.453   1.797   5.102  1.1140 -0.3737  1.1593
 3761SOL     OW22744   0.519   4.682   1.732 -0.8462 -0.4051  0.0290
 3761SOL    HW122745   0.472   4.627   1.796 -1.4362  2.3105  1.9419
 3761SOL    HW222746   0.513   0.038   1.783  1.0713  0.0279 -0.4569
 3762SOL     OW22747   4.281   0.248  10.518 -0.0837  0.3250  0.5622
 3762SOL    HW122748   4.220   0.277  10.450 -0.4573 -2.2709 -0.2086
 3762SOL    HW222749   4.256   0.305  10.591 -2.5707  1.4040 -1.1525
 3763SOL     OW22750   4.504   0.942   4.920 -0.4019  1.2643  0.4467
 3763SOL    HW122751   4.559   0.957   4.997  0.6577 -1.1887  0.1902
 3763SOL    HW222752   4.418   0.937   4.960 -0.6501 -1.1288 -0.3680
 3764SOL     OW22753   3.132   1.780  16.550  0.1965  0.8111  0.2374
 3764SOL    HW122754   3.070   1.722  16.506  0.9261  0.0737  0.1706
 3764SOL    HW222755   3.215   1.732  16.538  0.3254  1.1161 -0.0999
 3765SOL     OW22756   3.965   0.417  16.903 -0.0849  0.0989  0.2926
 3765SOL    HW122757   3.917   0.464  16.972 -0.2808  3.5897 -2.1970
 3765SOL    HW222758   3.930   0.470  16.831 -2.9206 -1.7943  0.2974
 3766SOL     OW22759   0.491   3.226   6.431 -0.3557  0.0078 -0.1584
 3766SOL    HW122760   0.467   3.219   6.523 -1.3370 -0.3825 -0.4472
 3766SOL    HW222761   0.416   3.280   6.408  0.5095 -0.2340 -3.6382
 3767SOL     OW22762   0.639   3.254   5.460 -0.1062  0.2953 -0.2251
 3767SOL    HW122763   0.545   3.258   5.477 -0.2847 -0.8484 -0.9675
 3767SOL    HW222764   0.667   3.171   5.498 -2.3601 -0.2694  0.1875
 3768SOL     OW22765   0.376   0.509   0.088 -1.0584  0.2857 -0.4859
 3768SOL    HW122766   0.386   0.421   0.123  1.7514  0.9281  0.3097
 3768SOL    HW222767   0.398   0.495  17.697  1.2814 -0.8548  0.2422
 3769SOL     OW22768   3.203   1.361   1.723 -0.3388 -0.5574 -0.3340
 3769SOL    HW122769   3.144   1.372   1.797 -1.7262  0.0109 -1.5274
 3769SOL    HW222770   3.254   1.441   1.738 -1.6948  0.6044 -1.9079
 3770SOL     OW22771   1.791   4.284  12.167  0.2078 -0.0327 -0.2788
 3770SOL    HW122772   1.870   4.235  12.147  1.3505  1.9763 -0.7016
 3770SOL    HW222773   1.790   4.355  12.102  0.5433 -0.5374 -0.8333
 3771SOL     OW22774   2.040   0.704   5.728 -0.0068  0.2681  0.0729
 3771SOL    HW122775   1.959   0.655   5.714  0.5568 -0.8615  0.8219
 3771SOL    HW222776   2.017   0.772   5.792 -2.0667  0.6889 -1.0886
 3772SOL     OW22777   2.371   4.724  14.313 -0.1287  0.5562 -0.4091
 3772SOL    HW122778   2.332   4.675  14.240 -0.1554  0.0454 -0.0573
 3772SOL    HW222779   2.444   0.053  14.285  1.4953 -1.3871  0.0529
 3773SOL     OW22780   2.091   2.803   2.034 -0.4831  0.1213 -0.0506
 3773SOL    HW122781   2.093   2.707   2.026 -0.2064  0.2127 -1.1197
 3773SOL    HW222782   2.158   2.830   1.971  1.0010  0.6726  1.7828
 3774SOL     OW22783   0.038   1.187   5.673  0.2035 -0.1435 -0.1571
 3774SOL    HW122784   0.070   1.263   5.625 -1.3147  0.9079  0.4786
 3774SOL    HW222785   0.121   1.141   5.678 -0.0345 -1.0131 -3.9320
 3775SOL     OW22786   2.639   2.497   9.298  0.3155 -0.3193  0.2827
 3775SOL    HW122787   2.595   2.454   9.226  2.8781 -2.5325  0.0156
 3775SOL    HW222788   2.607   2.587   9.295  0.1899 -0.4263 -1.4892
 3776SOL     OW22789   2.510   2.226   5.406  0.0392 -0.2488 -0.0684
 3776SOL    HW122790   2.502   2.298   5.343  0.2989 -0.6484 -0.5536
 3776SOL    HW222791   2.484   2.269   5.487 -2.5270  0.7131 -1.3992
 3777SOL     OW22792   2.070   3.382   2.911  0.3634  0.4549  0.4801
 3777SOL    HW122793   1.977   3.364   2.924  0.5529 -1.0584 -0.2535
 3777SOL    HW222794   2.107   3.331   2.982  2.9584 -1.0954 -2.0173
 3778SOL     OW22795   2.838   1.165  17.028 -0.4073  0.5012 -0.6844
 3778SOL    HW122796   2.808   1.241  17.078 -1.3417 -1.3648  1.6404
 3778SOL    HW222797   2.930   1.183  17.050 -0.3941 -0.4826  0.1203
 3779SOL     OW22798   3.452   1.277   5.985  0.1420  0.5339  0.2962
 3779SOL    HW122799   3.448   1.367   6.016  1.3729  1.5955 -2.6107
 3779SOL    HW222800   3.472   1.283   5.891 -0.2494  1.0559  0.2508
 3780SOL     OW22801   1.711   1.647   7.783 -0.2909  0.1198 -0.3373
 3780SOL    HW122802   1.798   1.656   7.821 -0.0486  3.0433 -1.5865
 3780SOL    HW222803   1.725   1.677   7.694 -1.5266 -2.2766 -1.3141
 3781SOL     OW22804   0.851   3.950  13.476 -0.1707 -0.6393  0.5077
 3781SOL    HW122805   0.869   3.857  13.488 -0.5979 -0.5216  2.1019
 3781SOL    HW222806   0.774   3.962  13.532 -0.8894  3.9985 -1.5004
 3782SOL     OW22807   2.102   0.815   6.332 -0.5174  0.3819 -0.1249
 3782SOL    HW122808   2.116   0.803   6.239 -0.3838 -4.0994  0.4777
 3782SOL    HW222809   2.064   0.730   6.353 -2.5176  1.3151  0.0518
 3783SOL     OW22810   1.390   2.659   5.992 -0.0424 -0.2873  0.4869
 3783SOL    HW122811   1.338   2.651   5.912  0.5167  1.1674 -0.0166
 3783SOL    HW222812   1.324   2.690   6.054 -2.0145 -2.3161 -0.6042
 3784SOL     OW22813   2.182   0.290   6.236  0.1541  0.3106 -0.0015
 3784SOL    HW122814   2.133   0.230   6.293 -1.0485 -0.7285 -2.1156
 3784SOL    HW222815   2.214   0.232   6.167 -0.2772  0.4612 -0.3249
 3785SOL     OW22816   1.576   1.867   5.952  0.2609  0.6575  0.7469
 3785SOL    HW122817   1.642   1.838   6.015 -1.6670 -0.1452  2.3878
 3785SOL    HW222818   1.516   1.793   5.954  1.4917 -0.3799 -0.6401
 3786SOL     OW22819   1.443   2.865  13.496 -0.0518 -0.2667 -0.2186
 3786SOL    HW122820   1.537   2.852  13.510  0.1771  1.4746 -0.1690
 3786SOL    HW222821   1.411   2.882  13.585  0.9016 -1.0873  0.2778
 3787SOL     OW22822   0.698   4.043   6.840  0.7959 -0.4150  0.2994
 3787SOL    HW122823   0.768   4.057   6.776 -0.8556  4.1242 -0.5492
 3787SOL    HW222824   0.623   4.070   6.787  0.3435 -1.1768  0.5586
 3788SOL     OW22825   1.122   3.313  17.519  0.0351  0.2035  0.5097
 3788SOL    HW122826   1.057   3.382  17.535  0.3288  0.6464 -0.1885
 3788SOL    HW222827   1.165   3.301  17.604  1.2034  1.1480  0.0513
 3789SOL     OW22828   4.276   1.723   3.154 -0.3567 -0.1186  0.6594
 3789SOL    HW122829   4.261   1.730   3.060 -0.2101  3.6752  0.9138
 3789SOL    HW222830   4.362   1.766   3.161 -0.7415  0.7380  0.1390
 3790SOL     OW22831   2.531   4.234   0.706 -0.3705 -0.9393 -0.3226
 3790SOL    HW122832   2.480   4.205   0.782  0.4852  0.4918  0.7835
 3790SOL    HW222833   2.485   4.310   0.670 -2.3862 -1.9175  0.1662
 3791SOL     OW22834   1.837   4.607   5.061  0.4850 -0.9228 -0.0371
 3791SOL    HW122835   1.742   4.595   5.049  0.2277  0.1562  0.9361
 3791SOL    HW222836   1.862   4.557   4.983 -0.7400 -1.8879  0.1852
 3792SOL     OW22837   1.439   0.877   3.598 -0.1855 -0.1981 -0.3052
 3792SOL    HW122838   1.365   0.881   3.659  1.0269  1.5084  1.0728
 3792SOL    HW222839   1.507   0.834   3.650  0.5398 -0.4091 -1.4267
 3793SOL     OW22840   4.082   1.526   3.640  0.4328 -0.3924 -0.1662
 3793SOL    HW122841   4.104   1.572   3.721  0.0052  2.4172 -1.6502
 3793SOL    HW222842   3.991   1.556   3.636  0.3823 -0.4222  0.6615
 3794SOL     OW22843   2.444   0.540   4.142 -0.2868  0.3910 -0.0490
 3794SOL    HW122844   2.509   0.597   4.185  0.0346  1.4351 -1.9413
 3794SOL    HW222845   2.362   0.577   4.174  0.3543 -0.0542  2.1345
 3795SOL     OW22846   4.078   2.531   3.990 -0.1631 -0.0492 -0.1032
 3795SOL    HW122847   4.091   2.494   4.077  1.1660  0.0223 -0.2841
 3795SOL    HW222848   4.036   2.459   3.942  1.1378 -1.8091  1.3798
 3796SOL     OW22849   2.707   4.118   8.701 -0.0294  0.0380 -0.4435
 3796SOL    HW122850   2.736   4.043   8.649 -1.9081 -0.9022 -0.1198
 3796SOL    HW222851   2.705   4.092   8.793  1.2554 -0.5618 -0.5834
 3797SOL     OW22852   4.662   3.430   8.125 -0.3187  0.3886  0.1689
 3797SOL    HW122853   4.624   3.363   8.069 -0.8718  0.8454 -0.0075
 3797SOL    HW222854   4.591   3.478   8.169  0.6561  1.6489  0.3828
 3798SOL     OW22855   2.472   2.573   5.602 -0.2651  0.4547  0.2132
 3798SOL    HW122856   2.462   2.482   5.630 -0.5039  0.6830  0.8587
 3798SOL    HW222857   2.549   2.555   5.547 -0.7067  1.0911 -0.6169
 3799SOL     OW22858   3.985   0.090  16.507 -0.2298  0.3241  0.6413
 3799SOL    HW122859   3.995   0.147  16.430 -0.3371 -0.5920 -0.0554
 3799SOL    HW222860   3.920   0.132  16.564 -0.7102  1.0920 -0.4640
 3800SOL     OW22861   0.481   2.346   5.740  0.0072 -0.5946 -0.4365
 3800SOL    HW122862   0.478   2.428   5.788 -2.5178 -1.1729  0.4475
 3800SOL    HW222863   0.552   2.349   5.677  0.0574  0.0617 -0.3399
 3801SOL     OW22864   0.595   0.145   4.149 -0.0462  0.2126 -0.4091
 3801SOL    HW122865   0.667   0.207   4.164 -0.4891  0.8622 -0.9365
 3801SOL    HW222866   0.590   0.149   4.054 -0.1753 -0.8619 -0.4452
 3802SOL     OW22867   0.663   2.455   8.670  0.6214 -0.2812 -0.4130
 3802SOL    HW122868   0.582   2.434   8.624  0.4606  1.9144 -1.1289
 3802SOL    HW222869   0.642   2.417   8.755  2.2707  3.0178  1.4683
 3803SOL     OW22870   0.019   3.940   1.162  0.2042  0.2443 -0.2752
 3803SOL    HW122871   4.712   3.974   1.246 -1.8701 -1.4788 -0.3595
 3803SOL    HW222872   0.068   3.865   1.194  0.5327  0.1495 -1.0001
 3804SOL     OW22873   0.016   3.486   6.563 -0.4407  0.3449  0.3361
 3804SOL    HW122874   0.005   3.419   6.496 -0.9269  0.4519  0.3145
 3804SOL    HW222875   4.654   3.486   6.602  0.0197 -2.2989  1.3934
 3805SOL     OW22876   3.251   2.478  17.032 -0.2176 -0.2513 -1.0061
 3805SOL    HW122877   3.327   2.422  17.015  0.2922  0.3186 -0.5943
 3805SOL    HW222878   3.207   2.445  17.110  1.8930  0.5630  0.5158
 3806SOL     OW22879   1.839   0.503   8.579 -0.2325  0.3290 -0.7470
 3806SOL    HW122880   1.885   0.422   8.600 -1.3666 -0.3349 -0.8170
 3806SOL    HW222881   1.774   0.463   8.522 -1.9451  0.9778  0.7527
 3807SOL     OW22882   2.913   0.614  15.139 -0.2717 -0.1372 -0.7120
 3807SOL    HW122883   2.853   0.679  15.175 -1.4281 -1.2308 -0.6737
 3807SOL    HW222884   2.878   0.532  15.174 -0.6104  0.0298 -0.6653
 3808SOL     OW22885   2.983   3.193  12.376 -0.0279  0.1168  0.3587
 3808SOL    HW122886   2.898   3.170  12.338  1.7498 -1.6774 -2.5250
 3808SOL    HW222887   2.984   3.289  12.375 -0.4710  0.1367  2.5361
 3809SOL     OW22888   0.640   1.178   4.887  0.0079  0.4938 -0.4834
 3809SOL    HW122889   0.698   1.110   4.853 -1.1545  0.2566 -2.0104
 3809SOL    HW222890   0.626   1.239   4.815  0.9399  0.3450 -0.7868
 3810SOL     OW22891   1.007   0.532  10.176  0.3251 -0.2971  0.2440
 3810SOL    HW122892   0.975   0.476  10.247  0.2052 -0.3833  0.1196
 3810SOL    HW222893   0.985   0.619  10.210  0.4649 -0.1509 -0.0452
 3811SOL     OW22894   0.676   4.579   1.239  0.5040  0.2571  0.0389
 3811SOL    HW122895   0.615   4.584   1.313  1.2657 -0.4364  0.7076
 3811SOL    HW222896   0.638   4.651   1.189 -1.1591  0.8397  2.0900
 3812SOL     OW22897   2.447   3.078   8.456  0.0953  0.0114  0.1695
 3812SOL    HW122898   2.353   3.066   8.467  0.3940 -1.7449  0.8257
 3812SOL    HW222899   2.476   3.008   8.515  1.2159  0.9177  0.6980
 3813SOL     OW22900   0.653   2.321   5.546 -0.4238  0.0691  0.2433
 3813SOL    HW122901   0.591   2.307   5.475  0.1704  1.0248 -0.4745
 3813SOL    HW222902   0.740   2.305   5.510 -0.0818 -0.0104  1.1126
 3814SOL     OW22903   3.293   2.971   4.723 -0.2339  0.1482 -0.5122
 3814SOL    HW122904   3.303   2.879   4.748  2.2083 -0.0306 -2.1048
 3814SOL    HW222905   3.317   3.015   4.804 -1.1823 -1.3700  0.5857
 3815SOL     OW22906   2.023   1.747  15.323 -0.6509  0.2067 -0.3467
 3815SOL    HW122907   2.042   1.829  15.278 -0.9519  1.2979  1.5119
 3815SOL    HW222908   1.976   1.764  15.405 -0.5903  0.4758 -0.3683
 3816SOL     OW22909   1.913   3.208   0.278 -0.1998  0.4772 -0.0393
 3816SOL    HW122910   1.995   3.162   0.263  0.1889  0.2795  2.6917
 3816SOL    HW222911   1.930   3.247   0.364 -1.3134 -0.5435  0.6619
 3817SOL     OW22912   3.922   0.840   7.495 -0.1778  0.1417 -0.1954
 3817SOL    HW122913   3.868   0.898   7.549 -0.2339 -1.7475  1.7818
 3817SOL    HW222914   3.860   0.767   7.484  1.0959 -1.4431  3.1082
 3818SOL     OW22915   0.095   4.288   3.021 -0.0334  0.2407 -0.5414
 3818SOL    HW122916   0.027   4.236   3.062  1.0967 -0.0084  1.0017
 3818SOL    HW222917   0.043   4.328   2.951  0.6082  0.8636 -0.6678
 3819SOL     OW22918   2.613   3.652   0.230  0.1179  0.2931 -0.3909
 3819SOL    HW122919   2.538   3.708   0.211 -2.2492 -3.0376 -0.8145
 3819SOL    HW222920   2.619   3.681   0.321  0.3714 -2.4306  0.4684
 3820SOL     OW22921   1.484   4.241   6.537  0.0267 -0.3791 -0.4661
 3820SOL    HW122922   1.542   4.164   6.541  0.4175 -0.1573 -2.0548
 3820SOL    HW222923   1.407   4.204   6.579 -0.4204 -0.8570 -1.7116
 3821SOL     OW22924   0.250   0.085   3.445 -0.9340  0.1536 -0.0901
 3821SOL    HW122925   0.169   0.076   3.496 -0.3163  0.7801  1.0125
 3821SOL    HW222926   0.301   0.121   3.519  1.1915  3.8265 -3.3688
 3822SOL     OW22927   2.383   1.112   3.764  0.4398 -0.4325  0.0306
 3822SOL    HW122928   2.398   1.199   3.800 -0.4436 -0.2153 -0.1234
 3822SOL    HW222929   2.470   1.092   3.731  0.5451  0.9084 -0.5047
 3823SOL     OW22930   1.239   4.330   7.665 -0.0285 -0.0581  0.1554
 3823SOL    HW122931   1.295   4.328   7.588 -0.4296  0.3315 -0.1522
 3823SOL    HW222932   1.158   4.294   7.629  1.8634 -2.0663 -2.0174
 3824SOL     OW22933   3.891   2.465   8.230 -0.1848 -0.2134  0.6370
 3824SOL    HW122934   3.913   2.381   8.270  1.8508  0.1092  0.1693
 3824SOL    HW222935   3.859   2.518   8.303 -0.0367 -1.1589  1.3790
 3825SOL     OW22936   3.419   0.051   0.718 -0.2679 -0.1131 -0.1585
 3825SOL    HW122937   3.451   0.083   0.633  0.7756 -0.7055 -0.0012
 3825SOL    HW222938   3.388   0.130   0.761 -0.3683  1.0330 -2.3290
 3826SOL     OW22939   3.064   0.258  10.065 -0.5679  0.3904  0.1239
 3826SOL    HW122940   3.024   0.171  10.073 -1.6542  0.6928 -2.0140
 3826SOL    HW222941   3.082   0.272  10.158 -1.8676  1.4866  0.2092
 3827SOL     OW22942   1.718   3.196   8.379  0.4359  0.2960 -0.0246
 3827SOL    HW122943   1.682   3.161   8.298 -0.6184 -0.8278  0.9351
 3827SOL    HW222944   1.669   3.278   8.390 -3.8075 -2.3982  0.9544
 3828SOL     OW22945   3.596   2.445   2.165  0.7552 -0.1299 -0.5961
 3828SOL    HW122946   3.606   2.530   2.122 -0.9463  0.0796 -0.5714
 3828SOL    HW222947   3.627   2.394   2.090  0.7759  0.1788 -0.7982
 3829SOL     OW22948   2.604   1.531   3.534  0.1324  0.9056  0.2416
 3829SOL    HW122949   2.545   1.594   3.492 -0.5672  0.2135  0.1908
 3829SOL    HW222950   2.575   1.449   3.494 -1.1235  0.3979  2.1950
 3830SOL     OW22951   1.339   2.983   1.626  0.5251 -0.0349  0.4700
 3830SOL    HW122952   1.262   3.039   1.639 -0.3245 -0.3785 -2.8926
 3830SOL    HW222953   1.314   2.927   1.553  1.9838 -1.1418  0.8361
 3831SOL     OW22954   2.656   2.240   8.072 -0.0483 -0.5066 -0.5065
 3831SOL    HW122955   2.584   2.196   8.028 -0.7340  1.4750 -1.3469
 3831SOL    HW222956   2.631   2.332   8.070  1.6586  0.0048  2.0267
 3832SOL     OW22957   1.670   1.077  11.441 -0.4332  0.2865  0.4748
 3832SOL    HW122958   1.707   1.056  11.527  0.8372  0.3161 -0.0738
 3832SOL    HW222959   1.631   1.164  11.454 -0.8809 -0.0177  1.2172
 3833SOL     OW22960   2.794   3.505   9.261 -0.3802 -0.4964  0.0027
 3833SOL    HW122961   2.737   3.578   9.287 -0.4513 -0.1152 -1.1921
 3833SOL    HW222962   2.815   3.472   9.348 -2.0226  0.3098  0.7111
 3834SOL     OW22963   4.002   4.402  14.465  0.3403  0.4133 -0.2402
 3834SOL    HW122964   4.093   4.418  14.443 -0.7524  2.1638 -3.4525
 3834SOL    HW222965   4.010   4.312  14.496 -1.1006  0.2838 -0.2411
 3835SOL     OW22966   3.640   1.169   2.793  0.3473 -0.1014 -0.2081
 3835SOL    HW122967   3.709   1.212   2.843  1.7446  0.1733 -2.3764
 3835SOL    HW222968   3.654   1.078   2.820  0.7930 -0.3554 -1.3168
 3836SOL     OW22969   2.491   3.789   4.915  0.4606 -0.3840  0.0523
 3836SOL    HW122970   2.418   3.742   4.875 -0.7013  0.8302  0.7472
 3836SOL    HW222971   2.458   3.812   5.002  1.6306 -0.1839  0.4435
 3837SOL     OW22972   1.373   3.489   5.356  0.2524 -0.0473  0.7247
 3837SOL    HW122973   1.378   3.571   5.405 -2.3004  1.1148 -0.9921
 3837SOL    HW222974   1.374   3.414   5.416 -0.8028 -0.5152  0.1521
 3838SOL     OW22975   3.790   4.677   6.452  0.1233 -0.1955 -0.3122
 3838SOL    HW122976   3.854   4.643   6.390 -0.3874  1.4718 -1.7540
 3838SOL    HW222977   3.838   0.021   6.496 -2.6352  1.4721  0.0746
 3839SOL     OW22978   3.039   2.775  10.974 -0.3148  0.0610  0.0927
 3839SOL    HW122979   2.954   2.811  10.951  0.3226  0.4157 -1.7275
 3839SOL    HW222980   3.076   2.739  10.893 -1.1210 -0.6633  0.0522
 3840SOL     OW22981   2.070   3.624   7.776 -0.1606  0.1127 -0.2400
 3840SOL    HW122982   1.995   3.597   7.828 -0.0657 -0.5518 -0.4387
 3840SOL    HW222983   2.025   3.593   7.697 -0.9562  0.7135 -0.0229
 3841SOL     OW22984   4.118   2.488   8.828 -0.3240  0.7077  0.0867
 3841SOL    HW122985   4.027   2.460   8.835 -0.0941 -0.2220 -0.5550
 3841SOL    HW222986   4.117   2.579   8.855  0.8203  0.3917  1.1775
 3842SOL     OW22987   3.570   1.432   0.029  0.1082  0.6158  0.1180
 3842SOL    HW122988   3.504   1.440   0.098 -1.7396 -3.5642 -1.2072
 3842SOL    HW222989   3.556   1.505  17.670  0.3580  1.8724  1.5721
 3843SOL     OW22990   3.380   0.984   3.898  1.0433 -0.0042 -0.6256
 3843SOL    HW122991   3.469   0.948   3.906  2.2307  2.8135 -1.2860
 3843SOL    HW222992   3.388   1.079   3.909 -0.6665 -0.0258  0.7531
 3844SOL     OW22993   3.432   1.865  11.740 -0.1880  0.2104  0.3134
 3844SOL    HW122994   3.390   1.933  11.687  0.5829 -0.0349 -0.6162
 3844SOL    HW222995   3.362   1.801  11.740  0.8141 -0.8709 -0.0701
 3845SOL     OW22996   1.772   1.280  14.378 -0.0240 -0.4936 -0.1259
 3845SOL    HW122997   1.735   1.208  14.429 -0.9474  0.2367  0.2153
 3845SOL    HW222998   1.723   1.276  14.295 -1.4030 -1.6562  0.7493
 3846SOL     OW22999   2.677   0.053   7.508 -0.4468  0.9048  0.5899
 3846SOL    HW123000   2.585   0.029   7.497 -0.5206  1.6819 -0.4426
 3846SOL    HW223001   2.715   4.690   7.507 -2.3106  0.1121 -0.3778
 3847SOL     OW23002   1.319   0.632   3.156  0.2654 -0.8895 -0.4443
 3847SOL    HW123003   1.371   0.642   3.236  1.6235 -1.1686 -1.2867
 3847SOL    HW223004   1.234   0.657   3.192  0.6635  1.7434 -1.3454
 3848SOL     OW23005   3.663   0.885   7.273 -0.2317 -0.3199 -0.0254
 3848SOL    HW123006   3.732   0.819   7.264 -0.3048 -0.2728 -0.8658
 3848SOL    HW223007   3.589   0.829   7.297 -0.3521 -0.1812 -0.0731
 3849SOL     OW23008   0.957   3.942   7.181  0.0755  0.7873  0.2179
 3849SOL    HW123009   1.023   4.008   7.157  0.7041 -0.3815 -1.3316
 3849SOL    HW223010   0.957   3.944   7.276 -0.8575 -1.3976  0.2539
 3850SOL     OW23011   4.615   3.562   2.444  0.0814  0.4883  0.2105
 3850SOL    HW123012   4.540   3.507   2.420  0.5864  1.3253 -3.2513
 3850SOL    HW223013   4.681   3.495   2.426  0.3069  0.3359  1.5715
 3851SOL     OW23014   2.037   0.149   1.634  0.0951  0.4963 -0.0708
 3851SOL    HW123015   2.002   0.211   1.699  0.7354 -1.1008  1.8166
 3851SOL    HW223016   2.131   0.166   1.634 -0.0502  1.3272  1.1239
 3852SOL     OW23017   3.829   1.258   7.857  0.3178  0.1414  0.4352
 3852SOL    HW123018   3.830   1.269   7.762 -3.1376 -3.9306 -0.0161
 3852SOL    HW223019   3.752   1.313   7.868  1.3420  1.8681 -1.0062
 3853SOL     OW23020   4.436   1.912   7.350 -0.1770  0.1430 -0.3942
 3853SOL    HW123021   4.396   1.832   7.316 -0.2044  0.3984 -0.9509
 3853SOL    HW223022   4.525   1.877   7.345 -1.0228 -1.9797 -0.8072
 3854SOL     OW23023   2.104   4.627  13.420  0.1826  0.2478  0.0976
 3854SOL    HW123024   2.184   4.652  13.465 -0.7882  2.8961  0.3189
 3854SOL    HW223025   2.033   4.688  13.443 -0.5812 -1.1235  1.3759
 3855SOL     OW23026   4.545   3.843   8.561  0.1394 -0.3906 -0.3094
 3855SOL    HW123027   4.526   3.850   8.468 -1.9930  0.0077  0.1604
 3855SOL    HW223028   4.466   3.803   8.596 -0.0636  0.7281  0.5077
 3856SOL     OW23029   0.671   0.750   6.286  0.5268 -0.7549  0.5633
 3856SOL    HW123030   0.753   0.762   6.334  1.5921 -0.1994 -1.4010
 3856SOL    HW223031   0.623   0.826   6.318  0.8744  0.7246 -2.4360
 3857SOL     OW23032   0.170   3.556  14.573 -0.2711  0.2841  0.1527
 3857SOL    HW123033   0.121   3.554  14.655 -0.5817  3.0242  0.0075
 3857SOL    HW223034   0.233   3.626  14.590  2.2409 -1.8628 -0.2362
 3858SOL     OW23035   4.587   3.354  14.869  0.0859  0.1662  0.6304
 3858SOL    HW123036   4.496   3.326  14.880  0.8848 -2.1742  1.2170
 3858SOL    HW223037   4.571   3.433  14.817  0.4455 -0.2022 -0.0508
 3859SOL     OW23038   4.547   4.581   7.155 -0.2439 -0.3065  0.1971
 3859SOL    HW123039   4.466   4.631   7.145  1.2045  2.0775  0.4992
 3859SOL    HW223040   4.613   4.648   7.171 -2.3027  2.3334 -2.2799
 3860SOL     OW23041   0.987   2.781   5.273  0.7228  0.0394  0.0706
 3860SOL    HW123042   0.978   2.782   5.368  0.0683  4.3047 -0.0434
 3860SOL    HW223043   0.983   2.876   5.264 -0.0059  0.2096  2.1591
 3861SOL     OW23044   1.665   0.811   4.736  0.0743  0.6598 -0.4026
 3861SOL    HW123045   1.753   0.807   4.697  0.2246 -0.7735  0.0960
 3861SOL    HW223046   1.670   0.892   4.788  0.1401  1.7054 -2.0549
 3862SOL     OW23047   4.653   0.232   3.079 -0.6101 -0.1756  0.1432
 3862SOL    HW123048   4.693   0.196   3.000 -1.0801  2.6298 -1.3729
 3862SOL    HW223049   4.601   0.158   3.111 -0.5581 -0.2393  0.0821
 3863SOL     OW23050   4.499   3.907   2.974 -0.4261  0.2736  0.2179
 3863SOL    HW123051   4.438   3.919   2.901 -3.4298 -2.9301  2.1495
 3863SOL    HW223052   4.462   3.829   3.017 -0.6976 -0.3566 -1.1566
 3864SOL     OW23053   3.382   0.925   2.997  0.4288 -0.2743 -0.4056
 3864SOL    HW123054   3.423   0.842   3.024  1.5020 -0.2023 -1.7752
 3864SOL    HW223055   3.408   0.974   3.075 -1.7384 -0.0187  0.1328
 3865SOL     OW23056   2.271   3.688  10.300  0.2561  0.2934 -0.4820
 3865SOL    HW123057   2.295   3.758  10.361 -1.1457  0.4137 -0.0661
 3865SOL    HW223058   2.301   3.735  10.223  0.7131  0.1230 -0.4082
 3866SOL     OW23059   2.977   1.134  13.655  0.2693 -0.3631 -0.6101
 3866SOL    HW123060   3.041   1.122  13.725 -0.7678  3.4042  1.0021
 3866SOL    HW223061   3.018   1.192  13.590  2.8807 -2.0160 -0.4274
 3867SOL     OW23062   2.800   3.085   5.482 -0.4559 -0.2802  0.1771
 3867SOL    HW123063   2.759   3.006   5.447 -0.4953  0.1904 -0.8285
 3867SOL    HW223064   2.851   3.033   5.544  0.4787 -0.3943 -0.6853
 3868SOL     OW23065   3.504   2.711   8.541 -0.2511  0.1373  0.4617
 3868SOL    HW123066   3.543   2.724   8.627  3.1787 -0.3174 -1.0303
 3868SOL    HW223067   3.410   2.704   8.560 -0.9563  1.3711 -2.4394
 3869SOL     OW23068   1.439   2.110   5.674 -0.3682 -0.0043 -0.1497
 3869SOL    HW123069   1.435   2.205   5.676  0.2021  0.0063  0.2885
 3869SOL    HW223070   1.412   2.085   5.585 -1.1716 -1.1103  0.4048
 3870SOL     OW23071   2.250   3.084  17.637  0.2526  0.4327 -0.2803
 3870SOL    HW123072   2.232   3.018  17.571  1.3763 -0.6989  0.5398
 3870SOL    HW223073   2.343   3.074  17.617  0.2482 -1.7513  0.8092
 3871SOL     OW23074   3.102   1.297   6.666 -0.1043 -0.0070  0.1470
 3871SOL    HW123075   3.180   1.345   6.694  0.9476 -1.2218 -0.6600
 3871SOL    HW223076   3.091   1.334   6.578 -1.2207  2.9440  1.5671
 3872SOL     OW23077   2.861   3.296   7.300  0.2053 -0.1878  0.0975
 3872SOL    HW123078   2.835   3.344   7.221  0.7948  0.9955  0.6266
 3872SOL    HW223079   2.775   3.261   7.323  1.0979 -2.6024 -0.2382
 3873SOL     OW23080   4.353   0.436   5.100  0.5757 -0.2627 -0.2113
 3873SOL    HW123081   4.276   0.382   5.116  0.5988  0.5184  2.5306
 3873SOL    HW223082   4.391   0.433   5.188 -1.1252  0.4549  0.5418
 3874SOL     OW23083   2.501   1.370   4.249  0.3820  0.5915  0.3364
 3874SOL    HW123084   2.564   1.314   4.295 -0.6322 -1.0356 -0.2740
 3874SOL    HW223085   2.566   1.427   4.208 -0.2175  1.5407  0.7329
 3875SOL     OW23086   1.368   2.680   9.766 -0.1325  0.0649 -0.8848
 3875SOL    HW123087   1.374   2.602   9.822 -3.9506  2.3439  2.6629
 3875SOL    HW223088   1.311   2.734   9.821  1.4345  0.5985  0.1896
 3876SOL     OW23089   4.301   3.573   7.560  0.2432 -0.2598  1.0232
 3876SOL    HW123090   4.275   3.575   7.467  1.1598  2.7723  0.8630
 3876SOL    HW223091   4.346   3.657   7.569 -1.3400  0.6725  0.2866
 3877SOL     OW23092   1.769   2.702   8.247  0.3027  0.4510 -0.2705
 3877SOL    HW123093   1.849   2.734   8.288 -0.5061  0.9457  0.9456
 3877SOL    HW223094   1.796   2.620   8.206 -0.8195 -2.0244  3.9521
 3878SOL     OW23095   3.228   4.027   7.050  0.1156  0.3275  0.3306
 3878SOL    HW123096   3.146   4.018   7.099 -1.1519  1.1213 -1.6507
 3878SOL    HW223097   3.266   3.947   7.087 -1.7819  0.5147  2.6934
 3879SOL     OW23098   0.343   1.012   6.757  0.1251 -0.0854 -0.2610
 3879SOL    HW123099   0.290   1.082   6.721  0.1108 -0.6621 -1.3490
 3879SOL    HW223100   0.426   1.042   6.720  1.2395 -0.3465  2.0208
 3880SOL     OW23101   3.451   3.618   9.007  0.3639 -0.0967 -0.0427
 3880SOL    HW123102   3.430   3.692   9.064  2.0644 -0.2493  0.7785
 3880SOL    HW223103   3.546   3.631   9.006  0.2000  1.0502 -0.6364
 3881SOL     OW23104   0.184   3.039   1.646 -0.1097 -0.1294  0.3520
 3881SOL    HW123105   0.214   2.978   1.713 -1.1427 -0.7292  0.2763
 3881SOL    HW223106   0.177   2.994   1.561 -0.6750  1.2299 -0.3242
 3882SOL     OW23107   0.915   3.698  17.414 -0.0678  0.1375  0.0777
 3882SOL    HW123108   0.820   3.700  17.429 -0.2393  1.2588 -1.0486
 3882SOL    HW223109   0.904   3.700  17.318 -0.3892  0.9522  0.1319
 3883SOL     OW23110   1.111   3.322   3.849 -0.3707 -0.2475 -0.1516
 3883SOL    HW123111   1.055   3.398   3.835  2.0724  1.5840  0.0475
 3883SOL    HW223112   1.164   3.332   3.770  1.9274 -0.2708  1.4061
 3884SOL     OW23113   4.510   1.444  13.932 -0.0958 -0.4105  0.1816
 3884SOL    HW123114   4.428   1.493  13.945 -0.5472 -1.4598  1.2895
 3884SOL    HW223115   4.484   1.352  13.936 -0.2758 -0.3169  1.0188
 3885SOL     OW23116   0.981   0.632   5.450 -0.4753  0.3309  0.0100
 3885SOL    HW123117   0.980   0.654   5.543 -3.6418 -2.1287  0.5621
 3885SOL    HW223118   0.938   0.712   5.418  1.6243  0.9767 -1.2148
 3886SOL     OW23119   3.722   1.929   6.752  0.3223  0.5349 -0.3556
 3886SOL    HW123120   3.755   1.901   6.667 -2.5788 -0.3797 -1.2019
 3886SOL    HW223121   3.637   1.960   6.721  0.2557 -0.5709 -1.2673
 3887SOL     OW23122   3.280   0.863   2.128 -0.6742 -0.0374  0.1115
 3887SOL    HW123123   3.186   0.848   2.133 -1.1525  3.2887  1.4642
 3887SOL    HW223124   3.307   0.774   2.148 -1.9504 -0.7360 -1.2730
 3888SOL     OW23125   1.116   1.065   6.912 -0.5407 -0.5185 -0.2992
 3888SOL    HW123126   1.178   1.033   6.977 -0.5504 -1.2370 -0.6474
 3888SOL    HW223127   1.049   1.108   6.965  0.6864  2.5836 -1.2306
 3889SOL     OW23128   1.775   4.213   7.363  0.0582  0.1958 -1.1213
 3889SOL    HW123129   1.713   4.147   7.332 -0.6726 -0.5680  1.9403
 3889SOL    HW223130   1.770   4.195   7.457 -2.6362  1.0657 -1.1098
 3890SOL     OW23131   2.846   4.135  14.885  0.0113 -0.0716  0.0075
 3890SOL    HW123132   2.798   4.072  14.832  0.8320 -0.0294 -0.7698
 3890SOL    HW223133   2.850   4.208  14.823  0.2923  0.2257  0.3708
 3891SOL     OW23134   0.041   3.827  10.675 -0.3523 -0.5353 -0.9306
 3891SOL    HW123135   0.087   3.744  10.666  1.6790  0.1503  3.1796
 3891SOL    HW223136   0.114   3.888  10.666 -0.6033 -0.1962 -0.6954
 3892SOL     OW23137   0.262   2.340   5.093 -0.1300 -0.3111  0.7053
 3892SOL    HW123138   0.356   2.326   5.101 -0.2440 -0.6564  1.4401
 3892SOL    HW223139   0.220   2.270   5.143 -0.5677 -0.6532 -0.1525
 3893SOL     OW23140   2.833   4.246   5.412 -0.1359  0.2392 -0.2766
 3893SOL    HW123141   2.908   4.226   5.356  0.3069  2.4222 -0.4646
 3893SOL    HW223142   2.825   4.337   5.385  1.1791  0.1246 -1.0765
 3894SOL     OW23143   2.922   3.779   4.201  0.1432  0.2051 -0.3983
 3894SOL    HW123144   2.948   3.851   4.142  1.3193  0.4623  0.4297
 3894SOL    HW223145   2.861   3.738   4.140 -1.3341 -0.0593  1.2683
 3895SOL     OW23146   0.364   4.712  11.494 -0.3107  0.1976 -0.1235
 3895SOL    HW123147   0.374   4.715  11.399  0.4327 -0.5998 -0.0686
 3895SOL    HW223148   0.315   4.631  11.506 -0.7382  0.4777  0.0428
 3896SOL     OW23149   1.329   1.961   4.588  0.2797  0.2443  0.0029
 3896SOL    HW123150   1.311   2.000   4.674 -2.5150  0.7007 -0.7756
 3896SOL    HW223151   1.417   1.927   4.603  0.7938 -0.0931 -3.6519
 3897SOL     OW23152   1.967   4.562   6.240 -0.1051  0.6454 -0.2242
 3897SOL    HW123153   1.963   4.656   6.255  1.5107  0.1774  3.1374
 3897SOL    HW223154   1.982   4.560   6.145  1.5820  2.3671  0.0197
 3898SOL     OW23155   0.557   0.512   3.951  0.4058  0.4400 -0.0277
 3898SOL    HW123156   0.592   0.426   3.930 -1.2554 -0.1506 -0.3673
 3898SOL    HW223157   0.468   0.496   3.921  0.7746  0.3077 -1.0324
 3899SOL     OW23158   2.054   4.589  17.288  0.3150 -0.2568  0.0690
 3899SOL    HW123159   2.103   4.508  17.275  0.2755 -0.3297  0.3849
 3899SOL    HW223160   1.972   4.581  17.239  0.1595 -1.8793  0.5708
 3900SOL     OW23161   0.970   3.184   3.440 -0.2280 -0.2359 -0.6128
 3900SOL    HW123162   1.028   3.110   3.418  0.6131  0.2373 -0.0166
 3900SOL    HW223163   0.923   3.135   3.508 -0.3963 -2.0399 -2.0390
 3901SOL     OW23164   3.761   0.477   2.744  0.2638 -0.8838  0.2761
 3901SOL    HW123165   3.832   0.412   2.747  1.4392  0.4128  0.1729
 3901SOL    HW223166   3.804   0.539   2.802  0.2315 -0.6446  0.0416
 3902SOL     OW23167   2.483   0.053  11.321  0.1545  0.0879  0.2621
 3902SOL    HW123168   2.390   0.045  11.343  0.6265 -0.2740  2.1279
 3902SOL    HW223169   2.502   0.106  11.399 -0.8332  0.9341 -0.0691
 3903SOL     OW23170   4.594   2.916   3.033 -0.6513 -0.5812 -0.2519
 3903SOL    HW123171   4.681   2.878   3.018 -0.6288 -1.0540  1.0648
 3903SOL    HW223172   4.585   2.995   2.980 -2.5336 -0.9574 -0.4852
 3904SOL     OW23173   4.294   0.329  12.256  0.4691 -0.2306 -0.2606
 3904SOL    HW123174   4.363   0.392  12.273  2.5272 -2.3620 -0.6437
 3904SOL    HW223175   4.232   0.384  12.208  1.2490  0.0657 -0.9187
 3905SOL     OW23176   0.422   4.391   6.326  0.4813 -0.4757 -0.2486
 3905SOL    HW123177   0.492   4.448   6.295  1.1261  0.0705  2.2445
 3905SOL    HW223178   0.428   4.427   6.415 -0.0277  1.7874 -1.1392
 3906SOL     OW23179   2.301   4.568   6.958  0.3685  0.1605  0.4186
 3906SOL    HW123180   2.294   4.650   6.909 -0.3070 -0.0501  0.1677
 3906SOL    HW223181   2.394   4.554   6.940  0.2365  0.6706 -0.6549
 3907SOL     OW23182   2.542   0.660   7.214  0.5851  0.1644 -0.1562
 3907SOL    HW123183   2.608   0.612   7.264  0.1979  0.1771  0.3633
 3907SOL    HW223184   2.497   0.704   7.286 -1.2990  0.4635 -1.4939
 3908SOL     OW23185   2.090   2.235   2.567  0.1825  0.3949  0.2605
 3908SOL    HW123186   2.009   2.190   2.594  0.1606  1.5728  2.2102
 3908SOL    HW223187   2.144   2.160   2.542 -0.0642  0.3429 -0.1156
 3909SOL     OW23188   0.170   2.785   9.527 -0.3386 -0.1595  0.6387
 3909SOL    HW123189   0.165   2.777   9.622 -2.5239 -1.7779  0.3887
 3909SOL    HW223190   0.264   2.806   9.521 -0.7445  0.8479 -2.6130
 3910SOL     OW23191   1.973   1.201   3.683  0.3135 -0.2729  0.2849
 3910SOL    HW123192   1.931   1.287   3.691  0.6661  0.0218 -1.0767
 3910SOL    HW223193   1.966   1.170   3.773 -0.0751  1.4652  0.8660
 3911SOL     OW23194   1.516   2.617   4.794 -0.0958 -0.0866  0.1456
 3911SOL    HW123195   1.471   2.679   4.851 -2.0651  0.7887 -2.3451
 3911SOL    HW223196   1.471   2.533   4.807 -1.7241  0.4277 -2.1329
 3912SOL     OW23197   3.941   1.007   2.681 -0.1474  0.1930 -0.1905
 3912SOL    HW123198   3.854   0.968   2.692  0.0605 -0.6108 -1.3609
 3912SOL    HW223199   3.961   1.062   2.756  0.3040  2.2490 -1.8326
 3913SOL     OW23200   2.201   4.580   2.406  0.0327 -0.0829  0.4361
 3913SOL    HW123201   2.195   4.518   2.479 -2.6924 -0.1115  0.1799
 3913SOL    HW223202   2.289   4.550   2.380 -0.2807 -1.5178  1.0295
 3914SOL     OW23203   0.766   3.246   6.493  0.1310  0.2859 -0.1595
 3914SOL    HW123204   0.787   3.206   6.577 -0.3897  1.7812  0.6765
 3914SOL    HW223205   0.671   3.250   6.492  0.1779  1.2318 -0.3397
 3915SOL     OW23206   2.964   2.974   4.642 -0.4350  0.1215  0.1697
 3915SOL    HW123207   2.952   3.048   4.702 -1.4964 -0.8746  1.2006
 3915SOL    HW223208   3.034   2.930   4.691 -1.1066 -1.3082 -0.1500
 3916SOL     OW23209   0.077   1.609  14.001 -0.0937 -0.3082  0.2653
 3916SOL    HW123210   0.153   1.641  14.050  0.3242 -0.4976 -0.2535
 3916SOL    HW223211   0.109   1.601  13.911 -0.4946 -1.1989  0.1998
 3917SOL     OW23212   4.394   3.636   5.830  0.5337 -0.2314 -0.4416
 3917SOL    HW123213   4.483   3.625   5.798 -0.0015 -0.5512 -1.8359
 3917SOL    HW223214   4.352   3.593   5.755  2.0297 -2.0800 -0.2166
 3918SOL     OW23215   1.307   1.021   4.605 -0.0666  0.2506 -0.3791
 3918SOL    HW123216   1.215   1.024   4.581 -0.2258  0.6246  0.2913
 3918SOL    HW223217   1.322   0.927   4.608  1.4359  0.4957 -0.0931
 3919SOL     OW23218   1.548   4.471   0.941 -0.2774  0.2049  0.1283
 3919SOL    HW123219   1.605   4.416   0.888  1.1301  1.3840  0.4230
 3919SOL    HW223220   1.614   4.487   1.009  0.0273  0.7410 -0.2930
 3920SOL     OW23221   4.340   1.379   2.189  0.4963  0.2720  0.2012
 3920SOL    HW123222   4.356   1.338   2.275  4.4187 -0.9557 -1.1031
 3920SOL    HW223223   4.279   1.321   2.144  1.1621  0.1265 -0.5134
 3921SOL     OW23224   4.110   2.477   5.896 -0.5471  0.4346  0.5727
 3921SOL    HW123225   4.112   2.547   5.961 -1.4360  1.8333 -0.9037
 3921SOL    HW223226   4.108   2.527   5.814 -0.5751  0.6183  0.6855
 3922SOL     OW23227   2.901   0.741   2.431  0.1541  0.3887 -0.3538
 3922SOL    HW123228   2.966   0.781   2.489  1.0216 -0.3237 -0.8394
 3922SOL    HW223229   2.817   0.785   2.446 -1.0834 -1.9952 -0.1870
 3923SOL     OW23230   3.652   2.331   2.438 -0.2215 -0.5067 -0.1986
 3923SOL    HW123231   3.743   2.330   2.406 -0.0790 -1.3037  0.2197
 3923SOL    HW223232   3.605   2.378   2.369 -1.8923 -3.3423 -1.0018
 3924SOL     OW23233   1.720   4.284   6.796 -0.1772  0.3345  0.1802
 3924SOL    HW123234   1.787   4.310   6.860 -1.1982  0.1479  1.3308
 3924SOL    HW223235   1.779   4.265   6.724  0.7030  1.2873  0.6433
 3925SOL     OW23236   1.719   4.696   3.641 -0.4682  0.4032 -0.3083
 3925SOL    HW123237   1.652   4.684   3.708  0.4894  2.1156  0.9713
 3925SOL    HW223238   1.707   0.061   3.609 -2.6269  0.1468 -0.2544
 3926SOL     OW23239   1.978   1.783   8.296  0.1053 -0.4478  0.2160
 3926SOL    HW123240   1.890   1.815   8.316 -0.6669 -0.6482 -2.8143
 3926SOL    HW223241   1.944   1.706   8.250  0.3395  0.9098 -2.2370
 3927SOL     OW23242   4.543   3.421   8.895 -0.5457  0.0464 -0.0766
 3927SOL    HW123243   4.474   3.363   8.860 -0.4344  0.1268 -0.4277
 3927SOL    HW223244   4.599   3.365   8.948 -1.5746 -0.7004  0.2204
 3928SOL     OW23245   2.016   1.758   4.223 -0.3969  0.5984 -0.9481
 3928SOL    HW123246   1.975   1.818   4.286 -0.0515 -2.0934  1.8140
 3928SOL    HW223247   2.092   1.744   4.280  0.0296 -1.2626 -1.9895
 3929SOL     OW23248   4.437   1.225   1.730 -0.2476 -0.3191 -0.0768
 3929SOL    HW123249   4.448   1.264   1.817 -0.7403 -0.3476 -0.0009
 3929SOL    HW223250   4.376   1.159   1.764 -0.6264 -0.5020 -1.1253
 3930SOL     OW23251   4.354   3.317   5.447  0.3631  0.0213 -0.0774
 3930SOL    HW123252   4.353   3.257   5.372 -1.0434 -0.9006  0.6784
 3930SOL    HW223253   4.287   3.379   5.419  0.5816  0.8451  1.2671
 3931SOL     OW23254   4.380   0.734   3.233  0.3877  0.4396  0.3397
 3931SOL    HW123255   4.464   0.704   3.199  0.2393  0.7498 -0.2949
 3931SOL    HW223256   4.368   0.703   3.323  3.0898 -0.9503  0.2153
 3932SOL     OW23257   2.556   2.004   2.619  0.0258  0.3108 -0.3088
 3932SOL    HW123258   2.465   1.978   2.605  0.7507 -3.2054  1.6240
 3932SOL    HW223259   2.543   2.083   2.672  1.4903  0.6610 -0.4719
 3933SOL     OW23260   3.002   2.819  13.668  0.8317  0.3453 -0.2409
 3933SOL    HW123261   2.934   2.755  13.646  0.4315 -0.3632  3.0256
 3933SOL    HW223262   2.958   2.903  13.679  0.4145 -0.0228  0.8908
 3934SOL     OW23263   0.904   1.216   8.501 -0.1228 -0.2559  0.0458
 3934SOL    HW123264   0.843   1.177   8.438 -0.0633  0.5274 -0.4923
 3934SOL    HW223265   0.872   1.306   8.508  0.2101 -0.3295  2.5653
 3935SOL     OW23266   3.400   2.505   5.022  0.0575  0.2221 -0.3996
 3935SOL    HW123267   3.367   2.443   5.088  1.5285 -1.0649 -0.8645
 3935SOL    HW223268   3.490   2.505   5.053  1.0388 -0.9318 -3.2350
 3936SOL     OW23269   1.171   1.041  12.406 -0.1385 -0.4531  0.0282
 3936SOL    HW123270   1.237   1.001  12.462 -0.0807  0.1802  0.4137
 3936SOL    HW223271   1.131   1.103  12.467 -1.6282 -0.3495 -1.0373
 3937SOL     OW23272   1.773   0.511   2.214 -0.1624 -0.4765  0.2752
 3937SOL    HW123273   1.686   0.472   2.202  0.1348 -0.7642 -0.9952
 3937SOL    HW223274   1.768   0.598   2.175 -1.4751 -0.1138  1.2582
 3938SOL     OW23275   3.462   3.731   3.946  0.7144 -0.3419 -0.0570
 3938SOL    HW123276   3.369   3.707   3.942  1.2740 -2.5909  0.6232
 3938SOL    HW223277   3.492   3.750   3.857  3.2686 -0.3848  0.8056
 3939SOL     OW23278   1.383   4.716   7.798 -0.2353  0.3212 -0.0357
 3939SOL    HW123279   1.401   0.072   7.846 -0.2473  0.4185 -0.1917
 3939SOL    HW223280   1.466   4.718   7.750 -0.3774  0.1915 -0.2903
 3940SOL     OW23281   0.809   3.560   7.665  0.1799  0.3031 -0.1111
 3940SOL    HW123282   0.729   3.581   7.713  0.5680  0.3297  0.5223
 3940SOL    HW223283   0.871   3.539   7.736 -1.3930  0.6908  1.3798
 3941SOL     OW23284   1.004   3.974  17.422  0.7980 -0.1706 -0.4181
 3941SOL    HW123285   0.984   3.883  17.403 -0.1137 -0.3321  1.3337
 3941SOL    HW223286   0.917   4.004  17.398 -0.2685 -2.3914  0.6915
 3942SOL     OW23287   1.144   1.951  10.054 -0.0344 -0.2777 -0.1890
 3942SOL    HW123288   1.149   2.004  10.134  3.3204 -1.6200  0.4926
 3942SOL    HW223289   1.081   1.885  10.085  1.4958 -2.2011 -1.2056
 3943SOL     OW23290   3.868   3.577   1.280  0.3063  0.2199  0.0872
 3943SOL    HW123291   3.787   3.629   1.284 -0.2891 -0.7171  0.2615
 3943SOL    HW223292   3.923   3.654   1.295 -1.5884  1.8594 -1.3171
 3944SOL     OW23293   0.688   4.089   8.542  0.0360  0.0312 -0.6608
 3944SOL    HW123294   0.605   4.136   8.535 -0.2637 -0.5698 -1.1308
 3944SOL    HW223295   0.705   4.081   8.448  1.1004 -1.5249 -0.3326
 3945SOL     OW23296   0.019   2.006   7.716 -0.2535 -0.3691  1.5001
 3945SOL    HW123297   0.094   1.964   7.673 -0.3225  1.3533 -0.2953
 3945SOL    HW223298   4.671   1.956   7.680  1.8026 -3.3684  1.3762
 3946SOL     OW23299   0.684   0.831  14.328  0.3528 -0.0996  0.0273
 3946SOL    HW123300   0.676   0.888  14.252  1.8633 -1.3262 -1.0384
 3946SOL    HW223301   0.715   0.894  14.393 -2.6010 -0.2390  1.5938
 3947SOL     OW23302   0.645   2.483  10.334  0.2563 -0.2866 -0.0384
 3947SOL    HW123303   0.600   2.531  10.403  0.4616  1.8245 -1.3634
 3947SOL    HW223304   0.677   2.557  10.282 -0.6334 -1.0125 -1.6165
 3948SOL     OW23305   0.586   1.555   4.397 -0.5975  0.4769  0.1618
 3948SOL    HW123306   0.508   1.551   4.452  0.7753 -0.6965  2.0011
 3948SOL    HW223307   0.646   1.516   4.460  0.7450 -0.6306 -1.7953
 3949SOL     OW23308   1.387   1.261  12.756  0.2462  0.4966  0.0478
 3949SOL    HW123309   1.363   1.201  12.826  1.9930 -0.7083 -0.3883
 3949SOL    HW223310   1.439   1.203  12.701  0.6589  2.3109 -1.4895
 3950SOL     OW23311   4.170   1.912   5.965  0.0202  0.4575 -0.8221
 3950SOL    HW123312   4.255   1.947   5.939  0.5751  1.4682  2.3358
 3950SOL    HW223313   4.199   1.821   5.969 -2.1364 -0.2569 -1.0214
 3951SOL     OW23314   0.450   3.885   7.007  0.3123  0.4076  0.0100
 3951SOL    HW123315   0.406   3.900   6.923  0.5591 -0.4500 -0.2693
 3951SOL    HW223316   0.450   3.789   7.003 -0.2077  0.3556  1.1664
 3952SOL     OW23317   1.628   1.005   2.682  0.2698 -0.1085 -0.0091
 3952SOL    HW123318   1.694   1.050   2.734  0.0532  0.5603 -0.3103
 3952SOL    HW223319   1.620   1.073   2.614 -1.6493  0.7056  1.0156
 3953SOL     OW23320   4.480   0.403   5.333  0.3884  0.5507 -0.0510
 3953SOL    HW123321   4.565   0.360   5.344 -0.2474 -0.9145 -0.9022
 3953SOL    HW223322   4.442   0.388   5.420  1.3265  0.0360  0.2693
 3954SOL     OW23323   2.989   0.987  10.523  0.6012  0.9399  0.0529
 3954SOL    HW123324   2.927   0.926  10.563 -1.9975  0.9888 -3.9253
 3954SOL    HW223325   2.999   0.950  10.436 -0.9961 -1.2064  0.8038
 3955SOL     OW23326   3.789   0.202   2.551 -0.4390 -0.4197  0.0923
 3955SOL    HW123327   3.783   0.209   2.646 -2.1286 -0.2258 -0.0265
 3955SOL    HW223328   3.837   0.120   2.537 -0.5641 -0.2339 -1.4327
 3956SOL     OW23329   4.441   2.187  12.831 -0.1443  0.1602  0.2218
 3956SOL    HW123330   4.481   2.184  12.918 -0.7071  1.0781  0.5000
 3956SOL    HW223331   4.393   2.269  12.842 -2.8160 -1.2759 -0.6930
 3957SOL     OW23332   3.272   1.682   9.623  0.3652  0.1920 -0.2970
 3957SOL    HW123333   3.320   1.737   9.685  2.0016  0.8943 -2.1802
 3957SOL    HW223334   3.299   1.594   9.649 -1.0371  0.7784  3.1394
 3958SOL     OW23335   2.320   4.044   7.512  0.5896  0.5985 -0.0743
 3958SOL    HW123336   2.304   4.112   7.447  0.3209  1.9420  1.3885
 3958SOL    HW223337   2.254   3.977   7.491  0.1598  0.5436  1.4443
 3959SOL     OW23338   2.010   0.545   2.666  0.3955  0.2880 -0.4280
 3959SOL    HW123339   1.990   0.544   2.573  0.0179  0.0392 -0.3449
 3959SOL    HW223340   1.924   0.539   2.708 -1.0097  0.3655 -3.2789
 3960SOL     OW23341   1.243   3.661  13.795  0.2569  0.0710  0.4239
 3960SOL    HW123342   1.172   3.599  13.811 -1.7460  2.3325  0.2335
 3960SOL    HW223343   1.200   3.719  13.731 -2.5662 -0.4611  1.8565
 3961SOL     OW23344   0.543   2.872   8.964  0.2172  0.1304  0.6309
 3961SOL    HW123345   0.574   2.955   8.930  2.1725 -0.2536  1.5340
 3961SOL    HW223346   0.572   2.807   8.900  1.4549 -0.4101  1.7441
 3962SOL     OW23347   3.538   0.728   3.091  1.2696 -0.2714 -0.0242
 3962SOL    HW123348   3.561   0.735   3.184 -0.9020  0.8789  0.4120
 3962SOL    HW223349   3.560   0.635   3.085  0.6062 -0.4746  0.7308
 3963SOL     OW23350   4.016   2.045   0.296  0.2821  0.3058 -0.4610
 3963SOL    HW123351   4.068   1.976   0.253 -1.3346 -0.7631 -0.7198
 3963SOL    HW223352   4.071   2.123   0.296  0.2884  0.3024 -0.6573
 3964SOL     OW23353   1.920   4.047   4.218 -0.0134 -0.4462  0.1619
 3964SOL    HW123354   1.988   4.102   4.178 -0.5079  1.4198  1.8896
 3964SOL    HW223355   1.984   3.999   4.271  0.4692  0.4609  0.4002
 3965SOL     OW23356   3.038   1.876   7.564  0.4784  0.0266  0.0051
 3965SOL    HW123357   2.961   1.921   7.600 -0.6477 -0.2736 -1.9886
 3965SOL    HW223358   3.109   1.907   7.619  0.0086 -0.2637  0.7795
 3966SOL     OW23359   4.570   1.054   6.975  0.4882 -0.2437  0.1088
 3966SOL    HW123360   4.581   0.959   6.973  0.6865 -0.1582 -2.5292
 3966SOL    HW223361   4.554   1.061   7.069  1.5654 -2.1244  0.4325
 3967SOL     OW23362   2.098   4.513  10.352  0.4666 -0.0831  0.0619
 3967SOL    HW123363   2.022   4.490  10.299  0.3206  0.6242 -0.0360
 3967SOL    HW223364   2.105   4.609  10.354 -0.4358  0.0635 -3.5756
 3968SOL     OW23365   4.160   1.475  13.691 -0.0853  0.1191 -0.3985
 3968SOL    HW123366   4.121   1.401  13.643  0.4287 -0.0173 -0.6092
 3968SOL    HW223367   4.078   1.524  13.695  1.2966  2.3890 -0.2280
 3969SOL     OW23368   3.164   4.383   7.774 -0.0058  0.3680  0.4046
 3969SOL    HW123369   3.226   4.356   7.841  1.6249  2.8596 -0.0911
 3969SOL    HW223370   3.136   4.462   7.820 -1.3812 -0.6032  1.2306
 3970SOL     OW23371   2.009   1.921  11.671 -0.0464  0.4168  0.3108
 3970SOL    HW123372   2.089   1.885  11.630 -0.0887 -1.6454  2.0062
 3970SOL    HW223373   1.942   1.879  11.617  0.0028 -1.4975  1.7202
 3971SOL     OW23374   1.889   0.635   4.234 -0.0553  0.0736  0.5462
 3971SOL    HW123375   1.824   0.572   4.265  1.8890 -2.0534  0.2940
 3971SOL    HW223376   1.859   0.716   4.276 -0.4717  1.3468 -2.2202
 3972SOL     OW23377   2.192   1.487   0.957  0.0608  0.1767 -0.0734
 3972SOL    HW123378   2.279   1.469   0.992 -0.9069 -1.6980  1.4238
 3972SOL    HW223379   2.191   1.442   0.873  0.5810  2.0090 -1.0488
 3973SOL     OW23380   0.517   3.348  16.119  0.0496 -0.5173 -0.2848
 3973SOL    HW123381   0.557   3.367  16.203  0.7763 -1.0265 -0.5189
 3973SOL    HW223382   0.527   3.253  16.115 -0.4598 -0.5593 -0.5772
 3974SOL     OW23383   4.367   1.715   5.884 -0.0238 -0.3170 -0.1918
 3974SOL    HW123384   4.391   1.775   5.814 -2.1041  0.8003  0.0690
 3974SOL    HW223385   4.444   1.657   5.886  0.6414  0.6148  1.7611
 3975SOL     OW23386   0.981   4.429   5.664  0.3299 -0.2494  0.1512
 3975SOL    HW123387   1.070   4.397   5.653  1.4002  2.4417  0.9919
 3975SOL    HW223388   0.981   4.495   5.594  0.8112  0.7330  1.0772
 3976SOL     OW23389   1.190   4.700  17.531  0.8527 -0.1128 -0.1861
 3976SOL    HW123390   1.268   4.658  17.568  0.7188  1.0277  1.4102
 3976SOL    HW223391   1.175   0.044  17.596 -0.5357 -0.4879 -0.1099
 3977SOL     OW23392   1.957   1.104   0.061 -0.2908  0.2275 -0.2898
 3977SOL    HW123393   1.956   1.017   0.020  2.7900 -0.7686  1.7788
 3977SOL    HW223394   2.047   1.132   0.049 -1.1014  2.2228 -1.7465
 3978SOL     OW23395   1.278   2.481   8.665  0.2498  0.5488  0.2580
 3978SOL    HW123396   1.359   2.527   8.685  0.7067 -0.5484  0.8915
 3978SOL    HW223397   1.223   2.545   8.618 -1.8882 -1.2982  0.2079
 3979SOL     OW23398   2.403   4.023  15.462 -0.3119 -0.2028 -0.1418
 3979SOL    HW123399   2.363   4.110  15.470 -1.9031 -0.9409 -0.2367
 3979SOL    HW223400   2.450   4.043  15.381 -2.1864  1.3383 -0.8486
 3980SOL     OW23401   2.954   2.241   5.787 -0.0674  0.1333 -0.1027
 3980SOL    HW123402   2.948   2.305   5.716 -0.4385  0.2388  0.0217
 3980SOL    HW223403   2.908   2.292   5.854  1.5690  1.0078  0.3670
 3981SOL     OW23404   2.278   2.558   5.034 -0.0436  0.1394  0.5924
 3981SOL    HW123405   2.213   2.557   4.963  0.2082  2.8471  0.3375
 3981SOL    HW223406   2.227   2.526   5.108 -0.1194 -2.0925 -0.4052
 3982SOL     OW23407   1.683   0.074  15.661  0.4598  0.0080 -0.3053
 3982SOL    HW123408   1.656   4.720  15.614  0.1806  1.1605 -2.0503
 3982SOL    HW223409   1.748   0.119  15.608  0.3868 -0.3113 -0.6625
 3983SOL     OW23410   4.056   1.088   5.812 -0.6122  0.5758 -0.1787
 3983SOL    HW123411   4.143   1.049   5.811 -1.1842 -0.7437  0.7226
 3983SOL    HW223412   4.013   1.056   5.891  0.5626  0.3570  0.3652
 3984SOL     OW23413   1.180   2.592   5.828 -0.4098 -0.4545 -0.0793
 3984SOL    HW123414   1.153   2.684   5.818 -0.0919 -0.4008 -0.4533
 3984SOL    HW223415   1.114   2.559   5.889 -1.6598 -0.0684 -1.2036
 3985SOL     OW23416   3.640   3.728   9.487 -0.2764  0.1643  0.4220
 3985SOL    HW123417   3.651   3.671   9.411 -0.5208  1.3378 -0.5042
 3985SOL    HW223418   3.590   3.676   9.550 -1.1285 -1.0521 -1.2729
 3986SOL     OW23419   0.662   2.785  10.010  0.4541  0.1797  0.8436
 3986SOL    HW123420   0.594   2.793  10.076  0.6399 -0.2447  1.0833
 3986SOL    HW223421   0.695   2.696  10.025  2.1374  0.9915  2.0444
 3987SOL     OW23422   3.186   4.392   6.460  0.0159 -0.3697  0.1031
 3987SOL    HW123423   3.279   4.373   6.474 -0.0272 -1.5345 -1.1796
 3987SOL    HW223424   3.167   4.419   6.550  0.2646  0.9466 -0.2429
 3988SOL     OW23425   1.726   1.717  17.057 -0.4721 -0.1213 -0.0909
 3988SOL    HW123426   1.634   1.743  17.045 -0.7388  0.6871  3.7971
 3988SOL    HW223427   1.721   1.623  17.076  0.3660 -0.1750 -0.1519
 3989SOL     OW23428   4.153   1.304  11.787 -0.0768 -0.4502  0.3050
 3989SOL    HW123429   4.080   1.293  11.847 -1.0238 -0.2175 -0.8148
 3989SOL    HW223430   4.182   1.213  11.789 -0.2289 -0.4162  3.5276
 3990SOL     OW23431   0.036   0.933   9.026  0.0494  0.4311 -0.8093
 3990SOL    HW123432   0.044   0.997   8.955  0.2913  0.8023 -0.4489
 3990SOL    HW223433   4.667   0.919   9.016 -0.3895  2.3531  0.5464
 3991SOL     OW23434   2.941   4.571  11.608 -0.4320 -0.0857  0.2884
 3991SOL    HW123435   2.861   4.594  11.654  0.6630  0.8426  1.7128
 3991SOL    HW223436   2.907   4.493  11.564  0.3653 -0.3308  0.1123
 3992SOL     OW23437   0.881   1.824  12.057  0.8860 -0.0962  0.6104
 3992SOL    HW123438   0.958   1.875  12.030 -0.4225  0.7396 -1.6025
 3992SOL    HW223439   0.860   1.799  11.966 -0.0133  0.8443  0.5575
 3993SOL     OW23440   0.013   3.559   4.871  0.5371  0.1278 -0.6150
 3993SOL    HW123441   0.010   3.470   4.839 -0.2626 -0.4517  1.0790
 3993SOL    HW223442   4.651   3.568   4.908 -0.1470 -0.9136 -1.9956
 3994SOL     OW23443   2.605   4.361  15.482 -0.1780 -0.8420  0.0974
 3994SOL    HW123444   2.629   4.392  15.569 -1.2996 -0.6591  0.3347
 3994SOL    HW223445   2.685   4.381  15.433 -0.2516  1.5896  0.9925
 3995SOL     OW23446   3.796   3.102   7.960 -0.1698 -0.2759  0.3012
 3995SOL    HW123447   3.888   3.124   7.944  0.0611 -1.4301  0.0162
 3995SOL    HW223448   3.769   3.168   8.023  0.4791 -1.2170  1.5672
 3996SOL     OW23449   3.592   4.470   7.288  0.0736  0.6367  0.1097
 3996SOL    HW123450   3.552   4.415   7.354 -0.4359  2.5206  1.3670
 3996SOL    HW223451   3.517   4.525   7.265  0.1229  2.1414  3.6728
 3997SOL     OW23452   2.091   3.557   2.711  0.3916  0.4540  0.6929
 3997SOL    HW123453   2.065   3.506   2.787 -2.2958  1.0812  0.2050
 3997SOL    HW223454   2.063   3.501   2.639 -1.1309  0.4937  1.2550
 3998SOL     OW23455   4.040   2.021   9.317 -0.0273  0.1617 -0.0755
 3998SOL    HW123456   4.095   2.070   9.377 -0.6680 -1.5071  1.8642
 3998SOL    HW223457   3.995   1.967   9.382 -1.0815  1.9726  0.7011
 3999SOL     OW23458   0.460   0.225  12.128 -0.8772  0.5987 -0.4022
 3999SOL    HW123459   0.532   0.206  12.068 -1.3604 -0.6965 -0.5925
 3999SOL    HW223460   0.500   0.198  12.211 -1.4886 -0.4360 -0.4375
 4000SOL     OW23461   3.492   2.340   6.552 -0.4597  0.0989  0.2739
 4000SOL    HW123462   3.489   2.391   6.632  1.2641  0.2236  0.2467
 4000SOL    HW223463   3.584   2.345   6.527 -0.9704 -3.0064 -2.2638
 4001SOL     OW23464   0.607   2.195  15.084  0.4919  0.0920 -1.2796
 4001SOL    HW123465   0.637   2.232  15.167  2.4155 -0.8399 -1.5345
 4001SOL    HW223466   0.628   2.102  15.100 -1.2917  0.3000  2.1740
 4002SOL     OW23467   2.482   3.886   6.952  0.0338  0.4511 -0.3815
 4002SOL    HW123468   2.391   3.905   6.929 -0.2688 -2.2392 -1.2803
 4002SOL    HW223469   2.479   3.878   7.048 -0.1904 -1.4492 -0.5572
 4003SOL     OW23470   1.395   0.215   3.579 -0.7301 -0.2276 -0.4248
 4003SOL    HW123471   1.306   0.242   3.559 -0.7338 -0.3790 -0.6163
 4003SOL    HW223472   1.435   0.280   3.636 -1.4320 -1.5457  1.5823
 4004SOL     OW23473   2.145   0.925   8.272 -0.2261  0.2222 -0.0644
 4004SOL    HW123474   2.198   0.891   8.344 -2.1277 -1.6276  0.4791
 4004SOL    HW223475   2.142   1.014   8.306 -0.2850 -0.5980  2.0477
 4005SOL     OW23476   4.231   4.187  11.317  0.2145 -0.1105  0.0131
 4005SOL    HW123477   4.237   4.274  11.356 -0.6859 -0.4540  0.9288
 4005SOL    HW223478   4.214   4.132  11.393  0.6952  0.0528  0.2319
 4006SOL     OW23479   0.473   0.162   4.914  0.2143 -0.5220  0.7524
 4006SOL    HW123480   0.508   0.096   4.974  0.5830 -0.1480  0.9479
 4006SOL    HW223481   0.378   0.165   4.927 -0.1463 -0.5371 -1.7425
 4007SOL     OW23482   3.100   3.812   3.164  0.5049  0.0832 -0.2350
 4007SOL    HW123483   3.045   3.822   3.086  0.2592 -2.0675 -0.3356
 4007SOL    HW223484   3.042   3.852   3.229  0.1004 -2.9988  1.2836
 4008SOL     OW23485   4.422   3.547   8.488  0.6928  0.4835  0.2867
 4008SOL    HW123486   4.385   3.629   8.522  0.7873  1.2351 -1.4038
 4008SOL    HW223487   4.455   3.565   8.400  0.5113  0.2271  0.1677
 4009SOL     OW23488   0.107   1.841   4.852 -0.1622  0.4907 -0.0194
 4009SOL    HW123489   0.156   1.783   4.794  0.6970  1.4751 -0.2858
 4009SOL    HW223490   0.171   1.912   4.863 -0.3045  0.8000 -1.1540
 4010SOL     OW23491   2.026   0.756  15.868  0.1309  0.0050 -0.9558
 4010SOL    HW123492   2.118   0.783  15.871 -0.3270  0.9550  3.8904
 4010SOL    HW223493   1.997   0.730  15.955 -0.1231  0.0624 -1.0221
 4011SOL     OW23494   3.131   1.336   1.969  0.3519 -0.3868 -0.4839
 4011SOL    HW123495   3.082   1.416   1.988  3.3123  1.0433  1.1254
 4011SOL    HW223496   3.110   1.303   2.057  2.5729  0.6103  0.4414
 4012SOL     OW23497   1.324   4.549  13.090 -0.2445  0.5535  0.5345
 4012SOL    HW123498   1.366   4.511  13.167  1.3872 -0.8244 -1.0236
 4012SOL    HW223499   1.256   4.484  13.074 -0.4980  1.1152 -0.7424
 4013SOL     OW23500   0.928   0.095   2.779  0.6960 -0.5811  0.5050
 4013SOL    HW123501   0.843   0.138   2.774 -0.7715 -3.2715  2.5313
 4013SOL    HW223502   0.925   0.017   2.834  0.9859 -0.6157  0.4737
 4014SOL     OW23503   1.974   1.155  17.407 -0.0519  0.0325 -0.3647
 4014SOL    HW123504   1.939   1.217  17.471  2.1275  2.8490 -1.8893
 4014SOL    HW223505   1.970   1.079  17.464  0.3415 -1.7071 -2.6473
 4015SOL     OW23506   0.210   1.123   6.016  0.5857 -0.1071  0.2720
 4015SOL    HW123507   0.248   1.206   5.989  1.4331 -0.6233 -0.1377
 4015SOL    HW223508   0.119   1.150   6.020  0.9861  1.2857 -0.2433
 4016SOL     OW23509   2.492   3.465  14.304 -0.2757  0.6275 -0.5245
 4016SOL    HW123510   2.408   3.421  14.321  0.4837 -0.5203  0.2463
 4016SOL    HW223511   2.472   3.556  14.324  0.1151  0.4914  0.4685
 4017SOL     OW23512   0.875   3.814   6.953 -0.2986 -0.0395 -0.1925
 4017SOL    HW123513   0.887   3.861   7.035  1.5113  0.3436 -0.6766
 4017SOL    HW223514   0.832   3.886   6.907 -1.0670 -0.7179 -0.5434
 4018SOL     OW23515   0.831   1.679   2.700 -0.2393 -0.1023  0.5573
 4018SOL    HW123516   0.836   1.667   2.795  0.3280 -1.4103  0.3592
 4018SOL    HW223517   0.902   1.742   2.689 -0.0420 -0.4966 -0.4691
 4019SOL     OW23518   4.329   3.138   5.661 -0.5274 -0.3136  0.2402
 4019SOL    HW123519   4.332   3.180   5.747  1.5040 -1.8292  0.8868
 4019SOL    HW223520   4.373   3.207   5.610 -2.9857  0.9492 -0.2296
 4020SOL     OW23521   1.119   2.384   3.155  0.1012 -0.5028 -0.0241
 4020SOL    HW123522   1.167   2.302   3.156  3.7894  1.6400 -1.6887
 4020SOL    HW223523   1.041   2.353   3.201 -0.1811 -2.0818 -1.5851
 4021SOL     OW23524   1.101   2.302   8.819  0.5658 -0.8152  0.0427
 4021SOL    HW123525   1.127   2.390   8.846  0.3281 -0.1651 -1.8262
 4021SOL    HW223526   1.026   2.324   8.764  1.1737  1.3511  0.0720
 4022SOL     OW23527   0.291   3.115   3.605  0.3695  0.5740 -0.2419
 4022SOL    HW123528   0.290   3.043   3.543 -0.1108  0.9687 -0.6939
 4022SOL    HW223529   0.327   3.079   3.686  1.0258 -0.5452 -1.0348
 4023SOL     OW23530   3.013   3.800   6.748  0.9718 -0.3116  0.1467
 4023SOL    HW123531   3.107   3.794   6.766  0.4686 -0.3842  2.7591
 4023SOL    HW223532   2.994   3.726   6.691  0.7465 -0.0024 -0.1818
 4024SOL     OW23533   0.284   1.282  17.173 -0.4813  0.2315 -0.6125
 4024SOL    HW123534   0.326   1.329  17.245  0.4715  0.9074 -1.6123
 4024SOL    HW223535   0.191   1.282  17.195  0.0295  1.0788  1.6310
 4025SOL     OW23536   2.635   1.415   8.158 -0.4557  0.1392 -0.0689
 4025SOL    HW123537   2.614   1.379   8.245  1.6666  0.4759  0.5719
 4025SOL    HW223538   2.701   1.355   8.123  1.8840  2.5724  0.2458
 4026SOL     OW23539   4.385   0.335  16.814 -0.1940 -0.3690  0.4974
 4026SOL    HW123540   4.378   0.241  16.826 -0.6271  0.0185  3.3191
 4026SOL    HW223541   4.380   0.358  16.906  0.6424  0.4674  0.3324
 4027SOL     OW23542   2.988   3.488   3.343  0.7773  0.1702 -0.1199
 4027SOL    HW123543   3.032   3.571   3.365  0.7856  0.5618 -1.5934
 4027SOL    HW223544   3.049   3.428   3.385  1.4266  1.1144  0.3027
 4028SOL     OW23545   4.331   2.304   4.338 -0.0716 -1.2220 -0.4741
 4028SOL    HW123546   4.326   2.213   4.307  0.5603 -1.3907 -0.0672
 4028SOL    HW223547   4.401   2.304   4.403 -1.2856  1.1331  0.8461
 4029SOL     OW23548   0.573   1.343   1.925  0.2070  0.1506  0.5209
 4029SOL    HW123549   0.646   1.373   1.871  0.3480  0.5245  0.9150
 4029SOL    HW223550   0.619   1.275   1.974  1.9212  1.3048  0.5411
 4030SOL     OW23551   0.591   2.905  17.500 -0.4395  0.1886  0.5762
 4030SOL    HW123552   0.505   2.914  17.542  0.1957 -0.0313  1.9051
 4030SOL    HW223553   0.563   2.861  17.419  0.7324 -0.9838  0.8146
 4031SOL     OW23554   2.876   2.799   7.660 -0.1367 -0.1776 -0.5516
 4031SOL    HW123555   2.843   2.882   7.694  0.3097 -0.0417 -0.4509
 4031SOL    HW223556   2.961   2.832   7.630  1.0868 -1.4919  1.4022
 4032SOL     OW23557   1.415   0.951  10.232 -0.2728 -0.0237  0.5348
 4032SOL    HW123558   1.405   0.983  10.142 -0.9336  0.4086  0.7680
 4032SOL    HW223559   1.350   0.882  10.221 -0.6603  0.0430  2.4936
 4033SOL     OW23560   0.962   1.931  16.990 -0.1796 -0.8078 -0.2367
 4033SOL    HW123561   0.985   1.986  17.065 -0.3200 -1.3304  0.1922
 4033SOL    HW223562   0.954   1.994  16.919 -0.4870  1.3056  1.6785
 4034SOL     OW23563   2.603   3.846   3.106  0.3345 -0.6546  0.2799
 4034SOL    HW123564   2.674   3.876   3.163 -1.0595  1.3269  0.9693
 4034SOL    HW223565   2.612   3.903   3.030 -0.6233  0.0789  0.7193
 4035SOL     OW23566   2.395   3.027  10.125  0.3216 -0.3528  0.2368
 4035SOL    HW123567   2.358   2.974  10.055  2.6437  0.9616 -1.9799
 4035SOL    HW223568   2.434   3.097  10.071  2.5541 -0.1144  2.1469
 4036SOL     OW23569   1.940   0.368   5.196  0.0393  0.3270 -0.0735
 4036SOL    HW123570   2.029   0.403   5.186 -0.6219  1.6294 -1.3193
 4036SOL    HW223571   1.878   0.441   5.204  0.3580  0.6041 -0.1335
 4037SOL     OW23572   2.505   2.354  14.203 -0.0636 -0.4291 -0.3949
 4037SOL    HW123573   2.553   2.378  14.125  0.6171 -0.2863  0.0696
 4037SOL    HW223574   2.579   2.341  14.262 -0.3863 -1.8113 -0.2779
 4038SOL     OW23575   1.769   0.146  14.186 -0.1220 -0.0912 -0.2683
 4038SOL    HW123576   1.703   0.194  14.236  0.6573  0.7577 -0.0549
 4038SOL    HW223577   1.842   0.130  14.246  0.5158  0.7071 -0.8359
 4039SOL     OW23578   3.214   0.741   8.059 -0.3243  0.4656 -0.2901
 4039SOL    HW123579   3.126   0.730   8.023  0.2699 -0.1967 -1.5155
 4039SOL    HW223580   3.194   0.711   8.148  1.3754 -0.8712 -0.3698
 4040SOL     OW23581   2.945   3.514  12.687  0.4754  0.1002 -0.4245
 4040SOL    HW123582   2.987   3.575  12.626 -0.9388  0.9032 -0.6098
 4040SOL    HW223583   2.997   3.437  12.665 -1.1111 -0.7801 -1.0622
 4041SOL     OW23584   1.129   2.729   2.796  0.1014  0.6323 -0.3157
 4041SOL    HW123585   1.135   2.640   2.832  1.7727  0.4632 -1.0283
 4041SOL    HW223586   1.188   2.716   2.723 -1.6896 -1.9466 -1.3251
 4042SOL     OW23587   2.720   3.752  15.548  0.7311 -0.0026  0.1835
 4042SOL    HW123588   2.768   3.731  15.628 -1.0207 -0.1461  1.1766
 4042SOL    HW223589   2.723   3.847  15.539  2.6872  0.2529  3.5057
 4043SOL     OW23590   0.555   1.667   1.448  0.2997 -0.4871 -0.0147
 4043SOL    HW123591   0.573   1.639   1.538  2.8431  1.3698  0.0692
 4043SOL    HW223592   0.626   1.623   1.401  1.2439  0.8896  0.1110
 4044SOL     OW23593   3.724   1.984   2.749  0.2230  0.2256 -0.0089
 4044SOL    HW123594   3.791   1.995   2.681  0.6176  1.5971  0.6067
 4044SOL    HW223595   3.652   1.975   2.687  1.2688 -0.7691 -1.0897
 4045SOL     OW23596   2.098   3.418   1.420  0.4178  0.2475  0.2194
 4045SOL    HW123597   2.014   3.420   1.466 -0.4084 -0.5687 -1.2553
 4045SOL    HW223598   2.154   3.422   1.498  2.8892  0.7068 -1.5835
 4046SOL     OW23599   3.390   4.219  11.465  0.4059  0.2134 -0.5247
 4046SOL    HW123600   3.402   4.163  11.542  1.2224 -0.9610 -1.5140
 4046SOL    HW223601   3.310   4.172  11.441  1.0362 -2.2437  2.1741
 4047SOL     OW23602   2.682   3.570   4.980 -0.3870 -0.0301  0.7582
 4047SOL    HW123603   2.763   3.617   5.003 -1.4560  1.4742  1.4611
 4047SOL    HW223604   2.627   3.639   4.944  0.7772 -0.0512 -1.0675
 4048SOL     OW23605   0.100   0.616  12.746  0.2965  0.0865 -0.2682
 4048SOL    HW123606   0.087   0.689  12.807  1.0752 -1.9901  2.3433
 4048SOL    HW223607   0.148   0.664  12.678  0.0179  0.7900  0.0291
 4049SOL     OW23608   2.573   1.796   9.330 -0.6457  0.5883  0.1039
 4049SOL    HW123609   2.616   1.716   9.361 -2.7974  0.4915  2.8301
 4049SOL    HW223610   2.571   1.766   9.239 -0.7225  1.0434 -0.0434
 4050SOL     OW23611   3.263   4.181   8.206  0.0012 -0.4477  0.6040
 4050SOL    HW123612   3.344   4.135   8.228  0.9147  0.0000 -1.8533
 4050SOL    HW223613   3.189   4.132   8.242 -0.4334  0.4820  0.9686
 4051SOL     OW23614   3.882   3.401   7.090 -0.0761  0.2550  0.2201
 4051SOL    HW123615   3.881   3.486   7.047 -2.3528  0.2122  0.1855
 4051SOL    HW223616   3.810   3.352   7.050  0.0770  0.1569  0.0704
 4052SOL     OW23617   2.138   0.059  10.285 -0.0352 -0.2354 -0.6609
 4052SOL    HW123618   2.109   0.146  10.309 -0.2277  0.1835 -2.3766
 4052SOL    HW223619   2.155   0.061  10.190 -0.0541 -2.1952 -0.7215
 4053SOL     OW23620   1.900   3.286   7.789  0.0799 -0.0612  0.2846
 4053SOL    HW123621   1.913   3.313   7.880 -2.4930  0.7864  0.3883
 4053SOL    HW223622   1.835   3.348   7.757 -0.0124 -0.3660 -0.1250
 4054SOL     OW23623   4.098   3.573   3.099  0.8314  0.1822  0.0710
 4054SOL    HW123624   4.002   3.570   3.105  0.9713  1.2864  3.0204
 4054SOL    HW223625   4.120   3.516   3.026 -1.6297 -0.2876 -0.3209
 4055SOL     OW23626   2.636   2.391  14.465 -0.4246 -0.0777  0.0517
 4055SOL    HW123627   2.584   2.328  14.514 -1.1657  0.4943  0.0022
 4055SOL    HW223628   2.692   2.436  14.528  1.2586  1.4152 -2.5260
 4056SOL     OW23629   0.504   1.165  16.723  0.1930  0.0634  0.1880
 4056SOL    HW123630   0.520   1.231  16.790  3.4177  0.7519 -1.2430
 4056SOL    HW223631   0.523   1.218  16.646  0.7378 -0.4815 -0.0522
 4057SOL     OW23632   0.863   1.083   6.256  0.7817 -0.3736 -0.5273
 4057SOL    HW123633   0.938   1.065   6.200  2.6340 -0.5877  2.0211
 4057SOL    HW223634   0.852   1.177   6.239  3.1951 -0.0250 -0.1874
 4058SOL     OW23635   2.969   1.879   2.785  0.0084 -0.4768  0.3832
 4058SOL    HW123636   3.037   1.898   2.720 -1.2663  2.4453 -0.0971
 4058SOL    HW223637   2.985   1.788   2.809  3.8982 -0.0360 -0.5670
 4059SOL     OW23638   0.456   1.055   5.055  0.2709 -0.3623  0.6178
 4059SOL    HW123639   0.465   0.967   5.019  0.5169  0.6757 -1.7857
 4059SOL    HW223640   0.514   1.111   5.004  0.3780 -0.6555  0.4136
 4060SOL     OW23641   1.697   3.276   2.326  0.0883  0.4037  0.2078
 4060SOL    HW123642   1.677   3.210   2.259 -1.5574  2.4119 -1.2780
 4060SOL    HW223643   1.742   3.217   2.386  0.1348  1.4120  1.1604
 4061SOL     OW23644   1.470   3.471   6.698  0.1596  0.1909  0.6015
 4061SOL    HW123645   1.405   3.534   6.667  1.2551  0.7905 -0.4805
 4061SOL    HW223646   1.533   3.482   6.627  0.9241 -2.5354  0.8497
 4062SOL     OW23647   1.509   2.868  12.256 -0.7816  0.0593  0.7445
 4062SOL    HW123648   1.435   2.920  12.223  0.2635  0.9312 -0.2252
 4062SOL    HW223649   1.570   2.865  12.182 -2.0007 -0.2634 -0.2454
 4063SOL     OW23650   1.839   1.127   7.217 -0.0589  0.0005 -0.3568
 4063SOL    HW123651   1.849   1.041   7.177 -2.1566 -0.7048  0.6291
 4063SOL    HW223652   1.763   1.168   7.175  0.7744 -0.7399 -2.5802
 4064SOL     OW23653   1.677   2.853   6.522 -0.9986  0.4371  0.1540
 4064SOL    HW123654   1.598   2.802   6.500 -0.3472 -0.6219  0.2602
 4064SOL    HW223655   1.653   2.932   6.474 -3.9216 -0.0039  0.8736
 4065SOL     OW23656   1.935   4.188   6.597  0.1305  0.5671  0.0607
 4065SOL    HW123657   2.006   4.132   6.630 -1.4409 -2.2051 -1.2058
 4065SOL    HW223658   1.978   4.253   6.542 -0.3511 -0.6401 -1.7434
 4066SOL     OW23659   2.557   0.667  15.476 -0.1902  0.7187 -0.3902
 4066SOL    HW123660   2.558   0.703  15.565  0.8730 -0.2201 -0.0326
 4066SOL    HW223661   2.596   0.580  15.477 -1.1978  0.2654  1.5108
 4067SOL     OW23662   1.068   1.185   5.022 -0.1931  0.2051  0.1568
 4067SOL    HW123663   1.035   1.097   5.009  2.8980 -1.3948  3.1193
 4067SOL    HW223664   1.126   1.166   5.096 -0.6499 -0.2077  0.3996
 4068SOL     OW23665   3.651   2.363   5.074 -0.2547  0.2449 -0.6694
 4068SOL    HW123666   3.645   2.302   5.148 -0.1831  1.1976  0.1282
 4068SOL    HW223667   3.724   2.336   5.019  0.8979 -1.5885  1.7494
 4069SOL     OW23668   3.015   2.068   7.265 -0.2031 -0.5210  0.3612
 4069SOL    HW123669   3.002   2.087   7.172  2.5677  1.0935  0.3204
 4069SOL    HW223670   3.075   2.135   7.297 -1.0410 -0.4471  1.7736
 4070SOL     OW23671   2.680   0.204   4.015  0.0811  0.4144 -0.4302
 4070SOL    HW123672   2.590   0.225   4.042  0.1165  0.8872 -0.6737
 4070SOL    HW223673   2.665   0.238   3.927 -1.2791 -0.4344 -0.5198
 4071SOL     OW23674   1.491   3.400   6.312 -0.2058  0.3479  0.2226
 4071SOL    HW123675   1.484   3.354   6.228 -1.5253 -2.0964  1.7056
 4071SOL    HW223676   1.416   3.459   6.315  0.3876  1.0628  0.9549
 4072SOL     OW23677   1.553   0.771  12.345 -0.0672  0.3945 -0.2525
 4072SOL    HW123678   1.535   0.780  12.251 -1.1310  0.5838 -0.0324
 4072SOL    HW223679   1.609   0.848  12.359 -2.2121  1.7388  0.9253
 4073SOL     OW23680   0.895   4.208  10.445 -0.0951 -0.1656 -0.0714
 4073SOL    HW123681   0.859   4.295  10.466 -0.0855 -0.4092  0.9551
 4073SOL    HW223682   0.983   4.227  10.413  0.7350 -1.1117  1.6203
 4074SOL     OW23683   0.790   0.402  14.842  0.1414  0.2954 -0.1234
 4074SOL    HW123684   0.743   0.485  14.837 -1.0103 -0.4601 -1.6492
 4074SOL    HW223685   0.720   0.349  14.803  0.2039  0.8038 -0.9441
 4075SOL     OW23686   0.712   0.430   4.679 -0.2291 -0.4345  0.0286
 4075SOL    HW123687   0.659   0.507   4.658 -0.5100 -0.2681  1.3443
 4075SOL    HW223688   0.800   0.462   4.660 -0.1081 -0.6139  0.2837
 4076SOL     OW23689   4.093   3.235  16.703  0.0253  0.7247 -0.0573
 4076SOL    HW123690   4.024   3.301  16.698  0.3967  1.0764 -0.5349
 4076SOL    HW223691   4.158   3.285  16.654  0.1092 -0.2725 -0.9631
 4077SOL     OW23692   3.132   1.767   6.170 -0.1527 -0.1720 -0.8455
 4077SOL    HW123693   3.213   1.795   6.127  0.8449  2.1764  2.5300
 4077SOL    HW223694   3.120   1.678   6.138  0.6560 -0.3562 -0.6197
 4078SOL     OW23695   4.584   1.163   8.607  0.5813  0.5671 -0.1547
 4078SOL    HW123696   4.598   1.248   8.564  1.8626  1.4991  2.1064
 4078SOL    HW223697   4.491   1.165   8.630  0.6346 -0.7590  0.1336
 4079SOL     OW23698   1.688   2.163   7.862 -0.3911  0.1683 -0.1168
 4079SOL    HW123699   1.672   2.256   7.845  0.7281  0.1096 -1.4367
 4079SOL    HW223700   1.658   2.111   7.788 -0.7607  0.3459 -0.0912
 4080SOL     OW23701   1.184   3.033  15.218 -0.3237 -0.0765 -0.4643
 4080SOL    HW123702   1.218   3.113  15.178 -0.8145  0.2170 -0.2951
 4080SOL    HW223703   1.096   3.065  15.239 -0.3825  0.1033 -0.9960
 4081SOL     OW23704   1.702   1.691   8.683  0.3423 -0.1558  0.5264
 4081SOL    HW123705   1.645   1.625   8.642  1.4022 -0.7346 -0.0008
 4081SOL    HW223706   1.705   1.655   8.771 -0.9722 -2.0242 -0.1643
 4082SOL     OW23707   0.692   1.197   2.533  0.7530  0.1050 -0.0174
 4082SOL    HW123708   0.634   1.143   2.587 -0.0799  1.3805  0.3532
 4082SOL    HW223709   0.638   1.217   2.456  1.0305 -0.0150 -0.2460
 4083SOL     OW23710   4.445   2.532   9.013 -0.5149  0.2060 -0.0342
 4083SOL    HW123711   4.523   2.559   9.061  0.5676 -0.2641 -1.5237
 4083SOL    HW223712   4.374   2.583   9.052 -1.4028 -1.2650  0.2724
 4084SOL     OW23713   2.142   0.771   6.044 -0.6003  0.5797 -0.6125
 4084SOL    HW123714   2.122   0.678   6.032 -1.4507  0.5946  0.6983
 4084SOL    HW223715   2.064   0.821   6.016 -0.1359  0.5608 -1.9298
 4085SOL     OW23716   3.915   2.844   0.007  0.1646 -0.1430  0.4164
 4085SOL    HW123717   3.936   2.917  17.650  1.1751 -0.6183  0.1905
 4085SOL    HW223718   3.860   2.887   0.073  0.1638  2.5456 -1.3647
 4086SOL     OW23719   0.475   1.188   2.320 -0.8851  0.0179 -0.1285
 4086SOL    HW123720   0.478   1.093   2.309  0.9209 -0.1751  1.8426
 4086SOL    HW223721   0.389   1.203   2.281 -0.3100 -1.0243 -1.8187
 4087SOL     OW23722   0.246   3.119   7.213 -0.1381  0.2977 -0.2524
 4087SOL    HW123723   0.151   3.109   7.224  0.2873 -1.3500  1.7842
 4087SOL    HW223724   0.261   3.204   7.256  2.3367  0.6556 -1.8314
 4088SOL     OW23725   1.292   4.208   2.724  0.4875 -0.4074  0.4165
 4088SOL    HW123726   1.354   4.236   2.792 -1.0541  2.3047  0.7182
 4088SOL    HW223727   1.263   4.122   2.755  0.5519 -0.3252  0.7052
 4089SOL     OW23728   2.980   3.731   1.810  0.2962  0.3285  0.5590
 4089SOL    HW123729   2.996   3.653   1.865  1.1820 -0.8192 -1.3207
 4089SOL    HW223730   2.887   3.745   1.827  0.3447  2.2848 -0.8585
 4090SOL     OW23731   4.247   1.656   2.333  0.6791 -0.6643  0.3043
 4090SOL    HW123732   4.210   1.665   2.245 -0.9925  1.0541  1.1978
 4090SOL    HW223733   4.300   1.578   2.315  1.3692 -0.3215  0.8525
 4091SOL     OW23734   2.828   4.503   7.542  0.4070  0.3458 -0.1336
 4091SOL    HW123735   2.849   4.428   7.598 -0.6164  1.5145  1.8196
 4091SOL    HW223736   2.882   4.483   7.466 -0.1512  1.3331 -0.7923
 4092SOL     OW23737   1.146   3.323  16.624 -0.0130  0.4749 -0.0446
 4092SOL    HW123738   1.125   3.253  16.686 -0.8372 -0.6265 -1.5577
 4092SOL    HW223739   1.149   3.389  16.693 -1.1327  0.6313 -0.1330
 4093SOL     OW23740   4.384   0.965  14.336  0.1029  0.3996 -0.0078
 4093SOL    HW123741   4.421   0.877  14.335  0.7185  0.6632 -0.1750
 4093SOL    HW223742   4.444   1.008  14.398  0.2836  1.2657 -0.7845
 4094SOL     OW23743   0.776   3.832   9.315  0.0606  0.3760 -0.3706
 4094SOL    HW123744   0.720   3.896   9.272  0.1458 -0.5154 -1.8110
 4094SOL    HW223745   0.785   3.760   9.252 -0.6851 -0.3054  0.3080
 4095SOL     OW23746   3.939   2.009   6.049 -0.1519  0.3308  0.0019
 4095SOL    HW123747   3.871   1.946   6.023  0.4495 -1.0728  1.8244
 4095SOL    HW223748   4.021   1.968   6.023  0.4202  0.2783  1.8851
 4096SOL     OW23749   1.469   4.722   0.933  0.2686 -1.0192 -0.9022
 4096SOL    HW123750   1.559   0.028   0.943  0.9003 -2.4201 -2.2154
 4096SOL    HW223751   1.476   4.627   0.938 -1.1396 -1.0950 -0.2400
 4097SOL     OW23752   4.596   0.105   4.234 -0.2046  0.4239  0.0819
 4097SOL    HW123753   4.622   0.180   4.287  0.0693  0.8140 -0.6122
 4097SOL    HW223754   4.666   0.044   4.257  0.3603  0.9650 -0.2101
 4098SOL     OW23755   4.333   1.924  12.811 -0.2886  0.4833 -0.4125
 4098SOL    HW123756   4.302   1.916  12.901 -1.9670  1.0538 -0.9415
 4098SOL    HW223757   4.350   2.017  12.796 -1.4389  0.6249 -0.7829
 4099SOL     OW23758   0.854   3.802   5.101  0.0488  0.2094  0.1085
 4099SOL    HW123759   0.798   3.733   5.065  2.6435 -1.6828 -0.3321
 4099SOL    HW223760   0.932   3.746   5.104 -0.7197 -0.7922  1.1539
 4100SOL     OW23761   0.665   0.826   7.026  0.7233 -0.5976  0.2974
 4100SOL    HW123762   0.743   0.809   6.973 -0.6486 -0.3086 -1.8576
 4100SOL    HW223763   0.613   0.753   6.992 -0.2654 -0.3101  1.2116
 4101SOL     OW23764   2.384   1.578   8.044  0.1795  0.2202  0.3125
 4101SOL    HW123765   2.341   1.495   8.023  1.8457 -0.9472  1.5738
 4101SOL    HW223766   2.430   1.547   8.122 -0.5776  1.9213  1.4372
 4102SOL     OW23767   4.463   3.302  12.039 -0.4669 -0.4749 -0.3328
 4102SOL    HW123768   4.442   3.258  11.956  0.8799  0.4267 -1.1441
 4102SOL    HW223769   4.473   3.392  12.008  1.1256 -0.2450  0.8617
 4103SOL     OW23770   2.293   1.104  15.844 -0.1449 -0.4267  0.5147
 4103SOL    HW123771   2.278   1.044  15.771 -0.9172  1.4620 -0.8736
 4103SOL    HW223772   2.389   1.106  15.852 -0.2642  0.2612  1.7247
 4104SOL     OW23773   2.625   2.481  17.197 -0.2707 -0.0650  0.0689
 4104SOL    HW123774   2.555   2.438  17.148 -0.7266  2.0403 -1.1222
 4104SOL    HW223775   2.599   2.573  17.202 -0.5201 -0.0864 -0.8381
 4105SOL     OW23776   4.668   1.158   0.490 -0.1229 -0.1097 -0.5388
 4105SOL    HW123777   4.660   1.248   0.521  0.6482 -0.3182  0.2273
 4105SOL    HW223778   0.036   1.158   0.468 -0.2633 -1.8940 -1.1802
 4106SOL     OW23779   0.348   0.020  10.904  0.6825 -0.6190 -0.3430
 4106SOL    HW123780   0.298   4.702  10.974  0.3039 -0.7803 -0.7161
 4106SOL    HW223781   0.320   4.688  10.833  1.3624 -1.1310 -0.1964
 4107SOL     OW23782   1.096   1.378   7.861 -0.1059 -0.3682  0.1240
 4107SOL    HW123783   1.161   1.439   7.896 -0.4822  1.4520 -2.3217
 4107SOL    HW223784   1.121   1.389   7.769 -0.2665  1.0133  0.2404
 4108SOL     OW23785   1.781   4.519   1.083 -0.2706 -0.1949  0.3027
 4108SOL    HW123786   1.753   4.576   1.154 -1.2185  0.0654 -0.2658
 4108SOL    HW223787   1.856   4.475   1.122 -0.5748 -1.6789 -0.7721
 4109SOL     OW23788   0.399   0.121   1.417  0.1352 -0.0926  0.4864
 4109SOL    HW123789   0.373   0.190   1.356 -1.6970 -0.8255  0.4360
 4109SOL    HW223790   0.357   0.150   1.498 -1.4924  2.3023 -1.2097
 4110SOL     OW23791   0.595   3.569  15.563  0.4550 -0.1910  0.0257
 4110SOL    HW123792   0.609   3.575  15.469 -0.8504 -1.2380 -0.2297
 4110SOL    HW223793   0.641   3.645  15.599  0.6149  0.1101 -0.8214
 4111SOL     OW23794   1.191   4.113   3.064 -0.3020 -0.4317  0.0351
 4111SOL    HW123795   1.234   4.192   3.098 -0.5815  0.0138 -0.6473
 4111SOL    HW223796   1.111   4.156   3.036 -0.0289  0.3219  0.4131
 4112SOL     OW23797   3.285   1.695   8.760  0.2571 -0.2479 -0.4043
 4112SOL    HW123798   3.251   1.785   8.756 -0.6368 -0.5703 -0.0260
 4112SOL    HW223799   3.333   1.678   8.680  2.2700 -1.1714  0.9927
 4113SOL     OW23800   3.660   4.576  16.533  0.0628 -0.1874  0.6504
 4113SOL    HW123801   3.694   4.666  16.530  0.0188 -0.2400 -1.9011
 4113SOL    HW223802   3.651   4.570  16.628  0.6316  0.3330  0.7395
 4114SOL     OW23803   2.023   4.001   8.471  0.0857 -0.2470 -0.0581
 4114SOL    HW123804   1.981   4.087   8.480  2.7642  1.0198  0.2917
 4114SOL    HW223805   1.952   3.941   8.448  0.2883 -0.5484  0.1020
 4115SOL     OW23806   0.400   2.871   8.125  0.4524  0.0676  0.0904
 4115SOL    HW123807   0.417   2.787   8.168  0.7491 -0.0470 -0.2446
 4115SOL    HW223808   0.308   2.876   8.150 -0.5119 -2.3898 -2.8832
 4116SOL     OW23809   3.787   1.862   9.054  0.4953  0.4819  0.2056
 4116SOL    HW123810   3.881   1.853   9.040 -0.1215 -4.4481 -0.8374
 4116SOL    HW223811   3.755   1.805   8.985  0.4191  0.7194  0.0456
 4117SOL     OW23812   2.751   3.713  14.899 -0.4997  0.2242  0.2623
 4117SOL    HW123813   2.727   3.804  14.880 -0.2732  0.2613  0.1564
 4117SOL    HW223814   2.670   3.673  14.930 -0.1492 -0.4734  0.2797
 4118SOL     OW23815   3.152   3.085   3.638 -0.4511 -0.1740  0.0868
 4118SOL    HW123816   3.104   3.024   3.582 -1.4375  0.6681  0.0342
 4118SOL    HW223817   3.120   3.055   3.724 -2.4839  0.4174 -0.4633
 4119SOL     OW23818   4.061   3.445   6.005 -0.2755 -0.1334  0.1431
 4119SOL    HW123819   4.121   3.514   6.034  0.6434 -0.6111 -0.6086
 4119SOL    HW223820   3.992   3.504   5.975 -0.7464 -0.9274 -0.3487
 4120SOL     OW23821   3.295   1.970   8.322  0.3245  0.3779  0.4534
 4120SOL    HW123822   3.246   2.045   8.288  1.2654  0.1994 -1.3026
 4120SOL    HW223823   3.351   2.005   8.391 -0.6244  0.3423  1.2414
 4121SOL     OW23824   4.641   1.860   6.494 -0.3730 -0.0455  0.2230
 4121SOL    HW123825   4.682   1.819   6.569  0.6411  0.5383 -0.0186
 4121SOL    HW223826   4.690   1.942   6.505 -1.3215  0.5993 -0.2818
 4122SOL     OW23827   2.492   0.963   2.165 -0.2548  0.0423  0.2475
 4122SOL    HW123828   2.546   0.980   2.088  1.7280 -1.1094  1.3902
 4122SOL    HW223829   2.508   0.871   2.188  0.5968 -1.0574 -4.9016
 4123SOL     OW23830   0.216   3.968   4.613  0.6660  1.0773 -0.4989
 4123SOL    HW123831   0.205   3.925   4.528 -0.3931 -1.3420  0.8779
 4123SOL    HW223832   0.186   3.902   4.674 -0.3706  0.1646 -1.9930
 4124SOL     OW23833   3.401   0.755   3.353 -0.0137  0.2642  0.0806
 4124SOL    HW123834   3.494   0.742   3.368 -0.1540 -2.4143 -1.2759
 4124SOL    HW223835   3.383   0.823   3.417 -0.3792  0.5893 -0.3695
 4125SOL     OW23836   2.431   4.411   7.471  0.9425 -0.0426 -0.5262
 4125SOL    HW123837   2.482   4.364   7.536  0.5018 -0.5093 -0.5174
 4125SOL    HW223838   2.486   4.393   7.394 -1.4420 -0.3087 -2.1725
 4126SOL     OW23839   3.160   0.914   2.844 -0.0472 -0.5652 -0.6363
 4126SOL    HW123840   3.228   0.908   2.910  1.3810 -2.9690 -2.3366
 4126SOL    HW223841   3.148   1.008   2.835  1.5953 -0.2605  0.4893
 4127SOL     OW23842   0.983   1.702   7.956  0.7643 -0.7579  0.2593
 4127SOL    HW123843   1.054   1.640   7.972  0.8568 -0.7249 -0.0140
 4127SOL    HW223844   1.004   1.742   7.872  3.1060 -0.4856  0.9634
 4128SOL     OW23845   2.549   2.013   3.486 -0.7530 -0.5036  0.4520
 4128SOL    HW123846   2.561   1.922   3.457  1.9962 -0.5851  1.8686
 4128SOL    HW223847   2.453   2.012   3.479 -0.5877 -1.8103 -1.4208
 4129SOL     OW23848   1.623   4.689  13.152  0.2644 -0.4071  0.1515
 4129SOL    HW123849   1.604   4.598  13.172 -0.2357 -0.3065  0.1369
 4129SOL    HW223850   1.620   4.668  13.059  2.0084  2.4419 -0.5654
 4130SOL     OW23851   1.852   0.918   2.918 -0.4506 -0.2482  0.1240
 4130SOL    HW123852   1.870   0.909   2.825 -0.3254  1.8608 -0.0508
 4130SOL    HW223853   1.885   1.005   2.941  1.8135 -0.6182 -1.6727
 4131SOL     OW23854   3.830   1.258   0.348 -0.5621 -0.2597  0.0362
 4131SOL    HW123855   3.756   1.315   0.327 -0.1274  0.6207  0.8962
 4131SOL    HW223856   3.811   1.197   0.277  1.7679  0.2996 -1.0634
 4132SOL     OW23857   0.761   4.424   8.256 -0.3189  0.7029 -0.8979
 4132SOL    HW123858   0.790   4.506   8.217  0.4955  0.9561  0.2500
 4132SOL    HW223859   0.835   4.372   8.223 -0.1783 -0.0745  0.6727
 4133SOL     OW23860   4.470   4.531   4.164 -0.3673 -0.0978  0.4967
 4133SOL    HW123861   4.519   4.502   4.087 -0.7679  0.8493 -0.1177
 4133SOL    HW223862   4.521   4.499   4.238 -0.2980 -2.8486 -0.7373
 4134SOL     OW23863   1.948   2.201   6.592 -0.2369  0.2856 -0.0748
 4134SOL    HW123864   1.914   2.290   6.583 -2.1930 -0.5740 -1.0361
 4134SOL    HW223865   1.888   2.181   6.664 -0.6891 -0.5291 -0.6868
 4135SOL     OW23866   2.643   3.881  10.206 -0.0766 -0.4259 -0.0117
 4135SOL    HW123867   2.558   3.839  10.218 -0.9625  1.9060  1.7418
 4135SOL    HW223868   2.634   3.972  10.233 -0.1035 -0.2850 -0.4963
 4136SOL     OW23869   0.776   3.838   1.795 -0.1832  0.2244  0.1217
 4136SOL    HW123870   0.834   3.828   1.720 -2.3787  1.1869 -1.6629
 4136SOL    HW223871   0.698   3.789   1.768  0.0779 -0.8740  1.3254
 4137SOL     OW23872   2.838   4.507   1.168 -0.6437  0.6320  0.6450
 4137SOL    HW123873   2.842   4.487   1.074 -1.5887  1.7250  0.3675
 4137SOL    HW223874   2.928   4.484   1.190 -1.3159  0.2226  2.9059
 4138SOL     OW23875   2.867   0.142   9.365 -0.3843  0.0584 -0.2836
 4138SOL    HW123876   2.820   0.061   9.386  1.0260 -1.0035 -1.2213
 4138SOL    HW223877   2.923   0.111   9.294 -1.8675  0.6484 -1.7054
 4139SOL     OW23878   1.090   3.322   1.004  0.1661 -0.2184 -0.4759
 4139SOL    HW123879   1.071   3.284   1.090  2.4122 -1.4582 -0.5201
 4139SOL    HW223880   1.137   3.253   0.958  1.7636  0.3591  0.2789
 4140SOL     OW23881   3.366   4.483   0.431 -0.1071  0.0226  0.2757
 4140SOL    HW123882   3.461   4.488   0.437 -0.0811 -1.2654  0.9250
 4140SOL    HW223883   3.354   4.390   0.451  0.9478 -0.1343  0.1778
 4141SOL     OW23884   4.037   4.266  16.773 -0.1095  0.8638  0.8923
 4141SOL    HW123885   4.105   4.203  16.795  1.0414  1.8051  0.0085
 4141SOL    HW223886   3.977   4.258  16.848  0.1008  0.3583  1.0053
 4142SOL     OW23887   1.261   2.030   6.233 -0.6662 -0.4472 -0.2094
 4142SOL    HW123888   1.168   2.037   6.209 -0.8519 -2.8661 -0.2421
 4142SOL    HW223889   1.301   2.082   6.163  1.7267  1.3460  2.5149
 4143SOL     OW23890   4.262   4.009   9.161 -0.1428  0.1085 -0.1732
 4143SOL    HW123891   4.225   4.089   9.123 -2.4912 -0.5903  0.6567
 4143SOL    HW223892   4.351   3.996   9.127 -0.8102 -1.1371 -1.4558
 4144SOL     OW23893   3.825   0.863   0.418  0.3271 -0.1063  0.2191
 4144SOL    HW123894   3.881   0.892   0.346 -2.7185  1.7163 -1.4000
 4144SOL    HW223895   3.822   0.937   0.479 -0.1448  0.8201 -0.9344
 4145SOL     OW23896   2.656   1.654   7.478  0.3902 -0.0097 -0.1811
 4145SOL    HW123897   2.690   1.736   7.442  0.3505 -0.6973 -1.7637
 4145SOL    HW223898   2.696   1.593   7.417  0.5126  0.7639 -0.8719
 4146SOL     OW23899   0.483   0.817   5.751 -0.2682 -0.1548  0.1051
 4146SOL    HW123900   0.565   0.851   5.787 -1.9582 -0.9277  4.6027
 4146SOL    HW223901   0.432   0.898   5.753  0.3776  0.2293  1.0516
 4147SOL     OW23902   4.446   2.924  15.985 -0.6853  0.0010  0.2789
 4147SOL    HW123903   4.486   2.889  16.064  1.5093  1.8173 -0.0133
 4147SOL    HW223904   4.499   2.892  15.912  0.4517  0.6204  0.8316
 4148SOL     OW23905   4.123   3.411   2.892  0.7085  0.4353  0.0751
 4148SOL    HW123906   4.093   3.325   2.864 -1.5730  1.6931 -1.3750
 4148SOL    HW223907   4.217   3.396   2.886  0.7345  0.8461 -0.6399
 4149SOL     OW23908   3.868   1.048   4.535  0.2152 -0.2446 -0.5577
 4149SOL    HW123909   3.776   1.071   4.548 -0.3635 -1.4717 -2.5070
 4149SOL    HW223910   3.876   0.979   4.602  0.4240  1.8407  1.5812
 4150SOL     OW23911   0.247   1.553   2.390  0.4215 -0.4062  0.0643
 4150SOL    HW123912   0.174   1.492   2.397  0.9926 -1.2117 -1.0330
 4150SOL    HW223913   0.242   1.566   2.295  0.9601  0.4958  0.1534
 4151SOL     OW23914   3.363   4.607   7.236  0.2583 -0.7001  0.2147
 4151SOL    HW123915   3.275   4.576   7.217  1.0143 -1.4476 -2.0888
 4151SOL    HW223916   3.350   4.700   7.253  1.0683 -0.4932 -0.2948
 4152SOL     OW23917   3.090   0.293  10.358 -0.3666 -0.3409 -0.1188
 4152SOL    HW123918   3.000   0.263  10.352 -0.1576 -0.9267 -0.3327
 4152SOL    HW223919   3.132   0.246  10.430 -1.6699 -1.0705  0.1524
 4153SOL     OW23920   3.642   0.182   7.939  0.2036  0.4838 -0.0409
 4153SOL    HW123921   3.555   0.171   7.901 -0.4377  0.2547  1.5029
 4153SOL    HW223922   3.658   0.276   7.935  0.1424  0.6070  2.4449
 4154SOL     OW23923   4.150   2.915   7.199  0.1600 -0.3460 -0.0610
 4154SOL    HW123924   4.186   2.988   7.148 -2.4440  0.6261 -0.5492
 4154SOL    HW223925   4.189   2.931   7.285  0.7037 -0.7375 -0.2344
 4155SOL     OW23926   0.454   3.993   1.886  0.2128 -0.7961  0.1923
 4155SOL    HW123927   0.463   3.975   1.793 -2.4534  2.0146 -0.6201
 4155SOL    HW223928   0.375   4.048   1.884  0.5062 -0.3341  1.1900
 4156SOL     OW23929   1.276   2.918   7.666  0.2161 -0.0114  0.0496
 4156SOL    HW123930   1.233   2.843   7.627  1.9376 -0.5417 -0.8341
 4156SOL    HW223931   1.233   2.932   7.751  0.3449 -0.0868  0.1283
 4157SOL     OW23932   2.182   2.457   8.879 -0.6805 -0.0385  0.0603
 4157SOL    HW123933   2.277   2.470   8.884 -0.4368 -1.2346 -1.6280
 4157SOL    HW223934   2.167   2.363   8.877 -1.6563  0.0985  0.7547
 4158SOL     OW23935   2.345   3.283   5.293  0.0348  0.2572  0.1725
 4158SOL    HW123936   2.341   3.188   5.299 -2.0598  0.2849 -0.6118
 4158SOL    HW223937   2.267   3.310   5.342  1.0581  0.3812  1.7452
 4159SOL     OW23938   2.975   1.833   3.100 -0.4709  0.3521 -0.0562
 4159SOL    HW123939   2.907   1.874   3.047 -0.4459 -1.7169 -1.6851
 4159SOL    HW223940   3.020   1.782   3.032  0.8672  0.9376  0.3844
 4160SOL     OW23941   2.292   1.588  17.038 -0.4636  0.1848  0.3116
 4160SOL    HW123942   2.306   1.602  16.945  2.1089 -0.8133  0.5538
 4160SOL    HW223943   2.314   1.495  17.035  0.6186  0.5041 -1.6893
 4161SOL     OW23944   0.904   0.143   3.547 -0.3698  0.6600 -0.2540
 4161SOL    HW123945   0.881   0.050   3.547  1.5718  0.1898 -1.5140
 4161SOL    HW223946   0.857   0.173   3.469 -1.9924  0.7030  0.7323
 4162SOL     OW23947   1.738   1.933  16.594  0.2868 -0.2346 -0.5645
 4162SOL    HW123948   1.775   2.016  16.626  0.5103  0.3108 -2.2429
 4162SOL    HW223949   1.765   1.879  16.669  0.2023  0.3647 -0.1055
 4163SOL     OW23950   2.846   0.681  11.526  0.5424 -0.5970  0.1579
 4163SOL    HW123951   2.911   0.631  11.576 -0.5421  0.2134  2.3668
 4163SOL    HW223952   2.769   0.653  11.574 -0.3613  1.1900 -0.2524
 4164SOL     OW23953   4.587   1.469   2.469  0.1760 -0.1571  0.3712
 4164SOL    HW123954   4.613   1.477   2.377 -1.1089 -0.3905 -0.0289
 4164SOL    HW223955   4.667   1.442   2.514  1.9110  2.6689 -1.0614
 4165SOL     OW23956   1.250   4.010   5.773 -0.3479  0.1183  0.4109
 4165SOL    HW123957   1.161   4.018   5.807  0.6506 -1.0549  3.2495
 4165SOL    HW223958   1.250   4.082   5.709  3.6431 -2.1534 -2.1367
 4166SOL     OW23959   4.201   2.015   1.987 -0.4668  0.9140  0.7134
 4166SOL    HW123960   4.285   2.010   2.034  0.8575 -1.0638 -1.8849
 4166SOL    HW223961   4.213   2.090   1.928  1.1361 -0.9870 -1.3414
 4167SOL     OW23962   4.508   1.177   2.568 -0.3299  0.1543  0.2862
 4167SOL    HW123963   4.431   1.143   2.522  0.7346 -0.5264 -1.0258
 4167SOL    HW223964   4.524   1.251   2.510 -1.4146  0.6842  0.6639
 4168SOL     OW23965   1.952   0.889  13.160 -0.1273  0.0028 -0.1479
 4168SOL    HW123966   1.868   0.884  13.204 -0.7545 -3.5363 -1.7473
 4168SOL    HW223967   1.962   0.803  13.119  0.7180  0.3904 -0.7558
 4169SOL     OW23968   0.606   0.164  11.895  0.7172 -0.8253 -0.1622
 4169SOL    HW123969   0.669   0.197  11.832  0.9538 -1.9107 -0.4870
 4169SOL    HW223970   0.574   0.086  11.851 -0.0096 -0.7449  0.2110
 4170SOL     OW23971   1.218   2.960  11.976 -0.7186 -0.2226 -0.6442
 4170SOL    HW123972   1.279   2.960  12.050 -1.3396 -1.0176 -0.1296
 4170SOL    HW223973   1.228   3.052  11.950  0.8490 -0.3414 -0.4583
 4171SOL     OW23974   3.703   3.527   3.988 -0.4308 -0.3295  0.1624
 4171SOL    HW123975   3.643   3.453   3.990  0.7520 -1.3014 -0.1199
 4171SOL    HW223976   3.662   3.575   3.916 -0.1477 -1.4778 -0.7710
 4172SOL     OW23977   0.551   0.991   1.535 -0.3288  0.3689 -0.2310
 4172SOL    HW123978   0.587   1.067   1.490  0.2719  0.2231  0.0068
 4172SOL    HW223979   0.557   1.021   1.626  3.1750  0.0246 -0.3511
 4173SOL     OW23980   3.383   2.730   5.270  0.4945  0.3087 -0.0947
 4173SOL    HW123981   3.379   2.825   5.266 -1.8994  0.2657  0.8787
 4173SOL    HW223982   3.360   2.705   5.180  0.0807 -3.2736  0.9958
 4174SOL     OW23983   0.121   3.266   7.957 -0.3871 -0.3568  0.5747
 4174SOL    HW123984   0.168   3.281   8.039 -1.7554  2.9263  0.7883
 4174SOL    HW223985   0.123   3.173   7.937  0.3630 -0.0847 -0.6357
 4175SOL     OW23986   0.108   1.865  10.801 -0.1057  0.0237  0.0899
 4175SOL    HW123987   0.195   1.855  10.840 -0.1968  0.7920  0.4990
 4175SOL    HW223988   0.060   1.811  10.864  1.4520 -0.3268  0.9893
 4176SOL     OW23989   0.274   0.703   5.937  0.9645  0.2680  0.2566
 4176SOL    HW123990   0.182   0.712   5.960  1.0961  1.1843  0.4091
 4176SOL    HW223991   0.288   0.744   5.851  2.3099  1.4801  1.0628
 4177SOL     OW23992   2.915   0.106  12.871  0.1410  0.2298 -0.3006
 4177SOL    HW123993   2.866   0.162  12.932  0.2443  0.7753 -0.7160
 4177SOL    HW223994   3.005   0.141  12.865  0.0381  0.5308 -0.1255
 4178SOL     OW23995   3.837   3.890   7.238  0.0758 -0.3771  0.6269
 4178SOL    HW123996   3.785   3.886   7.319  0.9598 -1.6085  1.1365
 4178SOL    HW223997   3.917   3.929   7.273  1.1908 -1.6043 -0.5675
 4179SOL     OW23998   4.584   1.066  14.491 -0.0796 -0.0680 -0.1655
 4179SOL    HW123999   4.638   1.051  14.568  2.6113  2.0755 -1.6432
 4179SOL    HW224000   4.643   1.034  14.423  0.3389  0.2087  0.0668
 4180SOL     OW24001   4.191   1.982   9.055  0.3375 -0.1928 -0.2242
 4180SOL    HW124002   4.119   1.998   9.117  1.4472  0.0271  1.0124
 4180SOL    HW224003   4.208   2.075   9.039  1.6789 -0.4540 -0.3037
 4181SOL     OW24004   3.461   2.715  11.029 -0.2442  0.1447  0.3126
 4181SOL    HW124005   3.463   2.667  11.112 -3.5800 -0.1886  0.1963
 4181SOL    HW224006   3.385   2.769  11.049 -0.3215  1.0304 -2.3796
 4182SOL     OW24007   3.393   1.230   2.909 -0.0046 -0.0647 -0.3292
 4182SOL    HW124008   3.481   1.232   2.872 -0.9239 -0.1823 -2.5277
 4182SOL    HW224009   3.386   1.141   2.944  2.5300 -0.4316 -0.7748
 4183SOL     OW24010   4.336   0.045   7.082  0.1520  0.4938 -0.7123
 4183SOL    HW124011   4.263   4.710   7.099  0.8849 -0.4050 -0.6998
 4183SOL    HW224012   4.298   0.128   7.055 -1.3164 -0.2559 -0.9517
 4184SOL     OW24013   3.759   0.226   6.645 -0.1889  0.2073  0.0141
 4184SOL    HW124014   3.793   0.162   6.707  0.5093  0.8138  0.2437
 4184SOL    HW224015   3.786   0.303   6.695 -2.4802  0.5679  0.7245
 4185SOL     OW24016   4.430   0.120  15.435 -0.5266  0.1208 -0.5938
 4185SOL    HW124017   4.371   0.111  15.510  0.9480  1.4988  0.7494
 4185SOL    HW224018   4.499   0.171  15.477 -0.2944  1.1498 -2.2299
 4186SOL     OW24019   0.380   2.344  15.087  0.0105  0.1767  0.3516
 4186SOL    HW124020   0.401   2.375  14.999  0.5518  1.0384  0.7837
 4186SOL    HW224021   0.463   2.298  15.098 -0.3222 -0.8562 -1.3924
 4187SOL     OW24022   1.437   2.408   0.129 -0.0571 -0.1640  0.6805
 4187SOL    HW124023   1.345   2.418   0.105 -0.2940 -1.8747  0.8213
 4187SOL    HW224024   1.481   2.476   0.079 -1.9028  0.2833 -0.3371
 4188SOL     OW24025   3.518   4.354   1.475  1.0534 -0.2271  0.3934
 4188SOL    HW124026   3.600   4.399   1.457  1.0961 -0.3217  0.3519
 4188SOL    HW224027   3.515   4.347   1.570  0.1426  0.9903  0.4624
 4189SOL     OW24028   1.039   3.435  10.511  0.0267 -0.4390 -0.0203
 4189SOL    HW124029   1.125   3.464  10.540 -0.7193  1.0126  0.7349
 4189SOL    HW224030   1.051   3.450  10.418  1.9138 -1.3451  0.0803
 4190SOL     OW24031   4.148   3.612   9.636  0.3826 -0.4227 -0.4704
 4190SOL    HW124032   4.209   3.541   9.658  1.5546  0.1677 -1.8371
 4190SOL    HW224033   4.085   3.567   9.580  0.7621 -0.7084 -0.6674
 4191SOL     OW24034   2.129   4.322  17.250 -0.5682  0.0181  0.5166
 4191SOL    HW124035   2.037   4.298  17.261 -0.2106 -1.0851  1.1168
 4191SOL    HW224036   2.171   4.247  17.293  0.3872  1.1250  1.5500
 4192SOL     OW24037   3.651   2.973   5.777  0.5047  0.1006  0.2911
 4192SOL    HW124038   3.649   2.999   5.686 -0.3701 -0.1200  0.2533
 4192SOL    HW224039   3.579   3.026   5.811  0.4700  0.4186 -0.2800
 4193SOL     OW24040   3.928   0.402   5.198 -0.9392 -0.1154  0.0465
 4193SOL    HW124041   3.970   0.444   5.273 -1.1040  0.0121  0.0688
 4193SOL    HW224042   3.989   0.328   5.193  0.9821  1.3312  2.2594
 4194SOL     OW24043   2.854   1.367   6.847 -0.4536  0.3887  0.5761
 4194SOL    HW124044   2.809   1.447   6.872 -3.9715 -2.1192  2.2612
 4194SOL    HW224045   2.876   1.369   6.754 -1.0875  1.5982  0.4630
 4195SOL     OW24046   2.818   0.076   3.426  0.7174  0.7556  0.0075
 4195SOL    HW124047   2.739   0.024   3.438  0.8764  0.0983 -1.8643
 4195SOL    HW224048   2.832   0.114   3.513  4.4990 -1.2547  0.2619
 4196SOL     OW24049   1.361   2.987  13.257  0.1590  0.0895 -0.1941
 4196SOL    HW124050   1.266   2.984  13.269  0.3382 -1.9068  0.7684
 4196SOL    HW224051   1.383   2.947  13.342 -1.3587  2.7674  1.4346
 4197SOL     OW24052   4.377   2.053   7.987  0.4626 -0.0558 -0.9673
 4197SOL    HW124053   4.434   2.121   8.024 -0.2328 -0.5876  1.0485
 4197SOL    HW224054   4.403   2.061   7.895  1.1943 -0.7710 -0.8209
 4198SOL     OW24055   3.240   2.599   0.768 -0.1396  0.0214 -0.1895
 4198SOL    HW124056   3.276   2.631   0.685  0.0511 -0.0768 -0.1466
 4198SOL    HW224057   3.219   2.684   0.807  0.1574 -0.8669  1.9072
 4199SOL     OW24058   4.253   4.275   7.264 -0.3723 -0.1894  0.7122
 4199SOL    HW124059   4.296   4.247   7.345  1.3096  0.1747 -0.0612
 4199SOL    HW224060   4.324   4.286   7.201 -0.6172  1.1808  0.6775
 4200SOL     OW24061   2.714   3.244   6.096 -0.3540  0.2415 -1.2759
 4200SOL    HW124062   2.659   3.242   6.175 -0.4629 -0.0042 -1.3566
 4200SOL    HW224063   2.684   3.316   6.040 -1.3703  0.2549 -0.7223
 4201SOL     OW24064   2.435   0.442   6.687 -0.3359 -0.0569  0.5657
 4201SOL    HW124065   2.441   0.378   6.758  1.3373 -1.8844 -1.2229
 4201SOL    HW224066   2.468   0.392   6.612 -1.2470 -0.1537  0.2282
 4202SOL     OW24067   4.138   1.110   4.454 -0.4267  0.0212  0.0542
 4202SOL    HW124068   4.187   1.028   4.444  0.5393  0.9602 -2.7472
 4202SOL    HW224069   4.062   1.078   4.503 -0.5045 -0.3052 -0.2802
 4203SOL     OW24070   2.130   0.029  15.678  0.0217  0.3271 -0.4649
 4203SOL    HW124071   2.162   4.695  15.746  0.4934  0.5507 -0.4991
 4203SOL    HW224072   2.130   0.111  15.727 -1.8680  0.6475 -0.9977
 4204SOL     OW24073   3.490   1.151  11.417  0.4940 -0.4556  0.3644
 4204SOL    HW124074   3.436   1.137  11.339  1.1095 -3.2277  0.4065
 4204SOL    HW224075   3.441   1.108  11.487  0.2348  0.8494  0.9758
 4205SOL     OW24076   4.067   1.436   9.122 -0.1698  0.1474  0.3018
 4205SOL    HW124077   4.086   1.503   9.057 -0.9270 -0.7262 -0.8122
 4205SOL    HW224078   4.152   1.419   9.163 -0.9378  0.2032  1.9130
 4206SOL     OW24079   2.010   2.752   9.974 -0.1306 -0.7087  0.1806
 4206SOL    HW124080   2.017   2.727  10.066 -2.9164  0.5026  0.7305
 4206SOL    HW224081   1.947   2.825   9.970 -0.4601 -0.8658  2.3399
 4207SOL     OW24082   4.046   3.235   7.247 -0.1577  0.0877  0.4219
 4207SOL    HW124083   3.981   3.274   7.189 -0.5046  0.5335  1.1089
 4207SOL    HW224084   3.991   3.178   7.300  1.5699 -1.3739  0.6241
 4208SOL     OW24085   2.519   1.285  15.744 -0.2728 -0.6525 -0.5658
 4208SOL    HW124086   2.476   1.346  15.803 -1.5776 -2.5840  0.4768
 4208SOL    HW224087   2.498   1.320  15.657 -0.2703  0.2905 -0.1835
 4209SOL     OW24088   2.755   4.276   9.635  0.2472 -0.4467 -0.2499
 4209SOL    HW124089   2.740   4.238   9.548  3.3230  1.2891 -1.5420
 4209SOL    HW224090   2.824   4.223   9.674 -0.3981  0.0833  1.5989
 4210SOL     OW24091   1.647   4.425   4.661  0.1289  0.3081  0.4303
 4210SOL    HW124092   1.706   4.463   4.596  0.6092  0.7131  1.1048
 4210SOL    HW224093   1.565   4.436   4.613  1.9804 -1.4063 -3.1540
 4211SOL     OW24094   2.851   1.802  12.954  0.3654  0.3113  0.1077
 4211SOL    HW124095   2.757   1.799  12.935  0.5828 -0.0325 -0.8683
 4211SOL    HW224096   2.878   1.726  12.903 -1.9555 -0.3124 -0.2154
 4212SOL     OW24097   0.340   2.196  17.303  0.6224  0.1554  0.0054
 4212SOL    HW124098   0.321   2.112  17.343 -0.3905  0.3439 -0.0848
 4212SOL    HW224099   0.266   2.212  17.244  1.7204  0.7399 -1.2275
 4213SOL     OW24100   2.792   1.572   3.858  0.4623 -0.2409  0.5786
 4213SOL    HW124101   2.856   1.642   3.865  0.8028 -0.5163  0.2480
 4213SOL    HW224102   2.806   1.548   3.766  1.7659 -0.0285  0.7265
 4214SOL     OW24103   0.870   0.365   8.618 -0.0455 -0.2299 -0.0424
 4214SOL    HW124104   0.910   0.296   8.672 -0.3883 -0.3128  0.0991
 4214SOL    HW224105   0.943   0.422   8.593 -0.8213 -0.3926 -2.7576
 4215SOL     OW24106   3.190   3.529   2.630 -0.3134 -1.0229 -0.0230
 4215SOL    HW124107   3.224   3.444   2.657  0.1740 -0.8577 -0.1288
 4215SOL    HW224108   3.256   3.588   2.665  0.6740 -2.7433  0.9936
 4216SOL     OW24109   3.847   1.639  12.167  0.5834 -0.2881  0.0142
 4216SOL    HW124110   3.838   1.600  12.254  1.3833  0.6290  0.5114
 4216SOL    HW224111   3.928   1.592  12.147 -0.6214 -1.1799 -2.7687
 4217SOL     OW24112   4.692   1.147   8.317 -0.0792  0.0020 -0.1859
 4217SOL    HW124113   4.655   1.203   8.386 -0.9188  0.4808 -1.0310
 4217SOL    HW224114   4.654   1.060   8.334 -2.3312  1.4237  2.1939
 4218SOL     OW24115   0.954   4.398  12.003 -0.3105  0.0548 -0.2646
 4218SOL    HW124116   0.905   4.318  11.987 -0.7737 -0.0088  1.3890
 4218SOL    HW224117   1.047   4.377  11.995 -0.2117  0.6039 -0.6096
 4219SOL     OW24118   0.983   4.000  10.614 -0.2800 -0.1755 -0.0998
 4219SOL    HW124119   0.934   4.053  10.678 -4.0128 -0.9672 -2.3270
 4219SOL    HW224120   0.972   4.049  10.533 -1.3919 -1.9358 -1.0098
 4220SOL     OW24121   3.907   1.485  10.681 -0.3387  0.1930  0.7072
 4220SOL    HW124122   3.825   1.516  10.719 -1.8709 -2.6690 -0.2366
 4220SOL    HW224123   3.913   1.539  10.603 -2.4559 -1.2941 -0.4928
 4221SOL     OW24124   0.979   2.483   2.913  0.1526 -0.0225 -0.2424
 4221SOL    HW124125   1.049   2.451   2.970 -1.0518  0.4425  1.5115
 4221SOL    HW224126   0.957   2.574   2.935 -0.1211 -0.0558 -0.3728
 4222SOL     OW24127   4.352   4.197   1.955 -0.1034  0.0369  0.3436
 4222SOL    HW124128   4.377   4.164   1.868 -0.8621 -0.6198  0.3787
 4222SOL    HW224129   4.372   4.289   1.937  1.7242  0.0011  2.1465
 4223SOL     OW24130   2.358   4.273   5.611 -0.0298 -0.3833  0.5403
 4223SOL    HW124131   2.306   4.310   5.540 -0.3093  0.5123  1.2008
 4223SOL    HW224132   2.386   4.189   5.576  1.2729  0.5135 -0.5440
 4224SOL     OW24133   1.251   2.666   7.332  0.3002 -0.2782  0.1591
 4224SOL    HW124134   1.345   2.685   7.333  0.1396  0.4976  0.3787
 4224SOL    HW224135   1.226   2.720   7.257 -3.3643 -2.1594  0.0337
 4225SOL     OW24136   0.480   1.234   6.942 -0.1728  0.3661 -0.5890
 4225SOL    HW124137   0.492   1.192   6.857  1.2524  1.4761 -0.9339
 4225SOL    HW224138   0.553   1.295   6.944 -1.2522  1.5747  1.6673
 4226SOL     OW24139   4.338   4.599   2.329 -0.3304  0.1448  0.3202
 4226SOL    HW124140   4.266   4.551   2.289  1.1081 -3.1258  1.5485
 4226SOL    HW224141   4.295   4.642   2.403 -0.1356 -0.9954  1.1014
 4227SOL     OW24142   4.474   3.344  12.769 -0.3996  0.5964  0.1305
 4227SOL    HW124143   4.525   3.380  12.842  0.1047  0.2226 -0.0343
 4227SOL    HW224144   4.537   3.276  12.742 -0.3514  0.3048  0.9509
 4228SOL     OW24145   2.789   3.673  11.271 -0.4247  0.0793 -0.6291
 4228SOL    HW124146   2.842   3.594  11.257 -0.8497 -0.3387  0.1580
 4228SOL    HW224147   2.748   3.649  11.354  1.7692  0.3204  0.5251
 4229SOL     OW24148   1.203   3.812   7.170 -0.2214  0.7224 -0.1843
 4229SOL    HW124149   1.208   3.811   7.074 -1.1689 -0.4284 -0.2237
 4229SOL    HW224150   1.111   3.836   7.180 -0.1999  0.2076  1.1691
 4230SOL     OW24151   4.002   0.259   6.402  0.1780  0.0242 -0.0250
 4230SOL    HW124152   4.095   0.246   6.383 -0.2228  1.1089 -2.7288
 4230SOL    HW224153   3.986   0.184   6.459 -1.0977  1.6284  1.7239
 4231SOL     OW24154   2.374   2.774  13.255 -0.2070 -0.6582  0.0756
 4231SOL    HW124155   2.437   2.839  13.286  1.1558 -1.8563 -0.1663
 4231SOL    HW224156   2.429   2.702  13.226 -0.3763 -0.4509 -0.7530
 4232SOL     OW24157   2.388   1.167  15.394 -0.6808 -0.5614 -0.7285
 4232SOL    HW124158   2.321   1.154  15.327 -0.9128 -0.6307 -0.4814
 4232SOL    HW224159   2.378   1.093  15.453  2.5162 -0.8749 -0.5492
 4233SOL     OW24160   0.625   4.004   9.163  0.1053 -0.3362 -0.0601
 4233SOL    HW124161   0.536   3.990   9.133  1.2095  1.7057 -4.3020
 4233SOL    HW224162   0.626   4.097   9.183  0.8072 -0.3834  0.1450
 4234SOL     OW24163   4.508   1.236  11.934  0.2728 -0.3039 -0.2129
 4234SOL    HW124164   4.430   1.182  11.927 -0.3164  0.5869 -0.6240
 4234SOL    HW224165   4.502   1.287  11.853  0.0012  1.2265  0.7553
 4235SOL     OW24166   0.678   4.283   6.572 -0.0671 -0.0112  0.1629
 4235SOL    HW124167   0.725   4.340   6.633 -0.2254  0.7535 -0.4247
 4235SOL    HW224168   0.591   4.277   6.610 -0.5671 -2.2828 -1.3367
 4236SOL     OW24169   2.182   3.745  12.846  0.4411  0.3377  0.2253
 4236SOL    HW124170   2.166   3.813  12.781 -1.8211 -1.0621 -0.6996
 4236SOL    HW224171   2.138   3.789  12.918  0.6211 -0.1118  0.6061
 4237SOL     OW24172   3.486   3.220   4.352  0.5018 -0.6284 -0.0582
 4237SOL    HW124173   3.569   3.265   4.364 -1.2280  2.1985  1.2088
 4237SOL    HW224174   3.510   3.133   4.384  2.4321 -0.1477 -0.1872
 4238SOL     OW24175   2.601   2.846   4.332  0.2194 -0.3458  0.3642
 4238SOL    HW124176   2.569   2.846   4.423 -1.9557 -2.3155 -0.3981
 4238SOL    HW224177   2.694   2.822   4.341  0.0911 -0.3189  1.9072
 4239SOL     OW24178   2.450   3.180   8.061 -1.0140  0.7003  0.0083
 4239SOL    HW124179   2.405   3.105   8.100 -2.4049  1.3880 -0.2748
 4239SOL    HW224180   2.436   3.251   8.124 -1.8444  0.1911  0.3892
 4240SOL     OW24181   1.108   3.184   2.530 -0.9795  0.4149 -0.4407
 4240SOL    HW124182   1.038   3.131   2.494 -0.8180  1.2370 -1.9565
 4240SOL    HW224183   1.114   3.261   2.473  2.8429 -0.6911 -1.5079
 4241SOL     OW24184   1.854   3.080   2.109  0.4726  1.0672  0.2154
 4241SOL    HW124185   1.906   3.083   2.029  0.0659 -1.3399 -0.1647
 4241SOL    HW224186   1.923   3.066   2.173  1.4231 -0.6271 -1.1663
 4242SOL     OW24187   2.170   3.869  16.184 -0.9326  0.3440  0.3515
 4242SOL    HW124188   2.165   3.779  16.216  0.6216  0.6981  1.6005
 4242SOL    HW224189   2.167   3.850  16.090  1.0449  0.9771  0.1561
 4243SOL     OW24190   2.511   3.344   9.693 -0.2453  0.1426  0.1828
 4243SOL    HW124191   2.574   3.376   9.628 -0.0320  0.2518  0.4460
 4243SOL    HW224192   2.431   3.376   9.651  0.2626  1.0277 -0.1017
 4244SOL     OW24193   2.724   1.841   2.492  0.0841 -0.2827 -0.1172
 4244SOL    HW124194   2.672   1.847   2.411  0.0223 -0.1317 -0.0664
 4244SOL    HW224195   2.664   1.879   2.555  0.9060  1.4958 -0.4208
 4245SOL     OW24196   2.624   1.918  12.290 -0.1087  0.2596  0.2154
 4245SOL    HW124197   2.565   1.905  12.215  0.8297 -1.8952 -0.1453
 4245SOL    HW224198   2.585   1.864  12.359  2.7398 -0.0280  1.5865
 4246SOL     OW24199   4.362   1.398   7.320  0.2258  0.3984  0.3060
 4246SOL    HW124200   4.312   1.350   7.254  0.5316  1.1735 -0.4880
 4246SOL    HW224201   4.392   1.324   7.373  1.5800  0.3151 -0.5446
 4247SOL     OW24202   3.194   2.909   5.965 -0.2453 -0.3903 -0.2105
 4247SOL    HW124203   3.215   2.967   6.038 -3.1991  1.0132 -0.4900
 4247SOL    HW224204   3.273   2.922   5.914  0.4185 -0.0383  0.8950
 4248SOL     OW24205   2.261   0.188   4.453 -0.4533  0.2054 -0.8373
 4248SOL    HW124206   2.281   0.119   4.516  0.3204 -1.3698 -2.8117
 4248SOL    HW224207   2.295   0.136   4.380 -0.2720 -0.8467  0.0076
 4249SOL     OW24208   0.220   4.638   5.937 -0.2155  0.4086 -0.0862
 4249SOL    HW124209   0.241   4.646   6.030 -0.8613 -1.0128  0.1742
 4249SOL    HW224210   0.176   4.723   5.943  0.6159  0.5620  3.9117
 4250SOL     OW24211   1.401   2.364   6.635  0.0711 -0.4101  0.2753
 4250SOL    HW124212   1.324   2.384   6.581 -0.3455  0.0638  1.0446
 4250SOL    HW224213   1.458   2.341   6.562 -0.4430  2.0937 -0.9112
 4251SOL     OW24214   3.179   2.787   3.548  0.2545  0.1216  0.6583
 4251SOL    HW124215   3.102   2.750   3.505 -1.0696  0.6022  2.6010
 4251SOL    HW224216   3.164   2.753   3.636 -0.7639 -1.9164 -0.2927
 4252SOL     OW24217   4.330   0.754  11.008 -0.1228 -0.3912 -0.2407
 4252SOL    HW124218   4.366   0.766  11.096  0.3898  1.9947 -0.7795
 4252SOL    HW224219   4.392   0.687  10.979  1.0937  0.4870  0.3106
 4253SOL     OW24220   2.208   0.681   6.968  0.0299 -0.1842  0.4929
 4253SOL    HW124221   2.181   0.647   6.883 -0.1552  0.9358  0.0983
 4253SOL    HW224222   2.286   0.627   6.983 -0.5206 -1.1868 -0.3247
 4254SOL     OW24223   4.618   3.634   7.682 -0.1889  0.1605  0.0333
 4254SOL    HW124224   4.593   3.575   7.754  0.7366  2.3677  2.1549
 4254SOL    HW224225   4.619   3.572   7.608 -1.4191  0.0011  0.1433
 4255SOL     OW24226   0.439   0.862   1.906 -0.0827 -0.3944 -0.0764
 4255SOL    HW124227   0.362   0.917   1.918 -0.1616 -0.2738 -1.1874
 4255SOL    HW224228   0.443   0.861   1.811 -0.4894  1.4232 -0.1218
 4256SOL     OW24229   4.001   2.310  11.689 -0.1736 -0.8924  0.0970
 4256SOL    HW124230   4.022   2.228  11.734  1.3736  0.0675  1.1536
 4256SOL    HW224231   4.068   2.375  11.711 -0.7352  0.6591 -2.7787
 4257SOL     OW24232   0.175   0.486   3.189 -0.0424 -0.2061  0.5075
 4257SOL    HW124233   0.182   0.557   3.253  0.6090 -0.1360  0.3566
 4257SOL    HW224234   0.098   0.437   3.217 -1.0179  0.1381 -1.6192
 4258SOL     OW24235   0.992   1.558  11.095 -0.6971 -0.0911  0.0001
 4258SOL    HW124236   1.066   1.613  11.120  0.0374 -0.6826 -0.8580
 4258SOL    HW224237   0.955   1.541  11.181  1.5248 -1.1801  0.7247
 4259SOL     OW24238   3.948   1.463   8.254  0.5809  0.2424 -0.4824
 4259SOL    HW124239   3.983   1.389   8.204 -0.8713 -2.0113  1.8228
 4259SOL    HW224240   3.867   1.480   8.206  0.8263  2.6377 -0.0303
 4260SOL     OW24241   1.311   0.120   1.116 -0.4727  0.3087 -0.3865
 4260SOL    HW124242   1.379   0.089   1.056 -0.0831 -0.5609  0.5104
 4260SOL    HW224243   1.250   0.046   1.115  0.3691 -0.3811 -1.1459
 4261SOL     OW24244   4.608   4.715  16.795 -0.3147  0.3666  0.6756
 4261SOL    HW124245   4.643   0.073  16.763 -1.0922  0.1775 -0.6861
 4261SOL    HW224246   4.627   4.654  16.723 -0.5323  2.1233 -0.8845
 4262SOL     OW24247   3.213   2.996   9.287  0.5288  0.0853 -0.3318
 4262SOL    HW124248   3.279   2.927   9.292  2.2187  1.6268 -1.0328
 4262SOL    HW224249   3.245   3.035   9.368  0.2216  1.1044 -0.6999
 4263SOL     OW24250   4.593   4.341   2.096  0.2727  0.5463  0.1178
 4263SOL    HW124251   4.515   4.388   2.065 -0.4356 -0.5311  0.2861
 4263SOL    HW224252   4.632   4.415   2.144 -0.8409  0.6997  0.7797
 4264SOL     OW24253   1.784   4.546   5.624  0.1719 -0.1517 -0.1187
 4264SOL    HW124254   1.824   4.468   5.663  0.6960 -0.3623 -1.0914
 4264SOL    HW224255   1.813   4.547   5.533 -2.3533  0.7175 -0.9138
 4265SOL     OW24256   2.741   2.556   7.019  0.7627  0.2115 -0.1415
 4265SOL    HW124257   2.651   2.580   6.997  0.1679  2.1536  4.2241
 4265SOL    HW224258   2.735   2.461   7.028 -0.3606  0.2088 -0.9137
 4266SOL     OW24259   0.411   0.373  16.779 -0.5420  0.3362 -0.1173
 4266SOL    HW124260   0.465   0.313  16.729 -0.0262 -0.5995  1.5642
 4266SOL    HW224261   0.463   0.454  16.786 -1.3544  0.8559 -0.0707
 4267SOL     OW24262   1.353   0.939   1.407 -0.2074 -0.4564 -0.0440
 4267SOL    HW124263   1.434   0.979   1.438  0.9525 -1.5300 -1.6750
 4267SOL    HW224264   1.324   0.879   1.475  0.0018  1.6457  1.8939
 4268SOL     OW24265   3.132   0.481   3.029  0.2053 -0.4373  0.6787
 4268SOL    HW124266   3.097   0.393   3.017 -0.4162  0.0902 -1.3891
 4268SOL    HW224267   3.124   0.496   3.123 -3.4817 -2.9395  0.7412
 4269SOL     OW24268   2.178   3.887  10.044 -0.2417  0.7731  0.2714
 4269SOL    HW124269   2.264   3.904  10.006 -0.0578  1.1731  0.8679
 4269SOL    HW224270   2.132   3.836   9.976  0.9583 -1.7792  1.3667
 4270SOL     OW24271   2.719   2.241   8.738  0.0309  0.0817 -0.2213
 4270SOL    HW124272   2.756   2.264   8.653 -0.1960  1.2632 -0.0046
 4270SOL    HW224273   2.702   2.326   8.780  1.7983  0.5332 -0.3956
 4271SOL     OW24274   4.053   3.149   5.574 -0.1425  0.4638  0.2984
 4271SOL    HW124275   4.139   3.127   5.611 -1.0993 -2.8956  0.5033
 4271SOL    HW224276   4.061   3.112   5.486  3.2368  0.4112  0.6191
 4272SOL     OW24277   1.669   0.846  17.412 -0.1389 -0.1327 -0.0334
 4272SOL    HW124278   1.676   0.940  17.429  1.0390 -0.1020 -0.6902
 4272SOL    HW224279   1.621   0.856  17.330 -1.3675  0.3516  0.7470
 4273SOL     OW24280   0.015   2.982   5.263  0.0630  0.0619  0.3486
 4273SOL    HW124281   0.010   2.940   5.177 -0.4108 -0.4000  0.5993
 4273SOL    HW224282   0.096   2.945   5.296  0.6613  0.2946 -0.8859
 4274SOL     OW24283   0.233   4.406   3.528  0.6205  0.3268  0.6666
 4274SOL    HW124284   0.140   4.421   3.508  0.8670 -0.2812 -0.9506
 4274SOL    HW224285   0.256   4.391   3.437  1.6983  0.0087  0.9897
 4275SOL     OW24286   3.490   3.136   7.141  0.4273  0.4558 -0.5415
 4275SOL    HW124287   3.565   3.113   7.086 -1.4300  1.1696 -3.3859
 4275SOL    HW224288   3.450   3.209   7.093 -0.3173  0.0644 -0.5098
 4276SOL     OW24289   1.181   3.443  12.953 -0.2967  0.3745 -0.2962
 4276SOL    HW124290   1.263   3.492  12.955 -0.1079  0.0876 -1.1841
 4276SOL    HW224291   1.139   3.466  12.870 -0.7912  1.6040  0.3019
 4277SOL     OW24292   3.735   1.480   8.553 -0.3016 -0.6561  0.0277
 4277SOL    HW124293   3.829   1.495   8.540 -0.3449  0.5009  1.0245
 4277SOL    HW224294   3.731   1.482   8.648 -3.0614  0.9788 -0.1210
 4278SOL     OW24295   0.289   0.159   5.659  0.4824 -0.0462  0.1363
 4278SOL    HW124296   0.369   0.191   5.701  1.1865 -1.1900 -0.3219
 4278SOL    HW224297   0.222   0.158   5.727  0.5982 -1.3657  0.2336
 4279SOL     OW24298   2.398   3.865   7.224 -0.8067  0.9809 -0.3173
 4279SOL    HW124299   2.448   3.796   7.269  0.3897  1.3897 -1.0065
 4279SOL    HW224300   2.316   3.866   7.273 -1.4206  0.2242 -1.3129
 4280SOL     OW24301   4.369   0.616  14.077  0.3932  0.2153  1.1295
 4280SOL    HW124302   4.275   0.597  14.074  0.2640  1.3510 -2.3504
 4280SOL    HW224303   4.404   0.536  14.037 -0.1597 -0.4386  1.9664
 4281SOL     OW24304   1.771   1.109   5.386  0.0917 -0.1848  0.3529
 4281SOL    HW124305   1.736   1.093   5.298 -0.0325 -1.5874  0.6587
 4281SOL    HW224306   1.694   1.098   5.441 -0.2739 -1.6962 -0.4640
 4282SOL     OW24307   0.517   2.668   1.250  0.6169  0.7349 -0.6809
 4282SOL    HW124308   0.601   2.714   1.253  0.4551  1.0416 -0.9127
 4282SOL    HW224309   0.537   2.588   1.299 -2.0305 -0.1506 -1.0121
 4283SOL     OW24310   3.995   4.008  12.678 -0.1955 -0.3461  1.2110
 4283SOL    HW124311   4.088   4.016  12.655 -0.0677 -0.1733  1.8039
 4283SOL    HW224312   3.968   3.917  12.688 -0.0727 -0.6086 -0.8244
 4284SOL     OW24313   0.796   3.309   7.525 -0.0488 -0.5481 -0.1905
 4284SOL    HW124314   0.889   3.300   7.506  0.1492  0.3408  0.3747
 4284SOL    HW224315   0.794   3.390   7.575 -1.9407 -0.4624 -0.3897
 4285SOL     OW24316   4.355   1.271   0.294 -0.6120 -0.0410 -0.1099
 4285SOL    HW124317   4.262   1.284   0.312 -0.2874  1.4483  0.4783
 4285SOL    HW224318   4.391   1.349   0.337 -1.4194  1.1361 -1.5646
 4286SOL     OW24319   3.919   0.932  13.639  0.6501  0.3201 -0.2057
 4286SOL    HW124320   3.913   0.998  13.571 -1.1789 -1.9208 -2.2071
 4286SOL    HW224321   3.943   0.858  13.583  2.5111  0.0894  0.8692
 4287SOL     OW24322   0.727   0.091  11.490  0.1914 -0.3885  0.5628
 4287SOL    HW124323   0.714   0.139  11.408  0.7202 -2.3796 -0.6995
 4287SOL    HW224324   0.777   0.014  11.463 -0.7435 -0.8577  0.1812
 4288SOL     OW24325   1.695   1.963   9.502  0.9244 -0.3278 -0.1768
 4288SOL    HW124326   1.676   2.050   9.539  0.1698 -0.7551  0.4416
 4288SOL    HW224327   1.644   1.904   9.558 -1.2719 -0.4845 -2.3577
 4289SOL     OW24328   2.836   4.529   5.460 -0.1923 -0.7251  0.7382
 4289SOL    HW124329   2.849   4.585   5.384 -1.8309 -2.2114 -0.6294
 4289SOL    HW224330   2.755   4.557   5.503  0.6636 -0.0798  1.9471
 4290SOL     OW24331   3.036   0.911   8.769 -0.4130  0.1226  0.3416
 4290SOL    HW124332   2.944   0.927   8.750 -0.2448 -2.0879 -2.3740
 4290SOL    HW224333   3.071   0.935   8.683 -2.2272 -1.0365 -0.7292
 4291SOL     OW24334   3.570   3.808   4.547  0.4847 -0.8362 -0.3764
 4291SOL    HW124335   3.588   3.881   4.488 -0.3094 -0.8776 -0.6615
 4291SOL    HW224336   3.538   3.857   4.622  0.7442 -0.1368 -0.7236
 4292SOL     OW24337   4.129   0.957   8.515  0.3191 -0.7028 -0.3191
 4292SOL    HW124338   4.200   1.004   8.471  0.6226 -3.2724 -2.5535
 4292SOL    HW224339   4.074   0.924   8.444  1.1775 -3.3739  0.2884
 4293SOL     OW24340   1.038   2.456   1.216  0.0328 -0.5804 -0.5535
 4293SOL    HW124341   0.959   2.508   1.232 -1.1967 -2.6898  0.2099
 4293SOL    HW224342   1.106   2.521   1.236 -0.1371 -0.9020  1.1069
 4294SOL     OW24343   1.175   4.583   3.527  0.5015  0.5530 -0.3000
 4294SOL    HW124344   1.166   4.498   3.485 -1.8321  1.0751 -0.8895
 4294SOL    HW224345   1.135   4.642   3.463  0.8975 -1.2640 -2.2101
 4295SOL     OW24346   2.892   1.596   3.308  0.7903  0.4618 -0.1100
 4295SOL    HW124347   2.861   1.524   3.252  1.0614  0.6261 -0.4724
 4295SOL    HW224348   2.919   1.663   3.245  0.6867  1.4495  0.8976
 4296SOL     OW24349   3.763   0.260   8.623  0.2804  0.7108 -0.3747
 4296SOL    HW124350   3.822   0.245   8.549  0.1092 -0.3473 -0.3074
 4296SOL    HW224351   3.785   0.353   8.626  1.7652  0.3238  0.8055
 4297SOL     OW24352   4.442   0.957   7.887  0.1207  0.1099  0.0328
 4297SOL    HW124353   4.533   0.930   7.877 -0.5303 -1.3332 -2.0199
 4297SOL    HW224354   4.446   1.027   7.952  0.8530  0.3184 -0.2400
 4298SOL     OW24355   3.813   1.093   3.998  0.1958 -0.0643  0.4469
 4298SOL    HW124356   3.863   1.170   4.025 -0.2004 -0.0650  1.1903
 4298SOL    HW224357   3.769   1.126   3.920  0.9323  0.5838  0.3065
 4299SOL     OW24358   0.338   0.153   5.153  0.7231  0.4647 -0.1477
 4299SOL    HW124359   0.266   0.096   5.181  2.0135 -0.6565  0.9263
 4299SOL    HW224360   0.398   0.136   5.226  1.8654  2.4470 -0.6349
 4300SOL     OW24361   0.458   2.337   4.482  0.1991  0.2887  1.1755
 4300SOL    HW124362   0.402   2.400   4.438  1.7385  0.9449  0.1530
 4300SOL    HW224363   0.413   2.254   4.466 -0.1522  0.5631  0.7567
 4301SOL     OW24364   1.770   4.643  17.691 -0.2695  0.4959 -0.2236
 4301SOL    HW124365   1.744   0.007  17.669  0.1553  0.8552  0.7193
 4301SOL    HW224366   1.848   4.644  17.636 -1.7935 -0.8085 -2.4148
 4302SOL     OW24367   0.563   2.517   7.342  0.4654 -0.2033  0.0803
 4302SOL    HW124368   0.515   2.436   7.361  0.6178 -0.3359 -0.1031
 4302SOL    HW224369   0.627   2.483   7.280  0.2847 -0.3361 -0.0373
 4303SOL     OW24370   4.505   3.523   0.237 -0.2058 -0.2179  0.7443
 4303SOL    HW124371   4.579   3.560   0.286  1.1742 -1.0344 -0.7398
 4303SOL    HW224372   4.548   3.459   0.180  0.0429  0.4087  0.2265
 4304SOL     OW24373   0.115   1.793   6.014  0.8202 -1.1412 -0.0967
 4304SOL    HW124374   0.116   1.825   5.923  1.8299  1.3857  0.8021
 4304SOL    HW224375   0.149   1.876   6.047  0.3765 -0.3436 -1.5893
 4305SOL     OW24376   0.085   2.560   2.935 -0.3554  0.2657  0.3235
 4305SOL    HW124377   0.037   2.550   3.017  1.1990 -1.7277  1.0068
 4305SOL    HW224378   0.175   2.535   2.958 -0.4481 -0.6382 -0.3098
 4306SOL     OW24379   2.079   4.428   4.814 -0.2125  0.1284 -0.0161
 4306SOL    HW124380   1.990   4.392   4.819 -0.0517 -0.3182 -0.3028
 4306SOL    HW224381   2.107   4.403   4.902  2.1451  0.3887 -0.6982
 4307SOL     OW24382   2.463   3.613   5.888 -0.4735 -0.0583  0.0701
 4307SOL    HW124383   2.415   3.695   5.881  2.3160  1.4936 -1.1720
 4307SOL    HW224384   2.525   3.621   5.961  0.7254  2.2351 -1.1959
 4308SOL     OW24385   3.652   1.132   9.316 -0.2960 -0.3453  0.3021
 4308SOL    HW124386   3.676   1.125   9.408 -0.0657 -1.9906  0.1161
 4308SOL    HW224387   3.741   1.140   9.281 -0.3591  2.5909  0.8238
 4309SOL     OW24388   3.653   2.200   4.565  0.2469 -0.5451 -0.1144
 4309SOL    HW124389   3.584   2.135   4.549  0.4652 -0.5484 -1.0118
 4309SOL    HW224390   3.709   2.152   4.626 -1.0408  1.1746  2.4037
 4310SOL     OW24391   1.579   0.219   5.950 -0.5570  0.0608  0.2380
 4310SOL    HW124392   1.605   0.243   5.861 -3.4950  0.4759 -0.5148
 4310SOL    HW224393   1.625   0.139   5.976  0.9300  0.4448 -1.1891
 4311SOL     OW24394   1.627   0.727   9.709  0.1449 -0.7352  0.1476
 4311SOL    HW124395   1.598   0.719   9.800  2.1544  3.1958  1.1056
 4311SOL    HW224396   1.702   0.667   9.700  2.2782  2.2260 -1.7659
 4312SOL     OW24397   3.991   3.933   9.859  0.1394  0.1198  0.3380
 4312SOL    HW124398   4.012   3.943   9.952 -0.0427 -0.8225  0.4857
 4312SOL    HW224399   3.924   4.001   9.857 -1.1508 -1.1467  0.3185
 4313SOL     OW24400   1.384   1.124   3.448  0.3393 -0.3766 -0.0721
 4313SOL    HW124401   1.434   1.184   3.503  1.4195  0.0013 -1.4768
 4313SOL    HW224402   1.407   1.037   3.480  1.1185 -0.3506 -0.5536
 4314SOL     OW24403   1.311   1.255  14.092 -0.5939 -0.7295 -0.2647
 4314SOL    HW124404   1.359   1.321  14.143  0.1239 -1.7688  0.3885
 4314SOL    HW224405   1.296   1.183  14.152 -0.3565 -0.4881  0.0863
 4315SOL     OW24406   1.110   4.133   2.030 -0.2852  0.1878 -0.3803
 4315SOL    HW124407   1.133   4.040   2.029  1.7915  0.6987  0.2077
 4315SOL    HW224408   1.050   4.130   1.955 -1.6009 -1.4002  0.7425
 4316SOL     OW24409   4.363   4.591   1.252  0.1243  0.2795  0.0143
 4316SOL    HW124410   4.439   4.531   1.251 -1.5562 -1.8931  1.4691
 4316SOL    HW224411   4.291   4.539   1.289 -0.6775 -0.0063 -1.9449
 4317SOL     OW24412   1.327   1.248   2.500 -0.1327 -0.1997 -0.4474
 4317SOL    HW124413   1.291   1.336   2.514 -1.3996 -0.6642 -0.8092
 4317SOL    HW224414   1.317   1.211   2.588  1.0712  0.2740 -0.1117
 4318SOL     OW24415   0.652   3.381   8.793 -0.1585 -0.1834  0.3004
 4318SOL    HW124416   0.623   3.306   8.742 -0.6614 -1.3871  2.3428
 4318SOL    HW224417   0.632   3.458   8.740  1.1763 -0.7876 -1.0546
 4319SOL     OW24418   4.059   1.852   0.518  0.6547  0.3357 -0.1199
 4319SOL    HW124419   4.043   1.930   0.465  1.6054  0.9917  0.5421
 4319SOL    HW224420   4.134   1.884   0.569 -0.4779 -1.1709  2.4993
 4320SOL     OW24421   0.005   2.803   7.347  0.5670  0.4965 -0.1712
 4320SOL    HW124422   0.057   2.724   7.365 -0.4444 -0.2180 -0.3828
 4320SOL    HW224423   4.643   2.765   7.337  0.9893 -0.1630 -1.3278
 4321SOL     OW24424   0.089   4.667   3.796 -0.0888 -0.1776 -0.3123
 4321SOL    HW124425   0.100   4.655   3.890  0.5768  0.7035 -0.2814
 4321SOL    HW224426   0.178   4.678   3.764 -0.5732  0.7804 -1.3651
 4322SOL     OW24427   1.481   2.633  12.640 -0.3468 -0.2684  0.2902
 4322SOL    HW124428   1.412   2.690  12.607 -1.3007 -1.1651  0.7366
 4322SOL    HW224429   1.491   2.670  12.728 -0.3667 -0.0356  0.1944
 4323SOL     OW24430   4.516   2.942  15.134  0.3313  0.9053  0.0596
 4323SOL    HW124431   4.468   2.863  15.161  2.0112  0.3885  1.5099
 4323SOL    HW224432   4.466   3.005  15.186 -2.4336 -0.4946 -0.8958
 4324SOL     OW24433   3.238   1.124   1.626 -0.2789 -0.6380  0.0845
 4324SOL    HW124434   3.198   1.208   1.648  0.1120 -1.5163  4.1136
 4324SOL    HW224435   3.242   1.090   1.715  1.8018 -3.0899 -0.9498
 4325SOL     OW24436   0.580   1.019   6.242 -0.5423 -0.9751  0.1152
 4325SOL    HW124437   0.675   1.016   6.246 -0.6109 -0.7471  1.7770
 4325SOL    HW224438   0.562   1.047   6.152  0.7997 -1.1184 -0.1961
 4326SOL     OW24439   2.052   1.474   3.425  0.2183 -0.4982  0.0865
 4326SOL    HW124440   1.990   1.407   3.452  0.6326 -1.2984 -0.9241
 4326SOL    HW224441   2.089   1.507   3.507 -0.4763 -0.6268  0.4484
 4327SOL     OW24442   1.733   3.558   5.995 -0.5597 -0.0395 -0.1175
 4327SOL    HW124443   1.729   3.645   5.954  3.4354 -0.7217 -2.0619
 4327SOL    HW224444   1.641   3.549   6.019  0.4491 -0.9544  3.3766
 4328SOL     OW24445   1.342   0.596   0.980 -0.3067  0.3399  0.2173
 4328SOL    HW124446   1.413   0.532   0.977  0.5865  1.2905  0.7598
 4328SOL    HW224447   1.304   0.587   0.892 -0.3396  0.6484  0.1990
 4329SOL     OW24448   1.895   1.750   5.804  0.0877  0.1689 -0.0752
 4329SOL    HW124449   1.926   1.660   5.814 -0.1678 -0.1441 -2.0909
 4329SOL    HW224450   1.937   1.783   5.884 -2.1824  2.8732 -0.0093
 4330SOL     OW24451   3.948   1.757  11.258 -0.0723 -0.3472  0.2429
 4330SOL    HW124452   3.856   1.780  11.274  0.2053 -0.3270  1.7963
 4330SOL    HW224453   3.951   1.763  11.163  0.7641  1.5414  0.4063
 4331SOL     OW24454   0.535   0.428  14.478  0.4958 -0.2500 -0.3037
 4331SOL    HW124455   0.625   0.449  14.456  0.6646 -0.1144  0.5257
 4331SOL    HW224456   0.528   0.414  14.572 -1.9052 -3.1022 -0.8684
 4332SOL     OW24457   3.568   4.269   2.067  0.4203 -0.2132 -0.2470
 4332SOL    HW124458   3.601   4.357   2.049  0.5540 -0.6908 -2.3129
 4332SOL    HW224459   3.488   4.279   2.016  0.8816 -2.8097 -1.4759
 4333SOL     OW24460   0.136   4.243   7.298 -0.5231  0.1771 -1.0219
 4333SOL    HW124461   0.130   4.296   7.219  1.4925  1.9590  0.0057
 4333SOL    HW224462   0.064   4.188   7.269 -2.1393  0.4610  2.4681
 4334SOL     OW24463   4.007   4.084   7.888 -0.4025  0.4632 -0.1429
 4334SOL    HW124464   3.984   4.160   7.941 -0.7293  0.1285  0.1983
 4334SOL    HW224465   4.019   4.124   7.802 -0.0398 -0.5900 -0.5883
 4335SOL     OW24466   1.725   0.064  16.533 -0.1205 -0.6017 -0.9002
 4335SOL    HW124467   1.785   0.132  16.502 -0.5271 -0.3891 -1.2336
 4335SOL    HW224468   1.656   0.116  16.574  1.4080  1.0381 -0.4414
 4336SOL     OW24469   3.011   0.681   6.996 -0.0282 -0.7020  0.7083
 4336SOL    HW124470   2.971   0.613   7.051  1.8622 -1.2291  1.4369
 4336SOL    HW224471   3.064   0.623   6.942  0.7620 -0.0558  0.7995
 4337SOL     OW24472   1.480   3.796   6.829  0.0533 -0.1390 -0.3754
 4337SOL    HW124473   1.527   3.776   6.910  0.1223  1.5464  0.0121
 4337SOL    HW224474   1.546   3.765   6.768 -1.6874  0.7725 -2.7210
 4338SOL     OW24475   4.159   2.417   5.550 -0.3303  0.3286  0.1086
 4338SOL    HW124476   4.110   2.488   5.591  1.7598  1.7603  0.1742
 4338SOL    HW224477   4.112   2.424   5.467 -0.1512  1.1178  0.0755
 4339SOL     OW24478   1.031   2.467   6.033  0.2437 -0.1661  0.0129
 4339SOL    HW124479   1.007   2.385   6.077 -0.4068  0.1941  0.3277
 4339SOL    HW224480   0.992   2.529   6.094 -3.0131 -1.5754 -0.6191
 4340SOL     OW24481   3.581   4.418  17.611  0.3160  0.2189 -0.6444
 4340SOL    HW124482   3.510   4.400  17.549  1.5973 -2.6194 -1.2925
 4340SOL    HW224483   3.527   4.421  17.690  3.0887 -0.3386  1.2420
 4341SOL     OW24484   3.795   1.940   5.435 -0.0272  0.0178 -0.2294
 4341SOL    HW124485   3.727   1.873   5.449  1.6394 -1.0838  2.6682
 4341SOL    HW224486   3.792   1.990   5.517 -0.0293  0.6816 -0.6353
 4342SOL     OW24487   2.329   2.349  17.237 -1.0129 -0.6366 -0.0259
 4342SOL    HW124488   2.324   2.414  17.167 -2.6115 -1.3873 -0.6002
 4342SOL    HW224489   2.354   2.394  17.318 -0.5824  0.8445 -0.9831
 4343SOL     OW24490   2.236   1.366  15.746  0.9302  0.2457 -0.0133
 4343SOL    HW124491   2.234   1.274  15.771  1.1878  0.2563  0.0447
 4343SOL    HW224492   2.226   1.358  15.652  2.7055 -0.4750 -0.1396
 4344SOL     OW24493   0.073   0.475   2.012 -0.6367  0.0557 -0.0779
 4344SOL    HW124494   0.151   0.529   1.996  0.6255 -1.9486 -0.6188
 4344SOL    HW224495   0.081   0.455   2.106  0.5698 -2.0680 -0.6458
 4345SOL     OW24496   3.590   1.645  12.742 -0.5559  0.2515 -0.1267
 4345SOL    HW124497   3.577   1.555  12.713  1.1571 -0.1606  0.4030
 4345SOL    HW224498   3.622   1.689  12.663 -1.2394 -0.6977 -0.9254
 4346SOL     OW24499   4.378   0.369   7.172  0.1632  0.1625 -0.0964
 4346SOL    HW124500   4.306   0.417   7.131 -1.4583 -0.1769  2.3752
 4346SOL    HW224501   4.437   0.373   7.097  1.2685 -1.9366  0.6546
 4347SOL     OW24502   0.600   0.337  10.731  0.1709 -0.4845  0.1136
 4347SOL    HW124503   0.663   0.309  10.664 -0.5755 -0.8674 -0.4264
 4347SOL    HW224504   0.589   0.428  10.704 -1.4484 -1.0077 -0.9497
 4348SOL     OW24505   4.631   3.113   0.672  0.0485 -0.5235 -0.3867
 4348SOL    HW124506   4.655   3.205   0.664 -0.1666 -0.3227  1.2094
 4348SOL    HW224507   4.599   3.106   0.763 -0.3111 -1.6273 -0.5962
 4349SOL     OW24508   1.876   4.347   5.780  0.3638  0.0255 -0.2331
 4349SOL    HW124509   1.939   4.399   5.831  0.9603 -0.8753 -0.0415
 4349SOL    HW224510   1.930   4.273   5.753  0.2967  0.8803 -2.6935
 4350SOL     OW24511   2.872   2.055  13.158  0.2262  0.1692  0.4056
 4350SOL    HW124512   2.859   2.083  13.249  0.8248 -2.5581  1.3292
 4350SOL    HW224513   2.787   2.077  13.121  0.4368  1.0760  0.4508
 4351SOL     OW24514   0.674   1.992   6.391 -0.3110  0.5681 -0.0362
 4351SOL    HW124515   0.625   2.069   6.420 -2.4979 -0.9561  0.2775
 4351SOL    HW224516   0.674   1.999   6.296 -2.8353  1.1976  0.0217
 4352SOL     OW24517   3.163   0.263  11.640  0.5601 -0.0790 -0.1744
 4352SOL    HW124518   3.256   0.282  11.636  0.3055  1.3808  0.7479
 4352SOL    HW224519   3.168   0.168  11.649 -2.0256 -0.4203 -2.1700
 4353SOL     OW24520   4.672   4.622  17.059  0.1815 -0.3226 -0.7521
 4353SOL    HW124521   0.033   4.653  17.086  0.0098  0.3465 -0.9674
 4353SOL    HW224522   4.660   4.659  16.972 -2.0376 -0.1169 -0.3790
 4354SOL     OW24523   3.570   1.828   4.919 -0.0672 -0.3542 -0.3460
 4354SOL    HW124524   3.543   1.807   4.829  3.4244 -0.5969 -1.3583
 4354SOL    HW224525   3.638   1.893   4.904 -0.9270  1.2651  3.0075
 4355SOL     OW24526   3.157   1.086   1.326 -0.5436  0.0668  0.4029
 4355SOL    HW124527   3.097   1.158   1.345 -0.0762  0.1025  1.7647
 4355SOL    HW224528   3.141   1.058   1.236  0.6699 -0.9498  0.5048
 4356SOL     OW24529   3.053   4.063   9.385 -0.0670  0.0215 -0.0008
 4356SOL    HW124530   3.108   4.050   9.462 -1.1474 -1.5416  0.5251
 4356SOL    HW224531   3.029   4.151   9.412 -0.3692  0.0520 -0.3532
 4357SOL     OW24532   0.548   0.572   9.135  0.3032  0.0558 -0.4760
 4357SOL    HW124533   0.574   0.656   9.172  2.6625 -1.8032  2.1267
 4357SOL    HW224534   0.632   0.531   9.114 -0.2326 -0.7322 -1.0673
 4358SOL     OW24535   4.032   0.917   7.924  0.2197 -0.2060  0.2803
 4358SOL    HW124536   4.083   0.914   8.005 -0.0007 -2.4730  0.3256
 4358SOL    HW224537   3.965   0.860   7.961  1.8373 -1.6749  0.9106
 4359SOL     OW24538   1.630   0.469   3.529 -0.6065 -0.3483 -0.2134
 4359SOL    HW124539   1.675   0.527   3.467 -0.1223 -0.2368  0.2428
 4359SOL    HW224540   1.689   0.492   3.601 -1.6417  0.3148  0.4302
 4360SOL     OW24541   2.961   0.822   3.951  0.3617 -0.3878 -0.1328
 4360SOL    HW124542   2.932   0.845   3.863  2.9898  1.6555 -0.4744
 4360SOL    HW224543   2.977   0.909   3.988 -0.5478  0.8239 -2.5592
 4361SOL     OW24544   3.330   0.545   2.828  0.1253  0.2365  0.2017
 4361SOL    HW124545   3.277   0.522   2.904  3.3152 -0.4157  2.2141
 4361SOL    HW224546   3.303   0.635   2.806 -1.5770  0.3038  2.5387
 4362SOL     OW24547   4.344   2.620  14.071  0.1698  0.2248 -0.4326
 4362SOL    HW124548   4.346   2.574  14.155 -0.6976 -0.5911 -0.8631
 4362SOL    HW224549   4.268   2.673  14.094 -1.0367 -1.0697 -1.4291
 4363SOL     OW24550   0.850   1.095   3.157 -0.1128  0.4455  0.0888
 4363SOL    HW124551   0.875   1.167   3.099 -1.2185  2.2728  1.8924
 4363SOL    HW224552   0.773   1.065   3.107 -0.7806  1.1279  0.7220
 4364SOL     OW24553   1.709   3.808  17.356 -0.0621  0.1356 -0.4556
 4364SOL    HW124554   1.669   3.722  17.366 -0.2515  0.2853  0.0933
 4364SOL    HW224555   1.735   3.831  17.446 -1.8053  2.2655 -0.5044
 4365SOL     OW24556   2.635   0.751   8.834 -1.0736  0.5159  0.1669
 4365SOL    HW124557   2.579   0.827   8.846 -0.8516  1.2984 -3.9008
 4365SOL    HW224558   2.707   0.783   8.889  1.1002 -1.4767 -1.5297
 4366SOL     OW24559   3.050   3.349   0.409  0.1394  0.2644 -0.7591
 4366SOL    HW124560   2.968   3.391   0.435  0.3768  0.3745 -0.1957
 4366SOL    HW224561   3.108   3.418   0.376  0.4587 -0.1783 -1.1201
 4367SOL     OW24562   2.605   1.522   0.258  0.1880 -0.2795  0.1852
 4367SOL    HW124563   2.675   1.577   0.223 -2.9922  2.3888 -1.9007
 4367SOL    HW224564   2.535   1.580   0.288 -2.1510 -2.5609 -0.9003
 4368SOL     OW24565   2.831   0.932  15.435 -0.0603  0.1376  0.1996
 4368SOL    HW124566   2.780   0.939  15.515 -0.9262  1.9868 -0.5106
 4368SOL    HW224567   2.760   0.949  15.372 -2.2890  2.1105  3.2165
 4369SOL     OW24568   0.230   2.578  16.167 -0.1002 -0.0681  0.0500
 4369SOL    HW124569   0.291   2.526  16.114 -0.4200 -1.5673  1.1605
 4369SOL    HW224570   0.188   2.633  16.101 -1.2013 -0.3691  0.5074
 4370SOL     OW24571   3.873   0.984   6.025  0.6790  0.2349  0.0116
 4370SOL    HW124572   3.837   1.033   6.099  1.3629  1.0977 -0.2322
 4370SOL    HW224573   3.882   0.899   6.069 -1.6344  0.4609  0.9210
 4371SOL     OW24574   2.029   1.553   3.171  0.4256  0.6024 -0.3514
 4371SOL    HW124575   2.049   1.511   3.255 -2.1215 -0.3130 -0.1991
 4371SOL    HW224576   2.118   1.548   3.137  1.1152 -0.5819  1.6048
 4372SOL     OW24577   1.402   1.728  15.076  0.1035  0.4385  0.2075
 4372SOL    HW124578   1.445   1.717  14.991 -0.8313 -0.8300 -0.1046
 4372SOL    HW224579   1.436   1.817  15.084  0.3131  0.6589 -3.2723
 4373SOL     OW24580   4.249   4.469   9.167  0.4301  0.2790  0.5692
 4373SOL    HW124581   4.235   4.511   9.252  1.7482  1.6326  0.1186
 4373SOL    HW224582   4.162   4.493   9.136  0.3368  0.8536  1.2686
 4374SOL     OW24583   2.589   0.225   5.380 -0.0794 -0.1891  0.4062
 4374SOL    HW124584   2.615   0.200   5.292  0.4392 -0.0111  0.5095
 4374SOL    HW224585   2.495   0.240   5.369  0.4458  1.3323 -1.9428
 4375SOL     OW24586   2.310   2.294  10.629 -0.0241 -0.5515 -0.2696
 4375SOL    HW124587   2.242   2.245  10.676 -0.4600  2.1390  1.9165
 4375SOL    HW224588   2.258   2.369  10.600  1.5841  0.8784  0.6178
 4376SOL     OW24589   3.015   1.746  11.565 -0.0414 -0.3310 -0.2138
 4376SOL    HW124590   2.944   1.805  11.589  1.0165  0.9128 -0.1444
 4376SOL    HW224591   2.996   1.669  11.618  0.0700 -0.2327 -0.0305
 4377SOL     OW24592   4.560   3.619  17.034  0.3855 -0.5727  0.1771
 4377SOL    HW124593   4.527   3.673  17.106 -1.0974  0.0307 -0.9409
 4377SOL    HW224594   4.615   3.557  17.082  1.2969 -0.9264 -1.3402
 4378SOL     OW24595   1.733   0.753  12.848  0.0863  0.0270  0.6972
 4378SOL    HW124596   1.738   0.847  12.827  0.0831  0.3470  2.1075
 4378SOL    HW224597   1.821   0.729  12.817  0.6069  0.3859  1.8822
 4379SOL     OW24598   1.851   3.829   7.463  0.1928  0.3165  0.1616
 4379SOL    HW124599   1.883   3.866   7.546 -0.1580  2.0985 -0.4977
 4379SOL    HW224600   1.762   3.802   7.488  0.5500  0.6013  1.7498
 4380SOL     OW24601   1.760   2.943  14.321  0.5256 -0.5539  0.6001
 4380SOL    HW124602   1.741   2.888  14.245 -0.4843 -0.1568  0.5719
 4380SOL    HW224603   1.824   2.894  14.372  1.4135  0.0374  0.0555
 4381SOL     OW24604   1.148   1.776  15.218 -0.1847  0.8050  0.3048
 4381SOL    HW124605   1.171   1.709  15.154 -0.0166  3.2793 -2.2453
 4381SOL    HW224606   1.233   1.801  15.255  0.5538  1.3367 -1.7734
 4382SOL     OW24607   4.577   4.638  11.036 -0.5496  0.1048  0.0572
 4382SOL    HW124608   4.580   4.699  10.963 -1.1757 -2.6454 -2.2735
 4382SOL    HW224609   4.630   4.688  11.098  0.0318  2.5032 -2.3734
 4383SOL     OW24610   1.314   0.911   7.757  0.0056  0.2714 -0.0797
 4383SOL    HW124611   1.381   0.847   7.779 -0.7989  0.0115  1.6408
 4383SOL    HW224612   1.288   0.879   7.671  0.2806 -1.7490  0.5943
 4384SOL     OW24613   0.449   3.141   0.558  0.0843  0.2800  0.3844
 4384SOL    HW124614   0.398   3.165   0.636  0.1796 -2.5491  1.3290
 4384SOL    HW224615   0.536   3.167   0.587  0.7187 -1.5792  0.1765
 4385SOL     OW24616   0.479   3.526   5.435 -0.3807  0.0363 -0.4085
 4385SOL    HW124617   0.436   3.558   5.515 -2.1645 -0.2900 -1.2366
 4385SOL    HW224618   0.453   3.434   5.436 -2.0880  0.4930 -1.7289
 4386SOL     OW24619   1.854   1.999  10.825 -0.1033 -0.2479 -0.1804
 4386SOL    HW124620   1.898   1.914  10.829  1.1850  0.2472 -3.8436
 4386SOL    HW224621   1.784   1.974  10.765  0.7606 -0.8683 -0.9185
 4387SOL     OW24622   0.812   3.050   7.633 -0.1187 -0.1236 -0.0395
 4387SOL    HW124623   0.850   3.080   7.716 -0.7457  1.7394 -0.4067
 4387SOL    HW224624   0.793   3.136   7.595  2.0271  0.5213  0.3587
 4388SOL     OW24625   2.734   4.124  11.311 -0.1357  0.3418 -0.0019
 4388SOL    HW124626   2.758   4.114  11.219 -0.4442  0.4836 -0.0967
 4388SOL    HW224627   2.670   4.053  11.299  0.1051  0.3050 -1.0581
 4389SOL     OW24628   4.181   0.225   8.020 -0.2565 -0.0102 -0.0110
 4389SOL    HW124629   4.134   0.184   7.948  2.4284 -1.8407 -0.6942
 4389SOL    HW224630   4.118   0.288   8.056  0.0603 -0.7586  1.8547
 4390SOL     OW24631   2.027   1.226   8.897 -0.0998 -0.3686  0.2812
 4390SOL    HW124632   2.036   1.320   8.884 -3.5123  0.3026  2.8663
 4390SOL    HW224633   2.045   1.221   8.991  2.1819  0.2493 -0.1092
 4391SOL     OW24634   2.125   2.581  15.942  0.1270  0.0153 -0.3961
 4391SOL    HW124635   2.218   2.602  15.936  0.5946 -1.6907  0.8640
 4391SOL    HW224636   2.108   2.586  15.848 -2.0545 -1.5299 -0.1027
 4392SOL     OW24637   0.411   2.452   3.654  0.1475 -0.2173  0.0089
 4392SOL    HW124638   0.382   2.543   3.652  1.9426  0.3580  1.2092
 4392SOL    HW224639   0.327   2.406   3.645  0.4482 -0.5927 -0.9419
 4393SOL     OW24640   1.051   4.255  15.633 -0.0712  0.3355 -0.2905
 4393SOL    HW124641   1.133   4.298  15.658  1.2142 -1.8307 -0.7760
 4393SOL    HW224642   1.071   4.162  15.632 -1.6262  0.0097 -0.8897
 4394SOL     OW24643   1.935   1.332   5.632 -0.0080  0.5608 -0.4849
 4394SOL    HW124644   2.014   1.299   5.675  0.5561 -0.4375 -2.3239
 4394SOL    HW224645   1.863   1.326   5.696 -0.3799  0.3556 -0.9251
 4395SOL     OW24646   3.148   0.083   8.193  0.1849 -0.0358  0.1054
 4395SOL    HW124647   3.063   0.044   8.174  0.2910 -0.5089  0.6129
 4395SOL    HW224648   3.217   0.036   8.146  1.6922  0.2023  2.0979
 4396SOL     OW24649   3.346   3.576   5.794  0.3232 -0.4454 -0.3558
 4396SOL    HW124650   3.428   3.623   5.775  0.4358 -1.7530 -3.0286
 4396SOL    HW224651   3.275   3.638   5.776  1.3659  0.0789 -2.6128
 4397SOL     OW24652   0.087   0.270   8.371 -0.1840  0.2693  0.2933
 4397SOL    HW124653   0.121   0.359   8.378  0.5817  0.0151 -0.2179
 4397SOL    HW224654   4.724   0.293   8.400 -0.3214  2.6020 -1.9561
 4398SOL     OW24655   4.098   2.441   1.559  0.9840 -0.4144 -0.1421
 4398SOL    HW124656   4.095   2.356   1.516  2.1122 -0.4424 -0.1458
 4398SOL    HW224657   4.169   2.424   1.620 -2.5596 -2.4571  3.4280
 4399SOL     OW24658   0.753   1.187   1.561  0.0494  0.1214 -0.5540
 4399SOL    HW124659   0.817   1.196   1.490 -0.6156 -2.8025 -1.5254
 4399SOL    HW224660   0.796   1.120   1.615 -1.9463 -0.3248  0.4704
 4400SOL     OW24661   0.967   0.638   7.744  0.4750  0.1535  0.0017
 4400SOL    HW124662   0.988   0.695   7.818 -1.1701 -0.8312  1.2265
 4400SOL    HW224663   0.959   0.555   7.791  0.0391  0.2324  0.0641
 4401SOL     OW24664   1.998   3.844   9.796  0.3185 -0.2049 -0.2751
 4401SOL    HW124665   2.050   3.858   9.717 -0.9516  0.9418 -0.9022
 4401SOL    HW224666   1.945   3.923   9.803 -0.5372 -0.8672  0.7438
 4402SOL     OW24667   1.186   0.011   7.588 -0.3697 -0.0621  0.6196
 4402SOL    HW124668   1.248   0.003   7.660  0.0551 -3.4193 -0.0989
 4402SOL    HW224669   1.200   0.100   7.557  0.7646 -0.1293  0.9247
 4403SOL     OW24670   4.280   0.519  15.548 -0.1175 -0.3127 -0.3117
 4403SOL    HW124671   4.216   0.471  15.496  1.0714 -0.0167 -2.0558
 4403SOL    HW224672   4.361   0.478  15.521  2.2915  1.2341  4.5372
 4404SOL     OW24673   0.862   1.993  16.688 -0.2510 -0.3793  0.3638
 4404SOL    HW124674   0.897   2.075  16.723  2.0687 -0.3252 -2.0471
 4404SOL    HW224675   0.924   1.979  16.616  1.1805 -1.5085  1.8048
 4405SOL     OW24676   2.401   0.084   0.353 -0.3421 -0.2045  0.3683
 4405SOL    HW124677   2.459   0.028   0.405  0.9823 -1.7410 -2.7492
 4405SOL    HW224678   2.458   0.154   0.323 -0.8821  0.0593 -0.0285
 4406SOL     OW24679   2.283   2.203   8.760  0.1250  0.1725 -0.2254
 4406SOL    HW124680   2.336   2.276   8.729  1.1987 -0.5078  0.0203
 4406SOL    HW224681   2.355   2.141   8.763  0.1364  0.2097  0.1718
 4407SOL     OW24682   2.759   3.968   0.475  0.0931 -0.2230  0.4321
 4407SOL    HW124683   2.839   3.931   0.436  0.2794  0.1688  0.4411
 4407SOL    HW224684   2.736   3.907   0.545  2.0023  0.5942  1.7802
 4408SOL     OW24685   4.086   3.687  14.058  0.6304  0.5033  0.0408
 4408SOL    HW124686   4.179   3.694  14.038  0.7904  0.7732  0.8734
 4408SOL    HW224687   4.083   3.595  14.084  0.1224 -0.0850 -2.0527
 4409SOL     OW24688   0.430   2.870   6.989  0.1779  0.7749  0.1856
 4409SOL    HW124689   0.484   2.881   7.067  0.2000 -1.1271  0.4264
 4409SOL    HW224690   0.430   2.959   6.953  1.0462 -0.4526 -2.8490
 4410SOL     OW24691   4.655   4.456   3.976  0.0643  0.2317  0.3716
 4410SOL    HW124692   0.005   4.418   4.022 -0.7112  0.3494  1.7581
 4410SOL    HW224693   4.621   4.372   3.944 -0.5977  0.7300 -0.2326
 4411SOL     OW24694   0.945   4.588   4.067  0.2226  0.0854  0.0921
 4411SOL    HW124695   0.956   4.660   4.006 -2.0064 -0.8912 -1.4671
 4411SOL    HW224696   0.915   4.631   4.148 -0.1015  1.8316 -0.9622
 4412SOL     OW24697   0.481   2.284   4.031 -0.4300  0.6312 -0.0835
 4412SOL    HW124698   0.546   2.354   4.026 -0.6445  0.8116 -0.3672
 4412SOL    HW224699   0.526   2.201   4.019 -1.7725 -0.3271  1.4277
 4413SOL     OW24700   0.716   0.189   8.095  0.0226  0.3366  0.2071
 4413SOL    HW124701   0.695   0.097   8.081  0.5588  0.4926 -1.6949
 4413SOL    HW224702   0.641   0.212   8.150 -1.0479  1.0310 -1.5174
 4414SOL     OW24703   0.722   2.217   2.706  0.1470 -0.7080 -0.0125
 4414SOL    HW124704   0.798   2.187   2.656 -1.2408 -0.1244 -2.4278
 4414SOL    HW224705   0.663   2.226   2.631 -0.6982 -0.5789  0.6639
 4415SOL     OW24706   1.181   1.920   5.873 -0.3910  0.6123  0.4003
 4415SOL    HW124707   1.219   2.000   5.836 -0.7084  0.0641 -1.1097
 4415SOL    HW224708   1.118   1.967   5.927  0.1214  0.5152  1.0865
 4416SOL     OW24709   2.875   2.974   6.292  0.2468  0.2704 -0.8611
 4416SOL    HW124710   2.901   3.062   6.316 -1.1032 -0.1616  2.2298
 4416SOL    HW224711   2.865   2.980   6.197 -0.4843  0.2061 -0.7931
 4417SOL     OW24712   2.750   4.240   7.244  0.5126 -0.0228 -0.5664
 4417SOL    HW124713   2.664   4.198   7.239  0.8195 -0.4994 -1.8282
 4417SOL    HW224714   2.787   4.179   7.307 -0.2605 -1.9272 -1.9633
 4418SOL     OW24715   0.976   4.109   2.784  0.2250  0.4420  0.7529
 4418SOL    HW124716   1.042   4.040   2.774  0.8618  1.1038  0.3849
 4418SOL    HW224717   0.927   4.085   2.862 -1.8001  1.9372 -0.0848
 4419SOL     OW24718   0.557   3.211  15.770  0.2108 -0.2755  0.0305
 4419SOL    HW124719   0.612   3.144  15.811 -0.4674 -1.8093 -1.5605
 4419SOL    HW224720   0.472   3.183  15.804  0.8601 -0.7613  1.2751
 4420SOL     OW24721   4.497   2.912   1.590 -0.1033 -0.2165  0.1730
 4420SOL    HW124722   4.431   2.847   1.615 -1.4153  0.7671 -0.6891
 4420SOL    HW224723   4.581   2.867   1.595 -0.4076 -0.6235  1.6010
 4421SOL     OW24724   4.326   2.300   2.227  0.0019  0.0924 -0.6708
 4421SOL    HW124725   4.308   2.386   2.190 -0.4802 -0.2973 -1.3622
 4421SOL    HW224726   4.358   2.255   2.149  1.7746  1.2721 -0.6208
 4422SOL     OW24727   0.847   3.221  11.222 -0.4485  0.1048 -0.3624
 4422SOL    HW124728   0.890   3.281  11.161 -2.4340  0.2204 -1.6597
 4422SOL    HW224729   0.756   3.250  11.218  0.1606  2.1270  0.5960
 4423SOL     OW24730   4.277   0.264   4.237  0.2333 -0.2791 -0.9355
 4423SOL    HW124731   4.209   0.252   4.171 -0.7347 -2.2822  0.4581
 4423SOL    HW224732   4.285   0.179   4.281 -0.0513  0.2154  0.0686
 4424SOL     OW24733   4.314   2.377   8.346 -0.3444 -0.0270  0.2171
 4424SOL    HW124734   4.261   2.377   8.266  0.5660  0.9563 -0.3828
 4424SOL    HW224735   4.245   2.415   8.401 -1.9491 -0.1246 -1.6862
 4425SOL     OW24736   0.229   0.755   3.351 -0.0131 -0.2375 -0.4800
 4425SOL    HW124737   0.243   0.832   3.296  0.4302 -0.4709 -0.6902
 4425SOL    HW224738   0.137   0.764   3.376  0.9110  1.7148  2.2187
 4426SOL     OW24739   3.080   2.438   4.379 -0.3564 -0.1614  0.0434
 4426SOL    HW124740   3.086   2.523   4.335  1.2775  0.4930  1.5107
 4426SOL    HW224741   3.019   2.387   4.326 -0.5257 -1.1671  1.2303
 4427SOL     OW24742   0.176   2.279   1.185  0.2636  0.2097  0.2386
 4427SOL    HW124743   0.150   2.217   1.116  1.8763 -4.0899  3.4767
 4427SOL    HW224744   0.241   2.225   1.230 -0.9631 -0.7691  0.8747
 4428SOL     OW24745   4.383   1.571   6.953 -0.2977 -0.0285 -0.4090
 4428SOL    HW124746   4.365   1.478   6.965  2.8646 -1.0241 -3.2094
 4428SOL    HW224747   4.429   1.580   7.036  2.3516  1.6626 -2.0282
 4429SOL     OW24748   3.903   1.083  16.105 -0.3856  0.0117  0.0284
 4429SOL    HW124749   3.988   1.096  16.064  0.6311 -1.4343  1.7333
 4429SOL    HW224750   3.920   1.093  16.198  1.1245 -0.6182 -0.1922
 4430SOL     OW24751   2.664   0.749   0.895 -0.1162 -0.0306 -0.1048
 4430SOL    HW124752   2.626   0.818   0.950  1.9576  0.1141  1.1311
 4430SOL    HW224753   2.612   0.672   0.919 -0.5435 -0.1913 -1.5064
 4431SOL     OW24754   0.630   4.431  11.172 -0.6403 -0.4437 -0.1879
 4431SOL    HW124755   0.573   4.468  11.105  0.8151 -1.1450 -1.8007
 4431SOL    HW224756   0.722   4.445  11.148 -0.8576  1.3535  0.0443
 4432SOL     OW24757   4.474   1.433   1.561 -0.4777 -0.4042 -0.9178
 4432SOL    HW124758   4.477   1.374   1.636 -0.3583  1.5429  0.5876
 4432SOL    HW224759   4.383   1.427   1.533 -0.5915  1.0210 -0.8529
 4433SOL     OW24760   3.641   4.631   9.572  0.4659 -0.1861  0.4859
 4433SOL    HW124761   3.622   4.663   9.660  1.1232 -0.2444  0.6492
 4433SOL    HW224762   3.555   4.651   9.536  2.3877  2.7099 -2.4069
 4434SOL     OW24763   0.134   2.249   8.608 -0.4715  0.2676  0.4693
 4434SOL    HW124764   0.056   2.227   8.659 -0.8206 -2.0913 -1.0611
 4434SOL    HW224765   0.201   2.233   8.674 -0.9738  1.6160  1.2989
 4435SOL     OW24766   0.619   3.491   8.139  0.2636 -0.0144 -0.0204
 4435SOL    HW124767   0.586   3.522   8.223  1.0387 -0.7251  0.5528
 4435SOL    HW224768   0.673   3.414   8.160  0.1273 -0.1785 -0.2701
 4436SOL     OW24769   3.795   4.699   7.898 -0.1601  0.6300  0.4738
 4436SOL    HW124770   3.715   0.006   7.856  0.9187 -0.2215 -2.1988
 4436SOL    HW224771   3.772   0.008   7.985  0.4736 -2.2444  1.7898
 4437SOL     OW24772   3.828   4.263   2.619 -0.9863 -0.3205  0.1970
 4437SOL    HW124773   3.766   4.334   2.600  0.4758  1.1128  0.7220
 4437SOL    HW224774   3.801   4.238   2.707  2.1764  0.2033  1.3088
 4438SOL     OW24775   0.990   1.164   5.965  0.2344 -1.0293  0.2870
 4438SOL    HW124776   0.946   1.202   5.890  1.0194  0.7474  0.7371
 4438SOL    HW224777   1.045   1.236   5.996  1.4545 -0.8897 -2.2454
 4439SOL     OW24778   3.025   0.264   2.359  0.0760 -0.2916 -0.2176
 4439SOL    HW124779   3.120   0.266   2.369  0.0297 -2.0096  0.5868
 4439SOL    HW224780   3.013   0.329   2.290 -0.5225  0.4732  0.6271
 4440SOL     OW24781   0.006   2.261  17.559 -0.2881  0.5338 -0.0014
 4440SOL    HW124782   0.099   2.256  17.580 -0.1650  2.9306  0.0062
 4440SOL    HW224783   4.717   2.355  17.569  0.6783  0.5471  1.2057
 4441SOL     OW24784   1.467   1.683   4.000  0.4931  0.4465 -0.4218
 4441SOL    HW124785   1.407   1.663   3.928  0.6685 -0.5630 -0.2958
 4441SOL    HW224786   1.424   1.646   4.077  0.3285  0.3192 -0.5739
 4442SOL     OW24787   2.134   0.173  15.249 -0.2231  0.0504 -0.1004
 4442SOL    HW124788   2.093   0.259  15.258 -0.5088  0.2935 -3.7134
 4442SOL    HW224789   2.074   0.118  15.298  0.2234 -0.4628 -0.1318
 4443SOL     OW24790   3.668   1.762   9.583  0.5896 -0.4689  0.4010
 4443SOL    HW124791   3.647   1.772   9.490  0.8033 -1.7560  0.2130
 4443SOL    HW224792   3.668   1.668   9.597 -1.4308 -0.7037 -1.2322
 4444SOL     OW24793   4.003   3.420  14.203 -0.0573  0.0537 -0.3023
 4444SOL    HW124794   3.996   3.334  14.161  0.6737 -0.1863  0.0674
 4444SOL    HW224795   4.098   3.432  14.200  0.0863 -1.6906 -2.7328
 4445SOL     OW24796   2.570   4.122   5.848 -0.5702 -0.0017  0.0859
 4445SOL    HW124797   2.648   4.110   5.793 -1.1382 -1.3358 -0.4111
 4445SOL    HW224798   2.539   4.033   5.862  0.3474 -0.3613 -0.1896
 4446SOL     OW24799   1.448   4.546   2.023 -0.3875 -0.1148 -0.3419
 4446SOL    HW124800   1.383   4.593   1.972 -0.7963 -0.2139  0.0851
 4446SOL    HW224801   1.416   4.456   2.014 -3.0231  0.8262 -0.3247
 4447SOL     OW24802   3.721   0.420  13.096 -0.5297 -0.0374  0.2088
 4447SOL    HW124803   3.773   0.383  13.168  0.4125  1.6288  0.3771
 4447SOL    HW224804   3.787   0.452  13.035  0.2434  0.5055  1.3296
 4448SOL     OW24805   1.438   3.447   2.501  0.6450  0.6181  0.4629
 4448SOL    HW124806   1.451   3.511   2.431  0.3798  0.2289  0.0588
 4448SOL    HW224807   1.361   3.479   2.549  0.1893  1.3610 -0.7735
 4449SOL     OW24808   2.242   3.299   3.472  0.0434 -0.0236  0.0579
 4449SOL    HW124809   2.217   3.209   3.449 -3.1402  1.0546 -0.6834
 4449SOL    HW224810   2.281   3.291   3.559  1.0335  0.3641 -0.3484
 4450SOL     OW24811   2.612   1.682   5.510  0.3811  0.2507  0.2418
 4450SOL    HW124812   2.562   1.694   5.429 -0.2316 -1.3202  0.3937
 4450SOL    HW224813   2.576   1.756   5.558  0.6281  0.7916 -0.4037
 4451SOL     OW24814   1.903   0.692   3.045 -0.8913 -0.7470 -0.0959
 4451SOL    HW124815   1.885   0.757   2.978  0.6368  1.4653  1.6193
 4451SOL    HW224816   1.899   0.611   2.995 -1.2464 -0.7155 -0.1123
 4452SOL     OW24817   1.447   0.583   0.340 -0.4241 -0.0664  0.3266
 4452SOL    HW124818   1.540   0.561   0.351 -0.3117  0.6079  0.7313
 4452SOL    HW224819   1.402   0.523   0.400  0.4580  0.0896  1.1600
 4453SOL     OW24820   4.084   4.302   2.881 -0.1802 -0.2131 -0.2859
 4453SOL    HW124821   4.112   4.272   2.968 -0.6615 -0.9815 -0.3919
 4453SOL    HW224822   4.164   4.281   2.834 -0.2207  1.1838 -0.9563
 4454SOL     OW24823   3.010   4.472   8.779 -0.2663  0.6744  0.2003
 4454SOL    HW124824   3.048   4.557   8.801 -0.4020  0.4468  1.3209
 4454SOL    HW224825   2.923   4.492   8.745  0.0307  1.6271  0.0046
 4455SOL     OW24826   1.642   4.451   9.118  0.4213  0.1445  0.6204
 4455SOL    HW124827   1.685   4.390   9.057 -0.5213  0.5653 -0.4717
 4455SOL    HW224828   1.551   4.428   9.100  0.2001  2.3005 -1.0258
 4456SOL     OW24829   1.672   3.808  13.697  0.3869  0.4536  0.1689
 4456SOL    HW124830   1.727   3.873  13.740  0.4313  0.8721 -0.5251
 4456SOL    HW224831   1.711   3.732  13.740 -0.4055  0.8520  1.5829
 4457SOL     OW24832   1.554   3.433   4.661 -0.1855  0.4583 -0.3225
 4457SOL    HW124833   1.549   3.379   4.740 -0.4004  1.0807  0.0981
 4457SOL    HW224834   1.527   3.380   4.587 -0.1231 -0.0908  0.0514
 4458SOL     OW24835   0.101   0.227   5.833  0.5235  0.2611 -0.6082
 4458SOL    HW124836   0.020   0.268   5.863  0.7825 -0.0361  0.4967
 4458SOL    HW224837   0.157   0.242   5.910 -0.9791  0.5278  0.4434
 4459SOL     OW24838   2.923   0.624   7.713 -0.1488  0.1202 -0.1348
 4459SOL    HW124839   2.873   0.594   7.637 -1.6590 -0.0871  0.9350
 4459SOL    HW224840   3.009   0.640   7.675  0.4014 -0.6714  0.7557
 4460SOL     OW24841   2.618   4.485   7.285 -0.0147 -0.4248 -0.2204
 4460SOL    HW124842   2.670   4.520   7.213 -0.5632  0.2665 -0.2920
 4460SOL    HW224843   2.671   4.406   7.283  2.3780  1.2225 -1.2814
 4461SOL     OW24844   0.840   3.186   8.068 -0.3524 -0.3290  0.5850
 4461SOL    HW124845   0.780   3.116   8.093  1.2798 -1.0022  2.6252
 4461SOL    HW224846   0.861   3.218   8.156  1.3525 -0.7374  0.3181
 4462SOL     OW24847   1.865   3.285   4.090  0.0156  0.7343 -0.1756
 4462SOL    HW124848   1.901   3.331   4.166  1.9567 -2.2364  0.7359
 4462SOL    HW224849   1.902   3.199   4.111  0.2020  0.7945 -0.2559
 4463SOL     OW24850   2.045   1.300   6.840  0.0098  0.2943 -0.0182
 4463SOL    HW124851   1.966   1.345   6.869 -2.0896 -2.3560 -1.5874
 4463SOL    HW224852   2.096   1.269   6.915 -1.2783 -0.7361  0.4449
 4464SOL     OW24853   2.853   4.212   5.123 -0.0661 -0.0579  0.3924
 4464SOL    HW124854   2.794   4.169   5.185  0.1627  0.4315  0.9501
 4464SOL    HW224855   2.884   4.140   5.068 -0.4373  0.1006 -0.0190
 4465SOL     OW24856   1.678   0.456   4.355  1.0064 -0.1143 -0.6098
 4465SOL    HW124857   1.599   0.484   4.402  1.3371  0.8123 -0.5979
 4465SOL    HW224858   1.709   0.392   4.419  0.5055  0.4260  0.1694
 4466SOL     OW24859   3.782   3.375   6.554 -0.4977  0.1761  0.2772
 4466SOL    HW124860   3.757   3.294   6.598 -0.4784  0.5763  1.0408
 4466SOL    HW224861   3.862   3.355   6.507  0.4125  3.8496  0.2474
 4467SOL     OW24862   2.961   0.943  15.180 -0.2921 -0.3335 -0.9823
 4467SOL    HW124863   2.992   1.030  15.206  0.3498 -1.6563  2.6840
 4467SOL    HW224864   2.909   0.926  15.258  1.9925  0.9756  0.8531
 4468SOL     OW24865   1.052   1.843   5.634 -0.0231 -0.4516 -0.2046
 4468SOL    HW124866   1.027   1.850   5.726  1.3128 -1.1111  0.2071
 4468SOL    HW224867   1.147   1.853   5.639  0.0036 -0.2792 -1.1588
 4469SOL     OW24868   1.461   3.910   2.432 -0.5627  0.3451  0.0264
 4469SOL    HW124869   1.500   3.985   2.387  0.2924  0.4981  1.0273
 4469SOL    HW224870   1.525   3.882   2.498 -0.0357 -0.9251 -1.0219
 4470SOL     OW24871   3.300   2.757   1.116  0.0653  0.2256  0.1504
 4470SOL    HW124872   3.208   2.755   1.090  0.5467 -0.4339 -1.5302
 4470SOL    HW224873   3.354   2.769   1.038 -0.0369 -0.4446 -0.0200
 4471SOL     OW24874   4.721   0.852  12.112 -0.1202 -0.0423  0.0427
 4471SOL    HW124875   0.065   0.791  12.086 -0.7235  0.0077 -1.7009
 4471SOL    HW224876   0.010   0.927  12.053  1.3138 -0.8632 -0.6708
 4472SOL     OW24877   1.428   1.077  11.239 -0.2668 -0.4310 -0.3586
 4472SOL    HW124878   1.500   1.027  11.200  0.6309 -0.7532  1.6872
 4472SOL    HW224879   1.457   1.075  11.331 -0.5527 -0.5692 -0.2705
 4473SOL     OW24880   4.659   3.269   5.045 -0.0180 -0.0654 -0.0382
 4473SOL    HW124881   4.602   3.196   5.069  1.5363 -0.9614  0.9094
 4473SOL    HW224882   4.704   3.242   4.965  3.4171  0.3936  1.7370
 4474SOL     OW24883   1.617   1.596   5.051  0.1807  0.2334  0.3583
 4474SOL    HW124884   1.680   1.552   4.994 -1.0525 -0.8376 -0.1824
 4474SOL    HW224885   1.661   1.588   5.136  2.1702 -1.6606 -0.8676
 4475SOL     OW24886   2.220   0.879   4.214 -0.0246 -0.3186  0.1842
 4475SOL    HW124887   2.309   0.913   4.224 -1.1341  2.5160  0.6484
 4475SOL    HW224888   2.204   0.913   4.126  1.0296 -0.9772 -0.2641
 4476SOL     OW24889   3.326   0.807  12.383 -0.5918 -0.6610 -0.0290
 4476SOL    HW124890   3.290   0.853  12.458  1.2396  0.2799  0.2704
 4476SOL    HW224891   3.296   0.864  12.312  0.7332  2.8112  2.2054
 4477SOL     OW24892   4.663   4.344   6.208 -0.7968  0.6899 -0.1744
 4477SOL    HW124893   0.012   4.398   6.237 -0.9014  0.8142 -0.1387
 4477SOL    HW224894   4.694   4.339   6.117  1.7523  1.3883  0.6450
 4478SOL     OW24895   4.121   0.739  11.198  0.0920  0.3190  0.0077
 4478SOL    HW124896   4.119   0.757  11.292  0.5603  0.7983 -0.0782
 4478SOL    HW224897   4.166   0.817  11.165  2.0604 -1.5127 -1.6533
 4479SOL     OW24898   3.326   3.855   4.991 -0.0955  0.1042 -0.2830
 4479SOL    HW124899   3.300   3.797   4.920 -0.6747 -0.5432  0.4567
 4479SOL    HW224900   3.281   3.935   4.963 -0.3707  0.3172  0.7619
 4480SOL     OW24901   0.666   2.877   6.216  0.2423 -0.3054  0.4965
 4480SOL    HW124902   0.716   2.954   6.242  0.6408  1.5400 -5.6110
 4480SOL    HW224903   0.623   2.850   6.297 -1.9867 -1.1429 -0.9477
 4481SOL     OW24904   0.563   2.234   6.518 -0.3287  0.1015  0.0862
 4481SOL    HW124905   0.555   2.305   6.581  0.1689  0.1072  0.1391
 4481SOL    HW224906   0.475   2.237   6.480  0.3864  0.1426 -1.5420
 4482SOL     OW24907   1.779   1.297  13.509  0.3065  0.5065  0.4216
 4482SOL    HW124908   1.698   1.269  13.467  0.9172  1.9096 -1.6630
 4482SOL    HW224909   1.821   1.367  13.460  0.7849 -2.2796 -3.1923
 4483SOL     OW24910   4.041   3.215  15.103 -0.2914  0.1119 -0.0874
 4483SOL    HW124911   4.059   3.200  15.011 -0.5863 -2.2238  0.2417
 4483SOL    HW224912   3.986   3.138  15.122  1.0133 -0.5314  1.0687
 4484SOL     OW24913   3.109   4.188   6.853  0.4469  0.4870  0.1110
 4484SOL    HW124914   3.053   4.220   6.924 -1.0042  0.1563 -0.8962
 4484SOL    HW224915   3.160   4.131   6.911  0.2848 -0.0138 -0.2358
 4485SOL     OW24916   0.499   1.999   3.780  0.0546 -0.1176  0.1521
 4485SOL    HW124917   0.562   1.927   3.787 -1.8433 -1.6244  1.8968
 4485SOL    HW224918   0.539   2.068   3.832 -0.0907  0.2614 -0.2419
 4486SOL     OW24919   4.414   4.418   3.008  0.3401  0.4024 -0.5432
 4486SOL    HW124920   4.402   4.395   2.916 -3.6159  0.2973  0.0094
 4486SOL    HW224921   4.508   4.420   3.024  0.3223  0.4201 -0.4364
 4487SOL     OW24922   2.556   2.192   4.155 -0.6280 -0.0003  0.0853
 4487SOL    HW124923   2.463   2.197   4.174 -0.4660 -1.1923  1.1865
 4487SOL    HW224924   2.600   2.231   4.231 -0.4667  0.9357 -0.4878
 4488SOL     OW24925   1.991   2.821   2.841  0.5209 -0.7223 -0.0674
 4488SOL    HW124926   2.052   2.894   2.830  1.5815 -1.5115  0.6343
 4488SOL    HW224927   1.912   2.867   2.812  1.2557 -0.3768 -1.5178
 4489SOL     OW24928   1.358   1.448   3.652 -0.0149 -0.2972  0.6227
 4489SOL    HW124929   1.283   1.395   3.625  0.4940 -0.8737  0.3723
 4489SOL    HW224930   1.427   1.384   3.665  0.6312 -0.1865 -2.3181
 4490SOL     OW24931   0.157   0.818   8.361 -0.0321  0.2186  0.6568
 4490SOL    HW124932   0.236   0.817   8.308  0.1857 -1.9686  1.0532
 4490SOL    HW224933   0.113   0.900   8.336 -0.5504  0.2118  1.5143
 4491SOL     OW24934   1.491   0.561   9.150 -0.0706 -0.1297  0.4170
 4491SOL    HW124935   1.505   0.586   9.059 -0.9045 -2.1706 -0.2645
 4491SOL    HW224936   1.397   0.541   9.142  0.0671 -0.2485 -0.8425
 4492SOL     OW24937   4.680   2.663   1.476  0.2143 -0.2505  0.1279
 4492SOL    HW124938   0.010   2.640   1.401 -1.3715 -1.0691 -0.7648
 4492SOL    HW224939   0.018   2.707   1.533  0.8256  0.1349 -0.8516
 4493SOL     OW24940   0.043   3.033   0.936 -0.1820 -0.3926  0.5185
 4493SOL    HW124941   4.676   3.026   0.963  0.4354 -0.2655  2.6480
 4493SOL    HW224942   0.084   2.951   0.962 -1.6126 -1.1213  0.5181
 4494SOL     OW24943   0.465   0.455  11.432  0.5687 -0.5476  0.2407
 4494SOL    HW124944   0.481   0.364  11.455  1.8300 -0.6592 -1.0953
 4494SOL    HW224945   0.380   0.441  11.391  1.0659 -2.1897 -0.2308
 4495SOL     OW24946   1.259   0.903   2.260 -0.4905 -0.6471  0.2546
 4495SOL    HW124947   1.266   0.844   2.335  0.2808  1.7474  2.0314
 4495SOL    HW224948   1.167   0.898   2.232 -0.7342  0.4669  0.8540
 4496SOL     OW24949   3.421   3.038  12.390  0.4481 -0.3164  0.4364
 4496SOL    HW124950   3.449   3.068  12.477 -0.8423  3.0538 -0.3271
 4496SOL    HW224951   3.504   3.045  12.343  0.9278 -2.0926  1.0173
 4497SOL     OW24952   1.257   0.438  12.745  0.0102  0.1084 -0.4876
 4497SOL    HW124953   1.295   0.526  12.738 -1.3319  0.8088  1.2039
 4497SOL    HW224954   1.217   0.443  12.831 -2.1541  1.2009 -1.5680
 4498SOL     OW24955   2.948   0.186   7.530 -0.3757 -0.6763  0.4055
 4498SOL    HW124956   2.880   0.119   7.524 -1.8108  0.6732  1.7412
 4498SOL    HW224957   2.927   0.225   7.615 -1.7125 -0.8148  0.1407
 4499SOL     OW24958   3.839   3.388   2.324 -0.2155  0.4421 -0.4372
 4499SOL    HW124959   3.872   3.371   2.235  1.2090 -0.6088  0.2986
 4499SOL    HW224960   3.834   3.301   2.362 -0.1540 -0.5833 -2.7889
 4500SOL     OW24961   1.405   4.375   6.152 -0.4390 -0.5200 -0.5384
 4500SOL    HW124962   1.382   4.420   6.233  0.8559 -2.1037  0.7155
 4500SOL    HW224963   1.319   4.346   6.122 -0.4544 -2.1074  0.9992
 4501SOL     OW24964   4.063   0.355  15.801 -0.0696 -0.9728 -0.0576
 4501SOL    HW124965   4.034   0.446  15.790 -0.5308 -1.4000 -2.4517
 4501SOL    HW224966   4.082   0.346  15.894 -0.3597 -2.7227 -0.1629
 4502SOL     OW24967   3.775   2.402  15.377 -0.1916  0.2077  0.1697
 4502SOL    HW124968   3.736   2.446  15.453  1.6146  2.7803 -0.3938
 4502SOL    HW224969   3.739   2.447  15.300 -0.0461  0.0471  0.0100
 4503SOL     OW24970   3.007   3.751   1.540  0.3639 -0.5263 -0.1540
 4503SOL    HW124971   2.998   3.736   1.635 -0.7070  1.9097  0.1308
 4503SOL    HW224972   3.092   3.793   1.542  0.6628 -1.1743  0.9572
 4504SOL     OW24973   3.913   2.117   1.238  0.0199 -0.2757  0.5780
 4504SOL    HW124974   3.885   2.030   1.265 -0.1546 -0.0249  1.1896
 4504SOL    HW224975   3.877   2.108   1.149 -1.3983 -1.6777  1.2902
 4505SOL     OW24976   0.158   3.043  16.679 -0.1927  0.8808  0.7324
 4505SOL    HW124977   0.209   3.096  16.618  0.8592  1.1101  1.8124
 4505SOL    HW224978   0.107   3.120  16.706  0.0273  1.5279 -0.6708
 4506SOL     OW24979   2.930   3.177  15.021  0.5281  0.1320  0.1638
 4506SOL    HW124980   2.988   3.200  15.093  0.1073 -0.7900  0.7962
 4506SOL    HW224981   2.866   3.246  15.041 -0.5336 -0.3762 -1.4877
 4507SOL     OW24982   3.310   3.892   6.279  0.5832 -0.3117  0.2212
 4507SOL    HW124983   3.301   3.838   6.358 -0.2887  0.0754  0.3880
 4507SOL    HW224984   3.343   3.825   6.219 -0.7705 -0.1324 -0.7253
 4508SOL     OW24985   3.805   3.729   3.695  0.2320 -0.0378 -0.3925
 4508SOL    HW124986   3.784   3.639   3.669  3.0810 -0.4196 -1.3193
 4508SOL    HW224987   3.871   3.749   3.629  0.3294  0.8379 -0.0281
 4509SOL     OW24988   1.162   4.491   0.480 -0.0203  0.2634 -0.6855
 4509SOL    HW124989   1.149   4.584   0.501 -0.4491  0.1991 -0.6760
 4509SOL    HW224990   1.236   4.480   0.540  0.1189  3.3434 -0.3151
 4510SOL     OW24991   1.383   0.325   0.583  0.1981 -0.4112 -0.6604
 4510SOL    HW124992   1.458   0.272   0.559 -0.0899 -1.1524  0.0537
 4510SOL    HW224993   1.329   0.256   0.621 -1.3725  0.4834 -1.2697
 4511SOL     OW24994   3.805   2.095   6.306 -0.2859  0.3254 -0.5021
 4511SOL    HW124995   3.895   2.079   6.333  0.3290  3.7435 -0.5235
 4511SOL    HW224996   3.820   2.139   6.223  0.9490 -1.6857 -1.3586
 4512SOL     OW24997   3.353   3.656   4.768  0.2049  0.5372  0.2167
 4512SOL    HW124998   3.259   3.649   4.779 -0.1499  2.9058 -1.3514
 4512SOL    HW224999   3.360   3.592   4.697 -0.3926 -2.1148  2.5218
 4513SOL     OW25000   1.492   4.252  14.568 -0.1810  0.4284 -0.2593
 4513SOL    HW125001   1.464   4.329  14.518 -1.3228  0.9872  1.2382
 4513SOL    HW225002   1.557   4.288  14.628  0.7254 -1.2203 -0.2716
 4514SOL     OW25003   2.088   3.271   6.423 -0.4431  0.4749  0.2894
 4514SOL    HW125004   2.061   3.240   6.509 -1.4336  2.1970  0.5994
 4514SOL    HW225005   2.106   3.188   6.378 -0.6495  0.6764 -0.1560
 4515SOL     OW25006   1.891   0.006   3.098 -0.2414 -0.2720 -0.2009
 4515SOL    HW125007   1.944   0.029   3.174 -1.8993 -0.1803  0.9127
 4515SOL    HW225008   1.841   4.657   3.133  0.3743 -1.2137 -1.2961
 4516SOL     OW25009   2.857   0.786   1.681 -0.4545 -0.4900  0.3733
 4516SOL    HW125010   2.940   0.820   1.647 -0.9915 -0.6380 -1.0848
 4516SOL    HW225011   2.802   0.861   1.661  1.5611  0.5436 -1.3982
 4517SOL     OW25012   2.889   4.275   7.698 -0.4283  0.2163  0.0913
 4517SOL    HW125013   2.972   4.269   7.744 -0.1167 -0.1333 -0.5059
 4517SOL    HW225014   2.831   4.219   7.749 -3.3954  0.8335 -2.5303
 4518SOL     OW25015   1.498   0.166   7.581  0.2378 -0.1524 -0.1527
 4518SOL    HW125016   1.407   0.170   7.549  0.0790 -2.2725  0.0377
 4518SOL    HW225017   1.549   0.190   7.504  1.7378 -0.1783  0.8296
 4519SOL     OW25018   2.995   4.542   0.919  0.2751 -0.5438  0.1804
 4519SOL    HW125019   3.073   4.529   0.973  1.4398 -0.1106 -1.4054
 4519SOL    HW225020   3.017   4.489   0.842  0.6006 -1.6278  1.0137
 4520SOL     OW25021   2.899   3.079   5.192 -0.0216 -0.1009 -0.5681
 4520SOL    HW125022   2.861   3.057   5.277 -1.1825  0.5541 -0.9203
 4520SOL    HW225023   2.966   3.013   5.177 -2.0515 -2.2278 -0.3587
 4521SOL     OW25024   1.932   1.083   7.476 -0.5394  0.2607  0.5254
 4521SOL    HW125025   1.853   1.087   7.530 -1.4994  0.6904 -0.9098
 4521SOL    HW225026   1.896   1.104   7.390  1.3325 -0.4226 -0.4187
 4522SOL     OW25027   3.074   2.596   3.149 -0.0623  0.1471 -0.1994
 4522SOL    HW125028   3.139   2.552   3.203  1.9442  0.8572 -2.0180
 4522SOL    HW225029   3.023   2.649   3.209 -0.9667 -0.0898 -0.7557
 4523SOL     OW25030   3.160   2.372   8.736  0.0795 -0.3703 -0.3020
 4523SOL    HW125031   3.217   2.396   8.662  1.1454  0.1947  0.7008
 4523SOL    HW225032   3.132   2.285   8.707 -0.9742 -0.0664 -0.1718
 4524SOL     OW25033   2.625   3.615   1.743  0.3690 -0.2771 -0.0128
 4524SOL    HW125034   2.617   3.542   1.682  0.1625 -0.1736 -0.1102
 4524SOL    HW225035   2.662   3.574   1.821  0.4793 -0.5598 -0.2110
 4525SOL     OW25036   0.540   4.432   4.752 -0.2694 -0.5645 -0.3202
 4525SOL    HW125037   0.529   4.354   4.806 -1.2945  0.8540  1.4975
 4525SOL    HW225038   0.568   4.393   4.669  1.6601  1.4869 -0.6190
 4526SOL     OW25039   1.493   1.448   2.102  0.5209 -0.3567  0.5305
 4526SOL    HW125040   1.513   1.364   2.142  0.6849 -1.0638 -1.0363
 4526SOL    HW225041   1.405   1.460   2.137  0.3608  2.4297 -0.7877
 4527SOL     OW25042   0.273   3.583   2.473 -0.2293 -0.0947 -0.6219
 4527SOL    HW125043   0.308   3.669   2.449 -0.8215  0.0725 -0.8848
 4527SOL    HW225044   0.279   3.589   2.568  0.3454  1.4076 -0.7403
 4528SOL     OW25045   3.520   1.656  14.136 -0.4277 -0.4900  0.7730
 4528SOL    HW125046   3.608   1.660  14.174 -0.1272  3.4686 -0.4085
 4528SOL    HW225047   3.501   1.564  14.153  2.0887 -1.2777 -0.6062
 4529SOL     OW25048   4.680   1.768   1.546  0.1140 -0.2987  0.2643
 4529SOL    HW125049   4.648   1.841   1.492  0.1730 -1.8944 -1.9421
 4529SOL    HW225050   0.031   1.816   1.578  0.8042 -0.1199 -1.6227
 4530SOL     OW25051   3.706   1.426   8.110  0.4872 -0.7710 -0.5863
 4530SOL    HW125052   3.661   1.431   8.026 -0.9028 -0.6737  0.1593
 4530SOL    HW225053   3.631   1.391   8.158 -1.3430  1.5671 -1.7250
 4531SOL     OW25054   1.648   2.946   4.058 -0.5243 -0.4019 -0.4668
 4531SOL    HW125055   1.592   3.002   4.112 -0.4691  1.6942 -2.5624
 4531SOL    HW225056   1.584   2.894   4.009  0.8239  0.0995 -2.7484
 4532SOL     OW25057   0.664   1.291   4.515  0.3950 -0.3371 -0.4307
 4532SOL    HW125058   0.726   1.228   4.479  0.0219 -0.7221 -0.3863
 4532SOL    HW225059   0.580   1.250   4.495  0.7811 -1.4256  0.2084
 4533SOL     OW25060   3.674   3.341  10.728  0.2615 -0.0072 -0.2766
 4533SOL    HW125061   3.698   3.272  10.666  1.8118 -0.1229  0.4484
 4533SOL    HW225062   3.684   3.289  10.808 -0.0469  0.5999  0.1549
 4534SOL     OW25063   0.630   0.283   3.831  0.0734 -0.3389  0.1686
 4534SOL    HW125064   0.610   0.192   3.811 -0.2820 -0.5444  1.4668
 4534SOL    HW225065   0.722   0.286   3.807 -0.8996  1.2014 -3.2598
 4535SOL     OW25066   0.910   4.501  10.428 -0.0566  0.3059 -0.0447
 4535SOL    HW125067   0.981   4.526  10.368 -0.4508  1.9584  0.1863
 4535SOL    HW225068   0.924   4.571  10.491 -2.0253  1.1618 -0.5781
 4536SOL     OW25069   2.887   4.005  12.346 -0.6378 -0.2426  0.3472
 4536SOL    HW125070   2.935   3.927  12.318  1.8901  1.1654  0.7177
 4536SOL    HW225071   2.919   4.069  12.283  0.2638  0.3354  1.3800
 4537SOL     OW25072   4.018   2.491   5.341  0.8107 -0.4680 -0.3838
 4537SOL    HW125073   4.034   2.492   5.247 -0.2462 -3.0732 -0.5745
 4537SOL    HW225074   3.926   2.518   5.349  0.3191 -1.7746 -1.6435
 4538SOL     OW25075   2.455   0.760  16.684  0.1344  0.5294  0.7216
 4538SOL    HW125076   2.371   0.806  16.694 -0.9226 -1.5095  1.2654
 4538SOL    HW225077   2.438   0.681  16.632  1.5376 -0.2127  1.4273
 4539SOL     OW25078   3.190   3.726  10.894  0.1253 -0.2657  0.2655
 4539SOL    HW125079   3.275   3.748  10.932  0.2164 -0.3455  0.1032
 4539SOL    HW225080   3.203   3.632  10.898  0.1326 -0.3511 -2.0847
 4540SOL     OW25081   3.229   2.173   3.428  0.1510 -0.6826  0.0088
 4540SOL    HW125082   3.293   2.176   3.357 -0.0950  1.3069 -0.1260
 4540SOL    HW225083   3.161   2.118   3.389  2.0701 -2.5072 -0.7993
 4541SOL     OW25084   4.245   3.992   6.408 -0.1545  0.4944  0.2298
 4541SOL    HW125085   4.320   3.960   6.357 -0.2145 -1.0628  1.1249
 4541SOL    HW225086   4.281   4.075   6.440  1.2494  0.1979 -0.5775
 4542SOL     OW25087   3.028   1.618   7.518  0.6469 -0.2635  0.0451
 4542SOL    HW125088   3.102   1.595   7.462 -0.0717  0.8248 -1.3654
 4542SOL    HW225089   3.030   1.712   7.533  0.2871 -0.0274 -1.3369
 4543SOL     OW25090   1.297   0.392   0.159 -0.2279 -0.1211 -0.2742
 4543SOL    HW125091   1.392   0.398   0.150 -0.3928  2.1432 -0.5249
 4543SOL    HW225092   1.282   0.308   0.201 -0.5558 -0.0150 -0.1783
 4544SOL     OW25093   0.389   4.299   2.077  0.2244 -0.0851  0.0977
 4544SOL    HW125094   0.368   4.238   2.006 -0.7716 -0.7482  0.9602
 4544SOL    HW225095   0.401   4.235   2.147  0.3214 -3.1714 -2.7158
 4545SOL     OW25096   0.502   4.196   9.476 -0.1193 -0.6949 -0.1660
 4545SOL    HW125097   0.471   4.169   9.390 -0.3236  0.1836 -0.3695
 4545SOL    HW225098   0.448   4.144   9.535  1.3075 -2.2636 -0.2555
 4546SOL     OW25099   2.989   4.405   3.597  0.1381  0.1152 -0.2236
 4546SOL    HW125100   3.082   4.419   3.615 -0.0305  0.1411  0.5979
 4546SOL    HW225101   2.984   4.416   3.502 -0.3183  0.7517 -0.1290
 4547SOL     OW25102   1.202   3.840  11.783 -0.1547 -0.4369 -0.1776
 4547SOL    HW125103   1.158   3.899  11.845  1.6133  1.6646 -0.9380
 4547SOL    HW225104   1.233   3.774  11.845  1.7317 -1.2046 -1.9458
 4548SOL     OW25105   2.455   4.110   4.177  0.4685  0.1102  0.1060
 4548SOL    HW125106   2.511   4.108   4.099 -0.2755  0.1667 -0.4360
 4548SOL    HW225107   2.461   4.017   4.198 -1.2503  0.0142  0.1541
 4549SOL     OW25108   2.064   1.788   8.590  0.2066 -0.4481 -0.3733
 4549SOL    HW125109   2.089   1.879   8.577 -0.2540 -0.1230  1.0002
 4549SOL    HW225110   1.987   1.782   8.533  0.4628  0.5017 -0.8090
 4550SOL     OW25111   0.138   4.507  10.947 -0.5419  0.1571 -0.2417
 4550SOL    HW125112   0.165   4.520  10.856 -0.5910  2.8596  0.1495
 4550SOL    HW225113   0.048   4.476  10.938 -0.2918 -0.7183  0.2450
 4551SOL     OW25114   4.517   3.467   1.946  0.4175 -0.1529  0.1170
 4551SOL    HW125115   4.513   3.381   1.989  1.9775  0.2678  1.0848
 4551SOL    HW225116   4.463   3.442   1.871  2.0659 -2.1897 -0.4085
 4552SOL     OW25117   2.079   0.334   2.830  0.0740 -0.2048 -0.1731
 4552SOL    HW125118   2.107   0.382   2.908 -0.3413  0.1737 -0.2567
 4552SOL    HW225119   2.062   0.402   2.765  1.4227  0.7172  0.4344
 4553SOL     OW25120   3.878   3.588  16.117  0.1878  0.2378 -0.2755
 4553SOL    HW125121   3.855   3.681  16.121 -0.0569  0.2120 -1.1733
 4553SOL    HW225122   3.974   3.588  16.116  0.2160  0.5553  2.9292
 4554SOL     OW25123   2.583   3.206   7.655  0.1398 -0.1691  0.2107
 4554SOL    HW125124   2.520   3.223   7.586 -0.5976  1.8913  1.3612
 4554SOL    HW225125   2.576   3.282   7.714 -0.3715 -0.1885  0.1707
 4555SOL     OW25126   2.078   3.560   3.687 -0.0605  0.3285  0.3837
 4555SOL    HW125127   2.004   3.601   3.642  0.7169  2.9665  1.5423
 4555SOL    HW225128   2.051   3.468   3.685 -1.2448  0.6648  0.8354
 4556SOL     OW25129   3.366   2.509   3.796 -0.4542  0.1626 -0.2243
 4556SOL    HW125130   3.300   2.440   3.799 -1.1256  0.9400  3.1149
 4556SOL    HW225131   3.387   2.496   3.889  1.9541  1.7641 -0.5422
 4557SOL     OW25132   1.430   0.526   2.775  0.5744  0.5133 -0.3692
 4557SOL    HW125133   1.424   0.564   2.687 -1.4382  0.0251 -0.4431
 4557SOL    HW225134   1.471   0.602   2.816 -0.8224  0.8484  0.4292
 4558SOL     OW25135   2.569   1.858   7.726  0.3226 -0.3414 -0.0853
 4558SOL    HW125136   2.590   1.881   7.816 -3.8345  1.4537  0.4436
 4558SOL    HW225137   2.508   1.787   7.747 -0.0507  0.3620  1.1933
 4559SOL     OW25138   3.305   3.284   2.739 -0.1667  0.6298 -0.6611
 4559SOL    HW125139   3.334   3.249   2.655  2.1878  2.1655 -0.4967
 4559SOL    HW225140   3.275   3.207   2.788  0.8547  2.0411  2.1704
 4560SOL     OW25141   0.975   2.172  17.561 -0.0720 -0.0598  1.2004
 4560SOL    HW125142   1.063   2.159  17.596 -0.1031 -3.6751 -0.1036
 4560SOL    HW225143   0.984   2.139  17.472  1.7444 -0.8720  1.6805
 4561SOL     OW25144   4.160   1.626  15.699 -0.5175 -0.0047  0.1574
 4561SOL    HW125145   4.112   1.691  15.751 -0.8657 -0.2091  0.0952
 4561SOL    HW225146   4.092   1.560  15.682 -1.8484  1.0255  1.3902
 4562SOL     OW25147   2.870   4.362   5.790 -0.2444  0.2279  0.3344
 4562SOL    HW125148   2.780   4.387   5.807 -0.5965 -1.5445  1.0669
 4562SOL    HW225149   2.915   4.401   5.865 -0.0845 -0.6728  0.7095
 4563SOL     OW25150   1.384   1.981   4.303  0.5548 -0.3363 -0.3455
 4563SOL    HW125151   1.396   1.912   4.368  1.4275  1.4764  1.4359
 4563SOL    HW225152   1.326   1.941   4.238  0.1850 -0.5214  0.0991
 4564SOL     OW25153   1.539   1.088   6.424  0.2187  0.2893 -0.3071
 4564SOL    HW125154   1.589   1.008   6.439 -1.8178 -0.8039  0.6832
 4564SOL    HW225155   1.597   1.125   6.357 -0.3775  0.7101 -0.5973
 4565SOL     OW25156   0.387   4.564  13.771  0.2137  0.7442  0.0063
 4565SOL    HW125157   0.351   4.478  13.791  0.2992  0.4808 -1.0157
 4565SOL    HW225158   0.414   4.556  13.680  0.1258  0.1499  0.0380
 4566SOL     OW25159   1.841   4.555   2.563 -0.1542  0.3017  0.1535
 4566SOL    HW125160   1.747   4.540   2.552 -0.3096  0.1302  1.7760
 4566SOL    HW225161   1.879   4.478   2.520  1.7557  1.9058 -1.0253
 4567SOL     OW25162   3.442   4.274   8.464 -0.1478  0.5807 -0.9089
 4567SOL    HW125163   3.476   4.363   8.476  1.9945 -0.1221 -1.7921
 4567SOL    HW225164   3.370   4.274   8.528  2.0952  1.1501  1.6370
 4568SOL     OW25165   3.417   4.599   6.835 -0.0205 -0.0232  0.2482
 4568SOL    HW125166   3.463   4.534   6.888  0.7292  0.4876  0.2145
 4568SOL    HW225167   3.333   4.592   6.881  0.0896  2.4660  0.8010
 4569SOL     OW25168   4.483   1.024   3.590 -0.0952  0.1849 -0.0248
 4569SOL    HW125169   4.391   1.045   3.608 -0.2646 -0.9172  0.4260
 4569SOL    HW225170   4.521   0.998   3.674 -1.0390  0.1145  0.3823
 4570SOL     OW25171   2.202   2.982   5.959  0.0247 -0.1805  0.4573
 4570SOL    HW125172   2.142   3.006   5.889  1.5370  0.1846 -0.7337
 4570SOL    HW225173   2.290   2.984   5.921  1.1172 -1.4251  2.9513
 4571SOL     OW25174   3.269   2.221  11.797  0.3178 -0.0827  0.4511
 4571SOL    HW125175   3.326   2.243  11.871  1.6153 -1.7224 -0.0594
 4571SOL    HW225176   3.188   2.268  11.815  0.5530  0.8488 -0.9783
 4572SOL     OW25177   2.004   2.045  15.507 -0.3321  0.1297 -0.0493
 4572SOL    HW125178   1.930   2.068  15.563  0.6440 -0.9529  1.7074
 4572SOL    HW225179   1.994   1.951  15.521  0.8547 -0.1104 -0.8192
 4573SOL     OW25180   3.959   2.340   4.229  0.2296  0.8303 -0.6121
 4573SOL    HW125181   4.019   2.408   4.259  1.7511 -0.6119 -0.3843
 4573SOL    HW225182   3.968   2.280   4.304  0.9962  0.1666 -1.2363
 4574SOL     OW25183   4.221   4.043  13.234 -0.5049  0.4643 -0.1235
 4574SOL    HW125184   4.257   4.064  13.148  0.6936 -0.7650  0.0600
 4574SOL    HW225185   4.165   3.969  13.210 -1.4434  1.5247 -1.2226
 4575SOL     OW25186   0.399   4.548   1.925 -0.6008 -0.1729  0.3292
 4575SOL    HW125187   0.416   4.461   1.961  0.5473  0.1964  0.6979
 4575SOL    HW225188   0.312   4.571   1.956 -0.9066  0.3744 -0.9281
 4576SOL     OW25189   2.919   2.614   8.012 -0.2493 -0.0039 -0.1050
 4576SOL    HW125190   2.853   2.672   8.051  0.5404  0.5017  0.4878
 4576SOL    HW225191   2.860   2.558   7.962 -0.9739 -0.0730  0.8137
 4577SOL     OW25192   4.189   3.469   4.446 -0.4758  0.1333  0.5913
 4577SOL    HW125193   4.184   3.483   4.352  0.0681 -0.1271  0.5212
 4577SOL    HW225194   4.285   3.469   4.454 -0.2008  0.5345 -2.6630
 4578SOL     OW25195   3.956   3.168  14.114 -0.0328 -0.4366  0.1189
 4578SOL    HW125196   3.909   3.130  14.039 -4.0901  2.2276  1.3325
 4578SOL    HW225197   3.938   3.099  14.178  1.5900  1.8275  3.0304
 4579SOL     OW25198   3.093   3.066   2.539 -0.2823 -0.1456 -0.1086
 4579SOL    HW125199   3.058   3.048   2.451 -0.9207  0.0074  0.1156
 4579SOL    HW225200   3.179   3.028   2.519 -0.2504 -0.8403  1.3613
 4580SOL     OW25201   3.523   1.738   0.212 -0.1511  0.2590 -0.3678
 4580SOL    HW125202   3.512   1.667   0.275 -0.8252 -0.3288 -1.1469
 4580SOL    HW225203   3.599   1.786   0.246 -1.3939  1.6065  0.5081
 4581SOL     OW25204   3.149   1.427   6.424  0.3456 -0.2634 -0.3261
 4581SOL    HW125205   3.221   1.490   6.419 -0.0633  0.3667  1.7114
 4581SOL    HW225206   3.067   1.474   6.411  0.1321  0.2113  2.8526
 4582SOL     OW25207   1.072   2.045   9.823 -0.0745  0.4029  0.2374
 4582SOL    HW125208   1.060   1.957   9.786  0.8492  0.8383 -1.1127
 4582SOL    HW225209   1.098   2.019   9.911  0.7794  0.6713  0.0686
 4583SOL     OW25210   3.241   2.028   4.986 -0.4170 -0.0744  0.2216
 4583SOL    HW125211   3.309   2.034   4.919 -1.8407  1.3862 -1.0771
 4583SOL    HW225212   3.289   2.003   5.065 -1.2856  0.2486  0.8517
 4584SOL     OW25213   4.199   2.140   7.099 -0.2391  0.0553 -0.0270
 4584SOL    HW125214   4.268   2.206   7.100  0.4658 -0.6887  0.3269
 4584SOL    HW225215   4.120   2.181   7.065  0.5674  0.8258 -0.9526
 4585SOL     OW25216   3.848   0.777  16.287 -0.0668 -0.4413  0.6635
 4585SOL    HW125217   3.898   0.760  16.206  2.9542  0.9709  2.2147
 4585SOL    HW225218   3.888   0.858  16.319 -0.0646  0.1170 -0.7328
 4586SOL     OW25219   4.239   0.400  17.194  0.4844  0.4012 -0.0596
 4586SOL    HW125220   4.321   0.412  17.241 -1.0077 -0.2848  2.7602
 4586SOL    HW225221   4.216   0.318  17.239  0.0642  0.2422 -0.5613
 4587SOL     OW25222   4.671   2.305  11.699  0.0877 -0.0140 -0.2954
 4587SOL    HW125223   4.654   2.215  11.672  1.0419 -0.2487 -0.1279
 4587SOL    HW225224   4.599   2.350  11.656  1.0198  1.4385 -0.3513
 4588SOL     OW25225   2.575   2.647   7.717 -0.2234 -0.2599 -0.4462
 4588SOL    HW125226   2.550   2.718   7.658 -1.7255  1.2380  2.0371
 4588SOL    HW225227   2.570   2.694   7.800  0.6458 -1.7068  0.4330
 4589SOL     OW25228   2.508   1.981   5.257 -0.2408  0.4727 -0.0302
 4589SOL    HW125229   2.598   1.964   5.229 -0.8993 -2.5847 -0.2639
 4589SOL    HW225230   2.506   2.070   5.293 -0.1141  0.0874  0.9151
 4590SOL     OW25231   1.180   4.593  11.058  0.0738 -0.3682  0.8945
 4590SOL    HW125232   1.248   4.659  11.073  0.2926 -0.7152  1.4395
 4590SOL    HW225233   1.170   4.553  11.145 -2.9751 -0.2399  0.5972
 4591SOL     OW25234   0.249   1.391  14.602  0.2207  0.1154 -0.5417
 4591SOL    HW125235   0.343   1.385  14.581  0.0902  0.1448 -1.1344
 4591SOL    HW225236   0.236   1.318  14.662  2.1432  0.1356 -0.1010
 4592SOL     OW25237   4.318   0.017  16.595 -0.2773  0.5471 -0.0495
 4592SOL    HW125238   4.237   4.709  16.556  0.8762  2.7484 -4.3056
 4592SOL    HW225239   4.324   4.677  16.664 -1.4090  0.1443 -0.3362
 4593SOL     OW25240   1.899   4.003   5.731 -0.0913 -0.2870 -0.3445
 4593SOL    HW125241   1.855   3.946   5.794 -0.4892 -0.5538 -0.8685
 4593SOL    HW225242   1.922   3.935   5.667 -2.2766 -0.5566 -0.8451
 4594SOL     OW25243   4.094   1.558  12.123  0.0946  0.1432 -0.2135
 4594SOL    HW125244   4.123   1.641  12.084  0.6395  0.2262  0.3684
 4594SOL    HW225245   4.172   1.541  12.176  0.3603 -0.6766 -0.8724
 4595SOL     OW25246   3.471   2.711  15.735  0.1597 -0.3644  0.3463
 4595SOL    HW125247   3.412   2.750  15.800 -2.1395  0.0722 -2.0042
 4595SOL    HW225248   3.534   2.668  15.792 -0.0528  0.9407  1.5663
 4596SOL     OW25249   2.155   3.185   7.900  0.4070 -0.0676 -0.0978
 4596SOL    HW125250   2.201   3.269   7.910  0.9782 -0.2693 -1.0981
 4596SOL    HW225251   2.173   3.141   7.983  1.3886 -0.9067 -0.7618
 4597SOL     OW25252   0.193   1.581   0.313 -0.0780  0.2250  0.2938
 4597SOL    HW125253   0.280   1.588   0.274  0.6489 -1.0368  1.6938
 4597SOL    HW225254   0.159   1.665   0.283  0.3269  0.1898 -0.2546
 4598SOL     OW25255   1.184   3.957   2.414 -0.2573 -0.0972 -0.6411
 4598SOL    HW125256   1.164   3.864   2.401 -0.1843  0.2709 -3.3406
 4598SOL    HW225257   1.280   3.961   2.413 -0.1046 -3.2914 -0.6129
 4599SOL     OW25258   0.813   2.102   4.565 -0.2679 -0.1088  0.3276
 4599SOL    HW125259   0.849   2.019   4.598  0.7099  0.4054  0.5328
 4599SOL    HW225260   0.743   2.129   4.624 -0.5036  0.7062 -0.3173
 4600SOL     OW25261   4.670   1.222   7.163  0.0341 -0.3779  0.0867
 4600SOL    HW125262   4.696   1.136   7.195 -1.9235 -0.9322  0.1734
 4600SOL    HW225263   4.713   1.216   7.078  0.8144 -0.0861  0.4580
 4601SOL     OW25264   1.902   3.410  16.991 -0.0692  0.3637 -0.3069
 4601SOL    HW125265   1.818   3.454  16.973 -0.9641 -1.9064 -1.6085
 4601SOL    HW225266   1.901   3.405  17.087  1.3937 -2.5448 -0.4644
 4602SOL     OW25267   3.024   2.971   7.275 -0.2294 -0.2307  0.1930
 4602SOL    HW125268   3.009   2.887   7.231  0.9090 -0.0037 -0.6232
 4602SOL    HW225269   3.089   2.996   7.209 -0.2106 -1.2477 -0.1766
 4603SOL     OW25270   0.155   2.669   7.903 -0.2852  0.1261 -0.3573
 4603SOL    HW125271   0.084   2.684   7.841  0.1609 -0.2605 -0.9632
 4603SOL    HW225272   0.232   2.691   7.849  0.5973  0.9027  1.2092
 4604SOL     OW25273   0.083   2.510   8.586  0.1772 -0.5472 -0.0630
 4604SOL    HW125274   0.093   2.418   8.611 -2.9656 -0.7811  0.3121
 4604SOL    HW225275   0.040   2.488   8.504 -1.9528  0.8831  0.6959
 4605SOL     OW25276   3.780   3.812   5.641  0.2241  0.1490  0.0423
 4605SOL    HW125277   3.824   3.771   5.567 -0.6639  1.9217 -1.4524
 4605SOL    HW225278   3.831   3.892   5.653  1.5637 -0.8417  0.9111
 4606SOL     OW25279   3.755   4.101   7.097  0.4262  0.3220  0.9347
 4606SOL    HW125280   3.770   4.017   7.141  2.5961 -0.2782 -0.9899
 4606SOL    HW225281   3.674   4.137   7.134 -0.6797 -1.0462 -0.1987
 4607SOL     OW25282   4.603   1.434   2.935 -0.8305 -0.0077 -0.4971
 4607SOL    HW125283   4.555   1.440   2.852 -1.2812  3.6369  0.0426
 4607SOL    HW225284   4.572   1.351   2.971 -0.0902 -0.3709 -0.7025
 4608SOL     OW25285   0.287   3.615   2.750  0.3738  0.6146  0.1575
 4608SOL    HW125286   0.233   3.682   2.792 -0.1773  0.3124 -0.0627
 4608SOL    HW225287   0.265   3.542   2.808 -0.3364 -0.2815 -1.2301
 4609SOL     OW25288   1.189   1.684   8.499  0.0882 -0.0028 -0.6143
 4609SOL    HW125289   1.255   1.726   8.554  2.3389  0.0036 -3.3212
 4609SOL    HW225290   1.108   1.718   8.537 -0.5433 -2.9906  0.6592
 4610SOL     OW25291   4.663   3.432   7.449 -0.1153  0.0630 -0.1735
 4610SOL    HW125292   4.648   3.364   7.515 -0.7129  0.2105 -0.1561
 4610SOL    HW225293   4.590   3.424   7.388  1.3857  0.3829 -1.9925
 4611SOL     OW25294   2.869   3.349  13.825  0.7093  0.0906 -0.1541
 4611SOL    HW125295   2.952   3.359  13.873  0.7928  0.1818 -0.3192
 4611SOL    HW225296   2.882   3.427  13.770  1.3801  0.0806 -0.0094
 4612SOL     OW25297   0.877   2.340  12.621 -0.2263  0.2622 -0.2885
 4612SOL    HW125298   0.907   2.249  12.620 -2.1542 -0.3459 -1.8407
 4612SOL    HW225299   0.849   2.342  12.530  0.8566  0.2253 -0.6231
 4613SOL     OW25300   0.400   1.680   5.377 -0.4004 -0.4118 -0.4942
 4613SOL    HW125301   0.458   1.610   5.410 -0.0337  0.8042  1.4561
 4613SOL    HW225302   0.447   1.707   5.298  1.1631  0.1378  0.6197
 4614SOL     OW25303   0.583   3.503   6.130  0.3247  0.1137  0.1357
 4614SOL    HW125304   0.563   3.555   6.207  1.9377  1.2181 -0.2006
 4614SOL    HW225305   0.574   3.563   6.056  2.4954 -1.9733 -1.8246
 4615SOL     OW25306   4.635   3.846   9.721  0.2525  0.2781 -0.2368
 4615SOL    HW125307   4.595   3.766   9.686 -0.7798 -0.1102  1.8069
 4615SOL    HW225308   4.585   3.850   9.803  1.8192 -0.8752  0.7536
 4616SOL     OW25309   2.703   2.193  11.723  0.0518 -0.3923  0.3003
 4616SOL    HW125310   2.638   2.222  11.659  1.1214 -1.6866 -1.3510
 4616SOL    HW225311   2.657   2.220  11.803 -2.1649 -0.3020 -1.0098
 4617SOL     OW25312   4.284   1.916   2.284  0.5471  0.1791 -0.4141
 4617SOL    HW125313   4.197   1.953   2.267  0.0962 -1.3328 -1.4100
 4617SOL    HW225314   4.261   1.824   2.295 -0.8402  0.4416 -0.9940
 4618SOL     OW25315   3.781   2.323   9.386 -0.0271  0.2554  0.1806
 4618SOL    HW125316   3.724   2.266   9.438  0.4887 -0.5816 -0.1591
 4618SOL    HW225317   3.831   2.370   9.452  0.4431  1.3097 -0.9182
 4619SOL     OW25318   0.502   0.587   4.617  0.2323 -0.4935  0.1952
 4619SOL    HW125319   0.491   0.659   4.554  0.8387 -2.1050 -1.7574
 4619SOL    HW225320   0.421   0.597   4.666 -0.0108  0.3232 -0.3629
 4620SOL     OW25321   1.959   2.434   6.996 -0.4526 -0.6379 -0.0374
 4620SOL    HW125322   1.961   2.503   7.062 -3.0739 -0.5261 -0.0963
 4620SOL    HW225323   1.946   2.352   7.043 -1.4108 -1.1623 -1.2003
 4621SOL     OW25324   1.161   0.640   4.589  0.5625 -0.0885 -0.7286
 4621SOL    HW125325   1.198   0.717   4.633  0.1456  0.0808 -0.6704
 4621SOL    HW225326   1.188   0.646   4.498  1.6200  0.1909 -0.3986
 4622SOL     OW25327   1.463   2.182   6.847  0.1335  1.0336 -0.0646
 4622SOL    HW125328   1.483   2.256   6.905 -0.1392 -0.4450  1.9040
 4622SOL    HW225329   1.414   2.228   6.778 -1.5934  1.2201  1.2614
 4623SOL     OW25330   2.639   1.103   0.813 -0.1460 -0.2112 -0.2821
 4623SOL    HW125331   2.729   1.073   0.801  0.7670  2.4790  0.0104
 4623SOL    HW225332   2.638   1.193   0.781  0.6455 -0.0618  0.1142
 4624SOL     OW25333   2.324   0.176  14.511 -0.3248 -0.4559  0.8794
 4624SOL    HW125334   2.336   0.261  14.467  1.4784  0.0021  2.2350
 4624SOL    HW225335   2.354   0.123  14.438 -1.6449  0.2483 -0.1727
 4625SOL     OW25336   3.244   4.632   4.337 -0.1388  0.4690  0.5275
 4625SOL    HW125337   3.255   4.679   4.254  0.3356  1.5659  1.2053
 4625SOL    HW225338   3.150   4.640   4.354 -0.3859  0.6631 -0.9138
 4626SOL     OW25339   4.234   4.701   9.375 -0.2634  0.1408 -0.4271
 4626SOL    HW125340   4.272   0.048   9.425 -1.9996 -0.3197  1.5932
 4626SOL    HW225341   4.142   0.001   9.376 -0.0855  0.7861 -0.4888
 4627SOL     OW25342   0.216   0.915   8.609 -0.4470  0.9232  0.5872
 4627SOL    HW125343   0.290   0.856   8.618 -0.8316  0.3393 -0.0795
 4627SOL    HW225344   0.194   0.893   8.518  0.6026  0.0155  0.5585
 4628SOL     OW25345   1.954   2.624   8.951 -0.2426  0.1129 -0.2835
 4628SOL    HW125346   1.979   2.542   8.907 -0.1528  0.3211 -0.6140
 4628SOL    HW225347   2.037   2.662   8.980  0.0581 -0.8846  0.1787
 4629SOL     OW25348   2.232   0.921  17.305  0.0950  0.2511  0.1581
 4629SOL    HW125349   2.168   0.939  17.373  1.8161  2.1014  1.2790
 4629SOL    HW225350   2.271   1.006  17.286 -0.8540 -0.4520 -4.9245
 4630SOL     OW25351   4.374   2.026   3.948 -0.2729 -0.2182 -0.1350
 4630SOL    HW125352   4.441   2.053   4.011 -1.1707  2.6984 -0.4470
 4630SOL    HW225353   4.299   2.073   3.984  0.1811 -0.3546  1.0010
 4631SOL     OW25354   4.471   0.435   4.013  0.2536 -0.1607 -0.1890
 4631SOL    HW125355   4.426   0.443   4.097  1.0201 -1.9710  0.3971
 4631SOL    HW225356   4.565   0.432   4.032 -0.1470  0.4914  1.9136
 4632SOL     OW25357   0.122   2.132  12.903  0.1249 -0.2436  0.3411
 4632SOL    HW125358   0.170   2.214  12.905 -1.5695  0.7399  0.4285
 4632SOL    HW225359   0.156   2.098  12.986 -0.5396 -1.1971  0.2368
 4633SOL     OW25360   3.008   2.056   9.999  0.0536 -0.2270  0.1744
 4633SOL    HW125361   2.978   2.139   9.963 -0.3858 -0.8179 -0.8330
 4633SOL    HW225362   2.931   2.004   9.974  0.6155 -0.3743 -1.2471
 4634SOL     OW25363   2.628   4.723   2.784 -0.1828  0.2812 -0.1350
 4634SOL    HW125364   2.610   0.034   2.871  0.8219  1.6101 -0.4747
 4634SOL    HW225365   2.692   4.652   2.792 -0.0494  0.5554  1.2665
 4635SOL     OW25366   1.299   2.086   5.421 -0.1839 -0.5166 -0.4005
 4635SOL    HW125367   1.304   2.176   5.387 -1.4648 -0.1972  0.2652
 4635SOL    HW225368   1.356   2.055   5.351 -0.9907 -0.8982 -0.8867
 4636SOL     OW25369   0.203   0.088  14.010 -0.3669 -0.1782  0.2269
 4636SOL    HW125370   0.229   0.049  14.093 -0.0806 -1.5326 -0.4992
 4636SOL    HW225371   0.282   0.135  13.985 -1.2423  1.1871  0.0109
 4637SOL     OW25372   4.657   2.670   7.657  0.1995  0.5220  0.0538
 4637SOL    HW125373   4.592   2.680   7.588  0.6983  0.6499 -0.3921
 4637SOL    HW225374   4.719   2.636   7.592 -1.7426  2.5778 -2.8453
 4638SOL     OW25375   1.773   3.658   3.760 -0.4527  0.4491  0.5380
 4638SOL    HW125376   1.743   3.740   3.800 -0.9571  0.1037  0.8677
 4638SOL    HW225377   1.825   3.630   3.835 -1.0848  0.8030  1.1129
 4639SOL     OW25378   4.213   4.258   3.106 -0.3924  0.1541 -0.6478
 4639SOL    HW125379   4.295   4.300   3.079 -0.1338 -1.4677 -2.3268
 4639SOL    HW225380   4.219   4.272   3.200 -1.5204 -2.1348 -0.2451
 4640SOL     OW25381   0.012   3.410   6.196  0.2739 -0.2861 -0.3268
 4640SOL    HW125382   4.646   3.427   6.171  0.0153  0.3472  1.0526
 4640SOL    HW225383   0.002   3.338   6.258  1.7695  1.9883  2.4889
 4641SOL     OW25384   0.518   4.437   8.106  0.1603 -0.3294 -0.5364
 4641SOL    HW125385   0.488   4.355   8.066  2.5702 -0.8576 -1.2382
 4641SOL    HW225386   0.596   4.415   8.157  1.3668  3.4034 -0.7720
 4642SOL     OW25387   4.615   4.614   5.060 -0.6427  0.2457 -0.5042
 4642SOL    HW125388   4.539   4.667   5.085 -0.8956 -0.4568  0.1983
 4642SOL    HW225389   4.592   4.611   4.967  0.8318  0.4540 -0.8763
 4643SOL     OW25390   0.059   3.911   8.455  0.6098 -0.2628 -0.1588
 4643SOL    HW125391   4.710   3.867   8.496  0.3315  0.9677  0.6290
 4643SOL    HW225392   0.052   3.996   8.498 -0.8490  0.5022 -1.9255
 4644SOL     OW25393   4.121   0.523  14.063  0.2556 -0.3919  0.1417
 4644SOL    HW125394   4.091   0.435  14.044 -1.7952 -0.1515  2.2160
 4644SOL    HW225395   4.061   0.567  14.003 -0.6174 -1.2307  0.4115
 4645SOL     OW25396   4.272   0.849  16.933  0.0774 -0.0267 -0.1596
 4645SOL    HW125397   4.351   0.869  16.982 -0.0693 -1.4088  0.6435
 4645SOL    HW225398   4.251   0.758  16.950 -0.5865 -0.0920 -1.2927
 4646SOL     OW25399   2.130   1.630  16.639  0.2917 -0.2955 -0.0059
 4646SOL    HW125400   2.068   1.610  16.709  1.6501  1.4962  1.6971
 4646SOL    HW225401   2.210   1.630  16.690  1.3900 -0.1120 -1.7332
 4647SOL     OW25402   1.224   4.638   6.405 -0.4232  0.3335 -1.0677
 4647SOL    HW125403   1.305   4.586   6.410 -0.4507  0.4714  0.7271
 4647SOL    HW225404   1.189   4.632   6.494  0.8440 -0.6714 -0.6333
 4648SOL     OW25405   1.670   3.677   4.616  0.3477  0.1602 -0.0127
 4648SOL    HW125406   1.653   3.583   4.625 -0.6927  0.5724  2.2867
 4648SOL    HW225407   1.579   3.707   4.621 -0.4354 -2.1458 -0.3279
 4649SOL     OW25408   0.395   0.327   3.102 -0.0198 -0.1728  0.0143
 4649SOL    HW125409   0.314   0.365   3.136 -0.5263  1.2790 -2.8485
 4649SOL    HW225410   0.437   0.389   3.043  2.0365 -2.2520 -0.7131
 4650SOL     OW25411   0.031   3.530   4.338  0.0783 -0.0125  0.0891
 4650SOL    HW125412   0.036   3.451   4.391 -2.6245 -1.6040 -2.0505
 4650SOL    HW225413   0.092   3.507   4.269 -1.3263 -2.2585 -0.4152
 4651SOL     OW25414   0.276   3.631  16.922 -0.1008  0.2502  0.5338
 4651SOL    HW125415   0.192   3.623  16.877  0.4588 -2.2229 -0.0636
 4651SOL    HW225416   0.251   3.682  16.999  1.4396  0.9702  0.5759
 4652SOL     OW25417   4.123   1.677   6.232 -0.6408  0.0558 -0.0938
 4652SOL    HW125418   4.092   1.762   6.201 -0.4533  0.4200  0.7059
 4652SOL    HW225419   4.068   1.607   6.197  1.4860 -0.4250 -2.4804
 4653SOL     OW25420   3.277   4.382   3.671  0.0186  0.6970 -0.3015
 4653SOL    HW125421   3.334   4.309   3.693  0.1955  0.6515 -0.9209
 4653SOL    HW225422   3.288   4.363   3.578  0.7318  1.4229 -0.3705
 4654SOL     OW25423   1.276   0.259   8.855  0.0853  0.0241  0.5402
 4654SOL    HW125424   1.207   0.197   8.882 -0.3894  0.5725  0.5748
 4654SOL    HW225425   1.311   0.215   8.778 -0.3880  1.8397 -0.6850
 4655SOL     OW25426   2.753   1.368  15.557  0.6412 -0.0303  0.3966
 4655SOL    HW125427   2.755   1.412  15.642 -0.6160  1.8494 -0.5414
 4655SOL    HW225428   2.659   1.356  15.542  0.6284  3.1778 -2.2413
 4656SOL     OW25429   2.259   4.047  11.171  0.1011  0.4836 -0.5022
 4656SOL    HW125430   2.164   4.055  11.171  0.0481 -0.1513 -0.9274
 4656SOL    HW225431   2.268   3.987  11.246 -0.8017  0.5445 -0.3440
 4657SOL     OW25432   1.785   4.254   4.052 -0.3797  0.4145  0.0415
 4657SOL    HW125433   1.851   4.213   3.996 -0.3876 -0.3018  0.5617
 4657SOL    HW225434   1.756   4.180   4.104 -0.3758  1.2555  1.2211
 4658SOL     OW25435   0.115   2.808   8.136  0.3627 -0.0240 -0.3548
 4658SOL    HW125436   0.139   2.745   8.204 -0.6325  0.6680  0.6587
 4658SOL    HW225437   0.103   2.761   8.054  1.4131 -1.0233  0.0563
 4659SOL     OW25438   0.028   1.408   1.655  0.4316 -0.6564  0.2182
 4659SOL    HW125439   0.026   1.359   1.738 -0.2728 -0.1587  0.4929
 4659SOL    HW225440   0.116   1.379   1.631  1.1315  0.6808  1.1884
 4660SOL     OW25441   3.192   3.884   7.914 -0.3583  0.4791 -0.3773
 4660SOL    HW125442   3.155   3.927   7.838 -0.0216  0.2222 -0.6834
 4660SOL    HW225443   3.233   3.809   7.871  2.6603  2.0777 -0.2735
 4661SOL     OW25444   4.125   2.639   1.884 -0.1734  0.6646 -0.1800
 4661SOL    HW125445   4.121   2.714   1.825 -2.7498 -0.7049 -1.7610
 4661SOL    HW225446   4.096   2.682   1.964 -0.6145 -0.2556  0.1590
 4662SOL     OW25447   2.809   1.381   2.429 -0.0816  0.1996  0.2479
 4662SOL    HW125448   2.822   1.427   2.512  0.6195  0.1324  0.1749
 4662SOL    HW225449   2.757   1.306   2.455  1.2657 -1.0460 -0.6309
 4663SOL     OW25450   3.859   3.678   7.087  0.0423 -0.3271 -0.0579
 4663SOL    HW125451   3.883   3.705   6.998  2.8071 -2.1513  0.1217
 4663SOL    HW225452   3.862   3.761   7.135  1.7558  1.9682 -4.0173
 4664SOL     OW25453   2.880   0.982  12.215  0.1387  0.3401  0.6911
 4664SOL    HW125454   2.805   0.923  12.217 -1.2372  2.0578  0.1761
 4664SOL    HW225455   2.890   1.002  12.308 -0.5559 -0.6227  0.9769
 4665SOL     OW25456   0.808   1.729   5.594 -0.0924  0.2181  0.0315
 4665SOL    HW125457   0.899   1.757   5.601  0.4171 -1.1935 -1.1566
 4665SOL    HW225458   0.801   1.669   5.669  2.4398 -0.0172  0.0740
 4666SOL     OW25459   3.908   4.113   5.216  0.0872 -0.2476 -0.3266
 4666SOL    HW125460   3.860   4.081   5.292  0.1881  0.8841  0.2036
 4666SOL    HW225461   3.994   4.121   5.257  0.2653 -0.4951 -0.6466
 4667SOL     OW25462   3.778   3.030   3.339 -0.3793  0.2599 -0.4291
 4667SOL    HW125463   3.837   3.093   3.297  3.2561 -2.1236  1.1273
 4667SOL    HW225464   3.786   2.957   3.279  1.7169  0.3107 -0.2031
 4668SOL     OW25465   3.975   4.269  14.208 -0.1059 -0.4262 -0.3274
 4668SOL    HW125466   4.043   4.330  14.179 -1.0664 -0.2025 -2.1208
 4668SOL    HW225467   3.930   4.319  14.276 -1.3834 -3.1301  0.7988
 4669SOL     OW25468   2.090   4.625   6.605  0.0999  0.8688 -0.8653
 4669SOL    HW125469   2.061   4.714   6.585  0.0571  1.6285  2.6221
 4669SOL    HW225470   2.059   4.618   6.695  0.7529  0.7956 -0.6469
 4670SOL     OW25471   2.506   0.943   0.987  0.4635 -0.0810  0.8655
 4670SOL    HW125472   2.551   1.002   0.927 -0.4954 -0.7738 -0.5175
 4670SOL    HW225473   2.480   0.992   1.065  1.1170  0.5331  0.6909
 4671SOL     OW25474   2.800   2.336   9.676  0.0516  0.3263 -0.2978
 4671SOL    HW125475   2.710   2.302   9.678  0.6614 -1.2325  0.2903
 4671SOL    HW225476   2.816   2.329   9.582 -1.3360 -0.7227 -0.4530
 4672SOL     OW25477   0.150   1.090  11.124  0.2275  0.1114 -0.2668
 4672SOL    HW125478   0.179   1.007  11.161 -0.5088  1.7868  3.9830
 4672SOL    HW225479   0.083   1.119  11.186 -1.6361 -2.7414 -0.9572
 4673SOL     OW25480   2.165   3.899  15.567 -0.3388  0.5216 -0.0066
 4673SOL    HW125481   2.135   3.809  15.551 -1.6565  0.9503  0.0113
 4673SOL    HW225482   2.259   3.894  15.548 -0.6471 -1.7784 -1.0397
 4674SOL     OW25483   3.314   3.365   5.575  0.7501  0.1533 -0.0945
 4674SOL    HW125484   3.395   3.412   5.591 -0.0324  0.3811  3.2300
 4674SOL    HW225485   3.284   3.424   5.506 -2.4050 -0.7885  0.4328
 4675SOL     OW25486   0.052   3.514  16.123 -0.5559  0.1654  0.1124
 4675SOL    HW125487   0.120   3.447  16.129 -0.3166  0.5230  1.4326
 4675SOL    HW225488   4.703   3.456  16.105  2.4184 -4.0536  1.6089
 4676SOL     OW25489   3.572   0.197  13.047  0.3350  0.8264  0.0710
 4676SOL    HW125490   3.542   0.234  12.964 -0.7937  0.4578  0.3227
 4676SOL    HW225491   3.634   0.267  13.069  2.2142 -0.8283  0.0893
 4677SOL     OW25492   2.924   1.209   5.474  0.3002  0.0461  0.1580
 4677SOL    HW125493   2.969   1.286   5.508  0.2575 -0.0270  0.3855
 4677SOL    HW225494   2.842   1.219   5.522 -0.2513 -2.7924 -0.1899
 4678SOL     OW25495   1.366   2.587   6.885 -0.2742 -0.1155 -0.6358
 4678SOL    HW125496   1.371   2.674   6.846  0.9184  0.4989  0.8791
 4678SOL    HW225497   1.345   2.533   6.809 -0.4737  0.8041 -1.2229
 4679SOL     OW25498   2.609   0.727   9.613 -0.1106  0.4512  0.0083
 4679SOL    HW125499   2.701   0.746   9.636  0.1049  0.3812 -0.8011
 4679SOL    HW225500   2.610   0.680   9.530  1.0340  1.6414 -0.6491
 4680SOL     OW25501   0.364   0.409  14.149 -0.5323  0.0835 -0.2863
 4680SOL    HW125502   0.408   0.438  14.069 -1.0911  2.1746  0.1716
 4680SOL    HW225503   0.387   0.484  14.204  1.3542  0.0898 -1.0775
 4681SOL     OW25504   1.595   1.142  14.603  0.1816  0.1434 -0.2885
 4681SOL    HW125505   1.534   1.114  14.535 -0.9594 -2.0978  1.6651
 4681SOL    HW225506   1.597   1.237  14.595  0.6850  0.3579  2.1678
 4682SOL     OW25507   2.097   3.745   3.449 -0.1174  0.0172 -0.0405
 4682SOL    HW125508   2.068   3.658   3.422  1.0082 -0.3307 -0.1185
 4682SOL    HW225509   2.159   3.766   3.379 -0.3958 -1.7907 -0.8071
 4683SOL     OW25510   1.760   4.643   8.571  0.4465  0.2108  0.2191
 4683SOL    HW125511   1.762   0.006   8.532  2.6616  0.3589  0.6653
 4683SOL    HW225512   1.719   4.591   8.502 -1.6135  0.5817  1.1582
 4684SOL     OW25513   0.439   4.704   7.154 -0.2883  0.1285 -1.2689
 4684SOL    HW125514   0.499   4.630   7.144  0.8043  0.9644 -0.9200
 4684SOL    HW225515   0.377   4.670   7.218 -0.0077 -0.0061 -1.0661
 4685SOL     OW25516   0.619   1.206   3.317  0.0181 -0.5047  0.1878
 4685SOL    HW125517   0.617   1.119   3.277 -1.8832 -0.1142 -0.5748
 4685SOL    HW225518   0.702   1.198   3.364  0.7265 -0.0655 -0.9864
 4686SOL     OW25519   1.486   4.337  10.061  0.1850 -0.4451  0.3460
 4686SOL    HW125520   1.418   4.298  10.005  0.4695  0.6904 -0.7990
 4686SOL    HW225521   1.534   4.380   9.990  1.0258  0.2288  1.3248
 4687SOL     OW25522   1.265   3.148   5.027 -0.1478 -0.2706  0.0642
 4687SOL    HW125523   1.245   3.153   4.934 -0.6912  0.2497  0.2108
 4687SOL    HW225524   1.248   3.056   5.045  1.2030 -0.4702  0.3626
 4688SOL     OW25525   1.030   4.660  12.601  0.1912  0.2754 -0.6073
 4688SOL    HW125526   1.076   4.599  12.660 -1.5711 -0.9254 -0.4854
 4688SOL    HW225527   1.035   0.019  12.647  0.8550  0.7885 -1.6145
 4689SOL     OW25528   3.034   0.619   2.821  0.0791 -0.1463  0.8041
 4689SOL    HW125529   2.952   0.587   2.782 -0.3966  0.6114  1.1911
 4689SOL    HW225530   3.048   0.567   2.900 -1.0997 -0.1141  1.0325
 4690SOL     OW25531   0.105   2.300   3.344 -0.5292 -0.0143  0.0093
 4690SOL    HW125532   0.057   2.219   3.326  2.5015 -0.9887 -3.8103
 4690SOL    HW225533   0.192   2.266   3.365  0.4655  3.0638  0.8891
 4691SOL     OW25534   4.083   0.813  10.797 -0.7516  0.2998 -0.7561
 4691SOL    HW125535   4.106   0.753  10.727  2.5006  1.6975 -0.8705
 4691SOL    HW225536   4.025   0.876  10.754 -1.9039 -1.7749 -2.2561
 4692SOL     OW25537   3.505   0.613   8.131 -0.0804 -0.0498 -0.2967
 4692SOL    HW125538   3.433   0.642   8.075  0.5584  1.3150 -0.3804
 4692SOL    HW225539   3.527   0.686   8.189 -0.4690 -1.7986  2.0827
 4693SOL     OW25540   2.474   3.438   4.121 -0.3178  0.0735 -0.0943
 4693SOL    HW125541   2.480   3.347   4.150  2.0161 -0.0421 -0.8834
 4693SOL    HW225542   2.393   3.450   4.170  0.5639 -0.7161  1.5567
 4694SOL     OW25543   1.877   1.913   4.466 -0.6130 -0.1376  0.1795
 4694SOL    HW125544   1.882   1.863   4.548  0.2784  0.4451  0.4798
 4694SOL    HW225545   1.783   1.927   4.463 -0.6857 -0.3959  1.1954
 4695SOL     OW25546   4.675   1.671   2.031 -0.2240 -0.5998  0.4742
 4695SOL    HW125547   4.639   1.754   2.062  3.2092  0.6676  1.0122
 4695SOL    HW225548   4.609   1.646   1.966  0.2839  1.8425 -0.9631
 4696SOL     OW25549   0.475   0.000  15.523  0.2040 -0.5621  0.3666
 4696SOL    HW125550   0.449   0.082  15.566  4.0364  0.8069  0.1032
 4696SOL    HW225551   0.561   0.017  15.484  0.3962  0.7546  1.3571
 4697SOL     OW25552   0.160   0.276   3.922  0.0885  0.2847 -0.2165
 4697SOL    HW125553   0.204   0.227   3.991 -0.3559  1.2756  0.7679
 4697SOL    HW225554   0.231   0.264   3.858  0.3015  0.3748  0.0033
 4698SOL     OW25555   1.342   2.444  16.605 -0.2223  0.2299  0.0494
 4698SOL    HW125556   1.303   2.519  16.649  0.9967 -0.5848  2.4701
 4698SOL    HW225557   1.396   2.410  16.676 -0.3355  0.5760  0.3007
 4699SOL     OW25558   4.578   1.900   5.722 -0.6456 -0.2912 -0.4074
 4699SOL    HW125559   4.600   1.848   5.645 -1.1469 -1.4460  0.2377
 4699SOL    HW225560   4.668   1.921   5.748 -0.7421 -1.0678  0.5667
 4700SOL     OW25561   1.534   4.486   1.363  0.5127 -0.0037 -0.2156
 4700SOL    HW125562   1.502   4.572   1.390 -1.4346  0.0929 -2.7359
 4700SOL    HW225563   1.626   4.502   1.342  0.5542 -0.2112 -0.1932
 4701SOL     OW25564   1.983   4.064   4.845 -0.3052 -0.3099 -0.2085
 4701SOL    HW125565   2.044   4.089   4.915  1.4708 -1.1614 -1.4647
 4701SOL    HW225566   1.929   4.143   4.841  0.1209 -0.0717 -1.1734
 4702SOL     OW25567   2.769   0.666   5.539 -0.4802 -0.4287 -0.1669
 4702SOL    HW125568   2.677   0.643   5.552 -0.7986  0.9072 -0.1126
 4702SOL    HW225569   2.769   0.749   5.586  2.9245 -0.5142  0.0302
 4703SOL     OW25570   4.327   3.302  14.877 -0.2102  0.2469 -0.3218
 4703SOL    HW125571   4.251   3.359  14.866 -1.1295 -1.0943 -0.8516
 4703SOL    HW225572   4.310   3.242  14.805 -2.2604  0.1811  0.2278
 4704SOL     OW25573   3.659   2.354   8.599  0.0270 -0.2086  0.5537
 4704SOL    HW125574   3.616   2.329   8.517 -0.8235 -0.8600  1.2072
 4704SOL    HW225575   3.602   2.317   8.666 -0.4814 -0.7090 -0.1599
 4705SOL     OW25576   4.119   2.246  13.790 -0.4995  0.2822 -0.1182
 4705SOL    HW125577   4.071   2.328  13.782  1.5811  1.4152 -0.7184
 4705SOL    HW225578   4.142   2.252  13.883  0.9973  0.8200 -0.5363
 4706SOL     OW25579   2.431   1.927  15.671 -0.7411  0.1309  0.0783
 4706SOL    HW125580   2.375   1.887  15.737 -1.7346  0.5649 -0.4975
 4706SOL    HW225581   2.497   1.981  15.714  0.0842 -0.6782 -0.1729
 4707SOL     OW25582   2.253   1.752   8.791 -0.9788  0.0358 -0.2930
 4707SOL    HW125583   2.203   1.762   8.710 -0.2046 -0.1434 -0.7933
 4707SOL    HW225584   2.327   1.706   8.751 -2.4884 -2.9128  0.2634
 4708SOL     OW25585   1.063   2.786   3.392 -0.0867  0.1563  0.1649
 4708SOL    HW125586   1.012   2.850   3.343  0.1213 -0.7519 -1.2234
 4708SOL    HW225587   1.100   2.736   3.319 -0.7515 -0.0603 -0.0243
 4709SOL     OW25588   0.841   2.208  14.958 -0.0508  0.2931 -0.0568
 4709SOL    HW125589   0.764   2.230  15.011  0.7742 -0.3803  1.4469
 4709SOL    HW225590   0.901   2.272  14.997  1.0175  0.4723 -2.0370
 4710SOL     OW25591   2.957   3.733   4.471  1.0312  0.4550 -0.1445
 4710SOL    HW125592   2.936   3.773   4.386 -1.1232 -1.6013 -0.5861
 4710SOL    HW225593   3.010   3.656   4.453  2.0960  0.3483  3.5110
 4711SOL     OW25594   1.681   3.828   6.130 -0.0057  0.7517  0.1347
 4711SOL    HW125595   1.618   3.872   6.188  0.2384 -2.1526  2.6305
 4711SOL    HW225596   1.745   3.799   6.196  1.0687  1.2890 -0.6663
 4712SOL     OW25597   3.139   2.302   5.067  0.0358  0.2934  0.0970
 4712SOL    HW125598   3.196   2.311   5.144 -0.2386 -3.8236  0.7608
 4712SOL    HW225599   3.159   2.212   5.042  0.1957  0.5183 -0.5831
 4713SOL     OW25600   4.580   1.454  11.462  0.2844 -0.2845 -0.0118
 4713SOL    HW125601   4.604   1.440  11.553 -0.1020 -0.2976  0.0883
 4713SOL    HW225602   4.612   1.543  11.445 -0.1319  0.0589  0.9753
 4714SOL     OW25603   0.339   2.380  14.597 -0.4709 -0.0088 -0.0221
 4714SOL    HW125604   0.294   2.347  14.519  2.0356  1.7720 -2.2077
 4714SOL    HW225605   0.427   2.391  14.562 -0.4207  1.0901  0.4217
 4715SOL     OW25606   0.644   2.678   5.611 -0.1898 -0.3255  0.2974
 4715SOL    HW125607   0.736   2.668   5.585  0.1667  0.2579  1.3138
 4715SOL    HW225608   0.643   2.658   5.705  0.2602 -0.6863  0.2241
 4716SOL     OW25609   4.343   0.992   5.329  0.0970 -0.2246  0.4354
 4716SOL    HW125610   4.342   1.086   5.347 -0.0492  0.1579 -1.5777
 4716SOL    HW225611   4.252   0.967   5.345 -0.1063 -0.4286 -0.9550
 4717SOL     OW25612   3.296   3.956   5.807 -0.0412 -0.1792  0.4404
 4717SOL    HW125613   3.377   3.936   5.759  0.6686  0.7404  1.2399
 4717SOL    HW225614   3.293   4.051   5.792 -1.5789 -0.8256 -3.2455
 4718SOL     OW25615   3.584   1.447   9.763 -0.5516 -0.1209  0.2333
 4718SOL    HW125616   3.524   1.391   9.713 -0.4536  1.6653 -1.8916
 4718SOL    HW225617   3.567   1.409   9.850  0.3493  0.4171  0.6382
 4719SOL     OW25618   2.476   1.625   2.184 -0.8287  0.2541 -0.2599
 4719SOL    HW125619   2.496   1.566   2.256  1.0386 -0.7583 -1.5979
 4719SOL    HW225620   2.505   1.710   2.217 -2.2810  0.9168 -0.6891
 4720SOL     OW25621   3.443   2.296  17.043  0.1119 -0.2007  0.1320
 4720SOL    HW125622   3.491   2.216  17.063  0.6446  0.3441  1.0395
 4720SOL    HW225623   3.508   2.349  16.995  0.2719 -0.6654 -0.1564
 4721SOL     OW25624   4.378   3.611   3.541 -0.2484 -0.4729  0.1156
 4721SOL    HW125625   4.334   3.630   3.459  0.6826  0.6803 -0.1102
 4721SOL    HW225626   4.424   3.538   3.501  2.3780  1.9592 -1.2946
 4722SOL     OW25627   2.532   2.049   3.134 -0.4279 -0.2094  0.1427
 4722SOL    HW125628   2.474   1.973   3.124 -2.6096  1.5434 -0.4692
 4722SOL    HW225629   2.612   2.003   3.107 -0.0402 -1.0244  2.7321
 4723SOL     OW25630   0.083   0.478  10.075  0.5566 -0.1825 -0.1023
 4723SOL    HW125631   0.035   0.502   9.995 -1.0418  0.0311  0.9076
 4723SOL    HW225632   0.048   0.390  10.092  1.0166 -0.1079  1.2776
 4724SOL     OW25633   3.296   3.497   5.151  0.2110  0.0911  0.1318
 4724SOL    HW125634   3.212   3.454   5.132  0.4711 -0.2021 -0.3421
 4724SOL    HW225635   3.270   3.547   5.228  1.5268 -0.5955  1.0196
 4725SOL     OW25636   4.343   1.881   9.849  0.3572 -0.0128 -0.1232
 4725SOL    HW125637   4.395   1.942   9.796  0.9783 -0.0460  0.4488
 4725SOL    HW225638   4.253   1.913   9.849 -0.2061 -1.5565 -1.9612
 4726SOL     OW25639   3.004   3.868   2.910 -0.1151 -0.4836  0.4248
 4726SOL    HW125640   2.936   3.826   2.857  1.5753 -3.6016  0.7444
 4726SOL    HW225641   2.983   3.958   2.884 -0.3407 -0.9785 -1.0736
 4727SOL     OW25642   1.947   4.057  10.503 -0.1968  0.1590 -0.9942
 4727SOL    HW125643   1.969   3.973  10.464 -1.7305 -0.4673 -0.4949
 4727SOL    HW225644   2.032   4.100  10.511  0.0844 -0.3422 -1.3477
 4728SOL     OW25645   3.033   1.992   3.303  0.2684 -0.5554  0.4148
 4728SOL    HW125646   2.975   2.067   3.293 -2.2782 -2.1020  3.8959
 4728SOL    HW225647   3.038   1.961   3.212  0.2486  0.1660  0.1604
 4729SOL     OW25648   3.342   1.604   4.715 -0.0951  0.4448  0.0903
 4729SOL    HW125649   3.332   1.572   4.625 -2.2220  0.1937  0.4149
 4729SOL    HW225650   3.392   1.686   4.706 -1.0416  1.0924  0.7156
 4730SOL     OW25651   2.540   1.103   2.530  0.0055  0.4386 -0.3891
 4730SOL    HW125652   2.578   1.156   2.599 -0.6040 -0.1874  0.4402
 4730SOL    HW225653   2.510   1.165   2.464  1.2297  0.7337 -0.6679
 4731SOL     OW25654   2.037   1.922   1.932 -0.1396 -0.5810  0.1798
 4731SOL    HW125655   2.071   1.956   2.014  0.8917  0.0838 -0.5284
 4731SOL    HW225656   2.107   1.864   1.902  0.8370  1.0602 -0.6997
 4732SOL     OW25657   0.147   2.355   3.679 -0.1772 -0.5827 -0.4269
 4732SOL    HW125658   0.087   2.368   3.752  0.4956  0.6855 -0.0843
 4732SOL    HW225659   0.097   2.348   3.598 -1.6034 -1.6383  0.5484
 4733SOL     OW25660   1.189   1.757   6.242 -0.0621  0.6273 -0.1242
 4733SOL    HW125661   1.236   1.840   6.241 -0.6073  0.9548  1.2153
 4733SOL    HW225662   1.261   1.701   6.271 -0.3974  0.4411  0.3642
 4734SOL     OW25663   1.572   0.614   3.015 -0.2831  0.3687 -0.2225
 4734SOL    HW125664   1.574   0.706   3.040 -0.9789  0.2719  0.1814
 4734SOL    HW225665   1.479   0.596   3.028  0.4559 -3.5847 -0.3299
 4735SOL     OW25666   3.064   2.492   0.364 -0.3497 -0.3325 -0.2961
 4735SOL    HW125667   3.101   2.572   0.326  0.0858  0.5669  2.0284
 4735SOL    HW225668   3.010   2.462   0.290 -0.1774 -1.5131  0.0609
 4736SOL     OW25669   0.662   0.302   6.492 -0.0757  0.5068  0.4485
 4736SOL    HW125670   0.593   0.352   6.538 -1.9148 -1.8650  0.2602
 4736SOL    HW225671   0.617   0.298   6.408 -0.6449 -2.0873  0.8941
 4737SOL     OW25672   3.761   1.396   1.020 -0.5686  0.2984 -0.1495
 4737SOL    HW125673   3.710   1.343   1.081  1.3503 -2.8675 -1.2959
 4737SOL    HW225674   3.783   1.473   1.071 -0.1165  0.6853 -0.9230
 4738SOL     OW25675   2.132   3.304   9.315 -0.9856  0.0663  0.3272
 4738SOL    HW125676   2.091   3.234   9.266  0.7437 -1.5474  1.1676
 4738SOL    HW225677   2.064   3.317   9.381 -1.8508  1.1464 -0.7900
 4739SOL     OW25678   1.322   4.550  12.092 -0.7352 -0.0689 -0.6780
 4739SOL    HW125679   1.338   4.604  12.014  0.3873  3.2973  1.8453
 4739SOL    HW225680   1.343   4.604  12.168  1.4450 -1.8620 -0.0206
 4740SOL     OW25681   0.398   3.343   1.000  0.0212 -0.4544 -0.1969
 4740SOL    HW125682   0.473   3.401   0.995 -0.8887  0.7594  0.1462
 4740SOL    HW225683   0.344   3.385   1.067 -0.5282 -0.4743 -0.6303
 4741SOL     OW25684   1.113   0.527   3.483  0.0893  0.1599  0.0543
 4741SOL    HW125685   1.175   0.514   3.554 -1.0512 -1.5311  0.7488
 4741SOL    HW225686   1.139   0.455   3.425  0.9096  1.4819 -1.2030
 4742SOL     OW25687   2.109   0.742  15.481  0.0465 -0.0154 -0.2139
 4742SOL    HW125688   2.097   0.815  15.542 -1.1402 -0.9823  0.7189
 4742SOL    HW225689   2.019   0.709  15.477  1.0830 -2.9360  0.5484
 4743SOL     OW25690   0.642   3.767   3.599  0.3029 -0.1322  0.1870
 4743SOL    HW125691   0.595   3.709   3.539  0.9966 -0.9679  0.4553
 4743SOL    HW225692   0.604   3.855   3.596 -0.0172 -0.2487  0.7676
 4744SOL     OW25693   1.638   2.367  11.111  0.1095 -0.2270 -0.2754
 4744SOL    HW125694   1.567   2.329  11.163 -0.4812  1.1285 -0.0916
 4744SOL    HW225695   1.690   2.288  11.098  1.2823  0.0643  2.5712
 4745SOL     OW25696   3.290   0.145  13.153  0.7197  0.1673  0.3002
 4745SOL    HW125697   3.331   0.232  13.153 -3.0530  1.8965 -2.3583
 4745SOL    HW225698   3.258   0.141  13.063 -0.3703  1.5175  0.6354
 4746SOL     OW25699   0.008   3.235   4.088  0.0949 -0.5556  1.0616
 4746SOL    HW125700   0.019   3.240   4.183 -0.4679  1.8039  1.0008
 4746SOL    HW225701   0.098   3.242   4.059 -0.2825 -1.4935 -0.3132
 4747SOL     OW25702   3.426   3.806   5.227 -0.3912 -0.1458  0.3297
 4747SOL    HW125703   3.352   3.802   5.287 -0.7950  2.0453 -0.0261
 4747SOL    HW225704   3.387   3.822   5.141  0.5083 -0.5057 -0.1432
 4748SOL     OW25705   2.460   2.496   8.020 -0.4644  0.3810  0.3191
 4748SOL    HW125706   2.425   2.436   7.954  1.3828  1.2261 -1.4012
 4748SOL    HW225707   2.381   2.551   8.027 -1.1344 -0.4072 -0.9244
 4749SOL     OW25708   1.143   3.569   4.010 -0.1772 -0.4316 -0.1909
 4749SOL    HW125709   1.049   3.582   4.006 -0.1212  0.0278 -0.0185
 4749SOL    HW225710   1.178   3.657   3.992 -1.1039 -0.1508 -0.6102
 4750SOL     OW25711   4.410   3.149   3.698 -0.3408 -0.1212 -0.9338
 4750SOL    HW125712   4.443   3.170   3.786  0.1610  1.3005 -1.4600
 4750SOL    HW225713   4.485   3.123   3.644 -0.6529  0.6470 -1.7233
 4751SOL     OW25714   4.265   3.084   7.464  0.6161  0.3450  0.1221
 4751SOL    HW125715   4.271   3.171   7.504 -1.0450  0.1261  0.8271
 4751SOL    HW225716   4.221   3.035   7.534 -0.3756  1.8209  0.5397
 4752SOL     OW25717   0.890   1.796   5.880  0.2053  0.1200  0.1219
 4752SOL    HW125718   0.840   1.819   5.958 -0.6222 -1.2399 -0.0163
 4752SOL    HW225719   0.867   1.703   5.880 -2.9966  0.9172  0.7497
 4753SOL     OW25720   1.740   4.091   0.523  0.0465  0.0471 -0.1247
 4753SOL    HW125721   1.782   4.118   0.442  0.0374 -0.5895 -0.3345
 4753SOL    HW225722   1.796   4.018   0.550  0.2603  1.1389  2.4621
 4754SOL     OW25723   3.941   3.749   5.427  0.1767  0.1878  0.5395
 4754SOL    HW125724   3.868   3.785   5.377  2.1959  2.3847 -0.8314
 4754SOL    HW225725   3.983   3.723   5.345 -1.0101 -2.5935  0.8284
 4755SOL     OW25726   3.997   0.024   0.422 -0.8701 -0.0935 -0.3817
 4755SOL    HW125727   3.969   0.103   0.376  1.1517  0.0124 -1.4459
 4755SOL    HW225728   3.986   0.056   0.512 -0.5069 -0.5287 -0.1841
 4756SOL     OW25729   3.632   1.611  11.417 -0.2202  0.3942 -0.3115
 4756SOL    HW125730   3.671   1.665  11.349  1.1533  1.0222  0.9555
 4756SOL    HW225731   3.542   1.615  11.385  0.6897 -1.3171 -3.0028
 4757SOL     OW25732   0.134   2.904  16.199 -0.0016  0.4630 -0.7307
 4757SOL    HW125733   0.228   2.900  16.219 -0.1083  0.3540 -0.2648
 4757SOL    HW225734   0.093   2.938  16.278  2.8855 -0.3620  1.1206
 4758SOL     OW25735   1.086   0.326  14.778 -0.5308 -0.0832  0.6480
 4758SOL    HW125736   1.141   0.397  14.747  0.5742 -0.7349  1.1077
 4758SOL    HW225737   0.992   0.338  14.766 -0.4304  2.1168  2.0431
 4759SOL     OW25738   3.667   2.691   3.843  0.3405  1.0947  0.2944
 4759SOL    HW125739   3.667   2.595   3.833 -1.5157  1.2807 -1.3587
 4759SOL    HW225740   3.757   2.705   3.812 -0.4821  0.7525 -2.2887
 4760SOL     OW25741   4.674   3.847  12.873 -0.2641 -0.4653 -0.9591
 4760SOL    HW125742   4.685   3.833  12.967 -0.0888  0.7372 -0.7938
 4760SOL    HW225743   4.709   3.767  12.833  1.5585 -0.8331  1.3926
 4761SOL     OW25744   3.348   1.867   7.310  0.1602  0.2224 -0.2411
 4761SOL    HW125745   3.299   1.837   7.387 -0.7111  2.9094  0.2452
 4761SOL    HW225746   3.332   1.960   7.296 -2.3739 -0.1522  0.1535
 4762SOL     OW25747   3.317   0.229   9.980  0.0306 -0.3311  0.1816
 4762SOL    HW125748   3.324   0.134   9.988  1.5226 -0.2184  0.2687
 4762SOL    HW225749   3.230   0.243  10.015  0.4562 -1.1542  1.5899
 4763SOL     OW25750   4.133   4.647   5.925 -0.2129 -0.0326  0.3080
 4763SOL    HW125751   4.083   4.572   5.957 -4.1773  1.7518 -1.6318
 4763SOL    HW225752   4.060   4.704   5.900 -0.2478 -1.5630 -3.1832
 4764SOL     OW25753   2.480   4.476   1.011 -0.1107 -0.4527  0.2705
 4764SOL    HW125754   2.418   4.528   1.063 -1.7482 -0.5673 -1.5781
 4764SOL    HW225755   2.412   4.422   0.971 -0.0362 -1.3238  1.3297
 4765SOL     OW25756   3.122   1.039   0.233  0.3265  0.5205  0.0712
 4765SOL    HW125757   3.164   0.962   0.273 -0.8644  1.2088  2.6296
 4765SOL    HW225758   3.039   0.999   0.205  1.4171 -0.4682 -1.8042
 4766SOL     OW25759   4.279   4.182   8.363 -0.5241  0.2198  0.1441
 4766SOL    HW125760   4.222   4.229   8.302 -0.1398  0.2843 -0.1721
 4766SOL    HW225761   4.219   4.130   8.416  0.0582  3.4162  3.8775
 4767SOL     OW25762   0.681   0.505   5.478 -0.6545 -0.4724 -0.6662
 4767SOL    HW125763   0.723   0.424   5.508 -1.9082 -0.1229  2.0230
 4767SOL    HW225764   0.716   0.506   5.389  0.0306 -1.5297 -0.4011
 4768SOL     OW25765   1.185   2.507   0.408  0.3275 -0.5157  0.3634
 4768SOL    HW125766   1.168   2.589   0.454  1.5264  0.3725 -0.7769
 4768SOL    HW225767   1.202   2.440   0.474 -0.3132 -1.6772 -0.6448
 4769SOL     OW25768   0.674   3.171  10.216  0.1311 -0.1163 -0.4969
 4769SOL    HW125769   0.764   3.204  10.222  0.0190 -0.0100  0.5855
 4769SOL    HW225770   0.640   3.253  10.251  0.4291 -0.9232  1.6665
 4770SOL     OW25771   4.366   4.068  13.480 -0.2388 -0.2138 -0.7173
 4770SOL    HW125772   4.336   4.066  13.389  1.5917 -0.3155 -1.3234
 4770SOL    HW225773   4.421   4.146  13.485 -1.9807  0.9575  0.1127
 4771SOL     OW25774   2.767   4.469   2.783  0.0950 -0.2213  0.1749
 4771SOL    HW125775   2.757   4.402   2.715  1.9277  1.5354 -1.8190
 4771SOL    HW225776   2.685   4.448   2.827  0.0455 -0.8240 -0.2037
 4772SOL     OW25777   3.527   2.248   8.390  0.2482 -0.0754  0.1594
 4772SOL    HW125778   3.595   2.180   8.394 -0.6098 -0.9262  0.2160
 4772SOL    HW225779   3.496   2.232   8.301 -0.3520  4.2474 -0.4264
 4773SOL     OW25780   0.860   0.104   7.001 -0.5348 -0.1525  0.0404
 4773SOL    HW125781   0.879   0.070   7.088 -0.0387  1.2458  0.4723
 4773SOL    HW225782   0.864   0.196   7.026 -0.5505  0.3333 -1.7487
 4774SOL     OW25783   2.755   2.272   7.087  0.3040  0.2872  0.3988
 4774SOL    HW125784   2.778   2.196   7.033 -0.2877 -0.2475  0.8941
 4774SOL    HW225785   2.840   2.294   7.123 -0.6110  0.3577  2.5212
 4775SOL     OW25786   0.444   3.280   2.854  0.0659  0.3321  0.2361
 4775SOL    HW125787   0.499   3.255   2.780  1.5752  0.1885  1.4272
 4775SOL    HW225788   0.501   3.285   2.930 -2.6477  1.4007  2.2148
 4776SOL     OW25789   2.854   0.865  13.161  0.6490  0.1596  0.0866
 4776SOL    HW125790   2.872   0.779  13.124  0.1774  0.5860 -1.1173
 4776SOL    HW225791   2.842   0.926  13.088  1.8832  1.5037  0.9829
 4777SOL     OW25792   4.581   1.635  13.019 -0.4554 -0.0573 -0.3752
 4777SOL    HW125793   4.508   1.592  12.977  0.5987  0.1853 -2.4604
 4777SOL    HW225794   4.613   1.576  13.088  0.0480  0.1775 -0.4055
 4778SOL     OW25795   0.339   4.228   9.268 -0.1175  0.7615 -0.1924
 4778SOL    HW125796   0.358   4.305   9.214 -0.6304  0.8796 -0.2042
 4778SOL    HW225797   0.261   4.259   9.313  0.3224 -1.7635  2.3072
 4779SOL     OW25798   3.579   4.181   5.002 -0.5020 -0.0625 -0.1858
 4779SOL    HW125799   3.620   4.267   4.992  1.8863 -1.4608 -2.4384
 4779SOL    HW225800   3.581   4.172   5.098 -0.2997  2.0205  0.0128
 4780SOL     OW25801   0.234   2.276   6.710 -0.1337 -0.1418 -1.3382
 4780SOL    HW125802   0.200   2.311   6.628  1.9280  0.6201 -1.8862
 4780SOL    HW225803   0.150   2.256   6.750  1.4525 -2.1867  1.0200
 4781SOL     OW25804   0.910   0.066   0.903 -0.3010 -0.5002 -0.3646
 4781SOL    HW125805   0.918   0.003   0.974 -0.0443 -0.1686 -0.0982
 4781SOL    HW225806   0.885   0.011   0.829 -0.5674 -1.2242  0.2661
 4782SOL     OW25807   0.232   0.878   6.970  0.2151  0.0026  0.0185
 4782SOL    HW125808   0.267   0.792   6.946  0.8340  0.0122  0.9031
 4782SOL    HW225809   0.273   0.946   6.918  1.3797 -1.6937 -1.3031
 4783SOL     OW25810   2.864   4.037   6.778  0.0212  0.2359  0.0001
 4783SOL    HW125811   2.926   3.967   6.759  0.6655  1.6100 -2.9814
 4783SOL    HW225812   2.922   4.103   6.817 -2.2096  1.4154  1.3288
 4784SOL     OW25813   2.544   2.974   2.470  0.0623  0.6546  0.1715
 4784SOL    HW125814   2.474   2.985   2.406 -0.2677  1.2188  0.6268
 4784SOL    HW225815   2.513   2.916   2.540  1.2199  0.4908  0.5432
 4785SOL     OW25816   0.851   1.859  13.631  0.1184 -0.3808  0.3760
 4785SOL    HW125817   0.760   1.828  13.626 -0.1290 -0.0847  2.8919
 4785SOL    HW225818   0.846   1.931  13.694 -2.1841  2.4302 -3.0351
 4786SOL     OW25819   1.596   2.976   3.056  0.6230  0.0892 -0.6260
 4786SOL    HW125820   1.599   2.946   2.965 -0.1114 -1.4969 -0.1245
 4786SOL    HW225821   1.534   2.915   3.096 -1.2214  0.9760 -2.1285
 4787SOL     OW25822   2.587   3.767  11.754 -0.1964  0.1249 -0.8702
 4787SOL    HW125823   2.674   3.772  11.715 -0.1415 -0.8542 -0.8725
 4787SOL    HW225824   2.603   3.762  11.849  3.5198  1.4407 -1.4096
 4788SOL     OW25825   3.249   0.592  14.846  0.6632 -0.3476  0.2194
 4788SOL    HW125826   3.172   0.564  14.796  1.8076 -0.7340 -1.3095
 4788SOL    HW225827   3.264   0.676  14.802 -1.6453 -0.5329 -0.9069
 4789SOL     OW25828   2.960   1.058   2.091 -0.0762 -0.4139 -0.2419
 4789SOL    HW125829   2.925   0.970   2.108  0.8529 -0.9379 -1.0589
 4789SOL    HW225830   2.967   1.101   2.176 -1.0471 -0.3706 -0.1767
 4790SOL     OW25831   3.996   2.701  11.382  0.1771  0.5494  0.4571
 4790SOL    HW125832   4.087   2.689  11.358 -0.4940  3.4193 -3.4900
 4790SOL    HW225833   3.983   2.796  11.385  1.7349  0.7908 -1.0686
 4791SOL     OW25834   2.574   3.764   8.713  0.0375  0.2131 -0.3373
 4791SOL    HW125835   2.516   3.690   8.693 -0.0477  0.3701 -0.6741
 4791SOL    HW225836   2.508   3.833   8.717  0.1899  0.3918 -0.9210
 4792SOL     OW25837   0.949   4.675   7.222  0.2600  0.1700 -0.3521
 4792SOL    HW125838   0.878   4.677   7.286  0.8049 -0.5478  0.2826
 4792SOL    HW225839   0.945   4.584   7.192 -0.3716  0.2252 -0.4296
 4793SOL     OW25840   3.755   2.308  16.650  0.2410 -0.2733  0.2107
 4793SOL    HW125841   3.769   2.243  16.719 -1.2814  1.9232  2.5909
 4793SOL    HW225842   3.706   2.257  16.586 -1.8603  1.1923  0.6602
 4794SOL     OW25843   1.122   3.671   2.395  0.0906  0.1131 -0.7130
 4794SOL    HW125844   1.152   3.640   2.481 -0.0876  0.5851 -0.4790
 4794SOL    HW225845   1.097   3.585   2.361  0.0337  0.0682 -0.5585
 4795SOL     OW25846   0.486   2.583   6.921 -0.3800 -0.9483 -0.2075
 4795SOL    HW125847   0.497   2.677   6.929  3.3716 -1.3847  0.1385
 4795SOL    HW225848   0.394   2.576   6.944  0.1071 -0.9496  1.7502
 4796SOL     OW25849   1.891   2.417   4.635  0.3823  0.5994  0.3150
 4796SOL    HW125850   1.832   2.490   4.622 -0.2136 -0.4638 -2.9218
 4796SOL    HW225851   1.846   2.364   4.701  0.9256 -0.7437 -0.3752
 4797SOL     OW25852   2.817   0.199   2.846  0.0708  0.4253  0.4575
 4797SOL    HW125853   2.878   0.212   2.773 -2.1681 -1.4951 -1.7534
 4797SOL    HW225854   2.754   0.139   2.805 -0.0769  2.5267 -2.3608
 4798SOL     OW25855   1.852   4.405  12.995  0.6885 -0.4010  0.0131
 4798SOL    HW125856   1.872   4.317  13.029  1.3935 -0.1457  0.2757
 4798SOL    HW225857   1.925   4.458  13.028  0.1536  1.1675 -1.3174
 4799SOL     OW25858   4.069   0.954   2.265 -0.1811 -0.5479  0.0047
 4799SOL    HW125859   4.042   1.041   2.294  3.5337  0.3254  0.8425
 4799SOL    HW225860   3.992   0.909   2.299 -0.3286 -0.0956  0.2647
 4800SOL     OW25861   4.152   2.406   5.047 -0.4252 -0.3978 -0.1219
 4800SOL    HW125862   4.215   2.359   5.101 -0.5668  0.7625  1.0639
 4800SOL    HW225863   4.208   2.429   4.973  0.9855  0.9959  1.3570
 4801SOL     OW25864   2.313   2.216   3.069 -0.1706  0.0685  0.2314
 4801SOL    HW125865   2.400   2.178   3.054  0.2040 -0.1801  2.9302
 4801SOL    HW225866   2.287   2.231   2.979 -0.4674  0.5974  0.4056
 4802SOL     OW25867   3.051   2.410   5.630 -0.1801  0.1819 -0.1774
 4802SOL    HW125868   3.026   2.502   5.643 -0.2496  0.1237  0.1168
 4802SOL    HW225869   3.116   2.393   5.699 -0.9734 -3.6937 -0.3702
 4803SOL     OW25870   1.226   1.540   1.376 -0.5088 -0.0292  0.0313
 4803SOL    HW125871   1.260   1.553   1.465 -0.8572 -1.2404  0.3364
 4803SOL    HW225872   1.144   1.494   1.393 -0.1961 -0.4143  0.5224
 4804SOL     OW25873   1.956   3.394   8.708 -0.8073 -0.1608 -0.1165
 4804SOL    HW125874   1.963   3.350   8.793  0.7911 -2.4092 -1.3961
 4804SOL    HW225875   1.944   3.311   8.661 -0.0216 -0.5570  0.3744
 4805SOL     OW25876   2.774   2.454   8.501  0.0662 -0.3013  0.2944
 4805SOL    HW125877   2.706   2.412   8.448  0.1044 -0.0480  0.0495
 4805SOL    HW225878   2.838   2.470   8.433 -2.0649  1.1843 -1.3452
 4806SOL     OW25879   2.172   1.761   8.074  0.3749 -0.3668  0.3392
 4806SOL    HW125880   2.260   1.732   8.049 -0.3676 -2.1543 -0.2015
 4806SOL    HW225881   2.192   1.835   8.131 -3.3993  0.6973  0.3001
 4807SOL     OW25882   2.262   0.478   7.627  0.1614 -0.1935  0.1957
 4807SOL    HW125883   2.263   0.440   7.715  0.0503 -0.1407  0.2200
 4807SOL    HW225884   2.355   0.498   7.619  0.1875  0.8303  3.1791
 4808SOL     OW25885   2.300   2.940   1.915 -0.6563  0.0674  0.2586
 4808SOL    HW125886   2.356   2.994   1.971 -1.0527  0.7203  0.0366
 4808SOL    HW225887   2.364   2.885   1.870  0.9329 -0.6124  3.3540
 4809SOL     OW25888   1.657   0.739   5.718  0.3056 -0.0910  0.1015
 4809SOL    HW125889   1.633   0.827   5.689 -0.1486  0.2551  1.5475
 4809SOL    HW225890   1.653   0.756   5.812  0.9829  0.6022  0.0010
 4810SOL     OW25891   4.719   1.828   1.144 -0.0738  0.3996  0.0513
 4810SOL    HW125892   0.046   1.752   1.171 -0.1245  0.8208  1.3378
 4810SOL    HW225893   4.659   1.786   1.083  0.5998 -2.2583  1.2137
 4811SOL     OW25894   0.649   4.219   0.608  0.0244  0.1104 -0.5718
 4811SOL    HW125895   0.696   4.162   0.546  0.8054 -0.0400  0.1634
 4811SOL    HW225896   0.720   4.279   0.632 -1.3916  0.4031  2.8087
 4812SOL     OW25897   2.148   3.837   5.008  0.1845  0.0479 -0.2253
 4812SOL    HW125898   2.227   3.799   5.047  0.3352  1.1566  0.5375
 4812SOL    HW225899   2.159   3.818   4.915  0.4547  2.2908 -0.6469
 4813SOL     OW25900   0.269   3.118  17.504 -0.0441  0.5179 -0.5930
 4813SOL    HW125901   0.180   3.142  17.477 -0.8062  0.5347  1.9431
 4813SOL    HW225902   0.261   3.038  17.555 -0.6354  0.7155 -0.3762
 4814SOL     OW25903   2.227   0.123   7.209  0.5098  0.1411 -0.0589
 4814SOL    HW125904   2.260   0.203   7.249  0.1544 -0.2577  1.0224
 4814SOL    HW225905   2.297   0.057   7.208  0.7340  0.3825 -0.4983
 4815SOL     OW25906   2.914   0.756   5.314 -0.3720 -0.1337  0.0703
 4815SOL    HW125907   2.968   0.821   5.360 -1.6840  0.3983  0.8337
 4815SOL    HW225908   2.885   0.695   5.381 -0.5648  0.8637  0.8944
 4816SOL     OW25909   1.064   0.338   6.572 -0.0588 -0.4291  0.0524
 4816SOL    HW125910   1.049   0.365   6.481 -1.6182  0.5990  0.6128
 4816SOL    HW225911   1.022   0.412   6.617  0.1152  0.7170 -1.6634
 4817SOL     OW25912   2.166   4.026   5.417 -0.2236 -0.1769  0.2113
 4817SOL    HW125913   2.258   4.029   5.392 -0.2900  0.9596  0.1044
 4817SOL    HW225914   2.128   4.020   5.330 -0.2844  1.0814  0.1545
 4818SOL     OW25915   4.165   0.222   5.690 -0.1054  0.2118  0.4993
 4818SOL    HW125916   4.213   0.205   5.770 -0.1729 -0.9719  0.2929
 4818SOL    HW225917   4.082   0.255   5.725  0.4345 -1.4500  3.2957
 4819SOL     OW25918   2.162   1.966   7.720 -0.7013 -0.1945 -0.3973
 4819SOL    HW125919   2.145   1.873   7.703  1.1040 -0.1042 -2.7227
 4819SOL    HW225920   2.081   1.972   7.771 -0.6574  1.5958 -0.5493
 4820SOL     OW25921   3.938   3.094  15.455  0.4322  0.0251  0.0763
 4820SOL    HW125922   3.888   3.074  15.375  1.5508  1.1929 -0.8966
 4820SOL    HW225923   4.026   3.119  15.430  0.7253 -0.0379  1.0408
 4821SOL     OW25924   2.698   2.855   1.738  0.0148  0.1398  0.3737
 4821SOL    HW125925   2.735   2.837   1.652 -1.0352  1.9970 -0.4583
 4821SOL    HW225926   2.605   2.838   1.722 -0.0522  0.0191  0.8914
 4822SOL     OW25927   1.701   1.760  15.789 -0.0713 -0.0307  0.3142
 4822SOL    HW125928   1.635   1.824  15.817  0.2690  0.6344 -0.3844
 4822SOL    HW225929   1.773   1.783  15.848  0.3190 -1.8340  0.5240
 4823SOL     OW25930   2.016   1.057  12.112  0.5185  0.4922  0.1316
 4823SOL    HW125931   2.027   1.028  12.202 -0.9470 -0.2435  0.0670
 4823SOL    HW225932   2.054   0.985  12.063 -0.8771 -0.1759  0.0403
 4824SOL     OW25933   1.194   0.824   2.540  0.1668 -0.1695 -0.2958
 4824SOL    HW125934   1.101   0.802   2.546  0.0504  0.4420  0.1843
 4824SOL    HW225935   1.197   0.904   2.593 -0.1704  1.0840 -2.1813
 4825SOL     OW25936   2.421   0.040   7.686  1.0247  0.0946  0.4272
 4825SOL    HW125937   2.340   0.036   7.634  2.3940  0.4993 -1.7362
 4825SOL    HW225938   2.379   0.020   7.770  4.2416 -2.3588  1.4492
 4826SOL     OW25939   4.563   0.604  14.565  0.0282 -0.7563  0.1727
 4826SOL    HW125940   4.528   0.518  14.543  0.2428 -0.5692 -0.8883
 4826SOL    HW225941   4.538   0.660  14.492  3.2429 -0.1821 -0.4999
 4827SOL     OW25942   2.562   4.662   3.775  0.4471  0.2941  0.1018
 4827SOL    HW125943   2.653   4.687   3.759  1.5350 -3.1461  0.9781
 4827SOL    HW225944   2.572   4.604   3.850  1.5207 -0.9385 -0.9849
 4828SOL     OW25945   3.084   4.557   7.187 -0.4840 -0.0572 -0.1268
 4828SOL    HW125946   3.015   4.612   7.224  0.1499  0.2054  0.6448
 4828SOL    HW225947   3.076   4.482   7.246 -0.2682  0.4183  0.4985
 4829SOL     OW25948   0.919   4.370   0.631  0.5606 -0.2356 -1.0556
 4829SOL    HW125949   0.926   4.281   0.596 -1.8527  0.0027 -2.1294
 4829SOL    HW225950   0.990   4.414   0.584 -0.1818  0.5735 -1.4200
 4830SOL     OW25951   3.207   1.583   8.989 -0.1719  0.6530  0.6960
 4830SOL    HW125952   3.120   1.617   8.970 -0.1425 -1.2383 -2.6720
 4830SOL    HW225953   3.237   1.607   8.902 -2.0311  1.2869  0.2312
 4831SOL     OW25954   1.101   2.869  16.926 -0.3879  0.1705 -0.8716
 4831SOL    HW125955   1.184   2.831  16.954  0.5294  2.2401 -0.7680
 4831SOL    HW225956   1.040   2.839  16.993  2.2022 -2.5130  0.2680
 4832SOL     OW25957   2.311   0.611  15.593 -0.4355 -0.1917  0.3375
 4832SOL    HW125958   2.235   0.615  15.536 -1.8763 -2.0278  2.1708
 4832SOL    HW225959   2.377   0.625  15.525  0.6304 -2.2935  0.9330
 4833SOL     OW25960   4.694   4.426   5.504  0.6849  0.2575  0.3248
 4833SOL    HW125961   4.615   4.440   5.555  0.1737 -0.9036 -0.1615
 4833SOL    HW225962   4.682   4.333   5.486  0.9171 -0.0066  1.5421
 4834SOL     OW25963   3.335   3.793   7.141  0.1559  0.2002 -0.3145
 4834SOL    HW125964   3.396   3.788   7.214  0.1536 -0.7225 -0.3728
 4834SOL    HW225965   3.392   3.768   7.068  3.0207  0.7206  1.7782
 4835SOL     OW25966   0.428   4.461   5.798  0.4002 -0.1726 -0.0124
 4835SOL    HW125967   0.374   4.394   5.756 -0.4471 -0.1658  1.0553
 4835SOL    HW225968   0.360   4.518   5.834  0.0710 -0.0119 -0.8836
 4836SOL     OW25969   2.022   1.255  15.347 -0.5322 -0.4805  0.2557
 4836SOL    HW125970   2.077   1.204  15.288 -0.7307 -0.2403 -0.1342
 4836SOL    HW225971   2.039   1.336  15.300 -1.2741 -0.3826  0.1536
 4837SOL     OW25972   2.052   0.434  15.332  0.1815  0.9424 -0.7790
 4837SOL    HW125973   2.056   0.414  15.425 -3.4034  0.5228 -0.7127
 4837SOL    HW225974   1.984   0.501  15.327 -1.0585 -0.3355 -1.0106
 4838SOL     OW25975   3.611   0.763   5.397 -0.3036 -0.0574 -0.0026
 4838SOL    HW125976   3.677   0.723   5.339  1.2609 -0.2427  1.9231
 4838SOL    HW225977   3.626   0.718   5.480  0.9771  0.3774 -0.0045
 4839SOL     OW25978   2.544   0.801   6.617 -0.5019 -0.4032  0.2312
 4839SOL    HW125979   2.449   0.806   6.606 -0.4596 -2.1303 -0.8075
 4839SOL    HW225980   2.571   0.858   6.544  2.4047  0.4850  2.0172
 4840SOL     OW25981   1.850   1.200   3.119 -0.0607 -0.7487  0.7910
 4840SOL    HW125982   1.803   1.132   3.167  0.2609 -0.8397  0.9787
 4840SOL    HW225983   1.786   1.261   3.082  1.5620  0.1883 -0.4643
 4841SOL     OW25984   0.993   3.075  10.974  0.0384  0.2045  0.0951
 4841SOL    HW125985   1.022   3.150  10.923  2.5907 -0.0169  1.2343
 4841SOL    HW225986   0.997   3.000  10.915 -0.1342 -1.3902  2.1233
 4842SOL     OW25987   0.071   2.308   9.747  0.2108  0.6831  0.3019
 4842SOL    HW125988   0.151   2.262   9.773 -0.9873 -0.4085  2.0429
 4842SOL    HW225989   0.014   2.292   9.822 -0.3938 -0.4506 -0.4042
 4843SOL     OW25990   4.073   1.196   7.626 -0.1196  0.3472 -0.1305
 4843SOL    HW125991   4.113   1.114   7.656 -0.6137 -0.6949 -2.3406
 4843SOL    HW225992   4.097   1.257   7.696 -0.5899  1.7257 -1.1804
 4844SOL     OW25993   3.588   2.908   3.970 -0.6975 -0.2592 -0.4891
 4844SOL    HW125994   3.559   2.950   3.889 -2.8182 -1.7140 -0.4971
 4844SOL    HW225995   3.616   2.825   3.931  1.5380  1.4439 -2.5045
 4845SOL     OW25996   4.699   2.660   4.468  0.0597  0.2774 -0.1795
 4845SOL    HW125997   0.040   2.602   4.506  1.4246  0.7172 -1.8639
 4845SOL    HW225998   0.020   2.694   4.391  0.6333 -0.4803 -0.1712
 4846SOL     OW25999   2.218   2.453   8.330  0.3261 -0.1511 -0.9115
 4846SOL    HW126000   2.240   2.546   8.321  1.1325 -0.2315  0.3333
 4846SOL    HW226001   2.164   2.439   8.252 -0.4683 -0.8222 -0.2354
 4847SOL     OW26002   2.309   0.546   2.662 -0.1910  0.3542 -0.1239
 4847SOL    HW126003   2.221   0.585   2.666  0.4439  1.6193  1.3710
 4847SOL    HW226004   2.285   0.481   2.595  1.8002 -0.5179 -0.0006
 4848SOL     OW26005   1.123   0.547  17.597  0.4653 -0.1747  0.2543
 4848SOL    HW126006   1.175   0.555  17.517  1.1749 -2.6140  0.4595
 4848SOL    HW226007   1.041   0.522  17.555  1.6774 -1.1338 -1.5360
 4849SOL     OW26008   0.401   0.572  15.601 -0.6248 -0.4496  0.0629
 4849SOL    HW126009   0.351   0.653  15.590  0.1095  0.0680  0.4989
 4849SOL    HW226010   0.356   0.519  15.667  0.0621 -0.9865  0.1076
 4850SOL     OW26011   3.083   4.325  11.374  0.2412  0.4478 -0.1394
 4850SOL    HW126012   2.993   4.323  11.405  0.1598 -2.5263 -0.6232
 4850SOL    HW226013   3.107   4.239  11.409  0.2701  0.2643 -0.6106
 4851SOL     OW26014   3.167   0.217  12.914  0.3814 -0.0313 -0.7867
 4851SOL    HW126015   3.225   0.273  12.862 -1.1316  1.1534 -1.2007
 4851SOL    HW226016   3.103   0.278  12.950 -0.1539 -2.1840  1.8330
 4852SOL     OW26017   2.404   2.975   4.724 -0.7625  0.3882 -1.0826
 4852SOL    HW126018   2.389   3.021   4.806  3.1514 -0.6925  0.2654
 4852SOL    HW226019   2.330   2.915   4.730 -0.8824  0.7597  1.3847
 4853SOL     OW26020   4.580   0.102   7.551 -0.3407  0.0165 -0.3065
 4853SOL    HW126021   4.580   0.190   7.589 -1.3046  0.3170 -1.0165
 4853SOL    HW226022   4.538   0.132   7.471 -1.9443  0.0706  0.5685
 4854SOL     OW26023   2.494   0.028  15.806 -0.1982 -0.0578  0.0648
 4854SOL    HW126024   2.567   4.694  15.825  0.7535  0.8714 -0.7091
 4854SOL    HW226025   2.460   4.713  15.726  1.2217 -1.7978  0.3128
 4855SOL     OW26026   3.982   1.950   6.953  0.1832  0.1991  0.5272
 4855SOL    HW126027   3.896   1.959   6.911  0.0556  3.2849  1.4826
 4855SOL    HW226028   4.036   1.944   6.874 -0.8683  0.4728 -0.2257
 4856SOL     OW26029   4.454   2.731   7.496 -0.3738 -0.2030 -0.4283
 4856SOL    HW126030   4.359   2.744   7.492 -0.5922 -2.1649 -1.8374
 4856SOL    HW226031   4.457   2.646   7.452 -3.2018 -0.8477  0.6025
 4857SOL     OW26032   0.080   1.574  16.070  0.6342 -0.1424  0.0210
 4857SOL    HW126033   0.114   1.601  16.156 -0.3240  2.4767 -0.4318
 4857SOL    HW226034   4.715   1.568  16.102  0.5969 -0.2592 -0.1107
 4858SOL     OW26035   4.144   0.233   5.127 -0.2570  0.2362 -0.5752
 4858SOL    HW126036   4.090   0.197   5.057  1.1491 -0.6835 -1.1909
 4858SOL    HW226037   4.162   0.149   5.171  0.2247  0.3419 -0.5670
 4859SOL     OW26038   3.074   2.994  12.575  0.3197  0.3354  0.2405
 4859SOL    HW126039   3.060   3.029  12.488  1.1673 -1.5529 -0.6528
 4859SOL    HW226040   3.007   2.926  12.571  1.1691 -0.6193  1.8303
 4860SOL     OW26041   2.395   4.546   4.443  0.7288  0.0110 -0.1013
 4860SOL    HW126042   2.404   4.453   4.420 -0.3825 -0.5486  1.7420
 4860SOL    HW226043   2.403   4.592   4.360 -0.8505  0.2102 -0.1391
 4861SOL     OW26044   2.358   3.740   6.308  0.1586  0.7213 -0.4697
 4861SOL    HW126045   2.296   3.691   6.361  0.7530  2.6136  1.9880
 4861SOL    HW226046   2.399   3.675   6.250  0.8022 -0.3392  1.1606
 4862SOL     OW26047   3.098   1.411   4.873  0.7146  0.9461  0.0118
 4862SOL    HW126048   3.030   1.398   4.938  1.8472  1.3459  1.2805
 4862SOL    HW226049   3.055   1.476   4.817 -1.4838  1.0316  1.8269
 4863SOL     OW26050   0.509   0.776   0.152 -0.2934  0.4380  0.3907
 4863SOL    HW126051   0.523   0.684   0.130 -0.9683  0.4884 -0.2521
 4863SOL    HW226052   0.582   0.786   0.213  0.0302 -0.5454  0.1671
 4864SOL     OW26053   2.333   3.204   2.349 -0.2030 -0.2400  0.1023
 4864SOL    HW126054   2.371   3.162   2.272 -0.3520 -3.1298  1.6253
 4864SOL    HW226055   2.387   3.281   2.368  0.1765  0.1399 -2.4421
 4865SOL     OW26056   0.690   0.570   8.688  0.3018  0.3120  0.0402
 4865SOL    HW126057   0.741   0.495   8.659  0.5436  1.2024 -1.8355
 4865SOL    HW226058   0.608   0.526   8.711 -0.4632  1.4859 -0.4398
 4866SOL     OW26059   0.779   1.203   7.336 -0.2785 -0.1430  0.1679
 4866SOL    HW126060   0.698   1.164   7.304  0.3168  0.4131 -1.9888
 4866SOL    HW226061   0.770   1.183   7.430  2.0357  1.4624  0.7376
 4867SOL     OW26062   1.938   2.080   0.670  0.0172 -0.6203 -0.1497
 4867SOL    HW126063   1.983   2.037   0.597  2.7418  0.0196  1.1808
 4867SOL    HW226064   1.987   2.038   0.740 -0.8928 -0.9581  0.2965
 4868SOL     OW26065   4.452   1.077   4.209  0.2104 -0.5807 -0.4059
 4868SOL    HW126066   4.404   1.152   4.243  0.1657  0.2811 -2.3627
 4868SOL    HW226067   4.399   1.003   4.240 -0.5906 -0.4890 -1.5360
 4869SOL     OW26068   2.842   1.090   8.013  0.2442 -0.3039 -0.2488
 4869SOL    HW126069   2.761   1.131   7.985 -0.6606 -1.4541  0.6647
 4869SOL    HW226070   2.904   1.109   7.943  0.4437 -0.2058 -0.0495
 4870SOL     OW26071   3.726   4.393   5.558 -0.6379  0.4674 -0.2219
 4870SOL    HW126072   3.631   4.397   5.567 -0.2466 -1.7495  5.0085
 4870SOL    HW226073   3.743   4.486   5.570  0.7260  0.0914  0.7614
 4871SOL     OW26074   0.295   3.296   7.634 -0.7056  0.0137  0.0265
 4871SOL    HW126075   0.304   3.369   7.696 -0.0527 -0.2711  0.2660
 4871SOL    HW226076   0.265   3.226   7.692  0.4287  1.6585  2.5940
 4872SOL     OW26077   3.853   0.154   2.236 -0.1813 -0.4109 -0.3068
 4872SOL    HW126078   3.946   0.175   2.229 -0.1177 -0.7566 -0.5371
 4872SOL    HW226079   3.822   0.131   2.148 -3.9150 -0.4077  0.9909
 4873SOL     OW26080   1.525   3.258  14.551 -0.7456  0.0759  0.7485
 4873SOL    HW126081   1.540   3.277  14.644  1.1310 -0.2728  0.5165
 4873SOL    HW226082   1.569   3.174  14.541 -2.1462 -0.6596  0.7447
 4874SOL     OW26083   4.412   3.667   4.190  0.0666  0.5557 -0.3370
 4874SOL    HW126084   4.334   3.613   4.202  1.5535 -1.3903  0.6654
 4874SOL    HW226085   4.367   3.747   4.164  1.3090  1.2097 -0.4556
 4875SOL     OW26086   1.142   4.042   0.345  0.0537  0.3304 -0.1119
 4875SOL    HW126087   1.170   3.983   0.275 -0.8006  1.9019 -1.7435
 4875SOL    HW226088   1.221   4.043   0.399  0.4479  0.7644 -0.7000
 4876SOL     OW26089   1.819   3.423  10.565 -0.3002 -0.2229  0.6816
 4876SOL    HW126090   1.909   3.392  10.558  0.5737  2.5452 -0.7211
 4876SOL    HW226091   1.822   3.505  10.514 -0.8736 -1.4652 -1.3469
 4877SOL     OW26092   0.267   0.628   7.093 -0.1179  0.0467 -0.1440
 4877SOL    HW126093   0.244   0.701   7.151  1.0786 -0.5568  1.0723
 4877SOL    HW226094   0.292   0.561   7.157  1.2398 -0.9736 -1.7290
 4878SOL     OW26095   2.212   0.858  13.774  0.0179  0.9817  1.0878
 4878SOL    HW126096   2.151   0.931  13.761  0.9308  1.9883  2.3207
 4878SOL    HW226097   2.213   0.836  13.867 -0.3122 -4.6564 -0.2683
 4879SOL     OW26098   0.682   3.886  17.117  0.2288  0.2490  0.3162
 4879SOL    HW126099   0.712   3.961  17.169 -0.8530  1.5166 -0.8760
 4879SOL    HW226100   0.604   3.859  17.165  0.2094 -0.3733 -0.0709
 4880SOL     OW26101   2.203   4.698   7.878 -0.1169  0.0602 -0.1849
 4880SOL    HW126102   2.207   4.603   7.895 -0.4277  0.1033  0.1206
 4880SOL    HW226103   2.123   4.689   7.827  0.3252  0.1628 -0.8918
 4881SOL     OW26104   3.284   1.734  13.444  0.0036 -1.0596 -0.0954
 4881SOL    HW126105   3.355   1.793  13.418  0.6085 -1.7745 -0.0800
 4881SOL    HW226106   3.270   1.766  13.533 -2.3135 -1.8997 -0.1568
 4882SOL     OW26107   2.973   0.908   5.960 -0.2714  0.1057  0.3729
 4882SOL    HW126108   3.047   0.877   6.012 -0.5140 -1.8203 -0.4413
 4882SOL    HW226109   2.996   1.001   5.970 -0.5802  0.1870  0.3201
 4883SOL     OW26110   4.217   4.233   3.918  0.4097  0.0325  0.0535
 4883SOL    HW126111   4.238   4.320   3.884  1.1784 -1.0964 -2.3389
 4883SOL    HW226112   4.243   4.248   4.009  2.5223 -0.8318 -0.4085
 4884SOL     OW26113   3.321   0.336   1.193  0.0198  0.1706 -0.1161
 4884SOL    HW126114   3.290   0.407   1.137  0.9855 -0.3537 -1.3099
 4884SOL    HW226115   3.240   0.320   1.242 -0.5880  0.1626 -1.1396
 4885SOL     OW26116   3.352   0.803   9.770  0.3946  0.1166  0.3586
 4885SOL    HW126117   3.310   0.747   9.705  0.6833 -0.4883  0.6935
 4885SOL    HW226118   3.315   0.890   9.753  0.4380  0.5344  2.4100
 4886SOL     OW26119   1.635   1.767   2.667  0.0727 -0.3413 -0.3809
 4886SOL    HW126120   1.718   1.746   2.710 -0.8153 -3.6259 -0.3442
 4886SOL    HW226121   1.672   1.796   2.583 -0.4652 -2.0436 -1.1953
 4887SOL     OW26122   4.591   1.829   7.582 -0.3960  0.6702  0.1559
 4887SOL    HW126123   4.503   1.815   7.617 -0.2647 -0.4880  0.0201
 4887SOL    HW226124   4.597   1.756   7.520 -0.5590  1.5342 -0.8574
 4888SOL     OW26125   1.361   1.758   9.534  0.1505 -0.6590  0.6280
 4888SOL    HW126126   1.313   1.676   9.524 -1.1668  0.2382 -0.4028
 4888SOL    HW226127   1.453   1.733   9.542 -0.1611 -1.8403  0.4828
 4889SOL     OW26128   0.175   4.488   6.212  0.2681 -0.3289  0.1044
 4889SOL    HW126129   0.264   4.471   6.245  1.1361  2.2816 -0.8132
 4889SOL    HW226130   0.193   4.479   6.119  0.7734 -2.8421  0.4577
 4890SOL     OW26131   2.305   1.538   4.637 -0.1228  0.5685 -0.0572
 4890SOL    HW126132   2.303   1.569   4.546 -1.2761 -0.2041 -0.3026
 4890SOL    HW226133   2.371   1.596   4.673  0.6611  0.3057 -1.0601
 4891SOL     OW26134   2.305   4.450   7.835  0.1059 -0.1974  0.2193
 4891SOL    HW126135   2.228   4.428   7.782  0.7692 -2.1437  0.0706
 4891SOL    HW226136   2.370   4.386   7.806 -0.8485  0.5261 -3.5423
 4892SOL     OW26137   2.875   1.770  12.183  0.6769 -0.3592  0.0792
 4892SOL    HW126138   2.936   1.842  12.168 -0.4576  0.7799  0.9371
 4892SOL    HW226139   2.814   1.811  12.245 -1.4194 -0.3075 -1.9925
 4893SOL     OW26140   2.472   3.865  11.476  0.2651  0.3009  0.0117
 4893SOL    HW126141   2.389   3.844  11.433  0.4407 -1.4723  0.5328
 4893SOL    HW226142   2.528   3.874  11.399 -0.5245  1.3855 -0.4233
 4894SOL     OW26143   1.185   0.039   4.287 -0.2533 -0.0141 -0.2208
 4894SOL    HW126144   1.237   0.103   4.336 -0.9781 -0.8930  1.6935
 4894SOL    HW226145   1.252   0.008   4.225  0.1484  0.6612 -0.1288
 4895SOL     OW26146   2.873   4.116   6.357 -0.0041 -0.3483  0.1781
 4895SOL    HW126147   2.890   4.209   6.342 -0.7920  0.3687  3.5835
 4895SOL    HW226148   2.807   4.120   6.426 -1.5715  0.0424 -1.3522
 4896SOL     OW26149   0.226   2.137  13.150  0.0838  0.3253  0.6710
 4896SOL    HW126150   0.307   2.184  13.173  0.9545  0.0820 -1.9090
 4896SOL    HW226151   0.165   2.185  13.206 -1.3850 -1.2167  0.3988
 4897SOL     OW26152   3.921   1.848   3.803  0.1834 -0.0574  0.1444
 4897SOL    HW126153   3.986   1.795   3.849  0.4686  0.0147 -0.1798
 4897SOL    HW226154   3.893   1.792   3.731 -2.2774 -1.2503  2.0127
 4898SOL     OW26155   1.946   4.404   8.716 -0.4243 -0.4271  0.2970
 4898SOL    HW126156   1.879   4.350   8.758 -0.1585 -2.1004 -1.4673
 4898SOL    HW226157   1.903   4.490   8.716  2.6193  1.0769  2.7552
 4899SOL     OW26158   2.143   4.311   0.121  0.1211 -0.3036 -0.8114
 4899SOL    HW126159   2.052   4.335   0.138 -0.1849 -1.6127 -0.6064
 4899SOL    HW226160   2.139   4.254   0.045 -1.9382 -2.2595  0.7510
 4900SOL     OW26161   2.810   3.014  10.890 -0.6685  0.2284  0.4732
 4900SOL    HW126162   2.857   3.040  10.969  2.2652 -0.3528 -1.0881
 4900SOL    HW226163   2.721   3.023  10.924 -1.4941  1.1007 -1.9359
 4901SOL     OW26164   4.606   2.406   4.274  0.2163 -0.1071  0.1691
 4901SOL    HW126165   4.693   2.371   4.256 -0.3330 -2.2426  1.6965
 4901SOL    HW226166   4.594   2.390   4.367 -0.8113 -0.5072 -0.0297
 4902SOL     OW26167   0.389   1.170  11.016 -0.4336 -0.3275 -0.0379
 4902SOL    HW126168   0.380   1.126  10.931  1.2665  2.0891 -1.4553
 4902SOL    HW226169   0.296   1.160  11.033 -0.3694  1.2618  1.2469
 4903SOL     OW26170   1.991   4.591   5.981 -0.7641  0.3058  0.2504
 4903SOL    HW126171   2.044   4.668   5.961 -1.0779 -0.1725 -2.4509
 4903SOL    HW226172   1.930   4.583   5.908 -1.6709  0.1092  1.0323
 4904SOL     OW26173   4.579   1.195  10.764  0.1696  0.2035  0.6669
 4904SOL    HW126174   4.657   1.247  10.748 -0.7450  1.2512 -0.3815
 4904SOL    HW226175   4.596   1.132  10.695 -1.2841  1.6649 -1.0168
 4905SOL     OW26176   1.455   2.799   4.381 -0.4321  0.1693 -0.3055
 4905SOL    HW126177   1.398   2.816   4.306 -0.9562 -0.4748 -0.0480
 4905SOL    HW226178   1.477   2.712   4.349  1.3788  0.7646 -0.6940
 4906SOL     OW26179   4.036   3.774  13.814 -0.2224 -0.0607  0.3461
 4906SOL    HW126180   4.104   3.838  13.833 -0.5641  0.4292 -0.0858
 4906SOL    HW226181   4.033   3.731  13.899  1.7314  2.3424  1.6058
 4907SOL     OW26182   2.583   3.368   1.578  0.0073  0.6531 -0.1976
 4907SOL    HW126183   2.634   3.319   1.513 -0.8833 -0.2016 -0.2474
 4907SOL    HW226184   2.540   3.428   1.517  0.0434  0.4158 -0.4548
 4908SOL     OW26185   0.715   4.286   7.223 -0.0112  0.6725  0.0893
 4908SOL    HW126186   0.668   4.207   7.196  0.8246 -0.1214  0.9793
 4908SOL    HW226187   0.688   4.294   7.314  1.1663  0.0435  0.4940
 4909SOL     OW26188   1.665   2.664   3.018  0.2365 -0.1073  0.0219
 4909SOL    HW126189   1.757   2.638   3.014  0.1126 -0.0323 -3.1754
 4909SOL    HW226190   1.641   2.697   2.932  0.1114 -0.3396 -0.0334
 4910SOL     OW26191   1.525   0.635  15.155  0.1865  0.4587  0.6294
 4910SOL    HW126192   1.440   0.594  15.139  0.0295 -0.2196  3.2103
 4910SOL    HW226193   1.514   0.706  15.092  1.4380  0.4315  0.3765
 4911SOL     OW26194   2.251   1.343   2.336 -0.4913  0.3535  0.0144
 4911SOL    HW126195   2.333   1.323   2.290 -1.1279 -4.2508  0.8410
 4911SOL    HW226196   2.191   1.278   2.300 -0.2931  0.1012  0.1433
 4912SOL     OW26197   3.074   0.816   7.249  0.2386 -0.4890  0.2592
 4912SOL    HW126198   3.164   0.847   7.258  0.4026 -0.9788  0.2981
 4912SOL    HW226199   3.063   0.781   7.161 -0.4778 -2.0708  0.9899
 4913SOL     OW26200   0.730   3.882   7.770  0.5984  0.0378 -0.1393
 4913SOL    HW126201   0.720   3.824   7.846 -0.1607 -0.5037 -0.6552
 4913SOL    HW226202   0.646   3.868   7.726 -0.1869  1.2332  0.9777
 4914SOL     OW26203   0.558   4.048   5.301  0.0359  0.3845 -0.0384
 4914SOL    HW126204   0.490   4.106   5.335 -1.3175 -1.1775 -0.1077
 4914SOL    HW226205   0.506   3.990   5.247 -0.6458  1.5333 -0.6271
 4915SOL     OW26206   3.993   1.409   8.772  0.2243 -0.5294  0.1599
 4915SOL    HW126207   4.009   1.499   8.745 -2.5863  0.2643  1.0768
 4915SOL    HW226208   4.030   1.403   8.860 -0.6848  3.1254  0.7938
 4916SOL     OW26209   2.630   1.215   7.895  0.1244  0.4337  0.2144
 4916SOL    HW126210   2.586   1.266   7.828  1.9034  1.5135 -0.1299
 4916SOL    HW226211   2.585   1.134   7.872  0.8029  0.3340 -0.7363
 4917SOL     OW26212   2.852   0.757  10.599  0.4364  0.4721 -0.3146
 4917SOL    HW126213   2.859   0.675  10.647  2.7821  1.3058  0.7328
 4917SOL    HW226214   2.820   0.814  10.669  0.4585 -0.3913  0.3963
 4918SOL     OW26215   2.834   3.232   6.889  0.3344  0.4182 -0.7367
 4918SOL    HW126216   2.804   3.291   6.958 -0.0872  0.3805 -0.8848
 4918SOL    HW226217   2.771   3.160   6.882 -0.0136  0.8580 -2.0432
 4919SOL     OW26218   1.111   3.379   2.334  0.2231  0.6637 -0.5103
 4919SOL    HW126219   1.049   3.335   2.275  0.6541 -0.1118 -0.3898
 4919SOL    HW226220   1.193   3.381   2.284  0.2947  1.0958 -0.3754
 4920SOL     OW26221   3.323   3.354   1.863 -0.7867  0.6934 -0.5743
 4920SOL    HW126222   3.391   3.286   1.872 -0.7696  0.7956  0.0550
 4920SOL    HW226223   3.275   3.332   1.784 -1.3347 -1.7822  0.4199
 4921SOL     OW26224   4.657   2.093   3.728  0.7165 -0.0597 -0.2392
 4921SOL    HW126225   4.670   2.003   3.759  0.9576  0.0426 -0.0427
 4921SOL    HW226226   4.600   2.073   3.654  0.6190  0.9879 -0.4412
 4922SOL     OW26227   1.011   0.616   0.251 -0.0246  0.1040  0.0124
 4922SOL    HW126228   0.921   0.637   0.228  0.0865  0.8908  0.2875
 4922SOL    HW226229   1.006   0.651   0.340  2.7862  1.0008 -0.1705
 4923SOL     OW26230   0.231   1.260   8.849 -0.4005  0.7328  0.0613
 4923SOL    HW126231   0.169   1.189   8.833 -0.8976  1.2847 -0.4479
 4923SOL    HW226232   0.267   1.268   8.761 -3.1473 -1.1241 -1.2638
 4924SOL     OW26233   0.222   1.664   3.463  0.2300 -0.1439 -0.1919
 4924SOL    HW126234   0.197   1.572   3.460 -0.8417  0.1651 -1.1069
 4924SOL    HW226235   0.265   1.657   3.547  2.0809 -2.1627 -1.3191
 4925SOL     OW26236   3.192   3.634   3.479 -0.1356  0.2276 -0.9006
 4925SOL    HW126237   3.270   3.634   3.424 -0.3820  0.2687 -1.2491
 4925SOL    HW226238   3.208   3.557   3.534  0.6527  2.4843  2.0335
 4926SOL     OW26239   1.712   1.789  11.663 -0.4674  0.3722  0.5285
 4926SOL    HW126240   1.634   1.737  11.644  0.2808 -0.0039 -1.4434
 4926SOL    HW226241   1.762   1.729  11.719 -1.5890  0.0953  1.2455
 4927SOL     OW26242   0.543   1.131   8.793 -0.2181  0.5393  0.7472
 4927SOL    HW126243   0.468   1.138   8.733  0.1322  0.6497  0.3234
 4927SOL    HW226244   0.581   1.211   8.757 -1.4802  0.8556  0.0936
 4928SOL     OW26245   2.697   2.120   9.239 -0.3359  0.8169 -0.0873
 4928SOL    HW126246   2.730   2.040   9.199 -0.4030  0.5477  0.4053
 4928SOL    HW226247   2.606   2.124   9.210 -0.7013 -0.1937  0.9506
 4929SOL     OW26248   3.872   3.118   2.371 -0.6096 -0.3456  0.0212
 4929SOL    HW126249   3.836   3.042   2.324  2.0487 -0.2872 -2.1289
 4929SOL    HW226250   3.844   3.085   2.457  1.4057 -0.5393  0.5988
 4930SOL     OW26251   2.568   4.355   6.644 -0.2693  0.2837 -0.2587
 4930SOL    HW126252   2.650   4.307   6.635 -0.4173 -0.0946  0.4310
 4930SOL    HW226253   2.529   4.347   6.557  0.2770  2.7364 -0.7214
 4931SOL     OW26254   4.650   1.239   7.714 -0.6305 -0.0022 -0.2056
 4931SOL    HW126255   4.620   1.196   7.634  1.5968  0.4258 -1.2837
 4931SOL    HW226256   4.686   1.168   7.766  0.2805  1.9403  1.7916
 4932SOL     OW26257   2.163   0.454   0.040 -0.1686 -0.5287  0.1628
 4932SOL    HW126258   2.132   0.389  17.679 -1.8391 -1.5012  1.9802
 4932SOL    HW226259   2.255   0.431   0.045 -0.5931 -2.2159  0.0191
 4933SOL     OW26260   2.086   2.078   3.152 -0.2027 -0.5691 -0.4011
 4933SOL    HW126261   2.164   2.126   3.126 -0.0531  0.1183  1.3013
 4933SOL    HW226262   2.089   2.088   3.247 -0.5108  0.2142 -0.4712
 4934SOL     OW26263   0.442   0.050  13.109  0.0437 -0.2147  0.1121
 4934SOL    HW126264   0.360   0.099  13.099 -1.1714 -1.8138  2.2605
 4934SOL    HW226265   0.473   0.072  13.197 -0.5209 -3.4540  1.1046
 4935SOL     OW26266   3.130   1.160   7.514 -0.7777 -0.1045 -0.2044
 4935SOL    HW126267   3.225   1.152   7.502 -0.8242  2.0398 -2.1563
 4935SOL    HW226268   3.103   1.225   7.449 -0.1179 -1.5656 -1.9322
 4936SOL     OW26269   0.189   2.583   6.863  0.3922  0.0078  0.0757
 4936SOL    HW126270   0.199   2.571   6.769  1.7014  0.3585  0.1667
 4936SOL    HW226271   0.129   2.657   6.869 -0.4068 -0.6192 -0.1912
 4937SOL     OW26272   2.143   4.642   5.697 -0.0804 -0.3939  0.1088
 4937SOL    HW126273   2.232   4.636   5.663 -0.6820  1.4953 -1.7983
 4937SOL    HW226274   2.096   4.677   5.621 -1.3087 -1.0399  0.5703
 4938SOL     OW26275   2.766   3.235   9.995  0.7423  0.5354 -0.3254
 4938SOL    HW126276   2.836   3.191  10.042 -0.9928 -0.7881  1.0625
 4938SOL    HW226277   2.752   3.307  10.058  0.6298  0.4829 -0.2888
 4939SOL     OW26278   3.822   1.606   3.675 -0.1549 -0.5153  0.1089
 4939SOL    HW126279   3.750   1.572   3.623  0.6675  1.2055 -2.1439
 4939SOL    HW226280   3.812   1.562   3.759  1.0686 -2.0870 -0.5759
 4940SOL     OW26281   1.389   0.923  15.606 -0.0752 -0.8536  0.0643
 4940SOL    HW126282   1.440   0.994  15.567 -2.0527  1.1997  1.2055
 4940SOL    HW226283   1.402   0.852  15.544  0.2862 -2.1465  1.6259
 4941SOL     OW26284   3.156   4.378   4.877 -0.1427 -0.7026  0.4534
 4941SOL    HW126285   3.160   4.468   4.844 -1.7273 -0.9398 -0.3848
 4941SOL    HW226286   3.249   4.358   4.873 -0.0928 -0.2647 -0.5892
 4942SOL     OW26287   2.234   4.283   4.482  0.1308  0.0998  0.1828
 4942SOL    HW126288   2.193   4.237   4.556  1.5851 -1.8620 -0.2600
 4942SOL    HW226289   2.324   4.280   4.513 -0.0754  0.5429  0.8499
 4943SOL     OW26290   1.182   2.358   2.717  0.1720  0.3097 -0.0510
 4943SOL    HW126291   1.236   2.434   2.739  0.0338  0.6036 -0.7029
 4943SOL    HW226292   1.230   2.285   2.754 -0.7118 -1.3436 -2.1892
 4944SOL     OW26293   3.609   4.677  10.085  0.2315 -0.4365 -0.1297
 4944SOL    HW126294   3.617   4.680  10.180 -1.9686  0.3303  0.0339
 4944SOL    HW226295   3.679   0.014  10.063  0.8996 -0.8133  0.9473
 4945SOL     OW26296   0.163   1.616   1.164 -0.2245 -0.5388 -0.8032
 4945SOL    HW126297   0.096   1.549   1.152 -0.5331 -0.7794  2.1905
 4945SOL    HW226298   0.148   1.622   1.258  1.8553 -0.2982 -0.4907
 4946SOL     OW26299   1.985   2.145   3.891 -0.0530 -0.4419  0.6001
 4946SOL    HW126300   1.930   2.217   3.860  0.9605  0.5831  1.2009
 4946SOL    HW226301   1.920   2.099   3.945 -2.8542  3.2383  0.3824
 4947SOL     OW26302   2.084   0.159   3.666  0.1293 -0.2330 -0.2638
 4947SOL    HW126303   2.174   0.192   3.662 -0.2267  0.8031  0.2865
 4947SOL    HW226304   2.061   0.156   3.573  0.6420 -1.3758 -0.3546
 4948SOL     OW26305   2.824   0.828  15.932  0.6149 -0.0004  0.5757
 4948SOL    HW126306   2.852   0.814  16.023  0.3275  0.7684  0.7759
 4948SOL    HW226307   2.909   0.854  15.897 -0.7508  1.5645 -1.4890
 4949SOL     OW26308   0.019   0.984   7.834 -0.1145  0.4563  0.1036
 4949SOL    HW126309   4.720   0.897   7.803 -0.1575  0.5845 -0.2241
 4949SOL    HW226310   0.090   1.004   7.774  0.4015  0.7044  0.7974
 4950SOL     OW26311   4.050   3.370   0.476 -0.1139  0.9535  0.1086
 4950SOL    HW126312   4.010   3.413   0.551 -0.5451  0.2507  0.2899
 4950SOL    HW226313   4.144   3.371   0.490 -0.2338  1.5027  0.8338
 4951SOL     OW26314   3.325   3.472   0.457 -0.0433 -0.0313  0.5522
 4951SOL    HW126315   3.370   3.440   0.535 -0.7807 -0.8676  0.6270
 4951SOL    HW226316   3.342   3.402   0.395 -2.3432 -1.1996  1.2519
 4952SOL     OW26317   1.582   2.626  10.060 -0.2981 -0.1039 -0.2995
 4952SOL    HW126318   1.557   2.624  10.152 -0.2247  1.2988 -0.2577
 4952SOL    HW226319   1.515   2.576  10.013  0.6361 -1.5373 -0.1170
 4953SOL     OW26320   1.174   3.779  13.055  0.2823 -0.1484 -0.1746
 4953SOL    HW126321   1.154   3.739  13.140 -2.4647  0.0138 -0.7573
 4953SOL    HW226322   1.093   3.752  13.011 -0.6119  3.9773 -1.0416
 4954SOL     OW26323   1.382   3.504   0.872  0.1528 -0.2223 -0.4391
 4954SOL    HW126324   1.384   3.429   0.932  0.0484  1.4584  1.6835
 4954SOL    HW226325   1.476   3.510   0.858  0.1682 -0.9448 -0.6495
 4955SOL     OW26326   2.211   4.377   8.509  0.3159 -0.0534  0.5536
 4955SOL    HW126327   2.271   4.359   8.437  0.5994 -0.0933  0.7986
 4955SOL    HW226328   2.221   4.310   8.577 -0.7368  1.1042  1.8385
 4956SOL     OW26329   1.821   3.128   5.281  0.4939 -0.4124 -0.5203
 4956SOL    HW126330   1.760   3.198   5.307  1.3123 -0.3287  1.1816
 4956SOL    HW226331   1.893   3.180   5.246 -1.1628  2.4117  0.2608
 4957SOL     OW26332   0.414   2.464   6.143 -0.4166  0.2816  0.1177
 4957SOL    HW126333   0.333   2.413   6.143 -0.3952  0.2465 -2.3797
 4957SOL    HW226334   0.390   2.548   6.181  0.0838 -0.2618  1.6180
 4958SOL     OW26335   1.821   4.602   1.672 -0.1856  0.4804  0.4519
 4958SOL    HW126336   1.773   4.626   1.751  0.7937 -0.9770  1.5047
 4958SOL    HW226337   1.895   4.662   1.669  0.8597 -0.7942  0.5336
 4959SOL     OW26338   3.352   3.845   8.482 -0.8020  0.0497  0.1517
 4959SOL    HW126339   3.351   3.812   8.392 -0.9035  0.7840 -0.1142
 4959SOL    HW226340   3.263   3.821   8.506 -0.8564  1.1513  1.0390
 4960SOL     OW26341   0.760   3.103   5.995  0.8132  0.1509  0.0485
 4960SOL    HW126342   0.713   3.145   6.067 -1.8773  0.0011 -1.6466
 4960SOL    HW226343   0.685   3.072   5.944  0.5811 -1.7471  1.5303
 4961SOL     OW26344   0.539   4.477   9.455  0.4094 -0.4157 -0.1040
 4961SOL    HW126345   0.474   4.465   9.386  1.1469  1.6909 -1.1638
 4961SOL    HW226346   0.562   4.386   9.476  0.4654 -0.6558 -1.2074
 4962SOL     OW26347   4.272   0.292   5.939  0.3347 -0.4881  0.0705
 4962SOL    HW126348   4.343   0.343   5.978  0.0818 -0.6343  0.7181
 4962SOL    HW226349   4.196   0.343   5.965  1.4520  0.5567  1.3115
 4963SOL     OW26350   4.178   1.771  11.955 -0.2934  0.2046 -0.0218
 4963SOL    HW126351   4.188   1.713  11.879  3.1971  1.1473 -0.2736
 4963SOL    HW226352   4.261   1.817  11.957  0.2036 -0.5954 -1.7865
 4964SOL     OW26353   3.745   3.500   7.695 -0.4649 -0.0378  0.3006
 4964SOL    HW126354   3.807   3.453   7.751  0.3074  0.5270 -0.0846
 4964SOL    HW226355   3.665   3.447   7.702  0.2880 -1.0780  1.0921
 4965SOL     OW26356   4.059   3.029   5.075  0.3946 -0.0613  0.2024
 4965SOL    HW126357   4.028   2.971   5.005  0.4659 -0.2615  0.3371
 4965SOL    HW226358   4.106   3.090   5.018  2.2618 -3.4613 -1.9170
 4966SOL     OW26359   2.867   0.544   9.174 -0.4580  0.4461 -0.0839
 4966SOL    HW126360   2.905   0.629   9.192 -0.2936  0.5060 -0.7046
 4966SOL    HW226361   2.812   0.530   9.251  0.6291 -0.7117  0.4772
 4967SOL     OW26362   4.587   1.794   4.963 -0.4399 -0.0329 -0.4415
 4967SOL    HW126363   4.663   1.820   4.911  0.1609  1.7652  1.3069
 4967SOL    HW226364   4.580   1.703   4.935 -2.1391 -0.4546  1.3073
 4968SOL     OW26365   0.154   2.542  13.638 -0.2434 -0.0957  0.6999
 4968SOL    HW126366   0.065   2.509  13.651 -0.2675 -0.2365  0.1785
 4968SOL    HW226367   0.212   2.476  13.675  0.1691  1.3061  2.5510
 4969SOL     OW26368   2.925   2.069   4.447  0.0857 -0.5024  0.2772
 4969SOL    HW126369   2.889   2.153   4.422  0.3323 -0.5392 -0.1952
 4969SOL    HW226370   2.924   2.024   4.363  0.4674  1.3521 -0.7062
 4970SOL     OW26371   3.132   4.220   7.549  0.3579  0.2085 -0.1629
 4970SOL    HW126372   3.227   4.219   7.562  0.5030  0.4455 -1.1985
 4970SOL    HW226373   3.112   4.303   7.593 -0.7324 -1.3103  2.2058
 4971SOL     OW26374   4.711   3.008   2.259 -0.0153 -0.0426  0.0195
 4971SOL    HW126375   4.666   2.924   2.249 -0.6890  0.2798  0.3307
 4971SOL    HW226376   4.715   3.008   2.355  0.1123  0.1673  0.0155
 4972SOL     OW26377   2.950   2.872  12.226  0.2616  0.2159  0.5205
 4972SOL    HW126378   2.964   2.777  12.222  0.3580  0.2265  0.6083
 4972SOL    HW226379   3.042   2.895  12.239  0.1589 -0.3986  2.4207
 4973SOL     OW26380   1.626   2.907   6.780 -0.0207 -0.6066  0.5975
 4973SOL    HW126381   1.557   2.841   6.779 -1.3959  0.7953  1.7865
 4973SOL    HW226382   1.647   2.909   6.687 -0.8282 -1.1608  0.4052
 4974SOL     OW26383   0.810   1.241  17.221 -0.2265 -0.4978 -0.4423
 4974SOL    HW126384   0.719   1.224  17.194 -0.1139  0.7619 -1.5839
 4974SOL    HW226385   0.802   1.298  17.298  0.0012 -1.2554  0.1411
 4975SOL     OW26386   4.257   3.692   1.676 -0.3358  0.3365 -0.0396
 4975SOL    HW126387   4.312   3.713   1.600 -2.4135  1.5845 -1.1957
 4975SOL    HW226388   4.308   3.619   1.712  1.1426  0.8775 -1.0270
 4976SOL     OW26389   3.008   3.316   4.852 -0.3310 -0.3831  0.3507
 4976SOL    HW126390   3.100   3.342   4.849 -0.4108 -0.3061 -1.2402
 4976SOL    HW226391   2.992   3.326   4.758 -0.4746 -2.1631  0.2006
 4977SOL     OW26392   2.847   0.225  13.120 -0.0341  0.5047 -0.3995
 4977SOL    HW126393   2.822   0.178  13.200  0.5911  0.2004 -0.3867
 4977SOL    HW226394   2.764   0.249  13.078 -1.8951 -0.4518  2.6965
 4978SOL     OW26395   4.612   3.989   8.797  0.2260  0.4123  0.0135
 4978SOL    HW126396   4.597   3.926   8.726 -2.6176  0.8864  0.1993
 4978SOL    HW226397   4.649   4.059   8.743  2.1483 -1.9777 -1.8238
 4979SOL     OW26398   3.369   1.332   0.974 -0.1817 -0.7375  0.1782
 4979SOL    HW126399   3.392   1.248   1.013  0.5684 -1.3000 -1.4529
 4979SOL    HW226400   3.332   1.303   0.891 -0.7466  2.0123 -0.5409
 4980SOL     OW26401   2.747   1.458   5.847  0.6919 -0.1001 -0.8580
 4980SOL    HW126402   2.673   1.519   5.853  0.6035 -0.1712 -1.2244
 4980SOL    HW226403   2.781   1.453   5.936  1.7494  2.5157 -1.1165
 4981SOL     OW26404   2.219   0.365   2.450 -0.1913  0.1093  0.4700
 4981SOL    HW126405   2.170   0.419   2.387 -1.5181  1.1290  2.3537
 4981SOL    HW226406   2.172   0.284   2.431 -0.1414 -0.5092  2.8706
 4982SOL     OW26407   4.491   3.024   5.046  0.2105  0.1211 -0.6175
 4982SOL    HW126408   4.457   2.959   4.985  1.9200 -1.0809 -0.2946
 4982SOL    HW226409   4.585   3.009   5.040  0.4628  0.6689  1.9630
 4983SOL     OW26410   3.017   3.567   8.789  0.4252 -0.2651 -0.7847
 4983SOL    HW126411   3.011   3.614   8.872 -1.9844 -3.2073  0.6770
 4983SOL    HW226412   2.926   3.538   8.781 -0.2193  0.4865  4.1189
 4984SOL     OW26413   1.780   0.577   5.242 -0.0442 -0.3749  0.1417
 4984SOL    HW126414   1.763   0.580   5.336  3.4721 -1.3578  0.8111
 4984SOL    HW226415   1.713   0.639   5.213 -0.0615  0.7027  2.4639
 4985SOL     OW26416   2.302   4.299   1.267 -0.5193 -0.7400  0.0183
 4985SOL    HW126417   2.393   4.295   1.236 -0.0607  0.5298  1.1807
 4985SOL    HW226418   2.256   4.230   1.220 -0.3511  0.4973 -1.9418
 4986SOL     OW26419   3.185   4.577   3.449  0.2368  0.3847 -0.0173
 4986SOL    HW126420   3.179   4.652   3.391  2.2730  2.1609  2.0785
 4986SOL    HW226421   3.132   4.609   3.522  1.8154 -1.1707  1.8444
 4987SOL     OW26422   3.041   3.439   7.450 -0.3808  0.2864 -0.8751
 4987SOL    HW126423   2.975   3.397   7.396 -0.5027 -0.0567 -0.4602
 4987SOL    HW226424   3.055   3.513   7.391 -1.2676  0.5781 -0.7205
 4988SOL     OW26425   1.335   0.537   6.770 -0.3178 -0.8016 -0.0531
 4988SOL    HW126426   1.425   0.521   6.798 -1.0110 -2.4023  1.2503
 4988SOL    HW226427   1.291   0.461   6.807  0.3077 -1.3923 -0.5161
 4989SOL     OW26428   4.345   1.952   8.774 -0.7253  0.3916  0.0575
 4989SOL    HW126429   4.433   1.977   8.801  0.6288 -2.9972 -1.2822
 4989SOL    HW226430   4.311   1.905   8.851  1.1247 -1.3311 -0.1762
 4990SOL     OW26431   4.655   2.135   2.324 -0.3433 -0.0603  0.3579
 4990SOL    HW126432   4.663   2.091   2.240  2.5530 -0.5354  0.8930
 4990SOL    HW226433   4.722   2.085   2.372 -0.1826  0.1621  0.3619
 4991SOL     OW26434   1.458   0.863  14.132  0.1410 -0.1407 -0.0784
 4991SOL    HW126435   1.431   0.910  14.052 -1.0130  1.9771  1.5548
 4991SOL    HW226436   1.376   0.879  14.179 -0.1088  0.8708 -0.8608
 4992SOL     OW26437   1.053   1.856   2.668  0.3605 -0.1629 -0.0883
 4992SOL    HW126438   1.055   1.951   2.662  0.9411 -0.2507 -1.2932
 4992SOL    HW226439   1.050   1.835   2.761 -0.6740 -1.2519 -0.3575
 4993SOL     OW26440   3.703   0.140   4.831  0.1881  0.2667 -0.6310
 4993SOL    HW126441   3.715   0.220   4.781  0.9012  0.5281 -0.0330
 4993SOL    HW226442   3.608   0.142   4.837  0.0927 -0.6812 -1.7502
 4994SOL     OW26443   1.952   3.524   6.790  0.2436 -0.2111  0.0886
 4994SOL    HW126444   1.958   3.544   6.883  2.0870  2.5577 -0.6290
 4994SOL    HW226445   1.951   3.611   6.750 -4.4434 -1.3040 -2.1863
 4995SOL     OW26446   0.153   0.084  16.207  0.0193  0.3943 -0.5087
 4995SOL    HW126447   0.092   0.147  16.245  1.1606  2.1313 -1.5255
 4995SOL    HW226448   0.195   0.139  16.140  1.4756  0.3336  0.3595
 4996SOL     OW26449   4.224   1.359   2.681 -0.1069 -0.1648  0.4505
 4996SOL    HW126450   4.184   1.284   2.725 -0.2082 -1.1626 -1.3487
 4996SOL    HW226451   4.309   1.369   2.723  0.4329  0.2517 -0.7185
 4997SOL     OW26452   4.114   2.872   1.017  0.7466  0.1385  0.2218
 4997SOL    HW126453   4.080   2.839   1.100  0.8362  3.1304  1.4345
 4997SOL    HW226454   4.207   2.850   1.021  0.0850 -2.8580 -1.1821
 4998SOL     OW26455   0.602   2.282   4.709 -0.4873 -0.0336  0.5534
 4998SOL    HW126456   0.543   2.297   4.635  0.8769  0.4720 -0.4264
 4998SOL    HW226457   0.660   2.358   4.715 -0.2552 -0.2021  0.4328
 4999SOL     OW26458   3.296   2.559   5.433  0.1849  0.9775  0.3379
 4999SOL    HW126459   3.336   2.616   5.367 -1.1180  0.5967 -0.7808
 4999SOL    HW226460   3.223   2.610   5.468 -0.4816  1.4912 -1.7972
 5000SOL     OW26461   2.505   3.070   8.803 -0.0456  0.6227  0.1981
 5000SOL    HW126462   2.567   3.107   8.866 -0.5445 -0.3914  1.2663
 5000SOL    HW226463   2.504   3.141   8.738 -2.7639  0.8497  0.4624
 5001SOL     OW26464   3.168   0.658  15.265 -0.6382  0.3818  0.2087
 5001SOL    HW126465   3.158   0.616  15.350 -0.0623 -1.4739 -0.6388
 5001SOL    HW226466   3.079   0.639  15.232 -0.5016 -0.6380  0.4114
 5002SOL     OW26467   1.180   3.084  10.307  0.1189 -0.3527 -0.1098
 5002SOL    HW126468   1.262   3.097  10.260  0.7503 -0.7548  0.8871
 5002SOL    HW226469   1.212   3.079  10.397  0.2204 -0.1425 -0.1350
 5003SOL     OW26470   2.997   3.477  12.304  0.3347 -0.4882  0.3064
 5003SOL    HW126471   3.066   3.527  12.262  0.0500 -1.2507 -1.0991
 5003SOL    HW226472   2.950   3.549  12.346 -1.6997 -1.8735  0.4099
 5004SOL     OW26473   3.086   0.691   4.338  0.1238 -0.2099 -0.0904
 5004SOL    HW126474   2.995   0.668   4.358  0.0498  2.0199  1.9758
 5004SOL    HW226475   3.100   0.646   4.254  0.1057 -0.6546  0.1459
 5005SOL     OW26476   4.494   3.076   8.810  0.2382 -0.5913 -0.3445
 5005SOL    HW126477   4.566   3.072   8.873  0.8250  1.6367 -0.8845
 5005SOL    HW226478   4.532   3.120   8.734  0.1589  0.0835  0.0015
 5006SOL     OW26479   2.762   0.094  13.797  0.6860 -0.1053  0.1045
 5006SOL    HW126480   2.769   0.188  13.780  2.4230 -0.1352  0.5869
 5006SOL    HW226481   2.751   0.097  13.892  0.0159 -0.4237  0.0334
 5007SOL     OW26482   0.677   4.008  11.316  0.4619  0.2370 -0.0018
 5007SOL    HW126483   0.637   4.091  11.341  2.5803  1.7817 -1.8118
 5007SOL    HW226484   0.764   4.037  11.289  0.7544  1.4646  2.3360
 5008SOL     OW26485   1.807   4.586   0.793  0.0081  0.3692  0.1820
 5008SOL    HW126486   1.840   4.557   0.878  1.2745  0.0919 -0.4123
 5008SOL    HW226487   1.817   4.680   0.808 -0.6102  0.5165 -0.3239
 5009SOL     OW26488   2.607   1.069  12.270  0.2636 -0.3221  0.2783
 5009SOL    HW126489   2.517   1.071  12.238  0.7380  0.7721 -0.9701
 5009SOL    HW226490   2.603   0.990  12.324 -1.0016  0.8279  1.8706
 5010SOL     OW26491   2.811   1.019  14.940 -0.0314  0.3448  0.0811
 5010SOL    HW126492   2.861   1.093  14.907  1.7596 -1.0597 -0.3303
 5010SOL    HW226493   2.865   0.968  15.001  0.3737 -1.2934 -1.6668
 5011SOL     OW26494   3.751   2.582   9.772  0.6987 -0.5746 -0.2923
 5011SOL    HW126495   3.784   2.550   9.688  2.6735 -0.0421  0.2887
 5011SOL    HW226496   3.724   2.503   9.819  0.5269 -0.1410  0.3442
 5012SOL     OW26497   0.724   0.300   2.230  0.4120 -0.4425  0.1649
 5012SOL    HW126498   0.736   0.383   2.277 -0.8238 -0.3168  0.2504
 5012SOL    HW226499   0.813   0.267   2.218  0.3785 -0.7568  0.7701
 5013SOL     OW26500   4.543   0.304  10.133 -0.0200  1.1847 -0.3235
 5013SOL    HW126501   4.586   0.347  10.207 -0.6062  2.0116 -0.4626
 5013SOL    HW226502   4.452   0.294  10.162  0.1599  1.1120  0.2185
 5014SOL     OW26503   2.938   1.541   4.674  0.3493 -0.1007  0.7441
 5014SOL    HW126504   2.878   1.500   4.737 -0.7745  0.1309 -0.1789
 5014SOL    HW226505   2.979   1.619   4.712 -3.4118  1.6023  1.2393
 5015SOL     OW26506   4.676   2.466   8.350  0.4375  0.0928  0.4146
 5015SOL    HW126507   4.706   2.465   8.259 -1.7234 -0.0372 -0.3056
 5015SOL    HW226508   4.584   2.492   8.347  1.3482  2.9008 -2.5902
 5016SOL     OW26509   1.721   3.050   5.962 -0.3070  0.4488  0.6603
 5016SOL    HW126510   1.629   3.023   5.970 -0.4209  0.4412 -0.7249
 5016SOL    HW226511   1.775   2.972   5.950 -2.7307 -1.0378 -0.7198
 5017SOL     OW26512   4.235   2.548   6.872 -0.5131 -0.3423 -0.5886
 5017SOL    HW126513   4.173   2.622   6.872 -0.1351 -0.0253 -1.0230
 5017SOL    HW226514   4.175   2.477   6.893 -2.5306  2.6771  3.9274
 5018SOL     OW26515   3.029   1.170  14.819  0.1329  0.0407  0.5615
 5018SOL    HW126516   2.994   1.249  14.778  1.4249  1.0161  1.3160
 5018SOL    HW226517   3.013   1.104  14.752  0.8383  1.5397 -1.0814
 5019SOL     OW26518   4.605   2.156   6.392  0.0796 -0.0332  0.0443
 5019SOL    HW126519   4.630   2.247   6.409 -0.0026 -0.5893  3.2459
 5019SOL    HW226520   4.510   2.159   6.379  0.1908 -0.9117 -0.9470
 5020SOL     OW26521   1.785   0.551   9.472  0.0290  0.1233  0.7164
 5020SOL    HW126522   1.699   0.517   9.496 -1.0942  1.8987 -0.7566
 5020SOL    HW226523   1.831   0.553   9.556 -0.3858  0.2850  0.9387
 5021SOL     OW26524   1.108   3.513  12.704  0.4331  0.0814  0.4128
 5021SOL    HW126525   1.102   3.607  12.688  0.3981  0.1053  0.5675
 5021SOL    HW226526   1.158   3.504  12.623  0.6245  0.4244  0.4915
 5022SOL     OW26527   3.653   2.131   5.241  0.0647 -0.3356  0.0993
 5022SOL    HW126528   3.678   2.150   5.332 -1.8780  0.1337  0.5294
 5022SOL    HW226529   3.618   2.042   5.242  0.3677 -0.4418  1.2195
 5023SOL     OW26530   1.234   1.346  12.223 -0.0598  0.2073 -0.0594
 5023SOL    HW126531   1.288   1.407  12.173  0.1226  0.1789  0.0997
 5023SOL    HW226532   1.201   1.400  12.295  1.2514  0.6965  0.1679
 5024SOL     OW26533   2.427   1.554   1.921  0.1489 -0.3655 -0.5201
 5024SOL    HW126534   2.362   1.620   1.901  1.8100  1.1331 -0.9667
 5024SOL    HW226535   2.440   1.573   2.014 -0.4254 -2.3628 -0.0140
 5025SOL     OW26536   2.520   3.526  13.535 -0.2674  0.3674  0.1988
 5025SOL    HW126537   2.465   3.448  13.540 -1.7173  1.3808  0.3342
 5025SOL    HW226538   2.470   3.582  13.476  0.8978  1.4491  0.2389
 5026SOL     OW26539   2.714   1.473   5.189 -0.5108  0.1532  0.0475
 5026SOL    HW126540   2.773   1.480   5.264 -1.4644 -1.7897  0.9820
 5026SOL    HW226541   2.671   1.558   5.198 -1.7061 -0.4533  0.1080
 5027SOL     OW26542   0.194   4.633   4.048  0.3213 -0.2324 -0.8682
 5027SOL    HW126543   0.230   4.718   4.073 -1.2943  0.1065  0.3607
 5027SOL    HW226544   0.192   4.603   4.139  1.4715  2.4443  0.0314
 5028SOL     OW26545   0.827   0.018   8.501  0.3267  0.8303 -0.1871
 5028SOL    HW126546   0.747   4.722   8.454 -0.1008  2.7723 -0.3368
 5028SOL    HW226547   0.897   4.709   8.446 -0.6347 -1.1414 -0.1612
 5029SOL     OW26548   1.413   0.765   4.594  0.4557  0.2143 -0.0231
 5029SOL    HW126549   1.407   0.675   4.563 -2.2394  0.1499  0.7317
 5029SOL    HW226550   1.496   0.763   4.643 -0.0134 -0.1948  0.7489
 5030SOL     OW26551   3.361   0.400   6.941 -0.0807 -0.1874  0.5362
 5030SOL    HW126552   3.350   0.494   6.952 -3.7127 -0.6148  0.8600
 5030SOL    HW226553   3.375   0.405   6.846 -1.6030  0.1133  0.3252
 5031SOL     OW26554   2.211   1.622   2.353  0.2347  0.2255  0.4809
 5031SOL    HW126555   2.186   1.626   2.445  0.1239  0.2838  0.4482
 5031SOL    HW226556   2.214   1.528   2.333 -2.9607  0.7582 -2.5263
 5032SOL     OW26557   0.343   0.893   5.268 -0.8322 -0.5958 -0.2259
 5032SOL    HW126558   0.414   0.833   5.250 -0.8530 -0.4243 -0.8635
 5032SOL    HW226559   0.365   0.961   5.204 -1.6874  2.5242  2.7558
 5033SOL     OW26560   3.576   4.156   7.806 -0.5988  0.8659  0.1543
 5033SOL    HW126561   3.626   4.075   7.819 -2.6094 -0.2334  1.0154
 5033SOL    HW226562   3.624   4.223   7.855  0.3289  0.8259 -0.6949
 5034SOL     OW26563   0.761   2.485   6.485 -0.3732  0.2759  0.1365
 5034SOL    HW126564   0.697   2.452   6.548 -0.4393  1.7186  0.8205
 5034SOL    HW226565   0.807   2.406   6.457  0.7821  0.7548  0.6865
 5035SOL     OW26566   4.611   4.681   0.724 -0.3010  0.0674 -0.2037
 5035SOL    HW126567   4.648   4.666   0.811  1.7433  1.7662 -0.7920
 5035SOL    HW226568   4.584   4.592   0.700 -0.4564 -0.8628  3.3932
 5036SOL     OW26569   0.076   1.045   8.783 -0.3807  0.5592 -0.4145
 5036SOL    HW126570   0.125   0.988   8.724 -0.0803  1.1895 -0.7744
 5036SOL    HW226571   0.017   1.076   8.714  1.3251  1.7976 -1.3160
 5037SOL     OW26572   1.218   1.421   2.155 -0.0539  0.1338 -0.2324
 5037SOL    HW126573   1.168   1.349   2.195  0.2535 -0.3276 -0.6829
 5037SOL    HW226574   1.146   1.477   2.127  0.5533  0.8805 -0.3083
 5038SOL     OW26575   1.014   2.010   6.110  1.1710 -0.0816 -0.3055
 5038SOL    HW126576   0.943   2.070   6.135  0.4981 -1.5495  1.3460
 5038SOL    HW226577   0.982   1.921   6.122  1.4613  0.2120  2.6260
 5039SOL     OW26578   4.693   2.487   3.463  0.3833 -0.4963 -0.5014
 5039SOL    HW126579   0.013   2.432   3.398 -2.0497 -0.9358 -1.8275
 5039SOL    HW226580   4.607   2.484   3.421 -1.3941  0.8219  3.0741
 5040SOL     OW26581   0.842   2.214   6.743 -0.3461  0.1246  0.3980
 5040SOL    HW126582   0.860   2.151   6.812 -0.8978 -0.0449  0.3795
 5040SOL    HW226583   0.780   2.176   6.681  0.3612 -2.2923  1.1991
 5041SOL     OW26584   3.975   4.079   5.993  0.0838  0.6319  0.4613
 5041SOL    HW126585   3.960   4.047   6.082 -0.2376 -0.6687 -0.0679
 5041SOL    HW226586   3.933   4.165   6.001 -0.7925  0.1891  0.5925
 5042SOL     OW26587   2.085   4.221   7.439  0.0596  0.1149  0.3535
 5042SOL    HW126588   2.084   4.300   7.493 -2.0915  0.2055  0.1918
 5042SOL    HW226589   1.993   4.218   7.414  0.0797 -1.4282  0.4269
 5043SOL     OW26590   2.208   3.407  15.537  0.3269 -0.2812 -0.3172
 5043SOL    HW126591   2.169   3.342  15.477 -0.9348  2.5428 -2.5965
 5043SOL    HW226592   2.298   3.404  15.504  0.5631 -1.2163  0.4111
 5044SOL     OW26593   3.893   4.319   6.212  0.0665 -0.4535 -0.1791
 5044SOL    HW126594   3.923   4.407   6.188  1.2933 -0.6597  0.5578
 5044SOL    HW226595   3.975   4.283   6.247  0.7073  1.2491  0.0820
 5045SOL     OW26596   2.128   0.573   4.754 -0.3463 -0.6484 -0.1340
 5045SOL    HW126597   2.179   0.637   4.704 -0.9002 -1.3121 -1.5454
 5045SOL    HW226598   2.103   0.507   4.689 -2.9874 -0.2276  0.4448
 5046SOL     OW26599   3.018   1.501   4.214 -0.1417  0.1583  0.5018
 5046SOL    HW126600   2.972   1.566   4.266 -0.3579 -1.3915  2.2770
 5046SOL    HW226601   2.998   1.427   4.272 -0.1846  0.4850  0.9069
 5047SOL     OW26602   3.003   2.053   1.722 -0.1332  0.0455 -0.5237
 5047SOL    HW126603   3.054   2.124   1.759  0.4904 -0.3683 -0.5915
 5047SOL    HW226604   3.050   2.040   1.639 -1.4249 -0.3277 -1.1963
 5048SOL     OW26605   0.694   0.516   3.667 -0.2829 -0.0974  0.0426
 5048SOL    HW126606   0.724   0.469   3.589  2.1255  0.8864  0.3741
 5048SOL    HW226607   0.675   0.457   3.740  2.9096 -0.0468  0.9105
 5049SOL     OW26608   1.988   4.718   3.366  0.0949 -0.0379  0.4066
 5049SOL    HW126609   2.018   4.629   3.383  0.2401  0.1083  0.9192
 5049SOL    HW226610   1.896   4.714   3.391  0.2130  0.9876  0.9931
 5050SOL     OW26611   0.386   3.014   6.110  0.4571  0.0216 -0.5675
 5050SOL    HW126612   0.419   3.101   6.131  2.8849 -1.3985  1.4105
 5050SOL    HW226613   0.420   2.998   6.022  1.1170 -2.0444  0.0660
 5051SOL     OW26614   3.225   1.512   6.934 -0.0577 -0.0225 -0.2332
 5051SOL    HW126615   3.212   1.581   6.868  2.7158 -1.3562 -2.1665
 5051SOL    HW226616   3.240   1.568   7.010 -0.9467  0.7588 -0.6155
 5052SOL     OW26617   1.814   4.210   7.892  0.4589  0.1221 -0.2322
 5052SOL    HW126618   1.856   4.181   7.973 -1.2034 -1.0896  0.1939
 5052SOL    HW226619   1.720   4.196   7.904  0.3913 -0.6259 -1.7277
 5053SOL     OW26620   0.100   3.390   2.416  0.2209  0.9851 -0.0886
 5053SOL    HW126621   0.162   3.319   2.400 -1.2371 -0.4528  0.5864
 5053SOL    HW226622   0.163   3.458   2.440 -1.3643  1.5815  2.4377
 5054SOL     OW26623   3.603   1.474   4.316 -0.4318  0.1061 -0.3243
 5054SOL    HW126624   3.681   1.427   4.346 -0.5989 -1.3653 -2.1848
 5054SOL    HW226625   3.628   1.567   4.316  0.2907 -0.0548 -3.1062
 5055SOL     OW26626   3.407   0.795   7.337 -0.4115  0.0737 -0.2614
 5055SOL    HW126627   3.381   0.776   7.427 -0.7111  1.1460 -0.1150
 5055SOL    HW226628   3.383   0.718   7.286 -2.3042  0.1789  0.4714
 5056SOL     OW26629   4.000   4.388   4.232 -0.3854 -0.4376  0.3288
 5056SOL    HW126630   4.043   4.429   4.307 -1.5561 -0.1833  0.8621
 5056SOL    HW226631   3.959   4.316   4.281 -0.0198 -0.2899  0.8452
 5057SOL     OW26632   1.632   1.580   5.607 -0.0344  0.0155  0.5794
 5057SOL    HW126633   1.605   1.574   5.515  0.6318  1.2878  0.2928
 5057SOL    HW226634   1.656   1.673   5.602  2.2105 -0.5390  0.8693
 5058SOL     OW26635   1.561   2.050   7.644  0.2651  0.5898  0.5041
 5058SOL    HW126636   1.491   2.042   7.579 -0.8324 -1.0279  1.8780
 5058SOL    HW226637   1.634   2.071   7.586  0.0500  0.3480  0.1435
 5059SOL     OW26638   0.285   0.349   1.274 -0.2583  0.7975  0.1232
 5059SOL    HW126639   0.227   0.345   1.349  1.0175 -0.5069  1.0524
 5059SOL    HW226640   0.252   0.424   1.224 -0.8262  1.1365  1.0168
 5060SOL     OW26641   2.755   1.903   4.752 -0.2460  0.5327 -0.8035
 5060SOL    HW126642   2.762   1.995   4.779  2.7324 -0.0598  0.4705
 5060SOL    HW226643   2.847   1.899   4.728 -0.0443 -2.6575  0.4723
 5061SOL     OW26644   2.088   2.120   1.561 -0.4667 -0.2737 -0.0039
 5061SOL    HW126645   2.021   2.136   1.495 -1.8483  1.2334  1.7643
 5061SOL    HW226646   2.161   2.156   1.510  1.3501 -0.9376  2.1105
 5062SOL     OW26647   2.124   2.100  10.723  0.3292 -0.0439 -0.3134
 5062SOL    HW126648   2.056   2.056  10.773  1.1255  0.9471  1.6315
 5062SOL    HW226649   2.167   2.037  10.664  0.5480 -0.9510  0.8259
 5063SOL     OW26650   4.570   2.093  11.524  0.4090  0.0191  0.0831
 5063SOL    HW126651   4.566   2.054  11.437  0.4433 -1.6877  0.8373
 5063SOL    HW226652   4.538   2.021  11.578 -0.5836 -0.0387 -0.5873
 5064SOL     OW26653   2.042   1.782  10.817  0.6221 -0.0966  0.1515
 5064SOL    HW126654   2.035   1.688  10.803  0.5724  0.0291 -0.6416
 5064SOL    HW226655   2.098   1.790  10.895  1.0217  1.9888 -0.3348
 5065SOL     OW26656   0.225   1.282   7.027  0.1020  0.3515 -0.1280
 5065SOL    HW126657   0.264   1.354   6.978  0.3361  0.7327  0.6129
 5065SOL    HW226658   0.294   1.220   7.004 -0.1037 -0.6738  1.9489
 5066SOL     OW26659   2.465   1.286  15.066 -0.0028  0.3231 -0.2554
 5066SOL    HW126660   2.452   1.329  14.981  0.8867  1.5816  0.2579
 5066SOL    HW226661   2.498   1.351  15.128  1.1244 -1.7955  1.3631
 5067SOL     OW26662   3.543   3.961   4.828  0.8988  0.1434  0.5017
 5067SOL    HW126663   3.450   3.955   4.846  0.7249  1.0806 -0.1032
 5067SOL    HW226664   3.576   3.975   4.917  0.3455  0.4214  0.6616
 5068SOL     OW26665   3.487   0.732   0.591 -0.1084  0.1111  0.3359
 5068SOL    HW126666   3.535   0.760   0.513  0.8652  2.2841  1.7097
 5068SOL    HW226667   3.476   0.638   0.581  0.9746 -0.2370  2.3774
 5069SOL     OW26668   1.402   3.154   2.465 -0.4620 -1.1166  0.1392
 5069SOL    HW126669   1.460   3.225   2.492 -0.7944  0.3169 -2.9728
 5069SOL    HW226670   1.318   3.198   2.480 -0.1616 -0.2313 -0.7986
 5070SOL     OW26671   3.704   3.948   3.824  0.3914 -0.2903  0.0239
 5070SOL    HW126672   3.689   3.870   3.771 -0.7712 -1.2165  1.6786
 5070SOL    HW226673   3.719   4.010   3.754  1.1242 -2.4752 -1.7573
 5071SOL     OW26674   0.949   1.974   8.417 -0.3524  0.5630  1.0493
 5071SOL    HW126675   0.953   1.980   8.322 -0.7273  0.0920  1.0024
 5071SOL    HW226676   0.981   2.059   8.448  1.1561  1.3646 -2.7215
 5072SOL     OW26677   3.641   3.573   6.421 -0.5332  0.4812  0.2612
 5072SOL    HW126678   3.677   3.501   6.472  1.5047  0.2280 -1.5667
 5072SOL    HW226679   3.690   3.650   6.449  0.3232  0.4981 -1.2708
 5073SOL     OW26680   2.470   0.769   4.753  0.0367 -0.3468  0.5987
 5073SOL    HW126681   2.463   0.710   4.679  0.8308  0.3327 -0.0104
 5073SOL    HW226682   2.533   0.716   4.802  0.9157 -1.3480 -1.6621
 5074SOL     OW26683   1.208   3.237   6.308 -0.1331 -0.2189 -0.0975
 5074SOL    HW126684   1.120   3.213   6.279 -0.3923 -0.1027  0.5833
 5074SOL    HW226685   1.192   3.255   6.401 -0.1044  0.1934 -0.1719
 5075SOL     OW26686   3.921   0.218   2.793  0.2480  0.0007 -0.0973
 5075SOL    HW126687   3.932   0.274   2.870 -2.3903  2.8535 -1.7907
 5075SOL    HW226688   3.980   0.144   2.809 -0.9193 -1.1119 -0.8842
 5076SOL     OW26689   2.145   0.039   3.896 -0.0537  0.0902 -0.2428
 5076SOL    HW126690   2.103   0.060   3.813  0.8487  2.1377 -0.1709
 5076SOL    HW226691   2.215   0.103   3.900  1.3781 -1.6001  1.5994
 5077SOL     OW26692   0.811   0.019   1.509 -0.0443 -0.0663 -0.0981
 5077SOL    HW126693   0.824   0.017   1.414  0.1816 -3.1654  0.0223
 5077SOL    HW226694   0.755   4.667   1.518 -2.1704  1.7905  2.7646
 5078SOL     OW26695   1.438   0.617   7.252  0.1219 -0.2153 -0.4370
 5078SOL    HW126696   1.391   0.537   7.230 -0.6102  0.3020 -0.7791
 5078SOL    HW226697   1.529   0.588   7.246  0.6829  1.4980 -0.3829
 5079SOL     OW26698   2.640   3.978   4.509 -0.3468  0.0879 -0.0680
 5079SOL    HW126699   2.703   3.916   4.548  2.2201  2.9604  0.3178
 5079SOL    HW226700   2.694   4.009   4.436 -2.1313  2.6124 -0.2974
 5080SOL     OW26701   2.725   1.301   3.875 -0.1950  0.3646  0.1771
 5080SOL    HW126702   2.635   1.297   3.907  0.6937 -0.0491  2.6355
 5080SOL    HW226703   2.736   1.393   3.901 -0.4009  0.8249 -1.3246
 5081SOL     OW26704   1.158   0.535   2.804  0.1602  0.2704  0.0574
 5081SOL    HW126705   1.252   0.553   2.807 -0.0667  1.3495  0.7473
 5081SOL    HW226706   1.149   0.468   2.737  1.5063  0.9390 -0.7903
 5082SOL     OW26707   2.732   4.474   8.676 -0.0843 -0.3771  0.2905
 5082SOL    HW126708   2.709   4.385   8.649 -0.8486 -0.4909  1.3111
 5082SOL    HW226709   2.670   4.504   8.743 -0.7242 -1.0375  0.0001
 5083SOL     OW26710   3.411   3.111   5.556 -0.5036 -0.0989 -0.3816
 5083SOL    HW126711   3.392   3.119   5.462  0.7121 -0.7823 -0.6814
 5083SOL    HW226712   3.382   3.200   5.578 -0.2923  0.3478 -1.8954
 5084SOL     OW26713   2.119   2.071   8.599 -0.1291 -0.9494  1.1107
 5084SOL    HW126714   2.177   2.115   8.661  0.0055  0.6286 -0.1345
 5084SOL    HW226715   2.093   2.142   8.541  0.0458 -1.3013  0.6055
 5085SOL     OW26716   3.712   0.248   5.694 -0.2086 -0.1621  0.0336
 5085SOL    HW126717   3.775   0.314   5.724 -0.6199  0.1530  0.2055
 5085SOL    HW226718   3.714   0.265   5.599  2.2276 -1.2967 -0.0974
 5086SOL     OW26719   1.826   2.244  12.148 -0.0980  0.1229 -0.4805
 5086SOL    HW126720   1.845   2.315  12.209  0.2481 -1.4776  1.2608
 5086SOL    HW226721   1.913   2.222  12.115  0.7704  0.8348  1.3319
 5087SOL     OW26722   3.031   1.267  15.110 -0.3582  0.2910  0.2693
 5087SOL    HW126723   2.993   1.251  15.196 -0.6565 -2.9410 -0.4610
 5087SOL    HW226724   2.956   1.304  15.063 -0.4797  0.4934  0.6178
 5088SOL     OW26725   2.178   1.481   7.457 -0.2438 -0.2144  0.0730
 5088SOL    HW126726   2.269   1.489   7.430 -0.0780  0.9519  0.9613
 5088SOL    HW226727   2.135   1.443   7.380 -0.2018 -2.4567  1.1621
 5089SOL     OW26728   2.077   4.380   6.464 -0.1054 -0.6199 -0.6439
 5089SOL    HW126729   2.104   4.450   6.523 -1.0125 -1.9503  1.3575
 5089SOL    HW226730   2.055   4.424   6.381 -1.2866  1.6929  0.9088
 5090SOL     OW26731   0.531   2.677   7.835 -0.5397  0.4977 -0.1321
 5090SOL    HW126732   0.552   2.746   7.773 -3.6137  0.2907 -1.4174
 5090SOL    HW226733   0.439   2.679   7.808 -0.3443  0.9312 -0.7564
 5091SOL     OW26734   3.984   0.524   1.959 -0.1104 -0.2017  0.0305
 5091SOL    HW126735   4.079   0.529   1.953 -0.1469 -0.9844 -1.4862
 5091SOL    HW226736   3.971   0.558   2.047  1.8854 -0.3057  0.3696
 5092SOL     OW26737   3.192   0.092  10.534 -0.0898 -0.2480 -0.3141
 5092SOL    HW126738   3.119   0.038  10.565 -0.0041 -1.9180 -3.0968
 5092SOL    HW226739   3.265   0.032  10.552  0.6673  1.0309  0.8737
 5093SOL     OW26740   0.971   3.245   9.936  0.1623  0.1430  0.4562
 5093SOL    HW126741   0.998   3.250  10.028 -0.8457  0.2031  0.7512
 5093SOL    HW226742   0.911   3.171   9.940 -1.3577  1.4430  1.4065
 5094SOL     OW26743   2.730   0.321   6.695 -0.0623  0.5113  0.3826
 5094SOL    HW126744   2.687   0.303   6.611 -0.7264  2.5125  0.2919
 5094SOL    HW226745   2.823   0.321   6.672 -0.5042  1.3476 -1.4406
 5095SOL     OW26746   2.661   3.206   1.777  0.4527 -0.6040  0.4045
 5095SOL    HW126747   2.627   3.272   1.717  0.9910  0.0185  0.7841
 5095SOL    HW226748   2.721   3.157   1.721  1.1798  0.9134 -0.1608
 5096SOL     OW26749   4.062   0.556  17.396  0.2626  0.4779  0.0615
 5096SOL    HW126750   4.080   0.510  17.315  3.2701  2.0339 -0.1537
 5096SOL    HW226751   4.087   0.501  17.470  1.5329  1.7256  0.5684
 5097SOL     OW26752   3.353   1.955   2.759  0.1182  0.2439  0.3372
 5097SOL    HW126753   3.344   2.031   2.701  1.4640 -0.7098 -1.1031
 5097SOL    HW226754   3.292   1.891   2.723 -0.5836  0.1023  1.7498
 5098SOL     OW26755   4.648   3.212   9.061 -0.1471 -0.1833  0.0973
 5098SOL    HW126756   0.015   3.189   9.071  0.1119  0.3918 -0.8956
 5098SOL    HW226757   4.606   3.127   9.054  0.1611 -0.1789 -1.9596
 5099SOL     OW26758   1.107   3.303   8.845 -0.8377 -0.1946  0.5703
 5099SOL    HW126759   1.134   3.366   8.912 -0.5381  0.3804 -0.0918
 5099SOL    HW226760   1.024   3.270   8.879  0.0099 -1.0221  1.8163
 5100SOL     OW26761   2.120   4.525   5.358  0.0344  0.1665  0.2470
 5100SOL    HW126762   2.135   4.433   5.335 -0.7208  0.8188 -2.8206
 5100SOL    HW226763   2.026   4.524   5.380  0.1766 -0.9842  0.8161
 5101SOL     OW26764   4.323   3.139   4.783  0.3087  0.2421  0.2693
 5101SOL    HW126765   4.390   3.196   4.745 -1.1763  2.7363  1.4193
 5101SOL    HW226766   4.358   3.051   4.770 -3.1370 -1.0036 -0.4210
 5102SOL     OW26767   3.083   1.410  13.804  0.5461 -0.2820 -0.0111
 5102SOL    HW126768   3.054   1.427  13.714 -0.2966  1.9102  0.6789
 5102SOL    HW226769   3.168   1.369  13.790  2.0774  2.2028  1.9272
 5103SOL     OW26770   0.097   2.918   6.096  0.4975  0.5167  0.6474
 5103SOL    HW126771   0.097   2.977   6.020  1.6625 -0.2134  0.0646
 5103SOL    HW226772   0.192   2.921   6.113  0.4909 -2.6055  1.2738
 5104SOL     OW26773   2.189   2.425   3.628 -0.0368  0.0447  0.2652
 5104SOL    HW126774   2.246   2.501   3.620  0.8932 -0.4758  2.0173
 5104SOL    HW226775   2.119   2.459   3.683  0.2323 -2.4961  2.1872
 5105SOL     OW26776   4.609   2.348   2.987 -0.1533  0.3728 -0.2383
 5105SOL    HW126777   4.636   2.426   2.939 -0.7272  1.3403  1.0010
 5105SOL    HW226778   4.679   2.287   2.965  1.2386  1.2514  1.8059
 5106SOL     OW26779   2.377   4.673   5.852 -0.0197 -0.0090  0.1334
 5106SOL    HW126780   2.423   0.018   5.807 -1.6614  1.3619  0.6062
 5106SOL    HW226781   2.449   4.611   5.836 -1.3465 -1.4485 -0.2811
 5107SOL     OW26782   2.067   0.479  11.281 -0.0880 -0.1790  0.3563
 5107SOL    HW126783   1.975   0.461  11.301  0.4956  0.5734  3.6922
 5107SOL    HW226784   2.104   0.392  11.297  0.2149 -0.3068 -1.0443
 5108SOL     OW26785   1.399   4.424  12.540 -0.2450 -0.2805 -0.1410
 5108SOL    HW126786   1.489   4.429  12.510 -0.3730  2.4188 -0.0863
 5108SOL    HW226787   1.409   4.450  12.632  0.1443 -1.4007  0.1272
 5109SOL     OW26788   2.096   1.056   5.249  0.1876  0.4054  0.2635
 5109SOL    HW126789   2.072   0.968   5.219  1.5607 -0.0478  0.4969
 5109SOL    HW226790   2.048   1.111   5.187 -0.9909  0.2679  1.0600
 5110SOL     OW26791   1.903   1.465   3.725  0.2358  0.4312  0.2060
 5110SOL    HW126792   1.840   1.487   3.793 -0.5913  1.3118 -0.8393
 5110SOL    HW226793   1.985   1.501   3.759  1.2863 -1.4541 -0.3464
 5111SOL     OW26794   3.697   1.217   8.875  0.5062  0.0326 -0.1058
 5111SOL    HW126795   3.755   1.225   8.951 -1.0862  2.7193  0.8212
 5111SOL    HW226796   3.618   1.181   8.915 -0.1986  2.0926  0.3105
 5112SOL     OW26797   1.353   1.243   7.068  0.4833  0.5801 -0.2975
 5112SOL    HW126798   1.283   1.280   7.122  0.3084  2.4220 -1.7481
 5112SOL    HW226799   1.392   1.315   7.018  0.3637  0.3319 -0.7516
 5113SOL     OW26800   3.575   2.745   5.479 -0.2563 -0.1515  0.2075
 5113SOL    HW126801   3.527   2.748   5.397 -1.5225  0.4786  0.9610
 5113SOL    HW226802   3.611   2.834   5.478  2.5817 -1.2860  0.8698
 5114SOL     OW26803   2.823   1.969  11.581  0.2179 -0.6439  0.6936
 5114SOL    HW126804   2.748   1.941  11.529  0.3841  0.2797 -0.0423
 5114SOL    HW226805   2.792   2.040  11.637 -1.4262 -1.1350  0.4186
 5115SOL     OW26806   1.771   2.646  12.632  0.5096  0.1798  0.4420
 5115SOL    HW126807   1.757   2.602  12.716  0.1369  0.2866  0.4350
 5115SOL    HW226808   1.865   2.667  12.636  0.3729  0.4997  2.2334
 5116SOL     OW26809   3.493   4.488   7.952 -0.1878 -0.1803 -0.6252
 5116SOL    HW126810   3.574   4.449   7.984  0.8282  0.5571 -2.3030
 5116SOL    HW226811   3.436   4.410   7.956 -0.0948 -0.1811  0.6759
 5117SOL     OW26812   0.262   1.685   0.938  0.3143  0.2363 -0.6147
 5117SOL    HW126813   0.345   1.720   0.972  0.3632  1.5180 -2.0548
 5117SOL    HW226814   0.210   1.674   1.018  0.7031 -0.1642 -0.4167
 5118SOL     OW26815   3.567   1.389   3.290  0.0213  0.0870 -0.1307
 5118SOL    HW126816   3.659   1.402   3.267  0.1470  0.5054  0.5855
 5118SOL    HW226817   3.563   1.294   3.281  2.0067 -0.1120  1.0365
 5119SOL     OW26818   1.692   3.145  14.919  0.6336 -0.2091 -0.0139
 5119SOL    HW126819   1.629   3.200  14.872 -1.3452 -1.1799  1.4946
 5119SOL    HW226820   1.657   3.061  14.888  0.1748 -1.0397  2.7711
 5120SOL     OW26821   2.204   0.998   3.934 -0.1848 -0.3608  0.2325
 5120SOL    HW126822   2.278   1.027   3.880 -0.1650 -0.1748  0.3601
 5120SOL    HW226823   2.164   1.082   3.955 -0.3925  0.1285 -2.0623
 5121SOL     OW26824   0.385   1.103   9.302 -0.5651 -0.0227 -0.1871
 5121SOL    HW126825   0.398   1.129   9.211  1.0097  0.1633  0.0849
 5121SOL    HW226826   0.377   1.188   9.346 -1.0774 -0.8107  1.2493
 5122SOL     OW26827   4.404   3.125   6.744  0.7894  0.1688  0.2588
 5122SOL    HW126828   4.488   3.126   6.791  0.3371  1.5858  1.0368
 5122SOL    HW226829   4.426   3.128   6.651 -0.5098  2.4505  0.0267
 5123SOL     OW26830   1.080   1.795   9.264 -0.7476 -0.3919  0.2896
 5123SOL    HW126831   1.134   1.826   9.191 -0.6896 -0.7398  0.1870
 5123SOL    HW226832   1.121   1.710   9.278  0.7036  0.3583  0.6799
 5124SOL     OW26833   4.404   4.033   3.687 -0.1463 -0.0313 -0.2800
 5124SOL    HW126834   4.401   3.946   3.726 -2.1101  0.1047 -0.1398
 5124SOL    HW226835   4.452   4.077   3.758  1.3005  0.8416 -1.8033
 5125SOL     OW26836   2.260   0.952   8.022  0.6993 -0.4481  0.3518
 5125SOL    HW126837   2.342   0.998   8.039  1.1838 -0.2214 -2.4902
 5125SOL    HW226838   2.229   0.938   8.111  0.6079  0.3573  0.4500
 5126SOL     OW26839   2.380   2.504  17.453  0.1725 -0.3294 -0.1051
 5126SOL    HW126840   2.399   2.591  17.419  0.5376 -0.6115 -0.6238
 5126SOL    HW226841   2.429   2.501  17.535 -1.5684  2.6264  1.0334
 5127SOL     OW26842   4.276   4.453   5.817  1.1255  0.1214 -0.2763
 5127SOL    HW126843   4.238   4.531   5.857  1.0417  0.5092 -1.1128
 5127SOL    HW226844   4.198   4.407   5.786  2.0903 -1.9248  0.3367
 5128SOL     OW26845   2.428   2.128   0.287  0.1359 -0.5412  0.0359
 5128SOL    HW126846   2.336   2.121   0.263  0.2382 -0.6105 -0.3446
 5128SOL    HW226847   2.448   2.049   0.337 -1.3629 -1.0738 -0.2390
 5129SOL     OW26848   0.767   1.012   6.581  0.5008  0.4691  0.2043
 5129SOL    HW126849   0.812   0.942   6.533 -0.1999 -0.3586  0.7639
 5129SOL    HW226850   0.820   1.088   6.556  0.0872  0.2062 -1.4596
 5130SOL     OW26851   0.363   2.265   3.378 -0.7420 -0.0132  0.0366
 5130SOL    HW126852   0.411   2.198   3.426 -1.7797 -0.7235  0.0965
 5130SOL    HW226853   0.422   2.295   3.309 -0.6458 -0.6503 -0.1588
 5131SOL     OW26854   4.431   4.103   2.194 -0.8271  0.2510  0.3979
 5131SOL    HW126855   4.388   4.145   2.120  0.9268 -0.4835 -1.0302
 5131SOL    HW226856   4.507   4.161   2.203 -0.9399  0.0879  2.5102
 5132SOL     OW26857   4.551   1.900   4.303  0.4661  0.6779  0.2907
 5132SOL    HW126858   4.546   1.824   4.246 -2.3953  0.4684  0.8475
 5132SOL    HW226859   4.618   1.863   4.360  0.5600  1.6466  0.8178
 5133SOL     OW26860   0.872   3.653   4.065  0.0957  1.0426  0.4328
 5133SOL    HW126861   0.850   3.665   4.158 -0.6365 -2.1282  0.6599
 5133SOL    HW226862   0.922   3.732   4.044  1.4447 -0.9416 -3.9141
 5134SOL     OW26863   2.709   1.405  16.148  0.0326  1.0124 -0.1511
 5134SOL    HW126864   2.804   1.390  16.151  0.0269  1.2641  1.0224
 5134SOL    HW226865   2.698   1.438  16.237  1.9917 -0.7163  0.7430
 5135SOL     OW26866   0.215   1.438   9.968  0.0447 -0.1518  0.1197
 5135SOL    HW126867   0.187   1.416   9.879  0.3526 -0.0555 -0.0006
 5135SOL    HW226868   0.258   1.519   9.941  2.1008 -1.0121  0.8601
 5136SOL     OW26869   2.855   0.151  10.404  0.2841  0.3229 -0.1649
 5136SOL    HW126870   2.764   0.160  10.434  1.1930 -0.8365  2.9302
 5136SOL    HW226871   2.894   0.098  10.474  0.7420  0.2443 -0.4803
 5137SOL     OW26872   2.010   3.682  10.174 -0.1265 -0.3093  0.1531
 5137SOL    HW126873   2.105   3.667  10.177 -0.1987 -0.4298  1.7949
 5137SOL    HW226874   2.015   3.752  10.239  0.3275 -3.2504  3.2718
 5138SOL     OW26875   4.588   2.982   6.244 -0.5838  0.6043  0.3859
 5138SOL    HW126876   4.538   2.995   6.163 -1.0998 -0.7245  0.4798
 5138SOL    HW226877   4.676   2.973   6.206 -0.4527 -0.2606  0.8884
 5139SOL     OW26878   1.936   3.936   3.581 -0.2030  0.2440  0.1387
 5139SOL    HW126879   1.975   3.864   3.533 -1.3486 -0.4719  0.2852
 5139SOL    HW226880   2.003   3.944   3.649  0.6493 -0.0350 -0.6672
 5140SOL     OW26881   1.040   1.671   0.498  0.2384 -0.0011  0.6599
 5140SOL    HW126882   1.053   1.598   0.559  0.3545 -0.2849  0.2949
 5140SOL    HW226883   1.060   1.752   0.546 -1.0553  0.8997 -0.3149
 5141SOL     OW26884   4.552   4.539   3.688  0.0120 -0.3084  0.0369
 5141SOL    HW126885   4.614   4.471   3.661  0.2140 -0.1545  0.1034
 5141SOL    HW226886   4.603   4.593   3.749  0.9717 -2.4306  1.1174
 5142SOL     OW26887   2.446   3.714   2.291 -0.4222  0.2538  0.0414
 5142SOL    HW126888   2.493   3.788   2.251 -0.9965  0.5101 -0.1630
 5142SOL    HW226889   2.356   3.741   2.272 -0.1093  1.0456 -0.3620
 5143SOL     OW26890   1.896   2.745   0.942  0.3974 -0.0693  0.3893
 5143SOL    HW126891   1.859   2.790   1.018 -1.3302 -0.5162 -0.1865
 5143SOL    HW226892   1.916   2.822   0.890  0.1042 -0.4563 -0.2911
 5144SOL     OW26893   4.639   3.937  15.419  0.1274  0.2806 -0.2095
 5144SOL    HW126894   4.631   3.931  15.514  0.6437 -0.5117 -0.2126
 5144SOL    HW226895   4.677   4.024  15.413  0.1440  0.4369  1.9640
 5145SOL     OW26896   4.100   4.651   8.980  0.1302 -0.1060  0.4607
 5145SOL    HW126897   4.116   0.015   8.946  1.8463  0.0349  1.6215
 5145SOL    HW226898   4.042   4.680   9.051 -0.2879  0.8059 -0.2540
 5146SOL     OW26899   0.798   0.816   4.501  0.5481  0.0361 -0.2572
 5146SOL    HW126900   0.784   0.770   4.418  3.0952  2.4280 -2.0178
 5146SOL    HW226901   0.711   0.856   4.498  0.5295 -0.0293 -0.7569
 5147SOL     OW26902   3.925   3.766   6.793  0.0403 -0.1008  0.0341
 5147SOL    HW126903   3.860   3.710   6.750 -1.2348  1.4177 -0.0005
 5147SOL    HW226904   3.893   3.850   6.762  0.9234  0.6610  1.1651
 5148SOL     OW26905   0.784   4.258   5.688 -0.4513  0.1500 -0.5817
 5148SOL    HW126906   0.848   4.329   5.680 -0.8362  0.4619 -0.9504
 5148SOL    HW226907   0.771   4.219   5.602 -2.2378 -0.1621 -0.1807
 5149SOL     OW26908   1.082   0.412  13.805  0.1981  0.3638  0.4238
 5149SOL    HW126909   1.173   0.439  13.798  0.5073 -0.1739  2.3952
 5149SOL    HW226910   1.078   0.322  13.770 -0.7418  0.9873 -1.1073
 5150SOL     OW26911   1.175   3.368   4.591 -0.1071  0.1377 -0.0984
 5150SOL    HW126912   1.250   3.345   4.536  0.2915 -1.3897  1.0931
 5150SOL    HW226913   1.115   3.398   4.523  1.6078  0.8933 -1.2914
 5151SOL     OW26914   0.128   3.688   6.332 -0.7170 -0.0644 -0.2634
 5151SOL    HW126915   0.086   3.735   6.260 -0.5838 -1.1260 -1.0229
 5151SOL    HW226916   0.068   3.615   6.341  2.6669 -2.7077  0.7809
 5152SOL     OW26917   3.221   1.365  15.729  0.1728  0.3280 -0.1154
 5152SOL    HW126918   3.139   1.359  15.679 -0.3036 -0.6122  0.7813
 5152SOL    HW226919   3.224   1.277  15.766  0.4485  1.2061  1.9387
 5153SOL     OW26920   0.844   1.967  14.531 -0.3150  0.2048 -0.0835
 5153SOL    HW126921   0.767   1.990  14.479  0.2320 -0.2989 -1.1051
 5153SOL    HW226922   0.793   1.943  14.609 -1.2404  1.8080 -0.1756
 5154SOL     OW26923   0.719   0.082   3.035  0.2601 -0.1839 -0.0692
 5154SOL    HW126924   0.640   0.089   2.980 -0.2324 -3.9147  0.1501
 5154SOL    HW226925   0.748   0.173   3.041  0.0636 -0.1363  0.1663
 5155SOL     OW26926   4.641   0.564   6.308  0.0693  0.0663 -0.2409
 5155SOL    HW126927   4.668   0.480   6.345 -1.1476 -0.3000 -0.2098
 5155SOL    HW226928   4.679   0.627   6.369 -0.6940 -1.6440  2.0113
 5156SOL     OW26929   4.706   4.275   0.761  0.2017 -0.2574  0.3128
 5156SOL    HW126930   4.678   4.304   0.848  0.4363 -0.9283  0.6118
 5156SOL    HW226931   4.713   4.181   0.776 -1.9395 -0.0936  2.2621
 5157SOL     OW26932   1.362   0.211   4.054  0.4463 -0.1072  0.0274
 5157SOL    HW126933   1.457   0.222   4.047  0.2183 -0.1963 -3.0445
 5157SOL    HW226934   1.348   0.117   4.044  1.0246 -0.2654  0.6916
 5158SOL     OW26935   3.385   2.307  12.667  0.4735 -0.1663  0.0972
 5158SOL    HW126936   3.358   2.259  12.589 -2.4118 -2.8347  2.6773
 5158SOL    HW226937   3.377   2.396  12.633 -0.4060 -0.2486  0.0847
 5159SOL     OW26938   1.939   4.429   7.259 -0.0680 -0.2619  0.4613
 5159SOL    HW126939   1.900   4.359   7.311 -3.0751  0.5268 -0.7390
 5159SOL    HW226940   1.877   4.502   7.259  0.2092 -0.0224 -0.6014
 5160SOL     OW26941   3.578   0.803   0.336  0.4720  0.1412 -0.1909
 5160SOL    HW126942   3.603   0.782   0.246 -0.0621 -0.5108 -0.1907
 5160SOL    HW226943   3.668   0.799   0.369  0.8177 -2.7413 -1.4214
 5161SOL     OW26944   3.748   2.782   4.804  0.1243 -0.7179 -0.6425
 5161SOL    HW126945   3.709   2.851   4.750  1.2647  0.8900  0.6160
 5161SOL    HW226946   3.707   2.799   4.889 -0.2622  0.0546 -0.9885
 5162SOL     OW26947   1.971   0.069  11.071  0.6080 -0.3797 -0.3391
 5162SOL    HW126948   1.893   0.088  11.019  0.9177  0.4845 -0.4971
 5162SOL    HW226949   1.934   0.075  11.159  3.9717  0.6977  0.9719
 5163SOL     OW26950   2.889   0.441   3.643  0.1777  0.2134 -1.1511
 5163SOL    HW126951   2.818   0.488   3.598 -1.8072  0.3006  2.0930
 5163SOL    HW226952   2.956   0.509   3.650 -0.6731  0.9166  0.0544
 5164SOL     OW26953   1.091   3.347  14.237  0.1644 -0.2427 -0.2904
 5164SOL    HW126954   1.144   3.295  14.297  1.3035 -0.1536 -1.2160
 5164SOL    HW226955   0.998   3.335  14.256  0.2359 -0.6008 -0.1686
 5165SOL     OW26956   2.911   1.226   1.794 -0.0453 -0.5391 -0.0789
 5165SOL    HW126957   2.973   1.196   1.861  0.0037  1.5872  0.8296
 5165SOL    HW226958   2.882   1.312   1.826 -1.6076 -1.3132  0.5825
 5166SOL     OW26959   2.891   1.721   8.331 -0.4512  0.4213 -0.2782
 5166SOL    HW126960   2.914   1.649   8.273 -0.2701 -1.2428  1.8660
 5166SOL    HW226961   2.978   1.716   8.372  0.7274  1.1948 -2.6495
 5167SOL     OW26962   4.200   0.230   8.715  0.0094  0.6021 -0.2460
 5167SOL    HW126963   4.108   0.212   8.732  0.9578 -1.5584  2.4691
 5167SOL    HW226964   4.240   0.206   8.798  4.4458  1.3689 -2.1381
 5168SOL     OW26965   1.873   1.120   8.241  0.2671  0.0169 -0.0111
 5168SOL    HW126966   1.810   1.061   8.283 -0.6407 -0.2106 -1.6847
 5168SOL    HW226967   1.936   1.121   8.313  1.5452  0.0769 -1.1357
 5169SOL     OW26968   2.491   0.533   8.899 -0.4514 -0.3766 -0.2451
 5169SOL    HW126969   2.535   0.454   8.867  1.6871  1.2619 -1.3026
 5169SOL    HW226970   2.563   0.594   8.890  0.1301 -0.9412  0.4814
 5170SOL     OW26971   3.083   4.146  15.512 -0.6213  0.0360 -0.1619
 5170SOL    HW126972   3.107   4.141  15.420  1.0743  0.7654  0.2489
 5170SOL    HW226973   3.143   4.086  15.558  1.7189  2.0582 -0.5953
 5171SOL     OW26974   3.846   1.619  11.874 -0.0124 -0.2266  0.8401
 5171SOL    HW126975   3.820   1.661  11.793 -0.0982  0.6523  1.3266
 5171SOL    HW226976   3.780   1.647  11.938  1.0338  2.0923  0.8797
 5172SOL     OW26977   4.556   2.138   7.455  0.0894 -0.7219  0.1573
 5172SOL    HW126978   4.544   2.172   7.366  0.5959 -0.0510  0.3417
 5172SOL    HW226979   4.519   2.052   7.437 -0.6862 -0.1003 -1.2548
 5173SOL     OW26980   2.081   0.794   8.587  0.6221  0.1981 -0.0512
 5173SOL    HW126981   2.150   0.743   8.630  0.7752  0.2453 -0.2431
 5173SOL    HW226982   2.098   0.884   8.614  2.6417 -0.3574  0.5679
 5174SOL     OW26983   1.342   2.267   0.333 -0.7851  0.5721  0.5322
 5174SOL    HW126984   1.373   2.318   0.258  2.5985 -1.4780  0.5267
 5174SOL    HW226985   1.263   2.313   0.363 -1.6935 -2.0866  2.1498
 5175SOL     OW26986   3.080   0.445   3.299  0.5406 -0.2044 -0.1762
 5175SOL    HW126987   3.061   0.352   3.310 -1.6684  0.1243 -1.3231
 5175SOL    HW226988   3.005   0.476   3.350 -1.1335  0.3383 -2.9930
 5176SOL     OW26989   0.003   3.632   8.870 -0.1986 -0.4834 -0.5413
 5176SOL    HW126990   4.683   3.548   8.879  0.5753 -0.8526 -0.2190
 5176SOL    HW226991   4.646   3.681   8.864 -1.8596 -3.0380  1.2982
 5177SOL     OW26992   3.247   3.041   7.155 -0.1524  0.7977  0.7662
 5177SOL    HW126993   3.338   3.071   7.156  0.4488 -0.9899 -0.8391
 5177SOL    HW226994   3.206   3.127   7.143  1.3235  1.7714  2.5605
 5178SOL     OW26995   1.047   4.320   9.522 -0.1783  0.0291  0.1858
 5178SOL    HW126996   1.050   4.381   9.448  3.7516  0.3341  0.6077
 5178SOL    HW226997   1.066   4.239   9.476 -2.1437  0.3497 -1.1986
 5179SOL     OW26998   1.382   4.464   4.557 -0.3463 -0.2922 -0.6186
 5179SOL    HW126999   1.367   4.394   4.493  3.7714 -2.1791  0.4570
 5179SOL    HW227000   1.297   4.505   4.539 -0.4339 -0.4467 -0.5618
 5180SOL     OW27001   1.432   0.797   8.645  0.4314  0.4482 -0.2965
 5180SOL    HW127002   1.342   0.827   8.652 -0.5607 -2.5470  0.0034
 5180SOL    HW227003   1.432   0.784   8.550 -0.4546 -1.5726 -0.0332
 5181SOL     OW27004   3.877   2.424   8.937 -0.4796 -0.4773  0.4074
 5181SOL    HW127005   3.815   2.450   9.005  0.9979 -1.5303  2.1588
 5181SOL    HW227006   3.831   2.427   8.853  0.9676  2.4641 -0.3020
 5182SOL     OW27007   1.142   4.481   6.804 -0.0871  0.8731  0.2763
 5182SOL    HW127008   1.237   4.485   6.789 -0.2027  2.4093 -0.0404
 5182SOL    HW227009   1.130   4.567   6.845 -2.0330  0.1929  1.1153
 5183SOL     OW27010   3.894   2.231   2.309  0.0502 -0.5624 -0.3011
 5183SOL    HW127011   3.979   2.216   2.349 -0.1530  0.0401  0.3626
 5183SOL    HW227012   3.911   2.255   2.218 -1.0982 -1.5455 -0.7681
 5184SOL     OW27013   4.667   0.342   6.584 -0.2122 -0.6920  0.1070
 5184SOL    HW127014   4.579   0.379   6.576 -0.9110 -2.3841  0.0885
 5184SOL    HW227015   4.688   0.340   6.491  0.2109  1.4711  0.1460
 5185SOL     OW27016   4.319   4.653   4.998  0.3271 -0.5524 -0.0727
 5185SOL    HW127017   4.325   0.022   4.981  2.9737 -0.6499  0.4797
 5185SOL    HW227018   4.275   4.646   5.083 -1.1245  1.2890 -0.6747
 5186SOL     OW27019   0.367   3.330   7.371 -0.1231  0.0470 -0.1396
 5186SOL    HW127020   0.346   3.424   7.370 -0.0843  0.0308 -2.1547
 5186SOL    HW227021   0.352   3.317   7.465 -1.2072 -1.5057 -0.5534
 5187SOL     OW27022   1.091   2.230   8.030 -0.9317 -0.1127 -0.1014
 5187SOL    HW127023   1.052   2.310   7.994 -2.0700  0.4730  2.3900
 5187SOL    HW227024   1.174   2.268   8.057 -1.2577  1.2942 -1.0680
 5188SOL     OW27025   1.284   2.790   0.191 -0.1897 -0.0686  0.1988
 5188SOL    HW127026   1.261   2.716   0.135 -1.2020  0.9477 -0.7612
 5188SOL    HW227027   1.377   2.773   0.198 -0.1463  0.6961  1.4606
 5189SOL     OW27028   2.807   3.769  13.487 -0.3134  0.3379  0.4279
 5189SOL    HW127029   2.755   3.850  13.488 -0.4993  0.2301 -1.0469
 5189SOL    HW227030   2.769   3.725  13.412 -1.3196  2.0461 -0.0752
 5190SOL     OW27031   2.309   4.187  10.894 -0.2413 -0.4331 -0.0758
 5190SOL    HW127032   2.245   4.244  10.851  1.2262  0.0524 -1.6124
 5190SOL    HW227033   2.262   4.144  10.966  0.9492 -2.7641 -0.6966
 5191SOL     OW27034   3.990   0.679   6.364 -0.3159 -0.0818 -0.8694
 5191SOL    HW127035   3.920   0.662   6.301 -2.6899  1.1574  1.4047
 5191SOL    HW227036   4.043   0.743   6.317 -0.8181 -0.8958 -2.5640
 5192SOL     OW27037   0.924   4.242   8.098  0.0333  0.2241  0.0978
 5192SOL    HW127038   1.003   4.189   8.112  0.0704 -0.4966 -2.7272
 5192SOL    HW227039   0.929   4.252   8.003 -1.5805  1.1264  0.1244
 5193SOL     OW27040   1.935   2.369   7.426 -0.5335 -0.6347 -0.0960
 5193SOL    HW127041   2.024   2.367   7.463 -0.0192  1.0088 -1.2569
 5193SOL    HW227042   1.939   2.439   7.361  3.3773  0.6168  1.5138
 5194SOL     OW27043   1.288   3.736   8.808 -0.6640 -0.5370  0.4102
 5194SOL    HW127044   1.312   3.657   8.856  0.3828 -0.1580  0.5238
 5194SOL    HW227045   1.204   3.760   8.847 -0.9385  0.2575 -0.6496
 5195SOL     OW27046   3.550   4.115   2.533  0.2118  0.0170  0.1182
 5195SOL    HW127047   3.465   4.160   2.533  0.2322  0.0536  0.2184
 5195SOL    HW227048   3.547   4.090   2.440 -0.8110  2.6988 -0.5851
 5196SOL     OW27049   3.404   2.635   4.312  0.0648  0.6409  0.1848
 5196SOL    HW127050   3.485   2.686   4.308  0.4687 -0.1302 -1.4961
 5196SOL    HW227051   3.370   2.668   4.229  1.8446  0.0211 -0.8102
 5197SOL     OW27052   0.261   2.935  15.368 -0.2344 -0.1393 -0.4050
 5197SOL    HW127053   0.333   2.882  15.333  0.2007 -1.7409  2.9474
 5197SOL    HW227054   0.193   2.929  15.301  0.3023 -1.8549 -0.7980
 5198SOL     OW27055   3.658   2.255  12.740 -0.0848 -0.6670 -0.3276
 5198SOL    HW127056   3.564   2.273  12.745  0.3730  1.3766  0.9929
 5198SOL    HW227057   3.652   2.177  12.685  1.0600 -1.7767  1.1427
 5199SOL     OW27058   2.780   0.887   8.398 -0.6927 -0.3477 -0.1388
 5199SOL    HW127059   2.764   0.793   8.403  1.3816 -0.8668 -3.0315
 5199SOL    HW227060   2.846   0.896   8.330 -2.2121 -0.2164 -1.6017
 5200SOL     OW27061   0.220   4.043   1.000  0.4731  0.1922  0.7655
 5200SOL    HW127062   0.281   4.053   1.073  0.3385 -0.4433  0.9714
 5200SOL    HW227063   0.142   4.008   1.045 -0.7158  0.3777 -1.1555
 5201SOL     OW27064   2.441   1.080  10.058 -0.3855 -0.0814  0.0963
 5201SOL    HW127065   2.500   1.007  10.039 -0.9394 -0.2253 -1.1126
 5201SOL    HW227066   2.397   1.088   9.973  1.5960  1.2166 -0.7989
 5202SOL     OW27067   1.164   1.980   7.333  0.4282 -0.5043 -0.1869
 5202SOL    HW127068   1.132   2.011   7.249 -0.1958 -1.8353 -0.4418
 5202SOL    HW227069   1.123   2.043   7.392 -0.0876  1.8486 -3.0759
 5203SOL     OW27070   0.405   3.725   7.334 -0.2608  0.1805 -0.2314
 5203SOL    HW127071   0.452   3.807   7.347  1.8771 -1.0465 -0.3251
 5203SOL    HW227072   0.391   3.709   7.240  0.0038 -2.9469  0.2409
 5204SOL     OW27073   1.148   3.537   7.261 -0.8276 -0.1037 -0.1780
 5204SOL    HW127074   1.150   3.457   7.209  0.2792 -0.5595  0.5756
 5204SOL    HW227075   1.204   3.601   7.217 -0.4615 -0.6669 -0.5317
 5205SOL     OW27076   0.895   2.065  12.537  0.3266 -0.5628 -0.2814
 5205SOL    HW127077   0.891   2.102  12.448  0.0970 -1.8662 -0.8110
 5205SOL    HW227078   0.807   2.030  12.546 -0.0920  0.5531 -0.0746
 5206SOL     OW27079   1.134   1.121  15.418  0.0225 -0.1117 -0.1014
 5206SOL    HW127080   1.074   1.071  15.363 -0.9769  2.7206 -1.5983
 5206SOL    HW227081   1.209   1.095  15.365  0.1464  0.1692 -0.0657
 5207SOL     OW27082   1.926   3.580   7.562  0.3427  0.4891  0.7241
 5207SOL    HW127083   1.951   3.647   7.498  0.0224  0.3537  0.4572
 5207SOL    HW227084   1.843   3.543   7.532  0.2959  0.6106  0.7020
 5208SOL     OW27085   3.165   4.151   9.937 -0.2565  0.3555  0.3431
 5208SOL    HW127086   3.177   4.056   9.941 -1.2337  0.2355  0.2208
 5208SOL    HW227087   3.224   4.176  10.008  0.5798 -0.0025 -0.2197
 5209SOL     OW27088   0.717   4.030   2.657  0.2565 -0.3810  0.6922
 5209SOL    HW127089   0.670   4.113   2.650  0.5748 -0.3124 -0.5926
 5209SOL    HW227090   0.805   4.066   2.646 -0.6868  1.8479  0.6503
 5210SOL     OW27091   3.238   3.735   9.528 -0.5963 -0.7535  0.3323
 5210SOL    HW127092   3.183   3.769   9.458  1.5070  1.7349 -0.0954
 5210SOL    HW227093   3.293   3.814   9.526 -2.2332  0.4297  1.6729
 5211SOL     OW27094   2.408   3.139   4.980  0.3964 -0.3682  0.3297
 5211SOL    HW127095   2.427   3.129   5.073  1.7543  0.4271  0.1411
 5211SOL    HW227096   2.466   3.213   4.960 -1.2969  0.6725 -0.7738
 5212SOL     OW27097   3.399   2.678   4.801  0.1297 -0.7347 -1.0344
 5212SOL    HW127098   3.371   2.609   4.862 -3.1152 -0.9555 -2.8107
 5212SOL    HW227099   3.341   2.681   4.725  0.2613 -1.8149 -1.1725
 5213SOL     OW27100   0.898   1.934   6.852 -0.1906  0.0353  0.4639
 5213SOL    HW127101   0.930   1.906   6.766  0.4869  0.2320  0.6531
 5213SOL    HW227102   0.958   1.884   6.906 -1.9427 -2.5856  0.0179
 5214SOL     OW27103   3.677   1.112  13.250  0.5982 -0.0578  0.0392
 5214SOL    HW127104   3.594   1.065  13.240  0.4949  0.5940 -2.2814
 5214SOL    HW227105   3.666   1.199  13.212 -0.9676 -0.6037 -0.7865
 5215SOL     OW27106   2.460   1.315   8.671  0.4063 -0.5133  0.1384
 5215SOL    HW127107   2.409   1.234   8.666  0.0308 -0.3138  0.7751
 5215SOL    HW227108   2.436   1.351   8.757  0.0224  0.7456 -0.4896
 5216SOL     OW27109   3.504   2.621   9.985  0.0235 -0.4191  1.0650
 5216SOL    HW127110   3.594   2.631   9.954 -0.1854  0.4493  0.7403
 5216SOL    HW227111   3.460   2.597   9.903  0.8902 -2.7699  1.2832
 5217SOL     OW27112   0.769   0.778   7.285 -0.1101 -0.0722  0.4956
 5217SOL    HW127113   0.853   0.820   7.267 -0.4130  0.4998  0.4056
 5217SOL    HW227114   0.727   0.771   7.199  1.0084 -1.3774  0.0671
 5218SOL     OW27115   3.747   2.485   7.267 -0.0816  0.0562  0.3438
 5218SOL    HW127116   3.661   2.519   7.293  0.3901  1.9701 -0.5700
 5218SOL    HW227117   3.760   2.500   7.173  1.2985 -0.4532  0.4459
 5219SOL     OW27118   1.807   3.972  11.645 -0.1911 -0.3330  0.5965
 5219SOL    HW127119   1.846   4.035  11.584 -0.4562  1.1438  1.9620
 5219SOL    HW227120   1.844   4.013  11.723 -0.8877  2.4315 -0.5429
 5220SOL     OW27121   0.198   4.721  12.152  0.4552 -0.3964  0.0786
 5220SOL    HW127122   0.140   0.046  12.209  0.3549 -0.0746 -0.3088
 5220SOL    HW227123   0.272   0.056  12.141 -0.1097 -0.5811 -4.5502
 5221SOL     OW27124   4.569   0.584   4.994 -0.6290  0.3549  0.0714
 5221SOL    HW127125   4.606   0.638   5.064  1.0902 -0.8781  0.1327
 5221SOL    HW227126   4.503   0.530   5.040 -1.2901  1.1401  0.0418
 5222SOL     OW27127   0.227   2.754   7.101  0.5499 -0.3155 -0.3809
 5222SOL    HW127128   0.302   2.801   7.065  0.7094 -0.4583 -0.2331
 5222SOL    HW227129   0.154   2.762   7.040 -0.4577 -0.7311  0.7642
 5223SOL     OW27130   4.118   1.215   2.082 -0.6584 -0.3517 -0.9061
 5223SOL    HW127131   4.090   1.251   1.998 -0.3463 -0.2187 -0.9559
 5223SOL    HW227132   4.055   1.145   2.097 -1.8508  0.5227 -1.8976
 5224SOL     OW27133   0.975   0.944  15.254 -0.2628  0.1253 -0.0006
 5224SOL    HW127134   0.953   1.011  15.189 -0.5040 -1.2396 -1.3454
 5224SOL    HW227135   0.901   0.886  15.236  1.7004 -1.2634 -3.8464
 5225SOL     OW27136   3.642   2.854  11.295  0.7349  0.3495  0.8221
 5225SOL    HW127137   3.612   2.821  11.379  4.0797  0.9672  2.2317
 5225SOL    HW227138   3.582   2.929  11.291  0.5415  0.2842  2.5828
 5226SOL     OW27139   2.598   3.878  11.242 -1.0224 -0.0800  0.2297
 5226SOL    HW127140   2.658   3.805  11.256 -2.8652 -1.6151  0.0166
 5226SOL    HW227141   2.606   3.899  11.149 -3.0071 -0.4082  0.0013
 5227SOL     OW27142   4.440   3.167   2.312 -0.4652 -0.1211  1.0309
 5227SOL    HW127143   4.420   3.211   2.395  2.8221  2.5535  0.3950
 5227SOL    HW227144   4.427   3.075   2.336 -0.1165  0.2985  2.8462
 5228SOL     OW27145   0.367   2.479  14.841  0.3236  0.0637 -0.2625
 5228SOL    HW127146   0.373   2.568  14.809  1.7189  0.2265  0.4684
 5228SOL    HW227147   0.359   2.430  14.759  0.6148  1.7800 -1.2960
 5229SOL     OW27148   3.082   2.282   6.560 -0.8202 -0.5123  0.1712
 5229SOL    HW127149   3.159   2.281   6.503 -2.5286  0.5326 -2.1769
 5229SOL    HW227150   3.018   2.300   6.491 -1.0261  1.9554  0.9757
 5230SOL     OW27151   2.370   0.037   0.844 -0.3161  0.0151 -0.0669
 5230SOL    HW127152   2.454   4.716   0.841 -0.2095  0.2071 -0.0445
 5230SOL    HW227153   2.400   0.128   0.848  0.1401 -0.1318 -0.1562
 5231SOL     OW27154   2.996   2.977   8.552  0.0459 -0.0012 -0.1252
 5231SOL    HW127155   3.090   2.981   8.572  0.3854  0.9314 -1.9945
 5231SOL    HW227156   2.994   2.901   8.494 -2.8019  0.4783 -0.6186
 5232SOL     OW27157   2.630   0.972   6.429 -0.0394  0.2895  0.0413
 5232SOL    HW127158   2.685   0.926   6.366  1.3730  2.0336  0.0006
 5232SOL    HW227159   2.561   1.010   6.373  0.9279 -0.9138 -1.9785
 5233SOL     OW27160   2.921   3.751   0.421 -0.1132 -0.4579  1.1008
 5233SOL    HW127161   2.966   3.742   0.505  1.4907  3.1422  0.6137
 5233SOL    HW227162   2.836   3.710   0.439 -0.4378 -1.2439 -2.3889
 5234SOL     OW27163   1.675   3.317  15.399 -0.3575 -0.0777  0.6331
 5234SOL    HW127164   1.755   3.264  15.406 -0.4419 -0.5173 -1.8308
 5234SOL    HW227165   1.716   3.403  15.408 -1.2178  0.3479  0.4586
 5235SOL     OW27166   2.062   4.109   1.559  0.1968 -0.3898  0.5327
 5235SOL    HW127167   2.002   4.105   1.484  1.6103  1.8249 -0.7249
 5235SOL    HW227168   2.124   4.040   1.536  3.0411  1.6780  1.9679
 5236SOL     OW27169   0.608   0.321   6.976 -0.2529 -0.0900 -0.0561
 5236SOL    HW127170   0.609   0.284   6.888 -1.3605  0.8974 -0.4928
 5236SOL    HW227171   0.689   0.370   6.987 -0.1261 -0.0955 -0.9256
 5237SOL     OW27172   3.181   3.280   1.618  0.1016  0.2949 -0.0576
 5237SOL    HW127173   3.093   3.315   1.627 -0.2201 -0.7719  1.0094
 5237SOL    HW227174   3.163   3.199   1.570 -0.3914  0.3402  0.0567
 5238SOL     OW27175   0.461   0.306   8.364  0.2170 -0.4845  0.4335
 5238SOL    HW127176   0.553   0.296   8.389 -0.4664 -0.3712  2.9588
 5238SOL    HW227177   0.413   0.228   8.392  1.9520 -1.2117  1.3998
 5239SOL     OW27178   3.662   1.800  11.218  0.5517 -0.0500 -0.3999
 5239SOL    HW127179   3.580   1.846  11.204  0.2741  0.0883  1.6005
 5239SOL    HW227180   3.718   1.824  11.144  1.3428  1.4921  0.7092
 5240SOL     OW27181   3.017   2.334   7.110  0.4697 -0.3187 -0.4100
 5240SOL    HW127182   3.081   2.313   7.042  0.4781 -0.0854 -0.4747
 5240SOL    HW227183   3.064   2.324   7.193  0.3969  1.3212 -0.1678
 5241SOL     OW27184   3.800   1.336   5.710 -0.5892 -0.3808 -0.1508
 5241SOL    HW127185   3.893   1.355   5.697 -0.4925  0.5634  1.8304
 5241SOL    HW227186   3.789   1.243   5.727 -1.5046  0.2589  2.8337
 5242SOL     OW27187   4.407   2.651   7.132 -0.0078 -0.3279 -0.8903
 5242SOL    HW127188   4.424   2.700   7.051 -0.4680  1.7931  0.3061
 5242SOL    HW227189   4.373   2.725   7.182 -0.0764 -1.1342  0.2489
 5243SOL     OW27190   2.644   4.053   8.978  0.1302 -0.2059  0.4678
 5243SOL    HW127191   2.728   4.075   9.020 -0.3750  2.3753  0.1013
 5243SOL    HW227192   2.593   4.132   8.991  0.6682 -0.0268  1.4747
 5244SOL     OW27193   3.362   4.568   6.280 -1.0476  0.1459 -0.3790
 5244SOL    HW127194   3.433   4.507   6.260 -0.2041  0.9624  0.1197
 5244SOL    HW227195   3.345   4.548   6.372  1.0714 -2.5658 -0.5753
 5245SOL     OW27196   0.085   0.051   5.201  0.1838  0.3151  0.2227
 5245SOL    HW127197   0.072   0.022   5.291  1.3513  2.0846  0.9592
 5245SOL    HW227198   0.056   4.706   5.142  0.4304  1.0493 -0.7679
 5246SOL     OW27199   1.524   0.293  13.618  0.3891 -0.3931  1.0545
 5246SOL    HW127200   1.518   0.279  13.713  0.7014  0.0398  1.1357
 5246SOL    HW227201   1.618   0.308  13.613  0.2884 -0.0244  0.2831
 5247SOL     OW27202   1.343   4.010  14.205 -0.0314  0.5238 -0.6203
 5247SOL    HW127203   1.375   4.020  14.295  1.3922  0.1803 -1.0943
 5247SOL    HW227204   1.381   3.924  14.186  2.2677  1.3769  0.0546
 5248SOL     OW27205   4.683   2.405   7.160 -0.2553  0.5964  0.1967
 5248SOL    HW127206   0.035   2.367   7.117 -0.7182  0.0987 -0.1786
 5248SOL    HW227207   4.707   2.496   7.142 -0.2194  0.0155 -2.6866
 5249SOL     OW27208   3.384   2.613   1.826  0.6787 -0.8867  0.0795
 5249SOL    HW127209   3.351   2.523   1.817  2.7854 -1.4910 -1.6289
 5249SOL    HW227210   3.470   2.602   1.784 -0.9051 -0.9576 -3.1252
 5250SOL     OW27211   3.520   4.705   3.167  0.3823 -0.4662  0.0776
 5250SOL    HW127212   3.543   0.053   3.110 -1.9691  0.1810 -0.0423
 5250SOL    HW227213   3.435   0.020   3.185 -0.1603 -0.5958 -2.1671
 5251SOL     OW27214   3.338   2.365  16.464  0.5215  0.0305 -0.5431
 5251SOL    HW127215   3.271   2.407  16.517  1.0308 -2.0244  1.7119
 5251SOL    HW227216   3.329   2.274  16.490  1.8922  0.1922  0.4911
 5252SOL     OW27217   1.208   0.495   5.357  0.1144 -0.1811 -0.2603
 5252SOL    HW127218   1.147   0.568   5.371 -0.9486 -0.7981 -1.6033
 5252SOL    HW227219   1.178   0.430   5.420  2.1489 -1.0215 -0.1779
 5253SOL     OW27220   0.992   1.605   3.614 -0.0635 -0.2826  0.2438
 5253SOL    HW127221   1.033   1.621   3.529 -0.9646 -0.6069 -0.2520
 5253SOL    HW227222   0.959   1.516   3.599  0.2806 -0.2549 -0.6567
 5254SOL     OW27223   1.714   2.714   8.948  0.1203  0.5800 -0.1019
 5254SOL    HW127224   1.804   2.683   8.939 -0.3943 -1.3677  1.3798
 5254SOL    HW227225   1.703   2.691   9.040  0.2256  1.6766  0.1872
 5255SOL     OW27226   2.298   0.100   6.856  0.5700  0.1618 -0.3161
 5255SOL    HW127227   2.332   0.116   6.768 -1.6404  2.9466 -0.6373
 5255SOL    HW227228   2.259   0.179   6.893 -0.5453 -0.4431 -0.2184
 5256SOL     OW27229   1.657   2.155   5.940  0.2071 -0.0710  0.3458
 5256SOL    HW127230   1.606   2.075   5.953  0.1563  0.0737  1.0028
 5256SOL    HW227231   1.676   2.180   6.030  1.0789  1.5201 -0.2753
 5257SOL     OW27232   1.608   0.732   9.336 -0.4400  0.3774  0.4304
 5257SOL    HW127233   1.672   0.665   9.361 -0.2724  1.0806  1.8852
 5257SOL    HW227234   1.553   0.682   9.276  0.0446  0.8017 -0.3548
 5258SOL     OW27235   3.834   2.432  12.857 -0.2691 -0.2591  0.1886
 5258SOL    HW127236   3.797   2.519  12.865  1.3520  0.6286 -2.0233
 5258SOL    HW227237   3.770   2.389  12.801  0.0852  0.9987 -1.1617
 5259SOL     OW27238   3.967   1.916   2.628  0.0581  0.3885 -0.3803
 5259SOL    HW127239   4.062   1.925   2.629  0.1420 -0.6207  0.4835
 5259SOL    HW227240   3.945   1.942   2.538 -0.6736 -0.1242 -0.3545
 5260SOL     OW27241   2.779   1.392   8.890  0.3601  0.2350 -0.6385
 5260SOL    HW127242   2.696   1.412   8.933  1.2844  0.9382  0.8372
 5260SOL    HW227243   2.817   1.351   8.967  0.0452 -2.1149 -1.7286
 5261SOL     OW27244   3.285   3.680   4.472 -0.7247  0.0103 -0.6716
 5261SOL    HW127245   3.379   3.699   4.468 -0.5260 -0.6197  1.0013
 5261SOL    HW227246   3.275   3.592   4.509 -0.3871  1.3996  2.6784
 5262SOL     OW27247   2.119   2.208   3.439  0.3691  0.4324  0.2005
 5262SOL    HW127248   2.030   2.183   3.462  0.5113 -1.4921 -1.3297
 5262SOL    HW227249   2.138   2.288   3.488  3.8060 -0.9017  1.0081
 5263SOL     OW27250   1.573   1.831   5.423 -0.4376 -0.1879  0.0246
 5263SOL    HW127251   1.532   1.861   5.342 -0.5117 -1.8890 -0.5659
 5263SOL    HW227252   1.621   1.907   5.454  0.8977 -1.5710  1.3664
 5264SOL     OW27253   1.118   3.295   8.135 -0.1299 -0.0950  0.1421
 5264SOL    HW127254   1.204   3.318   8.099 -0.9201  0.2968 -1.5056
 5264SOL    HW227255   1.092   3.362   8.198 -1.5785  1.3406 -1.9801
 5265SOL     OW27256   3.017   3.934   3.965  0.4688 -0.3840  0.3968
 5265SOL    HW127257   3.012   3.952   3.871 -0.3177  1.8318  0.8703
 5265SOL    HW227258   3.013   4.027   3.986 -1.6246 -0.6894  1.2811
 5266SOL     OW27259   0.387   3.560  11.037 -0.0060 -0.3363  0.2001
 5266SOL    HW127260   0.475   3.523  11.040  1.1103  2.3367  1.3097
 5266SOL    HW227261   0.398   3.632  10.975  1.5074 -0.6986  0.0468
 5267SOL     OW27262   3.433   3.779   0.127 -0.1518  0.3167 -0.2659
 5267SOL    HW127263   3.393   3.828   0.055 -0.5827 -0.0569 -0.2812
 5267SOL    HW227264   3.489   3.846   0.166 -3.2744  1.1870  2.7024
 5268SOL     OW27265   1.742   0.588  17.687 -0.6288  0.7809 -0.2449
 5268SOL    HW127266   1.748   0.533  17.609  1.4833  1.4630 -0.5852
 5268SOL    HW227267   1.665   0.643  17.671 -1.1025 -0.1225 -1.0630
 5269SOL     OW27268   2.614   4.562  11.247  0.1029  0.4279 -0.5609
 5269SOL    HW127269   2.577   4.649  11.260 -1.6021 -0.2680 -0.8082
 5269SOL    HW227270   2.611   4.533  11.338  0.8081 -0.9197 -0.9674
 5270SOL     OW27271   4.369   3.670   3.005  0.5742 -0.3809 -0.1258
 5270SOL    HW127272   4.282   3.657   3.044 -0.1607  0.3379 -1.5206
 5270SOL    HW227273   4.358   3.645   2.914  0.6226  0.2646 -0.3085
 5271SOL     OW27274   1.951   0.005   1.409 -0.4744  0.0489  0.6674
 5271SOL    HW127275   1.965   0.047   1.494 -0.7637  1.9120 -0.1954
 5271SOL    HW227276   2.044   0.011   1.385 -0.3259  0.9047  1.4537
 5272SOL     OW27277   1.284   2.599   4.556  0.1057  0.1220  0.1804
 5272SOL    HW127278   1.215   2.628   4.496 -0.7773 -0.7941  0.7462
 5272SOL    HW227279   1.338   2.677   4.565 -0.4167  0.6211 -0.9951
 5273SOL     OW27280   3.323   0.518   7.685  0.4766  0.4948 -0.6364
 5273SOL    HW127281   3.384   0.445   7.676  0.2290 -0.0475  1.9647
 5273SOL    HW227282   3.251   0.482   7.736  1.9993  0.3999  1.4878
 5274SOL     OW27283   2.658   2.525   8.212 -0.3337 -0.0953 -0.3413
 5274SOL    HW127284   2.673   2.620   8.214  1.0442 -0.2940 -1.3171
 5274SOL    HW227285   2.581   2.525   8.155 -0.0216  0.9738 -0.7550
 5275SOL     OW27286   3.259   4.674   9.955  0.3000  0.0156 -0.4604
 5275SOL    HW127287   3.179   4.723   9.940  2.0657  3.0966  0.2013
 5275SOL    HW227288   3.227   4.589   9.926  2.7479 -1.3509  0.8090
 5276SOL     OW27289   1.238   3.822   1.701 -0.2819  0.0170 -0.0277
 5276SOL    HW127290   1.199   3.898   1.657 -0.2890 -0.2402 -0.4565
 5276SOL    HW227291   1.199   3.843   1.786 -2.5968 -3.1087 -0.3351
 5277SOL     OW27292   3.326   2.983   2.406 -0.0540 -0.2861  0.2401
 5277SOL    HW127293   3.321   3.001   2.312 -1.6627  0.7371  0.5184
 5277SOL    HW227294   3.337   2.890   2.385 -3.0437 -0.1558 -2.0100
 5278SOL     OW27295   3.953   0.893   3.116  0.1882  0.1284  0.2129
 5278SOL    HW127296   3.950   0.910   3.210 -1.1265  0.8160  0.0526
 5278SOL    HW227297   4.034   0.841   3.109  0.6483  0.8194  0.3484
 5279SOL     OW27298   4.470   1.106   1.491  0.0265 -0.2202 -0.1696
 5279SOL    HW127299   4.390   1.053   1.498 -0.2971  0.2982  0.0531
 5279SOL    HW227300   4.469   1.140   1.581  0.3318 -2.0876  0.5430
 5280SOL     OW27301   3.296   4.339  16.026 -0.0898  0.4467  0.1689
 5280SOL    HW127302   3.350   4.331  15.947  0.7822  3.4403  0.4671
 5280SOL    HW227303   3.239   4.263  16.013  0.1028 -0.0630  2.3013
 5281SOL     OW27304   2.865   1.625   2.587 -0.3897 -0.2597  0.0876
 5281SOL    HW127305   2.929   1.625   2.516 -0.3612 -2.1906  0.0902
 5281SOL    HW227306   2.821   1.703   2.553 -1.1529 -0.2659  1.0311
 5282SOL     OW27307   0.959   0.443   5.942  0.8240 -0.2654 -0.3756
 5282SOL    HW127308   0.889   0.475   5.886 -0.2302  1.1896  1.7673
 5282SOL    HW227309   0.953   0.348   5.946  1.5297 -0.3769 -1.8873
 5283SOL     OW27310   4.413   3.293   6.112  0.0794 -0.1488 -0.2030
 5283SOL    HW127311   4.340   3.288   6.051 -0.0845 -2.4479  0.1874
 5283SOL    HW227312   4.475   3.242   6.061  0.5682  0.7770 -0.5310
 5284SOL     OW27313   1.182   0.743   6.604 -0.0296 -0.0729 -0.0927
 5284SOL    HW127314   1.248   0.684   6.641 -1.0711 -1.3306 -0.2625
 5284SOL    HW227315   1.148   0.704   6.524 -1.3014  1.0048 -0.0801
 5285SOL     OW27316   0.478   0.276   2.428  0.4306  0.1812 -0.4189
 5285SOL    HW127317   0.437   0.355   2.395 -2.1313 -2.0539 -2.5744
 5285SOL    HW227318   0.433   0.258   2.510  0.4255 -1.7087 -0.8207
 5286SOL     OW27319   1.281   1.629   7.068 -0.5445 -0.3366 -0.3765
 5286SOL    HW127320   1.332   1.567   7.015 -1.0118 -2.7170  1.9841
 5286SOL    HW227321   1.301   1.577   7.146  0.4987 -0.9837 -1.0683
 5287SOL     OW27322   0.598   1.052   4.244  0.1205 -0.0426  0.0244
 5287SOL    HW127323   0.683   1.069   4.286  0.8489 -0.9722 -1.0598
 5287SOL    HW227324   0.629   1.054   4.153  2.0318  1.2743  0.6807
 5288SOL     OW27325   2.383   1.180   3.216 -0.0653 -0.0424 -0.6896
 5288SOL    HW127326   2.311   1.124   3.187  1.6985 -3.1969  1.0605
 5288SOL    HW227327   2.375   1.245   3.146 -1.7890  1.1247  0.5900
 5289SOL     OW27328   3.105   3.236  14.523 -0.4986  0.0209 -0.0914
 5289SOL    HW127329   3.041   3.281  14.467  1.1560  0.1749 -1.8499
 5289SOL    HW227330   3.154   3.185  14.459  1.3356  1.3346  0.2509
 5290SOL     OW27331   4.162   4.252   9.014 -0.1405 -0.2782  0.8665
 5290SOL    HW127332   4.196   4.325   9.066 -0.1204 -1.1758  2.1103
 5290SOL    HW227333   4.226   4.263   8.944 -1.3637 -1.2002 -0.3956
 5291SOL     OW27334   2.766   2.569  11.719  0.1249  0.3793  0.4279
 5291SOL    HW127335   2.685   2.604  11.756 -2.1708 -2.3328 -1.9898
 5291SOL    HW227336   2.826   2.585  11.791  0.1264 -1.9808  0.9242
 5292SOL     OW27337   1.839   1.030  10.702  0.1377 -0.5124 -0.0417
 5292SOL    HW127338   1.912   0.973  10.727  1.5792  1.1319 -0.4818
 5292SOL    HW227339   1.805   1.065  10.784  2.1896  1.1315  0.1002
 5293SOL     OW27340   4.204   3.260   4.985  0.2151 -0.2470 -0.4406
 5293SOL    HW127341   4.227   3.219   4.902  1.2484 -0.6185  0.0266
 5293SOL    HW227342   4.167   3.340   4.947 -0.8458 -1.9593 -3.0045
 5294SOL     OW27343   1.016   3.595   6.834 -0.6326 -0.5377  0.1780
 5294SOL    HW127344   1.059   3.529   6.888  1.3434  0.5425 -0.0714
 5294SOL    HW227345   1.010   3.673   6.891 -0.8622  2.1138 -3.4949
 5295SOL     OW27346   3.185   2.721   8.591 -0.4873  0.6109 -0.3249
 5295SOL    HW127347   3.117   2.654   8.605 -0.5438  0.5892 -0.7082
 5295SOL    HW227348   3.200   2.699   8.499 -2.0144  1.7878 -0.8706
 5296SOL     OW27349   1.696   0.174   6.452 -0.0995  0.1520 -0.8836
 5296SOL    HW127350   1.611   0.135   6.436 -0.2056 -0.5514  1.4464
 5296SOL    HW227351   1.676   0.244   6.390 -1.4439  0.3798 -0.1787
 5297SOL     OW27352   1.474   3.316   7.408  0.6138 -0.0566  0.5715
 5297SOL    HW127353   1.439   3.395   7.449  1.3538  1.8061 -2.3432
 5297SOL    HW227354   1.430   3.312   7.323 -0.1560  1.0481  0.9219
 5298SOL     OW27355   0.600   4.282  11.423 -0.2082  0.2151  0.1449
 5298SOL    HW127356   0.579   4.331  11.343 -1.7988 -0.0015  0.4215
 5298SOL    HW227357   0.652   4.348  11.469  0.1791  0.4751 -0.6592
 5299SOL     OW27358   1.274   1.616   2.535  0.1833  0.0822  0.2034
 5299SOL    HW127359   1.201   1.560   2.562 -1.2104  2.0383  0.5159
 5299SOL    HW227360   1.248   1.697   2.491 -2.4925 -1.4496 -1.0664
 5300SOL     OW27361   0.187   0.532   8.423 -0.2671  0.2042 -0.2580
 5300SOL    HW127362   0.274   0.570   8.436  0.5414 -1.4306 -0.8930
 5300SOL    HW227363   0.141   0.604   8.378  0.3859  0.0036 -1.2526
 5301SOL     OW27364   2.988   3.224   6.331  0.1795 -0.5312  0.0017
 5301SOL    HW127365   2.975   3.236   6.425 -0.2286  1.1515 -0.2779
 5301SOL    HW227366   2.975   3.308   6.287  0.4500 -1.5627 -2.0653
 5302SOL     OW27367   0.906   1.639  12.309 -0.1436  0.0568  0.0536
 5302SOL    HW127368   0.881   1.663  12.219 -1.0409 -1.6541 -0.1412
 5302SOL    HW227369   0.833   1.680  12.354 -0.0163 -0.8419  1.0508
 5303SOL     OW27370   1.118   0.172   0.026  0.1821  0.1176 -0.0495
 5303SOL    HW127371   1.145   0.159   0.117 -0.5898 -2.1949 -0.1360
 5303SOL    HW227372   1.167   0.251   0.004  1.2588 -0.7291 -0.6852
 5304SOL     OW27373   0.795   3.008  12.011 -0.1117  0.0515 -0.0138
 5304SOL    HW127374   0.860   3.068  11.975  0.0255  1.4533  2.6271
 5304SOL    HW227375   0.852   2.943  12.053 -1.0808 -2.4312 -2.5102
 5305SOL     OW27376   2.242   4.102  15.845 -0.1611 -0.4483  0.1458
 5305SOL    HW127377   2.199   4.108  15.760 -0.0159 -1.1877  0.0158
 5305SOL    HW227378   2.278   4.014  15.833  0.1188 -0.1109 -1.4264
 5306SOL     OW27379   1.889   3.785   2.726  0.6355 -0.4720  0.5139
 5306SOL    HW127380   1.928   3.838   2.796 -1.6525 -1.2243  2.3768
 5306SOL    HW227381   1.956   3.719   2.707 -0.6949 -1.2478 -1.5032
 5307SOL     OW27382   4.580   4.275   8.133 -1.0105 -0.2948  0.0416
 5307SOL    HW127383   4.608   4.232   8.052  0.1027  0.1947  0.1602
 5307SOL    HW227384   4.506   4.326   8.101 -0.7769 -0.1612 -0.2915
 5308SOL     OW27385   0.867   0.349  12.826 -0.0550  0.3846 -0.1061
 5308SOL    HW127386   0.900   0.317  12.742  2.0331  1.3243  0.3446
 5308SOL    HW227387   0.898   0.282  12.886  0.0878  0.6081  0.0735
 5309SOL     OW27388   3.696   2.381   9.931 -0.3322  0.2409 -0.3318
 5309SOL    HW127389   3.619   2.326   9.914 -1.4148  2.0888 -1.2836
 5309SOL    HW227390   3.697   2.384  10.027  0.3324  1.6655 -0.3942
 5310SOL     OW27391   0.509   3.871   7.607  0.2073 -0.5316 -0.0792
 5310SOL    HW127392   0.547   3.897   7.523  1.0694 -0.3681  0.3583
 5310SOL    HW227393   0.488   3.782   7.582  1.3785 -1.0397  0.7414
 5311SOL     OW27394   0.791   3.337   1.147  0.1549 -0.4936 -0.5110
 5311SOL    HW127395   0.867   3.311   1.200 -0.0344  0.2893  0.1350
 5311SOL    HW227396   0.755   3.395   1.214 -0.6003  0.0463 -1.3924
 5312SOL     OW27397   3.274   2.394  12.261  0.1907 -0.0119 -0.3855
 5312SOL    HW127398   3.366   2.418  12.270  0.2957  0.7160 -3.4403
 5312SOL    HW227399   3.232   2.408  12.346 -0.4650 -0.3723 -0.6459
 5313SOL     OW27400   2.730   1.224   2.139 -0.0597 -0.0733  0.4167
 5313SOL    HW127401   2.759   1.190   2.054  0.8691  1.9793 -0.0891
 5313SOL    HW227402   2.812   1.253   2.180  0.6966 -1.9378  0.1986
 5314SOL     OW27403   4.132   4.174   2.328  0.1172 -0.7530 -0.8062
 5314SOL    HW127404   4.117   4.146   2.238  0.2846 -0.9873 -0.7640
 5314SOL    HW227405   4.097   4.263   2.330 -0.6286 -1.0724  0.5450
 5315SOL     OW27406   0.509   2.586   5.899 -0.2692  0.0832  0.1102
 5315SOL    HW127407   0.479   2.536   5.974 -0.2895 -1.2324 -0.7650
 5315SOL    HW227408   0.592   2.623   5.930  1.0394 -1.5837 -1.3844
 5316SOL     OW27409   4.381   0.432  11.256 -0.2793  0.0682 -0.1228
 5316SOL    HW127410   4.391   0.346  11.297  0.8297 -1.0151 -2.6497
 5316SOL    HW227411   4.367   0.495  11.327  2.1762 -2.2076  2.3911
 5317SOL     OW27412   2.339   4.661   1.216  0.9447 -0.5188 -0.2175
 5317SOL    HW127413   2.430   4.688   1.227  0.3268  2.0081 -1.4994
 5317SOL    HW227414   2.306   4.664   1.306 -1.8222  1.1232 -1.2901
 5318SOL     OW27415   1.630   3.703   2.667 -0.4361 -0.0666  0.0116
 5318SOL    HW127416   1.705   3.744   2.708  0.7666 -2.1354 -0.1159
 5318SOL    HW227417   1.674   3.693   2.582 -2.5705  1.4567 -1.2767
 5319SOL     OW27418   1.624   1.760  13.340  0.2540 -0.2279 -0.3606
 5319SOL    HW127419   1.641   1.855  13.339 -1.8691  0.1425 -2.2988
 5319SOL    HW227420   1.650   1.733  13.253 -1.0011 -1.5024 -0.3391
 5320SOL     OW27421   1.907   1.775   6.486  0.6315  0.2601  0.8469
 5320SOL    HW127422   1.854   1.710   6.439  0.5737  0.7399  0.2551
 5320SOL    HW227423   1.841   1.803   6.550  0.4145  0.5617  0.4908
 5321SOL     OW27424   1.326   2.135   2.797  0.5138  0.0162 -0.5962
 5321SOL    HW127425   1.381   2.137   2.876 -0.0850 -0.2242 -0.1721
 5321SOL    HW227426   1.399   2.144   2.736 -1.2607 -0.0778 -2.7283
 5322SOL     OW27427   1.639   4.690   7.716  0.3803 -0.4745 -0.4060
 5322SOL    HW127428   1.707   0.024   7.750 -0.6131 -0.8350  2.2061
 5322SOL    HW227429   1.671   4.602   7.735  0.7420  0.2225  2.2815
 5323SOL     OW27430   4.546   3.400   3.481 -0.5208  0.1406 -0.3195
 5323SOL    HW127431   4.472   3.389   3.421 -2.8625  0.9615  2.4393
 5323SOL    HW227432   4.604   3.331   3.448  0.6043  0.1151  1.6917
 5324SOL     OW27433   0.145   4.084   3.456  0.3006  0.2925 -0.1173
 5324SOL    HW127434   0.057   4.073   3.419 -0.6374  0.5438  2.0133
 5324SOL    HW227435   0.128   4.134   3.536  1.9790  0.4288  0.1489
 5325SOL     OW27436   2.123   3.932  12.094 -0.3963  0.0199  0.2486
 5325SOL    HW127437   2.042   3.888  12.120  0.8383 -1.7956  1.0135
 5325SOL    HW227438   2.187   3.864  12.073  0.5384  0.2828  2.2055
 5326SOL     OW27439   4.546   1.685   8.616  0.2214 -0.1702 -0.1478
 5326SOL    HW127440   4.550   1.690   8.712  1.0590  1.5192 -0.2613
 5326SOL    HW227441   4.578   1.773   8.596  0.1871  0.1519  1.2160
 5327SOL     OW27442   4.394   4.494   0.349 -0.3395 -0.4333 -0.1535
 5327SOL    HW127443   4.351   4.580   0.348 -0.3076 -0.4220 -0.5422
 5327SOL    HW227444   4.361   4.458   0.267 -0.8802  1.2772 -0.7012
 5328SOL     OW27445   4.547   0.673  16.525  0.1199  0.1067 -0.1397
 5328SOL    HW127446   4.487   0.715  16.587 -0.2156  0.7639 -0.9147
 5328SOL    HW227447   4.538   0.581  16.551  1.4628 -0.1501 -0.5782
 5329SOL     OW27448   1.947   3.645   1.133  0.0475 -0.3511 -0.0548
 5329SOL    HW127449   2.029   3.660   1.179  1.6632 -2.2527 -2.3348
 5329SOL    HW227450   1.940   3.714   1.067 -0.4680  0.5638  0.9472
 5330SOL     OW27451   4.700   1.171   3.464  0.0357  0.3500  0.1153
 5330SOL    HW127452   4.676   1.188   3.373 -0.5527 -0.4362  0.1284
 5330SOL    HW227453   4.615   1.132   3.481 -0.1281  0.6012 -0.1353
 5331SOL     OW27454   1.437   3.170   0.621 -0.2459  0.3873 -0.2104
 5331SOL    HW127455   1.343   3.165   0.642 -0.7333  4.2119 -1.5837
 5331SOL    HW227456   1.453   3.263   0.607  3.3003 -0.4799 -2.0385
 5332SOL     OW27457   1.803   3.579  14.601 -0.4325  0.2668 -0.4604
 5332SOL    HW127458   1.818   3.516  14.531  1.4146 -0.7055  0.8301
 5332SOL    HW227459   1.800   3.661  14.552  1.3189  1.0496  0.7549
 5333SOL     OW27460   1.689   1.020  13.526 -0.2201 -0.7071 -0.8085
 5333SOL    HW127461   1.777   1.056  13.536 -0.2962 -0.6338 -0.4341
 5333SOL    HW227462   1.690   0.939  13.577  2.8026 -0.5412 -0.5776
 5334SOL     OW27463   1.553   2.971   4.737  0.1152 -0.1835  0.4834
 5334SOL    HW127464   1.572   2.896   4.793  1.3397 -0.3825 -0.1956
 5334SOL    HW227465   1.634   3.021   4.745  0.6418 -0.8078 -0.8527
 5335SOL     OW27466   4.171   4.314   1.518  0.0466 -0.1153 -0.1166
 5335SOL    HW127467   4.164   4.329   1.424 -0.2988 -0.7323 -0.1889
 5335SOL    HW227468   4.096   4.256   1.529 -0.2217  0.3562  0.5519
 5336SOL     OW27469   0.592   0.765   5.219  0.1743  0.0691 -0.1408
 5336SOL    HW127470   0.612   0.804   5.135  0.3324  0.4737  0.0846
 5336SOL    HW227471   0.603   0.672   5.200 -3.0215 -0.1631 -0.8488
 5337SOL     OW27472   0.235   4.113   6.113 -0.2076  0.1399 -0.5085
 5337SOL    HW127473   0.321   4.140   6.082  0.4109 -0.5544  0.5969
 5337SOL    HW227474   0.211   4.051   6.045  1.0071  1.0754 -1.7833
 5338SOL     OW27475   2.872   1.176   4.594 -0.3952  0.4983  0.1442
 5338SOL    HW127476   2.817   1.211   4.664  0.3527 -1.0319  1.4853
 5338SOL    HW227477   2.815   1.103   4.570  1.2079  0.3905 -3.2771
 5339SOL     OW27478   0.850   2.314   1.557  0.5222 -0.2579  0.1092
 5339SOL    HW127479   0.841   2.383   1.623 -3.4289 -1.2255  0.5793
 5339SOL    HW227480   0.832   2.244   1.620  2.0950  1.6163  2.6521
 5340SOL     OW27481   1.975   1.685   7.885 -0.4210 -1.0385 -0.2002
 5340SOL    HW127482   2.045   1.675   7.820  2.3279 -0.2697  2.6134
 5340SOL    HW227483   2.023   1.706   7.966  1.4342 -2.4612 -0.9261
 5341SOL     OW27484   0.547   0.349  15.124  0.2793 -0.4450  0.2657
 5341SOL    HW127485   0.548   0.372  15.031 -0.9637 -0.9184  0.1361
 5341SOL    HW227486   0.558   0.254  15.112  2.4389 -0.1579 -0.0115
 5342SOL     OW27487   0.495   4.595   2.859 -0.3145 -0.4174  0.2426
 5342SOL    HW127488   0.438   4.660   2.901 -0.9120 -0.1306 -0.9947
 5342SOL    HW227489   0.515   4.623   2.770 -2.6140 -1.6221 -0.6735
 5343SOL     OW27490   1.555   3.879   9.719  0.3872 -0.5901 -0.5692
 5343SOL    HW127491   1.467   3.877   9.756  1.0837 -0.1268  1.1073
 5343SOL    HW227492   1.545   3.805   9.659  0.5840 -0.3590 -0.8880
 5344SOL     OW27493   2.826   0.556   1.814  0.7903  0.4096  0.7620
 5344SOL    HW127494   2.853   0.497   1.744  2.7197  3.2050 -0.8321
 5344SOL    HW227495   2.829   0.636   1.762  0.0079  0.7189  1.1971
 5345SOL     OW27496   2.098   1.607  15.759  0.1347  0.4795 -0.3160
 5345SOL    HW127497   2.091   1.593  15.665  1.4027 -0.8221 -0.2055
 5345SOL    HW227498   2.147   1.530  15.785 -1.9315 -0.3073  1.2384
 5346SOL     OW27499   3.924   0.694   0.774 -0.2660  0.0585 -0.6439
 5346SOL    HW127500   3.892   0.639   0.846  1.0907  0.9913  0.6680
 5346SOL    HW227501   3.899   0.782   0.801 -1.1094 -0.4493  0.2606
 5347SOL     OW27502   4.026   1.341  10.340 -0.0627 -0.0834 -0.0220
 5347SOL    HW127503   3.943   1.387  10.354  1.6942  3.5746 -1.4088
 5347SOL    HW227504   4.047   1.353  10.248  0.8958  2.0309  0.4664
 5348SOL     OW27505   3.631   0.596  15.311  0.6742 -0.5831 -0.1840
 5348SOL    HW127506   3.638   0.553  15.226 -1.0096  0.5114 -0.8827
 5348SOL    HW227507   3.608   0.684  15.280  0.1292 -0.4618  0.5718
 5349SOL     OW27508   0.229   1.188  14.785 -0.4652 -0.1345 -0.2197
 5349SOL    HW127509   0.265   1.183  14.874  0.9804 -0.2821 -0.8113
 5349SOL    HW227510   0.168   1.115  14.793 -0.8014 -0.1614 -2.9713
 5350SOL     OW27511   0.788   1.335   5.036 -0.1489 -0.4946  0.0199
 5350SOL    HW127512   0.867   1.284   5.049  0.0272  0.1293  1.4060
 5350SOL    HW227513   0.727   1.273   4.997  0.2118  0.0577 -1.4121
 5351SOL     OW27514   0.313   0.746   6.679 -0.0370  0.0455 -0.1605
 5351SOL    HW127515   0.387   0.732   6.620 -0.1001 -1.0112 -0.0044
 5351SOL    HW227516   0.314   0.837   6.708 -0.3611 -0.0695  0.2264
 5352SOL     OW27517   0.846   3.651   4.324 -0.1339 -0.3308 -0.2020
 5352SOL    HW127518   0.760   3.646   4.366  0.4003 -0.1936  0.9061
 5352SOL    HW227519   0.893   3.714   4.379 -1.1002  0.7350 -0.5908
 5353SOL     OW27520   1.791   1.556  13.342  0.4803 -0.2054  0.4262
 5353SOL    HW127521   1.874   1.572  13.386 -0.1283 -0.4598  1.6633
 5353SOL    HW227522   1.736   1.629  13.372  0.3693  0.0055 -0.2938
 5354SOL     OW27523   0.546   3.197   3.364 -0.3456 -0.2189 -0.0212
 5354SOL    HW127524   0.639   3.198   3.340 -0.0284 -1.3840  1.1449
 5354SOL    HW227525   0.513   3.125   3.310 -0.9461  0.6762 -0.8444
 5355SOL     OW27526   1.161   2.538   9.939 -0.1034  0.2308 -0.0414
 5355SOL    HW127527   1.255   2.523   9.931  0.2346  3.5098 -2.3471
 5355SOL    HW227528   1.147   2.472  10.007  3.0714  0.4257  0.8255
 5356SOL     OW27529   1.611   1.467   6.196 -0.1249  0.1887  0.0094
 5356SOL    HW127530   1.536   1.430   6.242 -0.9797  1.6721 -0.1743
 5356SOL    HW227531   1.673   1.395   6.193 -0.2239  0.0590  0.9142
 5357SOL     OW27532   4.493   2.669   3.255 -0.1176  0.1038 -0.0190
 5357SOL    HW127533   4.504   2.575   3.239 -0.2733 -0.0172  0.5913
 5357SOL    HW227534   4.407   2.672   3.297 -0.2502 -0.5578 -0.2348
 5358SOL     OW27535   0.425   4.393   1.026 -0.3269 -0.2009  0.6985
 5358SOL    HW127536   0.417   4.335   0.951 -0.6743  2.7142 -1.5255
 5358SOL    HW227537   0.353   4.365   1.083 -0.8880 -0.3503 -0.0887
 5359SOL     OW27538   0.950   3.507  17.596  0.2447 -0.2639 -0.5633
 5359SOL    HW127539   0.943   3.592  17.553 -2.5635 -0.4033 -0.3735
 5359SOL    HW227540   0.867   3.467  17.571  0.1929 -1.5044  1.5967
 5360SOL     OW27541   4.073   0.867  15.616  0.2254 -0.0866  0.1359
 5360SOL    HW127542   4.127   0.907  15.683 -1.2734  0.5817  0.9331
 5360SOL    HW227543   3.987   0.903  15.634  1.4183  2.4209  0.7491
 5361SOL     OW27544   0.153   1.934   8.780  0.3377 -0.6553 -0.3291
 5361SOL    HW127545   0.121   1.901   8.865  0.8059  2.1945  0.9623
 5361SOL    HW227546   0.219   1.995   8.814 -0.0368 -0.2857 -0.2614
 5362SOL     OW27547   0.547   0.420  15.433  0.4039  0.2110 -0.5078
 5362SOL    HW127548   0.466   0.371  15.423 -0.3649  2.0039 -3.3161
 5362SOL    HW227549   0.516   0.487  15.494 -2.1142 -1.9366  0.5560
 5363SOL     OW27550   0.859   4.052   0.817  0.1625 -0.4314  0.1656
 5363SOL    HW127551   0.899   3.977   0.861  1.4339 -0.0666 -0.3633
 5363SOL    HW227552   0.913   4.069   0.739 -0.0378 -1.5212 -0.2141
 5364SOL     OW27553   2.575   1.035   4.936 -0.0705 -0.1999 -0.1821
 5364SOL    HW127554   2.519   0.960   4.955  0.4137 -0.2041  1.2558
 5364SOL    HW227555   2.584   1.077   5.021  2.2504 -0.4080 -0.3097
 5365SOL     OW27556   2.532   2.973  13.290  0.2232 -0.1451  0.7187
 5365SOL    HW127557   2.580   2.957  13.371 -0.8040  0.1321  1.3916
 5365SOL    HW227558   2.602   2.970  13.225 -1.0443  1.4059 -0.7459
 5366SOL     OW27559   3.454   4.155   6.019 -1.0053  0.3027 -0.3126
 5366SOL    HW127560   3.525   4.094   6.041 -2.7966 -2.5210 -2.3534
 5366SOL    HW227561   3.409   4.145   6.102 -1.4087  0.1297 -0.5540
 5367SOL     OW27562   2.459   4.560   8.012  0.1226  0.2177  0.0412
 5367SOL    HW127563   2.401   4.520   7.948 -0.6556  0.4496  0.5964
 5367SOL    HW227564   2.545   4.554   7.970  0.6783 -0.3602  1.2728
 5368SOL     OW27565   2.728   2.356   2.536 -0.3866 -0.3747 -0.0856
 5368SOL    HW127566   2.697   2.283   2.482 -1.0519 -0.3333  0.2310
 5368SOL    HW227567   2.819   2.333   2.553  0.5993  1.3766 -3.1332
 5369SOL     OW27568   2.386   0.135  16.008  0.3060 -0.1554 -0.0259
 5369SOL    HW127569   2.430   0.218  16.025  1.7940 -0.8535 -0.4508
 5369SOL    HW227570   2.428   0.106  15.927 -0.7897  1.9649 -1.3622
 5370SOL     OW27571   3.770   3.014   2.596  0.2050  0.8217  0.1418
 5370SOL    HW127572   3.718   3.092   2.615  1.9397  1.0880  3.7116
 5370SOL    HW227573   3.704   2.955   2.561  0.0313  1.8284 -1.2562
 5371SOL     OW27574   0.097   0.194   7.291  0.6032 -0.2281 -0.1107
 5371SOL    HW127575   0.069   0.124   7.350  2.1734 -1.6130 -1.0106
 5371SOL    HW227576   0.097   0.140   7.211  4.2860  1.4290 -1.2196
 5372SOL     OW27577   0.235   2.417   7.646 -0.0890 -0.6149 -0.6131
 5372SOL    HW127578   0.149   2.385   7.672  0.0409  0.5249  1.1919
 5372SOL    HW227579   0.261   2.479   7.714  0.3926 -0.6176 -0.7977
 5373SOL     OW27580   1.994   0.807  15.160 -0.7203  0.4502 -0.2045
 5373SOL    HW127581   1.960   0.721  15.136  0.8290  0.3029 -1.9349
 5373SOL    HW227582   1.964   0.820  15.250  0.8492  1.4902  0.1772
 5374SOL     OW27583   1.525   1.094   7.382 -0.1337 -0.0050  0.1936
 5374SOL    HW127584   1.492   1.008   7.357 -0.3763  0.1270  0.0554
 5374SOL    HW227585   1.600   1.076   7.439 -0.2103  0.4868  0.4491
 5375SOL     OW27586   1.132   0.293   3.319 -0.2340 -0.3045 -0.6684
 5375SOL    HW127587   1.068   0.331   3.259 -0.5494 -2.0076 -1.4171
 5375SOL    HW227588   1.213   0.296   3.269  0.5367 -1.3150  0.5128
 5376SOL     OW27589   1.241   2.495   5.068  0.3914  0.0389  0.2454
 5376SOL    HW127590   1.287   2.442   5.003  0.6479 -1.4285  1.6080
 5376SOL    HW227591   1.193   2.559   5.015 -0.8862 -0.7228  0.4651
 5377SOL     OW27592   2.008   3.069   7.317  0.1885  0.1085  0.1149
 5377SOL    HW127593   1.983   3.135   7.252  0.9032  0.1988 -0.0640
 5377SOL    HW227594   1.996   3.118   7.398  1.0508 -0.2813  0.4703
 5378SOL     OW27595   2.465   2.367  16.149 -0.2472 -0.1843 -0.7459
 5378SOL    HW127596   2.496   2.436  16.090 -1.8113  0.9008 -0.3207
 5378SOL    HW227597   2.370   2.370  16.133 -0.2973 -1.2659 -0.6118
 5379SOL     OW27598   2.839   3.889   5.978  0.1937 -0.1052  0.3462
 5379SOL    HW127599   2.890   3.968   5.964  0.6497 -0.3042  0.8996
 5379SOL    HW227600   2.855   3.844   5.894 -0.2591 -0.8901  0.6785
 5380SOL     OW27601   3.740   0.620   4.548  0.5567  0.7730  1.0089
 5380SOL    HW127602   3.804   0.560   4.512  1.7065  2.7571 -0.2156
 5380SOL    HW227603   3.726   0.685   4.479  1.2350 -4.3368 -3.8682
 5381SOL     OW27604   4.129   0.788   5.676  0.5576 -0.4473  0.4148
 5381SOL    HW127605   4.203   0.829   5.720  0.0111  0.2352  0.6960
 5381SOL    HW227606   4.159   0.796   5.585 -1.4483  0.5301 -0.1569
 5382SOL     OW27607   4.175   1.928   3.346 -0.4519  0.1556  0.0510
 5382SOL    HW127608   4.204   1.871   3.418 -0.8948 -0.9191 -0.6285
 5382SOL    HW227609   4.189   1.866   3.275  1.9767 -2.7569  3.0419
 5383SOL     OW27610   0.959   2.975   3.192 -0.1828 -1.0637  0.3469
 5383SOL    HW127611   0.872   2.988   3.229  0.0889 -0.7370  0.8652
 5383SOL    HW227612   0.987   3.059   3.154 -1.5533 -0.6521  0.2580
 5384SOL     OW27613   3.870   1.286   2.885 -1.0164  0.7409 -0.0755
 5384SOL    HW127614   3.958   1.322   2.886 -0.9477  0.5496  0.5336
 5384SOL    HW227615   3.815   1.362   2.906  0.0045  2.2470 -2.7919
 5385SOL     OW27616   4.311   2.006   1.381 -0.1962  0.0126 -0.3879
 5385SOL    HW127617   4.231   2.026   1.430 -0.6397 -1.1881 -0.6136
 5385SOL    HW227618   4.305   2.056   1.300  0.5305 -2.0470 -1.6960
 5386SOL     OW27619   0.493   4.706   9.605 -0.1542  0.0460  0.5457
 5386SOL    HW127620   0.506   4.626   9.555 -1.2192  0.2647 -0.0866
 5386SOL    HW227621   0.425   0.025   9.553  1.0501 -1.5244 -2.3623
 5387SOL     OW27622   0.193   0.860   7.235  0.0002 -0.3988  0.2544
 5387SOL    HW127623   0.261   0.921   7.265  1.0974 -0.2248 -2.4757
 5387SOL    HW227624   0.193   0.878   7.140 -0.2475 -1.6505  0.0243
 5388SOL     OW27625   2.885   0.379   6.989 -1.0788  0.3373  0.6057
 5388SOL    HW127626   2.944   0.308   7.014 -0.6330  0.2616 -0.7099
 5388SOL    HW227627   2.939   0.425   6.926 -1.3577  1.0726  0.8967
 5389SOL     OW27628   1.666   4.602  12.901  0.2452  0.1329 -0.6487
 5389SOL    HW127629   1.724   4.531  12.927 -0.8374  0.2095  1.9606
 5389SOL    HW227630   1.656   4.600  12.806 -1.6174  0.7720 -0.4509
 5390SOL     OW27631   2.723   3.010   3.767 -0.0518 -0.1340 -0.2236
 5390SOL    HW127632   2.703   2.926   3.809  0.2897 -0.4128 -0.6187
 5390SOL    HW227633   2.818   3.016   3.774  0.0882 -1.7342 -0.7705
 5391SOL     OW27634   3.319   3.515   7.303 -0.3991 -0.8437  0.5001
 5391SOL    HW127635   3.239   3.532   7.253  0.8765  0.9999 -0.9255
 5391SOL    HW227636   3.313   3.420   7.310  0.4480 -1.0766 -1.8370
 5392SOL     OW27637   1.972   1.385   2.341 -0.2265 -0.0012 -0.0486
 5392SOL    HW127638   1.902   1.443   2.310 -0.6914 -0.1165  0.7853
 5392SOL    HW227639   2.048   1.441   2.352 -0.7203  0.8020 -0.6781
 5393SOL     OW27640   0.047   0.703   0.926  0.6030  1.0271 -0.1538
 5393SOL    HW127641   0.102   0.754   0.866  1.7742 -0.6870 -0.5448
 5393SOL    HW227642   4.703   0.669   0.869 -1.9545 -1.5194  4.5306
 5394SOL     OW27643   2.697   2.543   0.305  0.2056 -0.3885 -0.2802
 5394SOL    HW127644   2.655   2.460   0.327 -0.0896  0.3447  1.9234
 5394SOL    HW227645   2.724   2.538   0.213 -0.0205  1.1130 -0.4289
 5395SOL     OW27646   1.977   2.144   6.042  0.4749 -0.1431 -0.5058
 5395SOL    HW127647   1.890   2.149   6.082  1.2906  1.4604  1.0428
 5395SOL    HW227648   1.994   2.238   6.047 -2.8436  0.4680 -0.4107
 5396SOL     OW27649   1.214   1.919   9.054 -0.8974  0.3614 -0.4617
 5396SOL    HW127650   1.162   1.999   9.047  0.2098  1.1299  0.2899
 5396SOL    HW227651   1.303   1.950   9.067 -0.4417 -1.9413  1.8080
 5397SOL     OW27652   3.394   0.616   6.142  0.4907 -0.9445  0.1512
 5397SOL    HW127653   3.441   0.667   6.208  0.0018 -1.7015  1.0929
 5397SOL    HW227654   3.354   0.547   6.195 -0.9608  1.1532  1.7667
 5398SOL     OW27655   2.132   2.038   8.207  0.0351 -0.8523 -0.2921
 5398SOL    HW127656   2.074   2.103   8.246  1.7210  0.5944 -0.1906
 5398SOL    HW227657   2.083   1.958   8.228  0.0956 -0.6246  0.7019
 5399SOL     OW27658   2.662   0.077   4.484 -0.3476 -0.2285 -0.4466
 5399SOL    HW127659   2.588   0.085   4.423 -0.4473 -1.7112 -0.5272
 5399SOL    HW227660   2.698   4.724   4.441 -0.2207 -0.3495 -0.1174
 5400SOL     OW27661   3.906   1.579   4.890 -0.0824 -0.5251 -0.6826
 5400SOL    HW127662   3.918   1.637   4.815  0.9958 -2.3422 -1.9034
 5400SOL    HW227663   3.819   1.603   4.923  0.0619 -0.5794 -0.2525
 5401SOL     OW27664   3.904   3.011   0.948 -0.3733 -0.9687  0.0540
 5401SOL    HW127665   3.877   3.001   1.039 -0.6702 -0.1646  0.0480
 5401SOL    HW227666   3.992   2.975   0.960  0.5965  0.9137 -1.5379
 5402SOL     OW27667   4.188   1.083  10.719  0.0680 -0.0154 -0.3523
 5402SOL    HW127668   4.223   1.078  10.630 -0.0010  2.1149 -0.5027
 5402SOL    HW227669   4.158   1.174  10.718  0.6102  0.1583 -0.9953
 5403SOL     OW27670   4.506   3.449   3.895 -0.3244 -0.2347  0.1375
 5403SOL    HW127671   4.435   3.488   3.844 -0.1162 -0.3047 -0.2047
 5403SOL    HW227672   4.478   3.432   3.985  2.8227 -2.3685  0.7252
 5404SOL     OW27673   3.933   1.194   2.427 -0.2202 -0.4764 -0.2456
 5404SOL    HW127674   3.853   1.242   2.448 -0.0343 -0.6083  0.7942
 5404SOL    HW227675   3.917   1.120   2.486 -1.6686  0.4021  0.4525
 5405SOL     OW27676   0.930   2.436   9.439  0.0364  0.2727  0.6358
 5405SOL    HW127677   0.907   2.359   9.490  0.1245  0.9886  1.7563
 5405SOL    HW227678   0.985   2.474   9.507 -0.5062 -0.4878  1.5012
 5406SOL     OW27679   1.630   2.579   5.654 -0.1573 -0.6371 -0.0557
 5406SOL    HW127680   1.693   2.652   5.650  3.3668 -3.7849 -1.6935
 5406SOL    HW227681   1.677   2.531   5.586 -0.5264 -0.9733 -0.0711
 5407SOL     OW27682   3.860   1.246   3.726 -0.6820  0.2745 -0.6387
 5407SOL    HW127683   3.945   1.283   3.703  0.1930 -0.8083  0.8257
 5407SOL    HW227684   3.834   1.315   3.787  0.1720  2.1338 -2.3798
 5408SOL     OW27685   3.485   3.626   8.640  0.0897  0.1802  0.3824
 5408SOL    HW127686   3.391   3.621   8.623  0.1769  0.8971 -0.3360
 5408SOL    HW227687   3.505   3.565   8.711 -0.6283 -2.3607 -1.6464
 5409SOL     OW27688   3.400   4.244   6.874  0.1246  0.9012  0.3373
 5409SOL    HW127689   3.437   4.157   6.891  1.0734  1.0901 -0.7872
 5409SOL    HW227690   3.443   4.301   6.938 -0.8807  2.3425 -0.2534
 5410SOL     OW27691   4.081   3.023   3.105  1.0679  0.0816  0.3477
 5410SOL    HW127692   4.101   3.056   3.017 -0.6853  0.3039  0.0372
 5410SOL    HW227693   4.167   2.983   3.123  1.4287  1.4519  1.7003
 5411SOL     OW27694   4.618   0.979   1.775  0.2145  0.6657 -0.3062
 5411SOL    HW127695   4.573   0.996   1.692  2.5494  3.2936 -1.0263
 5411SOL    HW227696   4.541   0.985   1.832 -0.0171  1.6948 -0.7248
 5412SOL     OW27697   2.408   2.049   9.353  0.7137 -0.4828  0.4338
 5412SOL    HW127698   2.340   2.075   9.292  0.0186 -1.8436  0.6237
 5412SOL    HW227699   2.444   1.975   9.303  1.0340 -0.7799  1.1015
 5413SOL     OW27700   2.543   1.840   4.008 -0.1603 -0.8364  0.0977
 5413SOL    HW127701   2.592   1.806   4.083 -1.7732 -2.7478  0.2969
 5413SOL    HW227702   2.611   1.837   3.940 -0.8800 -1.8096 -0.5756
 5414SOL     OW27703   3.029   1.398  13.520  0.3154  0.0903  1.0341
 5414SOL    HW127704   3.069   1.387  13.434  0.2876  0.8916  0.9195
 5414SOL    HW227705   2.986   1.483  13.506 -0.7864 -0.8752 -1.2559
 5415SOL     OW27706   1.869   2.489   6.728  0.3090  0.0257 -0.2602
 5415SOL    HW127707   1.902   2.579   6.721  2.5000 -0.6783  0.8791
 5415SOL    HW227708   1.895   2.473   6.819 -0.3436 -0.8551 -0.2354
 5416SOL     OW27709   0.867   0.579   7.491  0.2529 -0.5825  0.0854
 5416SOL    HW127710   0.808   0.653   7.477 -0.6326 -1.6519 -1.7413
 5416SOL    HW227711   0.915   0.622   7.562  0.3563  0.1502 -0.4321
 5417SOL     OW27712   4.720   3.156  16.155 -0.2715  0.6910 -0.2674
 5417SOL    HW127713   0.090   3.155  16.163 -0.5894  2.1867  3.9155
 5417SOL    HW227714   4.707   3.163  16.061 -0.8248 -0.0672 -0.2494
 5418SOL     OW27715   3.274   1.168   0.774  0.1986 -0.2250  0.2558
 5418SOL    HW127716   3.226   1.125   0.703  0.4771  0.7308 -0.5217
 5418SOL    HW227717   3.296   1.096   0.833 -1.8449 -0.3817  0.8097
 5419SOL     OW27718   1.241   2.839  14.112  0.3942  0.1476 -0.3830
 5419SOL    HW127719   1.250   2.774  14.043  0.7606  1.8303 -1.9488
 5419SOL    HW227720   1.327   2.824  14.152  1.6228  1.3694 -2.5255
 5420SOL     OW27721   3.426   1.095  12.086 -0.0402 -0.0650  0.3860
 5420SOL    HW127722   3.372   1.046  12.149 -0.9921  1.8427  1.0394
 5420SOL    HW227723   3.460   1.167  12.138  0.4475  0.5207 -0.7711
 5421SOL     OW27724   2.609   1.912  14.006  0.2003  0.2164  0.1606
 5421SOL    HW127725   2.554   1.847  13.963 -2.1946  1.8416  0.8202
 5421SOL    HW227726   2.678   1.856  14.042  1.3379  1.4758 -0.0554
 5422SOL     OW27727   4.476   4.058   8.257 -0.2586  0.2650  0.2275
 5422SOL    HW127728   4.393   4.101   8.278 -1.0018 -0.8843 -0.3414
 5422SOL    HW227729   4.524   4.133   8.222 -0.9361 -0.1119 -1.4947
 5423SOL     OW27730   1.555   2.835   0.249  0.2271 -0.1206 -0.3303
 5423SOL    HW127731   1.591   2.824   0.161  0.1137 -0.5401 -0.3251
 5423SOL    HW227732   1.596   2.918   0.273  2.4204 -0.8264 -1.6743
 5424SOL     OW27733   4.652   0.201   4.691  0.3822  0.7021 -0.2774
 5424SOL    HW127734   4.647   0.169   4.781 -0.7856 -0.4239 -0.7363
 5424SOL    HW227735   4.611   0.128   4.643  1.5030 -0.8298  1.0886
 5425SOL     OW27736   4.355   0.878   6.826 -0.5832  0.0020 -0.1563
 5425SOL    HW127737   4.429   0.854   6.883  0.4653  1.0158 -1.0955
 5425SOL    HW227738   4.319   0.953   6.873 -2.0816 -0.4758 -0.5735
 5426SOL     OW27739   3.230   2.028  11.614  0.1393 -0.0832 -0.7024
 5426SOL    HW127740   3.235   2.080  11.695 -0.3031 -1.1892  0.0367
 5426SOL    HW227741   3.190   2.093  11.556  0.4696  0.9700  0.2455
 5427SOL     OW27742   2.828   0.485   0.460 -0.5225 -0.6453 -0.1112
 5427SOL    HW127743   2.833   0.393   0.433 -1.3595 -1.1684  1.5571
 5427SOL    HW227744   2.827   0.475   0.555  1.6527 -1.6730 -0.2008
 5428SOL     OW27745   1.169   4.543   8.124 -0.3196 -0.5916  0.3295
 5428SOL    HW127746   1.186   4.453   8.150  0.9141 -0.3404  0.3891
 5428SOL    HW227747   1.155   4.531   8.030  0.6361  0.1476  0.0828
 5429SOL     OW27748   3.052   2.686   5.932 -0.6975  0.0661  0.5103
 5429SOL    HW127749   3.095   2.770   5.952 -0.2509 -0.3180  1.1669
 5429SOL    HW227750   3.118   2.619   5.949 -0.4398  0.1325 -0.2145
 5430SOL     OW27751   2.126   1.501   3.932  0.5296 -0.1032  0.2450
 5430SOL    HW127752   2.147   1.581   3.981 -0.1666  0.4548 -0.3576
 5430SOL    HW227753   2.201   1.514   3.874  0.3245 -3.6766 -0.8145
 5431SOL     OW27754   1.300   1.776  14.618 -0.5050 -0.3727 -0.2567
 5431SOL    HW127755   1.332   1.746  14.533 -2.8080 -1.4243 -0.7616
 5431SOL    HW227756   1.266   1.860  14.589  1.5750  0.3913 -0.5144
 5432SOL     OW27757   2.461   4.586  17.029  0.2765  0.2021 -0.3486
 5432SOL    HW127758   2.466   4.516  17.095  0.3018 -0.8115 -1.4253
 5432SOL    HW227759   2.540   4.569  16.978  2.2500  0.7786  2.5035
 5433SOL     OW27760   0.594   0.140   5.739 -0.6100 -0.2713  0.2357
 5433SOL    HW127761   0.618   0.054   5.706  0.0671  0.6431 -1.6459
 5433SOL    HW227762   0.652   0.192   5.683 -0.7945 -2.0371 -1.5707
 5434SOL     OW27763   1.043   4.603   6.191 -0.4238  0.0178  0.5785
 5434SOL    HW127764   1.040   4.509   6.172  0.2011  0.3089 -0.9313
 5434SOL    HW227765   1.069   4.598   6.283  0.6176 -0.2347  0.2616
 5435SOL     OW27766   4.461   0.634  10.587 -0.8850 -0.0973 -0.1302
 5435SOL    HW127767   4.505   0.572  10.528  0.9039  0.8269  0.2167
 5435SOL    HW227768   4.486   0.595  10.671  1.6333 -0.3911 -1.0051
 5436SOL     OW27769   0.757   0.167   7.522 -0.1847  0.0095 -0.2446
 5436SOL    HW127770   0.702   0.132   7.452 -0.8347 -1.3647  0.9602
 5436SOL    HW227771   0.812   0.092   7.544 -0.2820  0.5042  1.6954
 5437SOL     OW27772   2.741   2.531   5.499  0.0280 -0.3620 -0.1312
 5437SOL    HW127773   2.783   2.481   5.429  0.3743 -1.0118  0.5442
 5437SOL    HW227774   2.812   2.545   5.561  0.2168 -2.7725  0.1788
 5438SOL     OW27775   4.361   1.395   5.596 -0.2824  0.4187  0.2071
 5438SOL    HW127776   4.335   1.378   5.506  1.5887 -1.2283 -0.0205
 5438SOL    HW227777   4.404   1.481   5.595 -0.5618  0.5569  0.2547
 5439SOL     OW27778   1.745   4.471   6.352 -0.4435  0.0844 -0.3885
 5439SOL    HW127779   1.758   4.513   6.437  0.5278 -0.2672 -0.3710
 5439SOL    HW227780   1.828   4.499   6.313 -0.0665  0.6773  0.8594
 5440SOL     OW27781   1.825   3.403   4.864  0.4375 -0.5378 -0.2654
 5440SOL    HW127782   1.754   3.370   4.810 -0.3229 -0.4650  0.6864
 5440SOL    HW227783   1.776   3.372   4.940 -0.6483  1.5203 -0.1380
 5441SOL     OW27784   1.723   2.061   8.124 -0.3893  0.6283 -0.3899
 5441SOL    HW127785   1.645   2.093   8.168 -0.2633  1.3146 -0.6605
 5441SOL    HW227786   1.705   2.093   8.036  2.1932  0.6844 -0.9109
 5442SOL     OW27787   1.266   2.743  12.536  0.1869  0.2788 -0.0936
 5442SOL    HW127788   1.218   2.805  12.481  0.1009 -1.3647 -1.8536
 5442SOL    HW227789   1.225   2.658  12.521  0.7128  0.2334 -1.2903
 5443SOL     OW27790   2.603   1.206   6.805 -0.5597  0.0279 -0.0258
 5443SOL    HW127791   2.677   1.187   6.748 -0.4088 -0.2154  0.2507
 5443SOL    HW227792   2.640   1.209   6.893 -1.0791  0.3476  0.1856
 5444SOL     OW27793   2.122   2.496   5.245  0.1710 -0.2571  0.1222
 5444SOL    HW127794   2.029   2.516   5.229  0.2956  0.7885  0.7132
 5444SOL    HW227795   2.122   2.533   5.334 -1.6984 -2.0258  0.8840
 5445SOL     OW27796   0.522   3.955   9.786  0.2055  0.0945 -0.4162
 5445SOL    HW127797   0.464   3.977   9.712  0.0674 -1.5601 -0.7998
 5445SOL    HW227798   0.593   4.018   9.778  1.1425 -1.2014 -2.1389
 5446SOL     OW27799   1.770   0.503   2.849  0.8407 -0.1118  0.2691
 5446SOL    HW127800   1.703   0.551   2.898 -0.2355  0.2491 -1.5478
 5446SOL    HW227801   1.774   0.425   2.904  1.1830 -1.4014 -1.5503
 5447SOL     OW27802   1.058   1.472   2.628 -0.8007  0.1764 -0.3054
 5447SOL    HW127803   0.985   1.411   2.635 -0.9690  0.1777 -2.0970
 5447SOL    HW227804   1.008   1.554   2.625  1.1884  1.3840 -0.8429
 5448SOL     OW27805   2.677   2.526   1.603 -0.5876  0.2068  0.1601
 5448SOL    HW127806   2.707   2.541   1.513  1.8309 -0.1599  0.9164
 5448SOL    HW227807   2.599   2.473   1.591 -0.1890 -0.4534  0.4857
 5449SOL     OW27808   4.719   0.368  12.203 -0.0910  0.3740  0.3023
 5449SOL    HW127809   0.075   0.356  12.153 -0.1008  1.9096 -0.0974
 5449SOL    HW227810   4.724   0.288  12.255 -1.4644 -0.6747 -1.1694
 5450SOL     OW27811   2.632   2.937   5.131  0.0714  0.0328 -0.0196
 5450SOL    HW127812   2.667   2.861   5.177  1.4412  0.7820  0.1914
 5450SOL    HW227813   2.669   2.929   5.043 -0.0974  0.7749 -0.1630
 5451SOL     OW27814   4.168   3.593  14.431  0.6054 -0.1066 -0.1943
 5451SOL    HW127815   4.259   3.595  14.402  0.8932 -1.2532  0.6279
 5451SOL    HW227816   4.169   3.558  14.520 -3.5329 -0.1912 -0.1937
 5452SOL     OW27817   0.905   3.640  10.674  0.1516 -0.0090  0.0931
 5452SOL    HW127818   0.858   3.674  10.597  2.3247  0.0174 -1.2080
 5452SOL    HW227819   0.946   3.560  10.640 -0.1599 -0.4213  0.7003
 5453SOL     OW27820   1.734   3.002   2.723  0.1507  0.2489  0.2888
 5453SOL    HW127821   1.646   3.040   2.726 -0.5308 -1.1321 -1.7533
 5453SOL    HW227822   1.771   3.055   2.794  0.7569  1.1952 -0.7180
 5454SOL     OW27823   3.387   1.116   9.438 -0.1656  0.8273 -0.0446
 5454SOL    HW127824   3.344   1.096   9.354 -1.5131 -1.8172  1.2594
 5454SOL    HW227825   3.477   1.083   9.429 -1.2770 -2.2844  0.3556
 5455SOL     OW27826   1.788   1.893   2.482 -0.2283  0.0990 -0.0569
 5455SOL    HW127827   1.726   1.931   2.420  0.9080 -1.0297 -1.8895
 5455SOL    HW227828   1.853   1.847   2.429 -0.2608 -1.2456  1.0637
 5456SOL     OW27829   3.238   1.962   7.961  0.1066  0.5057  0.1688
 5456SOL    HW127830   3.142   1.966   7.967 -0.0490 -1.0831 -1.0924
 5456SOL    HW227831   3.252   1.900   8.033 -1.2868 -1.1832 -1.0128
 5457SOL     OW27832   4.427   3.773   4.579 -0.3126 -0.2723 -0.2980
 5457SOL    HW127833   4.391   3.829   4.511  0.6608  1.8778  0.9692
 5457SOL    HW227834   4.354   3.768   4.641  0.3657 -2.9542  0.2929
 5458SOL     OW27835   3.022   3.304   4.575 -0.1479  0.3905  0.1748
 5458SOL    HW127836   3.045   3.370   4.509  1.1314 -0.1991  0.0344
 5458SOL    HW227837   3.093   3.243   4.555  0.5155  1.3139 -0.2597
 5459SOL     OW27838   0.064   2.694   5.478  0.4264  0.2781  0.3828
 5459SOL    HW127839   0.065   2.609   5.434  0.8858  0.0559  0.8181
 5459SOL    HW227840   4.696   2.706   5.459  0.2997 -2.0518 -0.4582
 5460SOL     OW27841   3.682   3.282   5.235  0.0358  0.1218  0.7210
 5460SOL    HW127842   3.666   3.217   5.166 -0.4174  0.4264  0.5402
 5460SOL    HW227843   3.775   3.284   5.215  0.0077  0.7404  0.6736
 5461SOL     OW27844   2.667   4.007   2.879 -0.1337  0.3840  0.1562
 5461SOL    HW127845   2.712   3.953   2.814 -0.2537 -0.5387  0.8452
 5461SOL    HW227846   2.645   4.085   2.827 -2.9284 -0.3655  0.2139
 5462SOL     OW27847   3.583   1.505   5.653 -0.3730  0.4776 -0.0727
 5462SOL    HW127848   3.656   1.443   5.648 -0.3411  0.5278 -0.2362
 5462SOL    HW227849   3.508   1.446   5.661  0.2059 -0.0532  1.4758
 5463SOL     OW27850   1.828   4.512   9.918 -0.6176  0.0700  0.1625
 5463SOL    HW127851   1.888   4.440   9.940 -0.3911 -0.0594 -0.8389
 5463SOL    HW227852   1.864   4.532   9.831 -0.4562 -2.2363 -0.2882
 5464SOL     OW27853   0.768   4.067   4.150 -0.4198  0.1359  0.1323
 5464SOL    HW127854   0.816   4.055   4.068 -0.1278  0.5058  0.2456
 5464SOL    HW227855   0.834   4.113   4.203  0.4210 -0.6908 -0.1817
 5465SOL     OW27856   0.427   0.084   5.394  0.3982  0.1803 -0.3291
 5465SOL    HW127857   0.513   0.117   5.420 -0.2782  1.3986  0.3499
 5465SOL    HW227858   0.370   0.105   5.468  0.3766  0.6740 -0.4881
 5466SOL     OW27859   4.288   1.302  14.851  0.5652  0.0413 -0.0985
 5466SOL    HW127860   4.347   1.350  14.909  1.2540 -1.4251  0.3827
 5466SOL    HW227861   4.338   1.290  14.770  2.1334  2.0638  0.5753
 5467SOL     OW27862   0.200   3.099   9.153 -0.3650  0.2240  0.2408
 5467SOL    HW127863   0.279   3.089   9.206  0.7402 -0.4633 -1.5177
 5467SOL    HW227864   0.151   3.030   9.198 -0.4193 -0.7124 -1.2572
 5468SOL     OW27865   1.383   1.814   9.925  0.3806  0.7947 -0.0700
 5468SOL    HW127866   1.322   1.865   9.979  0.4097 -0.1543  0.8391
 5468SOL    HW227867   1.380   1.725   9.959  0.5811  1.0626  0.6505
 5469SOL     OW27868   3.823   3.022   7.361 -0.1356  0.1503  0.4417
 5469SOL    HW127869   3.731   3.047   7.360 -0.4115 -0.9821 -1.3386
 5469SOL    HW227870   3.830   2.942   7.412  3.0931  0.1722  0.0277
 5470SOL     OW27871   1.751   1.192   5.962  0.0903 -0.0429 -0.0701
 5470SOL    HW127872   1.830   1.224   6.005  1.0247 -0.0560 -1.8003
 5470SOL    HW227873   1.718   1.254   5.897 -1.2045 -1.7041 -0.9768
 5471SOL     OW27874   0.480   4.247  15.221  0.1917 -0.4959  0.3751
 5471SOL    HW127875   0.468   4.177  15.157  1.2794  0.6149 -1.0476
 5471SOL    HW227876   0.464   4.327  15.170  3.0176 -0.1730 -0.0170
 5472SOL     OW27877   4.531   3.129   5.949 -0.3228 -0.6113  0.4207
 5472SOL    HW127878   4.461   3.068   5.925 -0.2487 -1.2021  1.6802
 5472SOL    HW227879   4.580   3.116   5.868  1.3935 -0.0638  1.3684
 5473SOL     OW27880   3.759   3.283   1.292 -0.5720  0.0116  0.3359
 5473SOL    HW127881   3.770   3.348   1.223  0.4318 -0.6920 -0.1635
 5473SOL    HW227882   3.760   3.206   1.236  0.8953  0.6718 -0.5404
 5474SOL     OW27883   2.504   4.231   8.012  0.9031  0.6570 -0.2044
 5474SOL    HW127884   2.419   4.187   8.014  2.0096 -1.3326  3.3939
 5474SOL    HW227885   2.558   4.157   8.040 -0.7654 -0.4202  0.2288
 5475SOL     OW27886   1.998   2.494   1.924 -0.1053 -0.1508 -0.2756
 5475SOL    HW127887   2.032   2.415   1.881  1.3984  0.1972  0.2828
 5475SOL    HW227888   2.074   2.515   1.978  0.0553 -2.0966  0.2732
 5476SOL     OW27889   0.297   1.635   4.823 -0.4011  0.3256  0.0906
 5476SOL    HW127890   0.252   1.555   4.798  0.3241 -0.7437  2.2451
 5476SOL    HW227891   0.379   1.591   4.846  0.4117  0.7827 -1.8611
 5477SOL     OW27892   3.323   2.469   8.263 -0.0243  0.1131  0.1519
 5477SOL    HW127893   3.295   2.547   8.215 -0.3193 -1.0610 -1.5900
 5477SOL    HW227894   3.406   2.455   8.217  0.7343 -1.1748  1.9551
 5478SOL     OW27895   2.046   0.466   8.252  0.2258 -0.0309 -0.0052
 5478SOL    HW127896   2.136   0.486   8.226  0.3009 -0.6088 -0.1970
 5478SOL    HW227897   2.016   0.553   8.277  1.2950  0.6970 -1.3047
 5479SOL     OW27898   4.725   3.244   4.357  0.3100  0.1325 -0.2484
 5479SOL    HW127899   4.635   3.227   4.385  0.8050 -0.9530  0.7037
 5479SOL    HW227900   0.057   3.211   4.426 -0.5718 -1.9547 -0.5266
 5480SOL     OW27901   4.317   3.257   8.890  0.2824 -0.1099 -0.0596
 5480SOL    HW127902   4.250   3.265   8.822 -1.4896 -2.5642  1.3878
 5480SOL    HW227903   4.351   3.177   8.849 -2.3779 -0.6467 -1.2716
 5481SOL     OW27904   2.702   4.588   6.403 -0.5201 -0.0362  0.5304
 5481SOL    HW127905   2.623   4.618   6.449 -0.0648 -0.9611  1.9048
 5481SOL    HW227906   2.671   4.509   6.360  1.8438 -0.6385 -0.0553
 5482SOL     OW27907   0.693   2.448   1.376  0.0785  1.0340  0.3745
 5482SOL    HW127908   0.758   2.392   1.420  0.8636 -0.6170 -2.8794
 5482SOL    HW227909   0.742   2.520   1.337 -0.3604  1.5276  0.7377
 5483SOL     OW27910   3.334   0.140   6.318 -0.0651  0.5680 -0.4646
 5483SOL    HW127911   3.389   0.122   6.394  0.4801  0.4269 -0.8959
 5483SOL    HW227912   3.299   0.051   6.310  0.6067  0.3212 -0.6087
 5484SOL     OW27913   1.687   0.802   1.834 -0.2067 -0.4610 -0.2059
 5484SOL    HW127914   1.711   0.892   1.856 -0.9450  0.0227 -1.3642
 5484SOL    HW227915   1.592   0.812   1.842  0.0194 -0.3619  2.4502
 5485SOL     OW27916   1.836   1.005  14.095  0.1126 -0.4268  0.6158
 5485SOL    HW127917   1.907   1.069  14.091 -0.7256  0.3403 -1.5367
 5485SOL    HW227918   1.768   1.062  14.131  0.5179 -0.9501  2.2405
 5486SOL     OW27919   3.182   1.157   3.278 -0.2173  0.5704  0.4364
 5486SOL    HW127920   3.222   1.243   3.262  1.2084 -0.2955 -0.6213
 5486SOL    HW227921   3.097   1.191   3.304 -0.3770  0.6274 -0.1463
 5487SOL     OW27922   2.168   4.068   1.107  0.1083 -0.7015 -0.0973
 5487SOL    HW127923   2.156   3.993   1.165  0.2453 -0.3502  0.3920
 5487SOL    HW227924   2.074   4.087   1.100  0.3166  0.1518 -0.5904
 5488SOL     OW27925   1.673   3.853   3.096  0.1262 -0.1090 -0.3042
 5488SOL    HW127926   1.641   3.882   3.010 -3.0324 -0.8881  0.6171
 5488SOL    HW227927   1.767   3.862   3.083  0.1344 -0.4926 -0.5268
 5489SOL     OW27928   0.286   3.177  15.863 -0.2570  0.0847 -0.0018
 5489SOL    HW127929   0.234   3.187  15.783  1.1383 -0.2608 -0.9429
 5489SOL    HW227930   0.284   3.082  15.880  2.3788 -0.0507 -0.4603
 5490SOL     OW27931   3.009   4.670   9.178 -0.4212  0.5908 -0.1780
 5490SOL    HW127932   3.085   4.634   9.223 -0.0244  2.2793  0.4820
 5490SOL    HW227933   3.040   4.670   9.087 -0.1664  3.4722 -0.0747
 5491SOL     OW27934   1.353   2.827   8.462  0.5604 -0.3805  0.5497
 5491SOL    HW127935   1.323   2.882   8.389 -0.3970  0.7051  1.7582
 5491SOL    HW227936   1.277   2.832   8.520 -0.1982  0.2982 -0.4948
 5492SOL     OW27937   2.244   4.415   5.840  0.3892 -0.5896 -0.2228
 5492SOL    HW127938   2.286   4.361   5.773 -1.3213 -1.8789 -0.2758
 5492SOL    HW227939   2.233   4.503   5.805 -1.8243  0.8402  4.0288
 5493SOL     OW27940   2.559   4.083  15.227 -0.1094  0.1964 -0.3186
 5493SOL    HW127941   2.539   4.017  15.161  0.7089 -1.4932  1.1150
 5493SOL    HW227942   2.622   4.139  15.181  0.0009  0.3365  0.0004
 5494SOL     OW27943   3.439   2.126   7.883 -0.3755  0.7047 -0.2944
 5494SOL    HW127944   3.374   2.075   7.932 -0.9614  1.8725  0.1390
 5494SOL    HW227945   3.492   2.050   7.858 -0.3369 -0.3776  3.0312
 5495SOL     OW27946   2.605   1.929   6.677 -0.2160 -0.0740 -0.0123
 5495SOL    HW127947   2.659   1.959   6.603  1.2461 -2.5991  0.0405
 5495SOL    HW227948   2.594   2.007   6.731  0.1924  0.9843 -1.4500
 5496SOL     OW27949   1.031   0.549   6.754 -0.4296 -0.1277  0.6584
 5496SOL    HW127950   1.113   0.503   6.774  0.9154  0.4665 -3.5486
 5496SOL    HW227951   1.030   0.629   6.807 -0.5479 -1.1791  2.2453
 5497SOL     OW27952   0.336   4.014   9.549 -0.0741  0.1308 -0.7306
 5497SOL    HW127953   0.242   4.034   9.554  0.5003  1.9624  2.5437
 5497SOL    HW227954   0.326   3.922   9.524  0.9959  0.0948 -1.0259
 5498SOL     OW27955   2.206   1.932  12.375 -0.4237  0.1596  0.1537
 5498SOL    HW127956   2.210   1.842  12.407  3.1363 -0.8561 -3.1701
 5498SOL    HW227957   2.186   1.924  12.282 -5.5474  0.0796  1.2441
 5499SOL     OW27958   0.635   3.143   3.964 -0.1826 -1.0898  0.8192
 5499SOL    HW127959   0.681   3.192   3.896 -0.4353 -0.3727  1.1584
 5499SOL    HW227960   0.692   3.162   4.038 -1.2807 -1.7663  1.8427
 5500SOL     OW27961   0.301   3.631   8.817  0.6085  0.3298  0.1963
 5500SOL    HW127962   0.210   3.648   8.839  0.2632 -1.3036  0.0492
 5500SOL    HW227963   0.291   3.555   8.759 -0.5120  0.6905 -0.0707
 5501SOL     OW27964   2.551   1.808  17.007  0.4623 -0.3299  0.2888
 5501SOL    HW127965   2.533   1.809  17.101 -1.7750  1.4210 -0.1589
 5501SOL    HW227966   2.646   1.801  17.006  0.3923 -1.4186  0.8267
 5502SOL     OW27967   0.160   3.599   7.758  0.2187 -0.4144  0.2602
 5502SOL    HW127968   0.070   3.631   7.746  1.5178  2.3315 -2.1431
 5502SOL    HW227969   0.167   3.591   7.853 -1.9377 -2.9985  0.2115
 5503SOL     OW27970   2.192   1.602   8.381  0.3478  0.0567  0.0750
 5503SOL    HW127971   2.153   1.671   8.327  1.0884  1.9986  2.0237
 5503SOL    HW227972   2.196   1.639   8.469  2.3142 -0.7375  0.3156
 5504SOL     OW27973   0.407   1.032   7.343  0.3415 -0.5838 -0.2958
 5504SOL    HW127974   0.460   1.018   7.421 -0.7278  0.9933  0.7424
 5504SOL    HW227975   0.474   1.031   7.275  0.0572  0.5839 -0.6025
 5505SOL     OW27976   4.455   0.781   4.019 -0.0441 -0.4025  0.5424
 5505SOL    HW127977   4.406   0.813   4.095  0.9392 -1.0741  1.4653
 5505SOL    HW227978   4.437   0.690   3.999  1.3811 -0.6720  0.4705
 5506SOL     OW27979   4.583   2.729  10.483  0.4478  0.1028  0.0278
 5506SOL    HW127980   4.598   2.823  10.470  1.3829  0.2564  2.3207
 5506SOL    HW227981   4.524   2.702  10.412  0.6152 -1.7525  0.5919
 5507SOL     OW27982   3.241   2.546   2.320  0.1948  0.5847  0.4072
 5507SOL    HW127983   3.198   2.555   2.405  0.4837 -0.3608  0.6625
 5507SOL    HW227984   3.173   2.581   2.263  1.0901 -2.6459 -2.6499
 5508SOL     OW27985   1.908   3.039   4.789 -0.8027  0.1165 -0.2539
 5508SOL    HW127986   1.953   3.015   4.708 -0.0402  1.6553 -0.2827
 5508SOL    HW227987   1.970   3.092   4.839 -1.6123  0.1778  0.7020
 5509SOL     OW27988   4.061   3.026   4.023 -0.3739  0.1034  0.1477
 5509SOL    HW127989   4.019   3.059   3.943  2.4928 -0.7706 -1.7212
 5509SOL    HW227990   4.009   2.946   4.031 -1.5211  0.6230 -2.0543
 5510SOL     OW27991   1.739   1.990  15.599  0.3018 -0.2679 -0.1509
 5510SOL    HW127992   1.679   2.055  15.636  2.8553  1.4925  0.8194
 5510SOL    HW227993   1.730   1.918  15.661  0.5657  0.1142  0.3278
 5511SOL     OW27994   0.250   3.190  15.424  0.2237  0.2249  0.3379
 5511SOL    HW127995   0.338   3.221  15.442  0.5651  0.6270 -2.0156
 5511SOL    HW227996   0.253   3.101  15.389 -0.3165 -0.5108  2.1388
 5512SOL     OW27997   1.147   4.154   7.176 -0.1880  0.3762 -0.4917
 5512SOL    HW127998   1.187   4.236   7.207  1.3538 -1.0773  1.4470
 5512SOL    HW227999   1.224   4.107   7.144  0.6851  1.7701 -0.4533
 5513SOL     OW28000   3.849   1.518   2.694  0.0892  0.5101 -0.5011
 5513SOL    HW128001   3.903   1.514   2.615  0.1347 -0.2505 -0.4245
 5513SOL    HW228002   3.907   1.494   2.766 -0.2568  1.7721  0.2009
 5514SOL     OW28003   2.054   3.029   2.271  0.1377  0.0147  0.2965
 5514SOL    HW128004   2.080   2.952   2.321  3.1760  0.6885 -0.2222
 5514SOL    HW228005   2.123   3.030   2.204  0.0740  2.3678  0.2396
 5515SOL     OW28006   0.821   0.178   9.026 -0.3904 -0.0816 -0.2269
 5515SOL    HW128007   0.808   0.273   9.032  0.9112  0.0901 -0.1104
 5515SOL    HW228008   0.841   0.153   9.116 -0.9296  0.7199  0.1169
 5516SOL     OW28009   4.659   3.773   4.263 -0.0438  0.2174 -0.2436
 5516SOL    HW128010   4.700   3.688   4.279  0.2924  0.4202 -0.0348
 5516SOL    HW228011   4.579   3.741   4.220 -0.5360  0.3029  0.6116
 5517SOL     OW28012   3.967   4.209   4.416  0.6623 -0.3310  0.3294
 5517SOL    HW128013   4.002   4.131   4.459 -0.3447 -1.7167 -1.3635
 5517SOL    HW228014   3.879   4.222   4.450  0.2865 -1.4426 -0.2070
 5518SOL     OW28015   0.290   4.155   8.643 -0.3064  0.4193  0.3149
 5518SOL    HW128016   0.302   4.065   8.671  1.1278  1.0244  1.6705
 5518SOL    HW228017   0.339   4.196   8.715  0.9249 -0.0122 -0.2890
 5519SOL     OW28018   2.361   1.089   5.946  0.3956  0.8098  0.3437
 5519SOL    HW128019   2.286   1.088   5.885  2.6925 -0.9500 -2.4457
 5519SOL    HW228020   2.389   1.180   5.950  2.1432  0.1603  2.4138
 5520SOL     OW28021   3.749   3.277   8.172 -0.0163 -0.2109 -0.9254
 5520SOL    HW128022   3.655   3.270   8.183  0.2995 -0.4209  1.5387
 5520SOL    HW228023   3.776   3.219   8.242  0.2063  0.4375 -0.4732
 5521SOL     OW28024   2.915   3.378  16.874 -0.1891  0.2133 -0.3066
 5521SOL    HW128025   2.990   3.350  16.820  1.7122  0.5507  2.1571
 5521SOL    HW228026   2.851   3.411  16.812 -0.9231  1.2459  0.9951
 5522SOL     OW28027   0.755   0.046  10.377  0.0980  0.7745  0.3681
 5522SOL    HW128028   0.674   4.722  10.357  0.3205 -0.3513  2.1930
 5522SOL    HW228029   0.818   4.716  10.331 -3.5626 -2.8778 -0.3392
 5523SOL     OW28030   0.435   0.348   0.560  0.4659  0.6650 -0.5926
 5523SOL    HW128031   0.361   0.398   0.525  0.2288  2.1361  2.0343
 5523SOL    HW228032   0.458   0.389   0.643 -1.0637 -2.2234  1.2552
 5524SOL     OW28033   1.020   2.124   9.004  0.4403 -0.7929  0.0810
 5524SOL    HW128034   0.996   2.212   9.033  1.7060  0.3854 -2.4350
 5524SOL    HW228035   1.073   2.155   8.930  1.5623 -0.2262  1.1157
 5525SOL     OW28036   4.331   0.093   1.099 -0.8373  0.2138  0.2662
 5525SOL    HW128037   4.336   0.003   1.129  0.5015 -0.4909 -2.0682
 5525SOL    HW228038   4.390   0.138   1.159  1.2355 -0.2000 -1.4482
 5526SOL     OW28039   3.494   2.055   5.703 -0.1356  0.7351  0.0577
 5526SOL    HW128040   3.458   1.983   5.651  2.0679  0.5980 -1.2401
 5526SOL    HW228041   3.459   2.127   5.651 -1.4559 -0.2469 -0.4253
 5527SOL     OW28042   1.489   3.437   0.582  0.0589  0.2847  0.2987
 5527SOL    HW128043   1.497   3.524   0.542 -2.4877  1.9428  3.3618
 5527SOL    HW228044   1.537   3.455   0.663  1.0117 -2.0115  0.2297
 5528SOL     OW28045   3.633   0.437   8.402  0.0237  0.1662  0.1655
 5528SOL    HW128046   3.614   0.530   8.405 -0.2714  0.0746  0.9299
 5528SOL    HW228047   3.684   0.419   8.481  0.7935 -0.0553 -0.3752
 5529SOL     OW28048   3.383   0.105   7.870 -0.0716 -0.3311  0.2782
 5529SOL    HW128049   3.297   0.143   7.852  0.2688  0.4665  0.3747
 5529SOL    HW228050   3.415   0.103   7.780 -1.1368  3.1771 -0.1708
 5530SOL     OW28051   0.970   2.597   3.670  0.3901  0.0547 -0.0204
 5530SOL    HW128052   0.876   2.595   3.651  0.5718 -1.8950 -0.6787
 5530SOL    HW228053   0.999   2.587   3.580 -2.5517  1.5875 -1.1639
 5531SOL     OW28054   2.827   1.200   7.458  0.4829  0.6352  0.2576
 5531SOL    HW128055   2.817   1.111   7.423  1.6364  0.1820  1.0592
 5531SOL    HW228056   2.901   1.235   7.409  0.4886  2.2825  1.4660
 5532SOL     OW28057   1.607   1.156   7.985 -0.2052 -0.4311  0.6887
 5532SOL    HW128058   1.641   1.067   7.991 -0.0636 -0.5198 -1.5011
 5532SOL    HW228059   1.560   1.150   7.902  2.8688 -0.5507 -1.0610
 5533SOL     OW28060   3.710   4.128   1.631 -0.1390  0.4293  0.5538
 5533SOL    HW128061   3.672   4.056   1.582 -0.2247  0.6143  0.3480
 5533SOL    HW228062   3.644   4.196   1.646 -0.0052  1.0449 -1.5807
 5534SOL     OW28063   1.959   2.572   0.761 -0.2148 -0.3489  0.0669
 5534SOL    HW128064   1.931   2.654   0.803 -1.8489 -0.6872 -0.3584
 5534SOL    HW228065   1.930   2.513   0.830 -2.0045  0.1169 -0.2916
 5535SOL     OW28066   1.364   0.306  16.892  0.1520 -0.0115  0.0802
 5535SOL    HW128067   1.422   0.379  16.913  0.1885 -0.1760  0.5671
 5535SOL    HW228068   1.355   0.269  16.980 -2.6283 -1.2868 -0.7336
 5536SOL     OW28069   3.475   2.775   7.492 -0.2494  0.1106  0.1044
 5536SOL    HW128070   3.419   2.769   7.569 -0.7062  0.5677 -0.1921
 5536SOL    HW228071   3.460   2.865   7.464 -0.4568 -0.6685 -2.3691
 5537SOL     OW28072   0.206   1.861  10.486 -0.2329 -0.3390 -0.1606
 5537SOL    HW128073   0.132   1.908  10.447  0.9041  0.6801 -1.0958
 5537SOL    HW228074   0.209   1.876  10.581 -3.2925  2.3917 -0.5146
 5538SOL     OW28075   1.929   2.240   2.973 -0.2961  0.2578  0.2219
 5538SOL    HW128076   2.017   2.213   2.999 -1.0254 -1.3326  1.0016
 5538SOL    HW228077   1.890   2.215   3.057  0.3545  2.0569  1.0544
 5539SOL     OW28078   4.502   2.986   9.435 -0.4729  0.1910  0.0839
 5539SOL    HW128079   4.500   3.081   9.421 -1.4669  0.0592 -0.6504
 5539SOL    HW228080   4.462   2.970   9.520 -0.0210  0.3807  0.3347
 5540SOL     OW28081   4.443   0.865  10.725 -0.4154 -0.8967 -0.9444
 5540SOL    HW128082   4.504   0.924  10.681 -2.5312  2.4163  0.6259
 5540SOL    HW228083   4.452   0.782  10.679  0.6557 -0.6694 -1.1333
 5541SOL     OW28084   0.833   4.642  12.405  0.4129 -0.4659 -0.2975
 5541SOL    HW128085   0.906   4.685  12.449 -1.8025  0.1359  2.7858
 5541SOL    HW228086   0.809   4.573  12.467  1.5894  2.0052  2.8597
 5542SOL     OW28087   3.108   3.279  13.956  0.0311  0.5061 -0.5229
 5542SOL    HW128088   3.185   3.278  14.014 -1.1111 -2.2737  0.9647
 5542SOL    HW228089   3.084   3.186  13.955  0.1745  0.4624  0.2721
 5543SOL     OW28090   2.183   2.831   5.038  0.1554 -0.0192  0.5411
 5543SOL    HW128091   2.163   2.842   5.131 -0.4234 -0.1351  0.4310
 5543SOL    HW228092   2.220   2.743   5.041 -1.0132 -0.4124  3.2334
 5544SOL     OW28093   2.854   3.500   1.935 -0.1475  0.1073  0.4563
 5544SOL    HW128094   2.853   3.423   1.992  0.7144  1.0342  1.7003
 5544SOL    HW228095   2.811   3.563   1.992 -0.5596 -1.4960  1.8980
 5545SOL     OW28096   2.389   2.562   7.352  0.5399 -0.4440 -0.3534
 5545SOL    HW128097   2.397   2.516   7.269 -3.2579 -0.4579 -0.7114
 5545SOL    HW228098   2.480   2.589   7.365  0.7162 -0.9839 -0.4411
 5546SOL     OW28099   0.912   4.509  16.610  0.0463 -0.2408  0.0280
 5546SOL    HW128100   0.921   4.519  16.704  0.8411 -0.5263 -0.0155
 5546SOL    HW228101   0.935   4.598  16.581  2.7573 -0.8783  0.1893
 5547SOL     OW28102   1.305   4.417   3.105 -0.3941  0.6467  0.5187
 5547SOL    HW128103   1.349   4.452   3.028 -0.0812  2.8900  1.7097
 5547SOL    HW228104   1.345   4.471   3.173 -0.7780  0.6750  0.7229
 5548SOL     OW28105   2.318   3.699   0.833  0.1774  0.3179  0.6690
 5548SOL    HW128106   2.397   3.664   0.792  0.1357  1.9976 -0.8248
 5548SOL    HW228107   2.316   3.655   0.918  1.5993 -2.2457 -0.6311
 5549SOL     OW28108   2.452   1.069  16.869  0.4493 -0.2830 -0.0861
 5549SOL    HW128109   2.539   1.097  16.839  0.4222 -0.0118  0.0801
 5549SOL    HW228110   2.480   1.010  16.938  1.6030  0.1718 -0.1473
 5550SOL     OW28111   3.464   3.259  13.371 -0.9540  0.1110 -0.1171
 5550SOL    HW128112   3.374   3.279  13.344 -1.0722 -1.2744 -0.7236
 5550SOL    HW228113   3.511   3.242  13.290 -2.2492 -2.4808 -0.3255
 5551SOL     OW28114   3.674   1.065   3.512 -0.7832  0.3952  0.0549
 5551SOL    HW128115   3.633   0.991   3.558 -0.9914  0.8873  0.6697
 5551SOL    HW228116   3.669   1.134   3.579 -3.0106  1.1405 -0.8804
 5552SOL     OW28117   0.204   3.705   1.238  0.1391  0.5767  0.0297
 5552SOL    HW128118   0.140   3.644   1.274  1.6426 -1.6100 -0.9939
 5552SOL    HW228119   0.225   3.664   1.154  0.0589 -1.8316  1.1785
 5553SOL     OW28120   1.659   3.074   0.246  0.1330  0.0272  0.3936
 5553SOL    HW128121   1.616   3.144   0.296 -0.5533 -1.0031  1.2488
 5553SOL    HW228122   1.753   3.090   0.252  0.4008 -1.1531 -0.5420
 5554SOL     OW28123   3.891   1.086   5.175 -0.6124  0.0652  0.0779
 5554SOL    HW128124   3.907   1.139   5.097  0.4923 -2.5454 -1.4532
 5554SOL    HW228125   3.858   1.001   5.147 -2.3063  0.3936  1.0921
 5555SOL     OW28126   0.300   0.960   6.221  0.1537 -0.1465  0.6109
 5555SOL    HW128127   0.354   1.015   6.277  1.3568 -1.9753  1.2352
 5555SOL    HW228128   0.287   1.013   6.141  0.2572  1.4515  1.6529
 5556SOL     OW28129   1.363   4.035   7.502 -0.2834 -0.3303 -0.5227
 5556SOL    HW128130   1.346   4.119   7.459 -0.1398  0.7764  1.5632
 5556SOL    HW228131   1.286   3.993   7.463 -0.9784  1.3897 -0.9776
 5557SOL     OW28132   2.489   1.396  15.487 -0.5958 -0.0134  0.3540
 5557SOL    HW128133   2.483   1.462  15.417 -0.4591 -2.6427 -2.1279
 5557SOL    HW228134   2.436   1.326  15.448 -0.2728 -1.2575  2.1667
 5558SOL     OW28135   1.198   3.567   2.641 -0.4871 -0.1919 -0.1657
 5558SOL    HW128136   1.115   3.546   2.684  0.5332 -0.6955  1.5760
 5558SOL    HW228137   1.255   3.589   2.715  2.0188 -0.2605 -2.0764
 5559SOL     OW28138   1.812   4.105   0.019  0.3420 -0.0179  0.3056
 5559SOL    HW128139   1.903   4.078   0.032  0.2926  0.1524  1.0214
 5559SOL    HW228140   1.833   4.173  17.656 -0.0600  0.2408  0.4454
 5560SOL     OW28141   1.563   2.776   1.696 -0.1853 -0.4073  0.4297
 5560SOL    HW128142   1.507   2.700   1.706 -0.1536 -0.2629  1.7191
 5560SOL    HW228143   1.636   2.753   1.754 -0.3904 -0.1319  0.7960
 5561SOL     OW28144   0.246   0.128   2.214 -0.1014 -0.0391 -0.2152
 5561SOL    HW128145   0.268   0.221   2.226 -0.1678  0.0799 -1.0247
 5561SOL    HW228146   0.164   0.135   2.166 -0.4992  0.8235  0.5790
 5562SOL     OW28147   3.460   4.246   9.317  0.3637 -0.1731  0.3131
 5562SOL    HW128148   3.373   4.256   9.278 -0.0782 -1.7406  0.9103
 5562SOL    HW228149   3.482   4.154   9.301 -0.5160 -0.5921  1.5742
 5563SOL     OW28150   4.059   2.174   3.381 -0.0000  0.2780 -0.3134
 5563SOL    HW128151   4.106   2.195   3.462 -2.3877 -1.1748  1.4440
 5563SOL    HW228152   4.092   2.085   3.370  0.7210  0.8469 -2.7463
 5564SOL     OW28153   1.734   2.253   0.790  0.0765  0.4536 -0.4048
 5564SOL    HW128154   1.779   2.289   0.866  0.5810 -1.6590  0.2904
 5564SOL    HW228155   1.806   2.224   0.734 -0.0239  0.3310 -0.4709
 5565SOL     OW28156   0.319   0.240   2.657 -0.2570 -0.5179 -0.0224
 5565SOL    HW128157   0.244   0.187   2.632 -0.1025 -0.1998 -1.1615
 5565SOL    HW228158   0.290   0.325   2.627  2.7848 -0.0394 -1.6324
 5566SOL     OW28159   0.082   2.828   1.123  0.0195  0.6936 -0.3606
 5566SOL    HW128160   0.172   2.802   1.103  0.3733  0.0492  1.9797
 5566SOL    HW228161   0.036   2.747   1.103  0.6347  0.9648 -2.8173
 5567SOL     OW28162   1.419   1.440   2.894  0.8094  0.0155 -0.1338
 5567SOL    HW128163   1.408   1.527   2.857 -0.8259 -0.3792 -0.5750
 5567SOL    HW228164   1.426   1.447   2.989  1.7829 -0.0152 -0.2040
 5568SOL     OW28165   1.427   0.922  16.425  0.6076 -0.2619 -0.1010
 5568SOL    HW128166   1.464   0.888  16.343  3.3908  2.3260  0.0962
 5568SOL    HW228167   1.491   0.886  16.487 -0.2827 -0.8340  0.4829
 5569SOL     OW28168   1.259   0.738   6.165  0.1830 -0.1714  0.0520
 5569SOL    HW128169   1.216   0.709   6.084  0.3430 -0.4107  0.0508
 5569SOL    HW228170   1.209   0.817   6.183  1.1092  0.4727 -0.2209
 5570SOL     OW28171   0.314   1.960  17.685 -0.0715 -0.3792  0.0346
 5570SOL    HW128172   0.344   1.981   0.071 -2.6018  0.4900  0.6878
 5570SOL    HW228173   0.232   1.917   0.008  0.6381 -0.8529  1.5276
 5571SOL     OW28174   0.239   3.364   9.089 -0.1398  0.0476  0.1468
 5571SOL    HW128175   0.224   3.273   9.115 -0.1690 -0.0476 -0.1960
 5571SOL    HW228176   0.190   3.421   9.147  3.7371  0.9712  2.4748
 5572SOL     OW28177   0.297   0.586  14.419  0.2169  0.2582 -0.0898
 5572SOL    HW128178   0.359   0.522  14.453  0.5203  0.2533 -0.6500
 5572SOL    HW228179   0.371   0.631  14.379  0.4235  0.3214  0.3729
 5573SOL     OW28180   2.656   2.700  15.961  0.1173 -0.3935  0.5122
 5573SOL    HW128181   2.697   2.780  15.928 -0.2302 -0.5273 -0.2454
 5573SOL    HW228182   2.716   2.684  16.033  1.2202  0.5724 -0.1877
 5574SOL     OW28183   2.988   0.613   8.916  0.1644 -0.3956 -0.2629
 5574SOL    HW128184   2.938   0.694   8.915 -1.0001 -1.0940  1.6715
 5574SOL    HW228185   2.966   0.577   9.002  0.4533  3.4272  1.4168
 5575SOL     OW28186   3.838   0.677   6.584  0.3606 -0.0175  0.5726
 5575SOL    HW128187   3.919   0.663   6.634  1.4184  1.8467 -0.5944
 5575SOL    HW228188   3.874   0.684   6.496  0.5742 -2.2751  0.4814
 5576SOL     OW28189   2.624   0.007   1.262  0.0360  0.3314  0.1270
 5576SOL    HW128190   2.682   4.658   1.279  1.7923  1.9146  1.0681
 5576SOL    HW228191   2.606   0.042   1.349  0.2341  0.5114  0.0962
 5577SOL     OW28192   0.040   4.005  14.851  0.5403  0.7110  0.4585
 5577SOL    HW128193   0.123   4.054  14.849  0.7158  0.3518 -0.8089
 5577SOL    HW228194   0.068   3.926  14.897  1.1916  0.5373 -0.2420
 5578SOL     OW28195   1.466   1.133   7.742  0.0227  0.6914  0.2678
 5578SOL    HW128196   1.412   1.180   7.679 -2.3993 -1.9082  0.3746
 5578SOL    HW228197   1.408   1.056   7.745  1.1855 -0.2380 -1.0254
 5579SOL     OW28198   0.893   0.310   3.774  0.1736 -0.2191 -0.0820
 5579SOL    HW128199   0.911   0.255   3.698  0.3521 -2.2121  1.4292
 5579SOL    HW228200   0.962   0.375   3.760 -2.0749  2.8265  2.6365
 5580SOL     OW28201   0.837   3.494   2.039 -0.0548 -0.0046 -0.4195
 5580SOL    HW128202   0.893   3.430   2.083  1.1922  0.0991 -1.8702
 5580SOL    HW228203   0.848   3.573   2.093 -0.1845  2.0871 -3.4642
 5581SOL     OW28204   3.794   2.555   8.709  0.2939  0.1142 -0.0077
 5581SOL    HW128205   3.761   2.475   8.668 -0.3516 -0.3244  1.3732
 5581SOL    HW228206   3.797   2.615   8.634  0.2831  0.3994  0.2216
 5582SOL     OW28207   1.303   0.074   5.327 -0.1032  0.0555 -0.0328
 5582SOL    HW128208   1.356   0.010   5.374  1.2248  1.4201  0.3258
 5582SOL    HW228209   1.364   0.117   5.267 -0.1147 -1.7826 -1.3850
 5583SOL     OW28210   0.619   4.010  13.659 -0.0789  0.3532  0.1033
 5583SOL    HW128211   0.655   3.994  13.746  1.5475  4.5379  0.1684
 5583SOL    HW228212   0.526   4.005  13.682 -0.4226 -0.0079 -1.3701
 5584SOL     OW28213   0.106   4.276   7.854  0.0168  0.1302 -0.5614
 5584SOL    HW128214   0.186   4.226   7.870 -1.3067 -1.3876  1.4147
 5584SOL    HW228215   0.040   4.212   7.828 -0.8548  1.3947 -1.4506
 5585SOL     OW28216   0.422   1.474   5.687  0.2483  0.4604 -0.2585
 5585SOL    HW128217   0.353   1.464   5.753  2.0094  1.9172  1.8111
 5585SOL    HW228218   0.457   1.560   5.710  0.3463 -0.5946  3.5290
 5586SOL     OW28219   3.730   1.287  14.198  0.5368  0.4185 -0.6967
 5586SOL    HW128220   3.801   1.348  14.177  0.9181  0.4068  0.5178
 5586SOL    HW228221   3.784   1.208  14.205  0.3017  0.5250  2.4479
 5587SOL     OW28222   1.977   1.853   3.383  0.3823  0.1711  0.0436
 5587SOL    HW128223   1.957   1.760   3.398 -0.9418  0.9408  3.0831
 5587SOL    HW228224   1.901   1.898   3.419 -1.9917 -3.1328 -0.8829
 5588SOL     OW28225   3.285   0.103   3.198  0.3459  0.4166 -0.1022
 5588SOL    HW128226   3.213   0.040   3.190 -0.2381  0.5405  4.1675
 5588SOL    HW228227   3.238   0.165   3.254  0.9986  0.6211  0.2202
 5589SOL     OW28228   4.649   0.622   4.373 -0.3693  0.2484  0.5042
 5589SOL    HW128229   4.697   0.604   4.454 -0.5218 -3.0621 -0.1409
 5589SOL    HW228230   4.560   0.635   4.405 -1.2624  1.2149 -2.3652
 5590SOL     OW28231   2.136   0.338  10.063  0.5038 -0.2071 -0.0253
 5590SOL    HW128232   2.162   0.254  10.025 -1.0158 -0.8052  0.2343
 5590SOL    HW228233   2.149   0.329  10.157 -0.3514  2.4443  0.3458
 5591SOL     OW28234   0.123   1.187   4.597  0.6893  0.2550  0.2893
 5591SOL    HW128235   0.096   1.188   4.505 -1.6084 -3.2124  0.9052
 5591SOL    HW228236   0.045   1.151   4.639 -0.3766  1.3264 -0.7229
 5592SOL     OW28237   1.505   2.825  14.246  0.0254 -0.1322  0.0348
 5592SOL    HW128238   1.550   2.903  14.214 -2.6497  1.1850 -0.5455
 5592SOL    HW228239   1.553   2.758  14.199  0.0274  0.0084 -0.1625
 5593SOL     OW28240   4.564   1.793  10.756 -0.1234 -0.0036 -0.5817
 5593SOL    HW128241   4.632   1.860  10.753  0.6891 -0.8661 -1.4863
 5593SOL    HW228242   4.574   1.746  10.673  0.0470 -0.6710 -0.1848
 5594SOL     OW28243   2.442   0.600   3.882 -0.3048  0.0100  0.3349
 5594SOL    HW128244   2.443   0.592   3.977 -1.0831  1.7531  0.5003
 5594SOL    HW228245   2.351   0.622   3.860 -0.4566 -0.2350  0.7163
 5595SOL     OW28246   1.666   0.081  15.984  0.4297  0.7427 -0.0407
 5595SOL    HW128247   1.746   0.092  15.933  0.5783  1.3843  0.3240
 5595SOL    HW228248   1.612   0.024  15.930  3.1539 -0.7853 -1.1671
 5596SOL     OW28249   3.435   3.360  17.534  0.2253 -0.2706  0.0564
 5596SOL    HW128250   3.403   3.412  17.607 -0.4656 -0.0381 -0.4144
 5596SOL    HW228251   3.473   3.429  17.481  0.3698 -0.5491 -0.2061
 5597SOL     OW28252   4.711   3.236   3.786 -0.4932  0.0793 -0.2347
 5597SOL    HW128253   0.014   3.295   3.857 -0.2477 -0.0489 -0.2224
 5597SOL    HW228254   4.699   3.152   3.831  0.5891  0.4912  0.8302
 5598SOL     OW28255   1.759   4.092   7.040  0.0544  0.7032 -0.3145
 5598SOL    HW128256   1.701   4.113   7.114 -1.2929 -0.1570 -1.1254
 5598SOL    HW228257   1.731   4.162   6.981 -1.6725 -2.2152 -2.9459
 5599SOL     OW28258   2.703   1.816  13.604 -0.3568  0.3320  0.6383
 5599SOL    HW128259   2.794   1.786  13.599 -0.7251 -0.7648  0.5720
 5599SOL    HW228260   2.664   1.736  13.569 -0.1425 -0.1932  1.6228
 5600SOL     OW28261   4.040   1.478   9.825 -0.6440  0.0324  0.3523
 5600SOL    HW128262   4.085   1.406   9.870 -0.3064  0.0658  0.0710
 5600SOL    HW228263   4.095   1.491   9.748 -0.0223 -1.3897  0.5494
 5601SOL     OW28264   2.214   1.892  12.103 -0.0982  0.6842 -0.1343
 5601SOL    HW128265   2.127   1.921  12.074 -1.2842 -0.8507  1.8578
 5601SOL    HW228266   2.244   1.823  12.043  0.9222  2.2856 -1.4633
 5602SOL     OW28267   0.179   1.573   1.446  0.3824  0.0045  0.2511
 5602SOL    HW128268   0.227   1.643   1.490  1.1575 -1.1853  1.3168
 5602SOL    HW228269   0.212   1.494   1.490  1.8111  0.1666 -0.5231
 5603SOL     OW28270   3.450   0.429   5.946 -0.3177  0.2224  0.2484
 5603SOL    HW128271   3.453   0.504   6.006 -0.5071  0.3082  0.1508
 5603SOL    HW228272   3.513   0.374   5.992  0.4530 -0.8493 -2.0688
 5604SOL     OW28273   0.067   0.662   2.803 -0.1291 -0.2477  0.2782
 5604SOL    HW128274   0.077   0.574   2.841 -3.3232 -0.9117 -0.4462
 5604SOL    HW228275   4.700   0.662   2.781 -0.0765 -0.2109  0.0626
 5605SOL     OW28276   1.089   4.438  17.018 -0.8838 -0.6835 -0.6126
 5605SOL    HW128277   1.134   4.465  17.099 -1.0544 -0.5601 -0.5599
 5605SOL    HW228278   1.090   4.344  17.038  1.8924 -0.5416 -0.0126
 5606SOL     OW28279   0.642   3.704   6.601 -0.1444 -0.2672  0.1438
 5606SOL    HW128280   0.587   3.644   6.652 -2.0856  0.7036 -0.8117
 5606SOL    HW228281   0.587   3.782   6.604 -1.4478 -1.1291 -1.3146
 5607SOL     OW28282   2.918   3.233   2.666  0.8548  0.6614  0.2464
 5607SOL    HW128283   2.973   3.176   2.612  1.5109  0.2557  1.3348
 5607SOL    HW228284   2.972   3.222   2.744  0.1830  1.0452  0.7591
 5608SOL     OW28285   3.667   0.367   4.653  0.2623  0.5055  0.7932
 5608SOL    HW128286   3.640   0.425   4.725  0.1145  1.2941  0.1058
 5608SOL    HW228287   3.687   0.437   4.591  0.4779 -0.2980 -0.0470
 5609SOL     OW28288   3.106   2.871  12.834  0.0052 -0.3742  0.0117
 5609SOL    HW128289   3.014   2.882  12.860  0.2634  0.8255  0.4091
 5609SOL    HW228290   3.110   2.915  12.750 -1.9059  1.0673  0.6669
 5610SOL     OW28291   0.123   2.857   2.935 -0.2986 -0.3947  0.8153
 5610SOL    HW128292   0.163   2.788   2.883 -2.3576 -1.3354  0.4768
 5610SOL    HW228293   0.147   2.939   2.890 -2.3368  0.0601  0.5566
 5611SOL     OW28294   4.278   1.673  17.007  0.1866  0.2627  0.6042
 5611SOL    HW128295   4.353   1.648  16.953 -0.5906  0.2493 -0.4901
 5611SOL    HW228296   4.316   1.668  17.094  2.7817 -0.5827 -0.5843
 5612SOL     OW28297   1.211   3.389   2.990  0.6793  0.0860  0.4123
 5612SOL    HW128298   1.229   3.469   2.941 -0.3596 -0.2350 -0.4976
 5612SOL    HW228299   1.283   3.327   2.977  0.7585  0.1543  0.5274
 5613SOL     OW28300   1.825   3.831  17.602  0.2568  0.1571 -0.2353
 5613SOL    HW128301   1.888   3.789  17.660 -1.1016 -1.0029  0.3986
 5613SOL    HW228302   1.853   3.922  17.607  0.4420 -0.0903  3.0189
 5614SOL     OW28303   3.601   1.687   8.424 -0.3072  0.1349  0.0989
 5614SOL    HW128304   3.655   1.621   8.467 -3.2345 -0.5260  2.7276
 5614SOL    HW228305   3.649   1.694   8.341  1.3493  1.1270  1.1345
 5615SOL     OW28306   4.250   0.020   6.151 -0.1085 -0.1713  0.0912
 5615SOL    HW128307   4.244   4.655   6.122  0.3641 -0.3435  0.5360
 5615SOL    HW228308   4.227   0.058   6.066 -0.5756  0.7684  0.6326
 5616SOL     OW28309   2.275   2.541  16.654 -0.2494  0.3558 -0.4744
 5616SOL    HW128310   2.351   2.555  16.598  1.0942 -2.2927  0.6490
 5616SOL    HW228311   2.257   2.629  16.685  0.6203  0.0287  0.9931
 5617SOL     OW28312   1.136   1.718   2.909 -0.1965  0.1766 -0.2741
 5617SOL    HW128313   1.123   1.623   2.908 -0.2433  0.1711  0.7663
 5617SOL    HW228314   1.222   1.726   2.868 -0.5873 -1.6300 -1.4153
 5618SOL     OW28315   1.973   3.634   8.585 -0.5205 -0.0574 -0.7926
 5618SOL    HW128316   1.989   3.553   8.635  2.7064  0.4632 -0.9807
 5618SOL    HW228317   1.935   3.697   8.646 -2.1161 -0.1640 -1.6574
 5619SOL     OW28318   2.757   2.071  12.045  0.0821  0.2480 -0.1898
 5619SOL    HW128319   2.692   2.140  12.051  0.7342  0.9108 -0.8287
 5619SOL    HW228320   2.748   2.056  11.951  1.4476  1.3431 -0.4937
 5620SOL     OW28321   3.699   2.051   8.426 -0.2792  0.3228  0.1420
 5620SOL    HW128322   3.743   2.028   8.345 -0.8666 -2.0242  0.5010
 5620SOL    HW228323   3.762   2.064   8.497 -0.0776  2.0759 -0.3652
 5621SOL     OW28324   2.464   4.209   3.107 -0.0942 -0.2929  0.1349
 5621SOL    HW128325   2.409   4.244   3.177  1.7820  0.3667  1.2798
 5621SOL    HW228326   2.415   4.135   3.071 -1.1548  0.6142 -0.2474
 5622SOL     OW28327   3.164   1.284  11.967  0.2934  0.3627 -0.2589
 5622SOL    HW128328   3.093   1.222  11.982  0.0926  1.8150  4.8906
 5622SOL    HW228329   3.219   1.219  11.924  1.6064  1.5591 -0.3910
 5623SOL     OW28330   1.433   0.499   4.498  0.1009  0.0671  0.0875
 5623SOL    HW128331   1.351   0.494   4.449 -1.4878  0.3419  2.7389
 5623SOL    HW228332   1.408   0.462   4.583 -1.4753  0.5769 -0.1456
 5624SOL     OW28333   3.288   0.758   5.744  0.6826 -0.1280 -0.3155
 5624SOL    HW128334   3.277   0.779   5.836 -2.2760  0.3515 -0.7577
 5624SOL    HW228335   3.245   0.835   5.707  4.1507  1.3760 -1.2653
 5625SOL     OW28336   0.657   4.253   1.158 -0.3880 -0.3877  0.3084
 5625SOL    HW128337   0.633   4.186   1.094  2.7216 -0.5182 -0.7420
 5625SOL    HW228338   0.572   4.297   1.166 -0.0883  0.4145 -0.9277
 5626SOL     OW28339   1.499   0.614   4.891 -0.1773  0.0503 -0.0322
 5626SOL    HW128340   1.587   0.615   4.854 -1.2207  1.3671 -2.5041
 5626SOL    HW228341   1.519   0.588   4.980 -1.8082  0.7938  0.5641
 5627SOL     OW28342   2.128   3.095   3.740  0.5863 -0.1610  0.0884
 5627SOL    HW128343   2.210   3.144   3.737  1.4228 -1.4898  1.1876
 5627SOL    HW228344   2.074   3.173   3.724  1.3526  0.0581 -1.4453
 5628SOL     OW28345   0.895   2.879   2.782  0.1162 -0.5312 -0.0792
 5628SOL    HW128346   0.971   2.840   2.739  1.5630  1.3653  0.7603
 5628SOL    HW228347   0.828   2.812   2.768 -0.2874 -0.0229 -0.6193
 5629SOL     OW28348   4.655   1.105  13.566 -0.6491  0.1645 -0.6933
 5629SOL    HW128349   4.635   1.198  13.571 -2.0572 -0.0816 -1.7962
 5629SOL    HW228350   4.569   1.062  13.574 -0.1558 -0.8941 -1.0379
 5630SOL     OW28351   2.710   2.784   8.098  0.5775 -0.2513  0.0100
 5630SOL    HW128352   2.692   2.850   8.165  0.7548 -0.9940  0.7902
 5630SOL    HW228353   2.667   2.828   8.025 -1.0083 -0.5945  0.7408
 5631SOL     OW28354   4.059   3.719  11.513 -0.5821 -0.8612 -0.7989
 5631SOL    HW128355   4.089   3.650  11.454  2.8455  0.2783 -0.3912
 5631SOL    HW228356   4.131   3.780  11.496 -0.2912 -1.7710 -2.8475
 5632SOL     OW28357   3.541   2.507  11.406 -0.2872 -0.1314 -0.3001
 5632SOL    HW128358   3.618   2.517  11.351 -0.1057 -0.4041 -0.1012
 5632SOL    HW228359   3.466   2.529  11.352 -0.4686  0.9621  0.3965
 5633SOL     OW28360   0.736   4.422   1.483 -0.0911 -0.6656  0.2899
 5633SOL    HW128361   0.667   4.360   1.507 -3.1217  1.8989 -1.6711
 5633SOL    HW228362   0.677   4.479   1.433  2.4340  1.4128 -0.2758
 5634SOL     OW28363   0.860   2.606   9.240 -0.0439 -0.1494 -0.1376
 5634SOL    HW128364   0.860   2.553   9.319  0.4358 -1.6052 -1.1225
 5634SOL    HW228365   0.889   2.687   9.283  1.1134 -0.1648 -0.8790
 5635SOL     OW28366   4.365   0.191  13.868  1.1405 -0.0169  0.6072
 5635SOL    HW128367   4.337   0.147  13.949  1.6697 -0.8185  0.3527
 5635SOL    HW228368   4.399   0.272  13.907 -0.5911  1.8644 -1.8188
 5636SOL     OW28369   2.676   2.992   8.286  0.2212 -0.7490 -0.1445
 5636SOL    HW128370   2.609   3.015   8.352  1.7101  0.0647  1.0775
 5636SOL    HW228371   2.747   3.046   8.320  0.7851 -0.0720 -2.3659
 5637SOL     OW28372   3.268   0.731   8.588  0.3579  0.3471  0.2857
 5637SOL    HW128373   3.295   0.733   8.680  1.9730  1.7950 -0.2317
 5637SOL    HW228374   3.209   0.803   8.566  0.2470 -0.1900 -1.1927
 5638SOL     OW28375   1.097   2.829  11.181 -0.5543  0.7803 -0.2268
 5638SOL    HW128376   1.159   2.901  11.174  2.2005 -1.4955  1.0268
 5638SOL    HW228377   1.154   2.765  11.223 -1.7795 -0.9981 -1.2580
 5639SOL     OW28378   0.904   3.641   4.740 -0.9974 -0.2269 -0.4416
 5639SOL    HW128379   0.999   3.650   4.745 -1.3244  2.8675  0.0702
 5639SOL    HW228380   0.881   3.563   4.792  0.1088  0.9187  1.7502
 5640SOL     OW28381   3.023   1.871   4.686  0.3648  0.2279 -0.0633
 5640SOL    HW128382   3.042   1.964   4.684 -1.3012  0.5346 -0.9787
 5640SOL    HW228383   3.062   1.845   4.603  1.5459 -2.0960  1.2034
 5641SOL     OW28384   3.910   2.076  13.775  0.1139  0.2016  1.0251
 5641SOL    HW128385   3.978   2.142  13.761  0.3966 -0.5147 -0.9685
 5641SOL    HW228386   3.940   2.018  13.845 -1.0793  0.8457  2.0870
 5642SOL     OW28387   0.046   3.582   3.911 -0.2033  0.3270  0.0287
 5642SOL    HW128388   0.064   3.552   3.822 -0.4033  1.6599 -0.4676
 5642SOL    HW228389   4.682   3.550   3.928 -1.2466  2.7305 -0.8409
 5643SOL     OW28390   2.267   0.388  10.725  0.1247  0.1759 -0.5472
 5643SOL    HW128391   2.324   0.362  10.653 -1.3514 -0.1126 -1.6301
 5643SOL    HW228392   2.286   0.481  10.731  1.0739 -0.1258  1.2220
 5644SOL     OW28393   3.303   0.013   4.071  0.4112 -0.2358  1.2474
 5644SOL    HW128394   3.399   0.010   4.069  0.2997 -3.6197  0.3253
 5644SOL    HW228395   3.297   4.674   4.000 -0.0200 -1.7332  2.6389
 5645SOL     OW28396   2.470   1.522  15.222 -0.0108  0.1366 -0.4827
 5645SOL    HW128397   2.500   1.593  15.278  4.0726 -1.2979 -0.8306
 5645SOL    HW228398   2.518   1.528  15.139  0.5205 -0.1467 -0.1982
 5646SOL     OW28399   2.409   2.806   8.809  0.2380  0.1704  0.3946
 5646SOL    HW128400   2.447   2.892   8.793  0.8944  0.0192  1.1377
 5646SOL    HW228401   2.460   2.786   8.888  0.0914 -0.5345  0.3041
 5647SOL     OW28402   1.072   2.044   2.171 -0.2348  0.3879  0.1334
 5647SOL    HW128403   1.144   1.983   2.190 -1.4920 -1.3232 -0.5696
 5647SOL    HW228404   0.994   1.996   2.198 -0.4469  0.9648  0.5355
 5648SOL     OW28405   4.707   1.354   4.997 -0.6917 -0.0348  0.0070
 5648SOL    HW128406   4.633   1.294   4.985 -0.1826 -0.3352 -1.6285
 5648SOL    HW228407   0.051   1.298   5.032  0.4723  0.8245 -0.9339
 5649SOL     OW28408   3.936   4.687   5.687  0.3122  0.0897 -0.0973
 5649SOL    HW128409   3.905   0.024   5.753 -1.6879  1.3573 -2.2260
 5649SOL    HW228410   3.880   4.696   5.610  0.5640 -1.5367 -0.4601
 5650SOL     OW28411   4.297   3.911   4.406 -0.1749 -0.4258 -0.4443
 5650SOL    HW128412   4.337   3.992   4.377  0.6656 -1.4983 -2.3263
 5650SOL    HW228413   4.250   3.877   4.329 -1.5454 -0.0851  0.2333
 5651SOL     OW28414   2.269   1.868   9.039 -0.2305 -0.1286 -0.4301
 5651SOL    HW128415   2.202   1.825   9.092 -1.2742  3.0752  0.8620
 5651SOL    HW228416   2.253   1.839   8.950 -1.4156 -0.8769  0.0179
 5652SOL     OW28417   3.436   3.322   0.242 -0.1620  0.1504 -0.8170
 5652SOL    HW128418   3.370   3.257   0.219 -0.6231 -0.7221  2.9758
 5652SOL    HW228419   3.447   3.371   0.161  0.2034 -3.2174 -2.7972
 5653SOL     OW28420   1.382   1.032   5.025 -0.8132 -0.1081  0.5650
 5653SOL    HW128421   1.339   0.964   4.975  0.4380  0.2005 -0.9184
 5653SOL    HW228422   1.343   1.035   5.113  1.0018 -0.5236  1.3930
 5654SOL     OW28423   4.286   3.862  16.934  0.7606 -0.4028 -0.6503
 5654SOL    HW128424   4.240   3.833  17.013  0.2802 -0.8768 -1.1035
 5654SOL    HW228425   4.282   3.957  16.943  0.7989 -0.2841 -1.9291
 5655SOL     OW28426   4.064   2.475   4.647 -0.1047  0.6161  0.8431
 5655SOL    HW128427   3.977   2.487   4.609  0.3013  1.1917  0.0831
 5655SOL    HW228428   4.108   2.546   4.601  0.2289  0.9286  1.6472
 5656SOL     OW28429   1.553   0.788   7.831  0.1255  0.0761 -0.0344
 5656SOL    HW128430   1.621   0.823   7.888 -1.5675 -0.1973  2.1863
 5656SOL    HW228431   1.588   0.707   7.793  0.3214 -0.1767  0.6730
 5657SOL     OW28432   4.690   0.308   4.380 -0.2717 -0.2327 -0.0171
 5657SOL    HW128433   0.006   0.359   4.450  0.5894 -2.0355  0.8095
 5657SOL    HW228434   4.700   0.366   4.305  0.3405 -1.1433 -0.6396
 5658SOL     OW28435   0.431   4.215   3.058  0.0170 -0.0311  0.0424
 5658SOL    HW128436   0.451   4.145   3.120 -0.8824  0.0698  0.4486
 5658SOL    HW228437   0.335   4.206   3.055 -0.0677  0.8698  0.0901
 5659SOL     OW28438   2.941   3.943   5.425  0.1057  0.2234 -0.5974
 5659SOL    HW128439   2.916   4.035   5.419 -0.2594  0.2353  1.1066
 5659SOL    HW228440   2.899   3.909   5.505  0.2439 -1.2751 -1.1608
 5660SOL     OW28441   3.990   4.522   4.813  0.4887  0.2277  0.0266
 5660SOL    HW128442   4.080   4.526   4.781 -0.5756  2.0591 -2.6856
 5660SOL    HW228443   3.935   4.560   4.745  1.6615 -0.4428 -1.3033
 5661SOL     OW28444   0.859   1.534   7.721  0.6758  0.4879 -0.2270
 5661SOL    HW128445   0.873   1.470   7.791  2.1643 -1.4880 -2.3195
 5661SOL    HW228446   0.831   1.606   7.777 -0.4092 -1.1377  1.3145
 5662SOL     OW28447   1.852   2.677   4.032  0.0803 -0.0591 -0.3252
 5662SOL    HW128448   1.865   2.582   4.027  0.7996  0.0611 -0.7704
 5662SOL    HW228449   1.844   2.703   3.940 -2.0890 -1.2526 -0.4688
 5663SOL     OW28450   3.385   1.213  13.307 -0.8846  0.5645  0.1614
 5663SOL    HW128451   3.291   1.196  13.318 -0.7104 -0.4073  0.1155
 5663SOL    HW228452   3.381   1.309  13.304  0.1315  0.5919 -0.1692
 5664SOL     OW28453   3.259   2.058   9.887  0.0187 -0.3014 -0.2834
 5664SOL    HW128454   3.172   2.074   9.925 -1.7249  1.2612 -4.9484
 5664SOL    HW228455   3.243   2.047   9.794 -1.1740 -0.3128 -0.0788
 5665SOL     OW28456   4.258   2.777   4.176 -0.0004  0.1189  0.3364
 5665SOL    HW128457   4.281   2.689   4.205  0.4790  0.0934 -0.1247
 5665SOL    HW228458   4.201   2.816   4.243  0.5003 -0.8887  1.3511
 5666SOL     OW28459   0.023   3.199  15.018  0.4084 -0.0653 -0.0397
 5666SOL    HW128460   4.693   3.230  14.946  0.0083 -2.4067 -0.7459
 5666SOL    HW228461   4.710   3.250  15.089  0.0183  0.0667 -0.3439
 5667SOL     OW28462   1.714   4.565  14.853 -0.6519 -0.7338  0.4062
 5667SOL    HW128463   1.748   4.511  14.782  2.5300  2.3207 -0.3700
 5667SOL    HW228464   1.626   4.531  14.871 -1.1845  0.2216 -0.4290
 5668SOL     OW28465   3.940   0.156   8.778  0.2473 -0.2416  0.0013
 5668SOL    HW128466   3.938   0.225   8.845 -0.6876 -0.9012  0.6484
 5668SOL    HW228467   3.869   0.188   8.721  2.2263  0.3146 -2.1466
 5669SOL     OW28468   3.681   4.284   8.026 -0.8219 -0.2353  0.3836
 5669SOL    HW128469   3.722   4.358   8.071  1.3482 -0.9456 -0.4129
 5669SOL    HW228470   3.705   4.211   8.084  2.2642  0.1983 -0.3519
 5670SOL     OW28471   1.393   3.149  16.703  0.0946  0.0427  0.4876
 5670SOL    HW128472   1.422   3.224  16.651 -0.0604 -0.1748  0.0887
 5670SOL    HW228473   1.299   3.164  16.700  0.0085 -0.3660  1.0733
 5671SOL     OW28474   2.395   0.327   0.857  0.0920  0.6542 -0.6978
 5671SOL    HW128475   2.435   0.349   0.773 -0.1754  3.3340 -0.1019
 5671SOL    HW228476   2.303   0.347   0.841 -0.9388 -2.5442  1.0813
 5672SOL     OW28477   1.794   0.328   6.921 -0.1101  0.0016 -0.3487
 5672SOL    HW128478   1.769   0.281   6.841 -0.8352  2.3293 -1.4900
 5672SOL    HW228479   1.858   0.389   6.884  1.5370 -1.9218 -0.6912
 5673SOL     OW28480   4.041   1.107   5.409  0.0882  0.3377 -0.2039
 5673SOL    HW128481   3.979   1.063   5.468 -0.2813  0.1289 -0.7476
 5673SOL    HW228482   3.996   1.098   5.326 -2.4782  1.2234  1.0991
 5674SOL     OW28483   2.995   2.788   1.065  0.1871 -1.0726  0.1266
 5674SOL    HW128484   3.035   2.812   0.981  0.8172 -0.3242  0.6493
 5674SOL    HW228485   2.986   2.868   1.116  1.5085 -0.9509  0.1732
 5675SOL     OW28486   0.427   3.081  14.286 -0.2101 -0.1634  0.1166
 5675SOL    HW128487   0.383   3.094  14.370  0.4522 -1.6602  0.7049
 5675SOL    HW228488   0.363   3.079  14.215 -0.7543 -0.3224  0.6090
 5676SOL     OW28489   1.383   4.083   8.120  0.9179  0.0923 -0.1850
 5676SOL    HW128490   1.292   4.091   8.092  0.9916 -0.0877 -0.4782
 5676SOL    HW228491   1.371   4.038   8.203 -0.4424 -0.5075 -0.7030
 5677SOL     OW28492   3.438   4.564   5.404 -0.4885  0.0088 -0.1979
 5677SOL    HW128493   3.357   4.609   5.382 -0.7791 -1.0829 -1.4259
 5677SOL    HW228494   3.398   4.484   5.437  0.0411  0.7378  2.1799
 5678SOL     OW28495   3.330   1.517  14.682  0.1458  0.2327 -0.3040
 5678SOL    HW128496   3.396   1.462  14.638  0.8543 -0.6258  1.8454
 5678SOL    HW228497   3.384   1.588  14.714 -1.1828  1.1108 -0.0247
 5679SOL     OW28498   3.527   3.984   5.515  0.4625  0.1104 -0.5136
 5679SOL    HW128499   3.602   3.929   5.493 -0.3781  0.4118 -4.1922
 5679SOL    HW228500   3.553   4.042   5.586  2.4196  0.4120 -1.4862
 5680SOL     OW28501   1.507   1.211   3.109  0.1231 -0.2980 -0.0607
 5680SOL    HW128502   1.552   1.133   3.142 -0.2428 -0.1109  0.8675
 5680SOL    HW228503   1.489   1.174   3.022  0.2684 -1.0063  0.2147
 5681SOL     OW28504   4.100   1.552   9.569 -0.1045  0.3945  0.6450
 5681SOL    HW128505   4.119   1.536   9.477 -0.4441  3.6172  0.0218
 5681SOL    HW228506   4.071   1.642   9.577  1.2430  0.7736  1.3562
 5682SOL     OW28507   4.562   4.618   2.835 -0.1685  0.2047  0.5906
 5682SOL    HW128508   4.568   4.530   2.798  0.3067 -0.0218  1.2084
 5682SOL    HW228509   4.593   4.610   2.925  1.0363 -2.2690 -0.0372
 5683SOL     OW28510   0.442   4.600   5.058  0.0276  0.2594 -0.0197
 5683SOL    HW128511   0.442   4.511   5.023  0.4653  0.4570 -0.5368
 5683SOL    HW228512   0.366   4.637   5.014 -0.2714 -1.0965 -0.6443
 5684SOL     OW28513   1.284   0.895   4.234 -0.2096  0.1666  0.7282
 5684SOL    HW128514   1.276   0.812   4.281 -0.7196  1.6066  3.1819
 5684SOL    HW228515   1.359   0.937   4.276  0.9324 -3.4900  2.3895
 5685SOL     OW28516   1.891   2.146   1.372 -0.1770 -0.2536  0.5138
 5685SOL    HW128517   1.801   2.134   1.400 -0.7531  1.7504 -0.4605
 5685SOL    HW228518   1.900   2.072   1.313 -0.2397 -0.2471  0.4961
 5686SOL     OW28519   4.414   3.718   6.927  0.0356  0.2071  0.1187
 5686SOL    HW128520   4.340   3.701   6.869  0.5073 -2.1886  0.1977
 5686SOL    HW228521   4.361   3.745   7.002  0.3021  1.6943 -0.2413
 5687SOL     OW28522   1.960   3.695   5.234 -0.5472  0.4236 -0.5198
 5687SOL    HW128523   1.884   3.638   5.241 -1.1957  1.3440 -0.0114
 5687SOL    HW228524   1.990   3.677   5.144 -0.2772  0.7728 -0.4986
 5688SOL     OW28525   3.163   2.861   2.075  0.0779 -0.0994  0.0380
 5688SOL    HW128526   3.118   2.938   2.110 -3.4052 -2.1797  0.1030
 5688SOL    HW228527   3.130   2.793   2.133  0.2295  0.1202  0.3814
 5689SOL     OW28528   4.584   0.033  16.502  0.7190  0.4068  0.0677
 5689SOL    HW128529   4.494   0.052  16.527  0.8962  1.9104 -0.4036
 5689SOL    HW228530   4.595   0.104  16.438 -1.7964  0.0161 -0.7922
 5690SOL     OW28531   1.672   4.384  11.251 -0.0499 -0.1418 -0.5288
 5690SOL    HW128532   1.578   4.377  11.237 -0.1412  1.1511 -0.4815
 5690SOL    HW228533   1.691   4.290  11.240  0.2693 -0.0511 -0.7656
 5691SOL     OW28534   0.659   0.651  14.002 -0.9429 -0.0402 -0.3281
 5691SOL    HW128535   0.734   0.699  13.966 -0.5040 -0.1161  0.4775
 5691SOL    HW228536   0.655   0.584  13.934 -1.4027 -0.7630  0.4033
 5692SOL     OW28537   2.408   0.058   4.267 -0.1410 -0.3217 -0.0290
 5692SOL    HW128538   2.423   4.707   4.211  0.8005  0.3000 -0.6279
 5692SOL    HW228539   2.409   0.131   4.204 -1.4463  0.7688  1.2201
 5693SOL     OW28540   4.208   3.390  13.815 -0.4868 -0.2653  0.6248
 5693SOL    HW128541   4.219   3.373  13.908 -2.0665  1.7876  1.1892
 5693SOL    HW228542   4.134   3.332  13.801  0.1217 -0.4049 -1.9945
 5694SOL     OW28543   3.283   3.467   6.784  0.2084  0.2156  0.4606
 5694SOL    HW128544   3.242   3.382   6.799  2.1758 -0.5865  1.4522
 5694SOL    HW228545   3.231   3.501   6.712 -1.1091 -3.7741 -0.4175
 5695SOL     OW28546   3.151   0.660  16.256 -0.0625  0.0676  0.4476
 5695SOL    HW128547   3.199   0.732  16.296  0.0883  0.8762 -1.1711
 5695SOL    HW228548   3.187   0.587  16.306  1.2601  1.3408  1.3601
 5696SOL     OW28549   4.293   3.375  16.542 -0.4941  0.1338 -0.5270
 5696SOL    HW128550   4.326   3.380  16.453  1.9241 -0.1459  0.3272
 5696SOL    HW228551   4.290   3.466  16.571 -0.8586 -0.0947  0.1552
 5697SOL     OW28552   1.983   2.545   0.488 -0.3306 -0.5409 -0.0209
 5697SOL    HW128553   1.979   2.544   0.583 -0.0909 -1.3206 -0.0187
 5697SOL    HW228554   1.911   2.602   0.461  0.0715 -0.5067 -1.0495
 5698SOL     OW28555   3.508   4.684   9.827  0.1355 -0.2797  0.4216
 5698SOL    HW128556   3.413   4.690   9.830  0.0497 -1.0042 -0.9213
 5698SOL    HW228557   3.531   4.660   9.917  0.8248  0.5665  0.4748
 5699SOL     OW28558   3.135   1.104  17.320 -0.1890  0.4226  0.6227
 5699SOL    HW128559   3.128   1.010  17.300  1.3540  0.7454 -1.4536
 5699SOL    HW228560   3.229   1.115  17.333  0.0015 -0.4333  0.0257
 5700SOL     OW28561   0.226   1.389   4.779 -0.0875  0.6738  0.3009
 5700SOL    HW128562   0.169   1.341   4.839 -0.2435  1.7377  0.9928
 5700SOL    HW228563   0.210   1.342   4.697 -0.9551  0.3525  0.6568
 5701SOL     OW28564   3.410   0.344  10.464  0.1202  0.5316 -0.4072
 5701SOL    HW128565   3.332   0.293  10.447 -0.6651  1.4161  0.5600
 5701SOL    HW228566   3.401   0.409  10.393  0.6729 -0.3341 -1.2712
 5702SOL     OW28567   0.237   0.716   2.501  0.0194  0.0714  0.4223
 5702SOL    HW128568   0.318   0.765   2.516 -0.1861  1.0250 -1.6307
 5702SOL    HW228569   0.194   0.708   2.586 -0.1144 -1.4568  0.2226
 5703SOL     OW28570   2.001   1.253  10.415 -0.0885 -0.4475 -0.3669
 5703SOL    HW128571   1.964   1.231  10.500  0.2789  1.7385  0.3721
 5703SOL    HW228572   2.018   1.346  10.434  1.5170 -1.0914  1.4419
 5704SOL     OW28573   0.678   1.977  12.163 -0.7589 -0.1146  0.3061
 5704SOL    HW128574   0.635   1.911  12.216 -1.6781  1.2635  1.2722
 5704SOL    HW228575   0.754   1.930  12.127 -0.6118 -1.3973  2.3262
 5705SOL     OW28576   4.351   3.296   7.872  0.1874 -0.6221  0.4535
 5705SOL    HW128577   4.446   3.295   7.861  0.0029  2.2258 -1.3636
 5705SOL    HW228578   4.318   3.277   7.784 -0.1736  1.7071  0.0843
 5706SOL     OW28579   0.610   0.563   2.691 -0.0293  0.0101  0.2619
 5706SOL    HW128580   0.582   0.554   2.601 -1.7905 -0.5455  0.8820
 5706SOL    HW228581   0.532   0.534   2.737  2.0114 -2.8989  1.9354
 5707SOL     OW28582   0.203   1.364   5.527 -0.4826 -0.7675 -0.3138
 5707SOL    HW128583   0.202   1.447   5.480  1.5307  0.4587  1.7886
 5707SOL    HW228584   0.297   1.345   5.533 -0.4860 -0.1723  1.7631
 5708SOL     OW28585   3.645   1.277  17.430 -0.3664 -0.1165 -0.2796
 5708SOL    HW128586   3.652   1.329  17.350  0.9400  0.0029 -0.0931
 5708SOL    HW228587   3.677   1.336  17.498 -2.2716  0.3817  0.1750
 5709SOL     OW28588   3.228   3.656   7.773 -0.5285  0.0137  0.0096
 5709SOL    HW128589   3.235   3.693   7.685 -0.1754  1.0956  0.4903
 5709SOL    HW228590   3.184   3.571   7.762  0.6386 -0.7254  1.1765
 5710SOL     OW28591   0.936   0.467   1.247 -0.3617 -0.0209 -0.4296
 5710SOL    HW128592   0.985   0.455   1.329 -0.7497  0.6589 -0.0970
 5710SOL    HW228593   1.002   0.430   1.188  1.3489 -0.2588  1.6472
 5711SOL     OW28594   4.238   1.537   1.910 -0.3223 -0.1883 -0.2325
 5711SOL    HW128595   4.163   1.478   1.913 -0.8766  0.6152  1.6203
 5711SOL    HW228596   4.196   1.620   1.886  0.0688 -0.2028 -0.9846
 5712SOL     OW28597   4.655   1.172   6.048 -0.1685 -0.0836 -0.7399
 5712SOL    HW128598   4.633   1.264   6.057  0.7088  0.1550 -0.9774
 5712SOL    HW228599   4.650   1.151   6.141 -1.2264 -0.7036 -0.9371
 5713SOL     OW28600   3.558   1.960  12.721  0.1332  0.2680 -0.5174
 5713SOL    HW128601   3.638   1.927  12.762  0.3090  2.2206  0.6986
 5713SOL    HW228602   3.531   1.876  12.683 -0.5355 -0.1169  0.8083
 5714SOL     OW28603   3.469   3.428   2.507  0.0460  0.2417 -0.4100
 5714SOL    HW128604   3.484   3.522   2.518  0.9603  0.0540 -0.0933
 5714SOL    HW228605   3.421   3.430   2.424  0.3565  1.2295 -0.5611
 5715SOL     OW28606   1.379   0.870  16.813  0.8003  0.0296  0.4422
 5715SOL    HW128607   1.429   0.796  16.779 -0.7098 -0.7891 -0.0436
 5715SOL    HW228608   1.338   0.836  16.893  0.9066 -0.9553  0.0856
 5716SOL     OW28609   1.613   3.093   3.340 -0.3802 -0.1781 -0.5440
 5716SOL    HW128610   1.561   3.065   3.265  1.2541 -0.8112 -1.4676
 5716SOL    HW228611   1.558   3.152   3.391 -0.0185 -0.6853  0.4487
 5717SOL     OW28612   4.081   3.623   0.657  0.0491 -1.0086  0.0568
 5717SOL    HW128613   4.044   3.708   0.683  0.8629 -0.4883 -0.4844
 5717SOL    HW228614   4.151   3.666   0.608 -0.0299 -1.3808 -0.3805
 5718SOL     OW28615   4.359   1.223  13.588 -0.0323 -0.2479 -0.2300
 5718SOL    HW128616   4.267   1.236  13.569  0.5170  0.7493 -2.1864
 5718SOL    HW228617   4.360   1.127  13.584  0.8723 -0.2509 -0.0192
 5719SOL     OW28618   2.879   0.495   9.609 -0.1052 -0.5168  0.1204
 5719SOL    HW128619   2.892   0.499   9.704 -1.3769 -0.0092  0.2758
 5719SOL    HW228620   2.965   0.519   9.574 -0.4538 -0.7851 -0.9242
 5720SOL     OW28621   1.282   1.722  15.953 -0.1962  0.3062 -0.2810
 5720SOL    HW128622   1.325   1.806  15.938 -0.6143  0.6259  0.3213
 5720SOL    HW228623   1.297   1.686  15.865 -1.7367 -2.2106  0.4849
 5721SOL     OW28624   4.286   4.142  16.886 -0.2322  0.0179  0.3500
 5721SOL    HW128625   4.358   4.182  16.838 -0.4793 -0.6421 -0.5810
 5721SOL    HW228626   4.266   4.213  16.947 -2.6754  0.8233 -1.3592
 5722SOL     OW28627   2.575   1.796   8.847  0.6861 -0.4519 -0.2334
 5722SOL    HW128628   2.595   1.793   8.940 -1.1676 -2.5460  0.1072
 5722SOL    HW228629   2.525   1.715   8.830 -2.5252  2.3239 -4.0292
 5723SOL     OW28630   2.355   0.622  13.096  0.2061 -0.1216 -0.0026
 5723SOL    HW128631   2.418   0.554  13.072  0.5948  0.2316  0.0060
 5723SOL    HW228632   2.319   0.586  13.176  1.9878  0.4910  1.0730
 5724SOL     OW28633   1.475   2.466   9.341 -0.0843 -0.6068 -0.5062
 5724SOL    HW128634   1.505   2.376   9.330 -0.8704 -0.7912 -1.1296
 5724SOL    HW228635   1.444   2.464   9.432  1.3508  0.4420  0.0135
 5725SOL     OW28636   2.896   1.218   3.345  0.8298 -0.0122 -0.7171
 5725SOL    HW128637   2.857   1.132   3.332 -1.6917  0.6110  2.6641
 5725SOL    HW228638   2.816   1.264   3.323  1.9399  1.8973 -0.8130
 5726SOL     OW28639   2.277   3.309  14.378  0.5861  0.0115  0.2074
 5726SOL    HW128640   2.218   3.301  14.452 -0.4441 -2.0053 -0.8324
 5726SOL    HW228641   2.304   3.218  14.368 -0.3948 -0.2739  0.1819
 5727SOL     OW28642   3.932   0.755  16.024 -0.1228  0.0643  0.0352
 5727SOL    HW128643   3.890   0.698  15.959  0.5054 -0.1768 -0.1611
 5727SOL    HW228644   3.960   0.827  15.968 -4.5520  1.3309 -0.5265
 5728SOL     OW28645   2.667   3.964   2.406  0.3368  0.1427  0.0401
 5728SOL    HW128646   2.668   4.059   2.401  4.3246 -0.0610 -2.4673
 5728SOL    HW228647   2.632   3.930   2.324 -1.0466  1.2858  0.1590
 5729SOL     OW28648   0.993   1.025   2.172  0.2545 -0.7387  0.2287
 5729SOL    HW128649   1.024   1.112   2.196 -0.8016 -0.3192  0.0745
 5729SOL    HW228650   0.913   1.048   2.124  0.4587 -2.3940 -0.9205
 5730SOL     OW28651   4.012   1.654   8.023  0.1450  0.4807 -1.2386
 5730SOL    HW128652   4.079   1.716   7.992  0.7735  1.1746  1.5188
 5730SOL    HW228653   4.023   1.658   8.118  0.6408  2.3751 -1.3762
 5731SOL     OW28654   4.021   3.310   8.216  0.3473 -0.9360 -0.3228
 5731SOL    HW128655   3.927   3.318   8.198  0.4050 -0.7215 -0.5247
 5731SOL    HW228656   4.037   3.276   8.304 -2.2112  0.5522  0.7405
 5732SOL     OW28657   4.692   3.768   4.560 -0.2668 -0.3014 -0.0577
 5732SOL    HW128658   4.599   3.766   4.583 -0.7181  0.7227 -1.7787
 5732SOL    HW228659   4.681   3.780   4.466  2.9443  0.1844 -0.3630
 5733SOL     OW28660   1.380   2.862   2.878 -0.1011  0.7305 -0.0336
 5733SOL    HW128661   1.318   2.880   2.949 -1.4416 -1.1336 -0.7393
 5733SOL    HW228662   1.350   2.916   2.805 -1.2203  1.0376  0.6459
 5734SOL     OW28663   4.494   1.806  10.452 -0.6432 -0.6071 -0.5271
 5734SOL    HW128664   4.548   1.837  10.380  1.6593  1.9782  2.2931
 5734SOL    HW228665   4.558   1.742  10.483 -1.3965 -0.9648  0.3075
 5735SOL     OW28666   3.553   0.853  12.036  0.6062 -0.3750  0.1963
 5735SOL    HW128667   3.609   0.837  12.112  0.0468 -1.7065  0.3315
 5735SOL    HW228668   3.523   0.944  12.046  0.0373 -0.5443  0.0396
 5736SOL     OW28669   2.486   3.110  14.515  0.6348  0.3214  0.2314
 5736SOL    HW128670   2.425   3.091  14.444 -0.7383  4.0843  0.3940
 5736SOL    HW228671   2.438   3.184  14.552  2.7741  0.1816  3.2249
 5737SOL     OW28672   2.186   0.066   5.271  0.2020 -0.0533 -0.1119
 5737SOL    HW128673   2.180   4.696   5.274 -0.9094  0.0417  0.6350
 5737SOL    HW228674   2.272   0.068   5.228 -0.3379  1.9778 -1.0893
 5738SOL     OW28675   4.329   0.008   4.062 -0.2426  0.5484 -0.5274
 5738SOL    HW128676   4.402   0.055   4.022  0.0489 -0.0255 -0.6721
 5738SOL    HW228677   4.377   4.662   4.106 -0.3316  0.8810  0.1079
 5739SOL     OW28678   3.567   2.577  10.562  0.3889  0.0562  0.4787
 5739SOL    HW128679   3.559   2.587  10.656 -1.1379  1.5281  0.1804
 5739SOL    HW228680   3.648   2.525  10.557  0.1582 -0.1649 -0.9696
 5740SOL     OW28681   4.572   4.551   4.788  0.0721  0.0546 -0.2737
 5740SOL    HW128682   4.568   4.615   4.717  3.1968  1.8434  1.1623
 5740SOL    HW228683   4.628   4.485   4.747  2.0994  1.5957  0.0235
 5741SOL     OW28684   3.404   2.893  13.295  0.1247 -0.0995 -0.7120
 5741SOL    HW128685   3.351   2.822  13.259 -0.5363 -0.2535  0.5420
 5741SOL    HW228686   3.344   2.941  13.352 -1.3664 -0.9859 -1.5498
 5742SOL     OW28687   2.486   4.076  13.083 -0.0772 -0.1654  0.7868
 5742SOL    HW128688   2.534   4.150  13.120 -2.3629  0.5244  2.3398
 5742SOL    HW228689   2.403   4.123  13.074 -1.1226 -1.7008  2.5832
 5743SOL     OW28690   2.399   4.533  13.199  0.2068  0.2208  0.1029
 5743SOL    HW128691   2.470   4.511  13.138  1.1877  2.2605  0.4887
 5743SOL    HW228692   2.419   4.488  13.281  0.0377 -0.5119 -0.2572
 5744SOL     OW28693   4.643   0.627  10.949 -0.0971 -0.4377  0.0185
 5744SOL    HW128694   4.676   0.705  10.905  1.2371 -1.3650 -0.6126
 5744SOL    HW228695   4.718   0.599  11.002  1.1439 -2.2872 -2.6921
 5745SOL     OW28696   2.417   4.364   8.317  0.6113 -0.5960  0.3106
 5745SOL    HW128697   2.496   4.329   8.359  1.1600  2.8044  2.0834
 5745SOL    HW228698   2.442   4.446   8.276 -0.8550  0.0011  0.6065
 5746SOL     OW28699   4.031   4.519  17.003  0.3939  0.2392 -0.2089
 5746SOL    HW128700   3.948   4.543  17.044  0.3580  0.7583 -0.5795
 5746SOL    HW228701   4.014   4.550  16.914 -1.2979 -1.0327 -0.3162
 5747SOL     OW28702   1.717   3.562   4.378  0.5920 -0.3116 -0.0210
 5747SOL    HW128703   1.696   3.615   4.455 -1.1653  1.2016 -1.5405
 5747SOL    HW228704   1.673   3.620   4.316 -0.0121  0.3376  1.0189
 5748SOL     OW28705   0.397   0.355  11.850  0.2526 -0.4155  0.1319
 5748SOL    HW128706   0.448   0.291  11.900  0.7695  0.1805  0.3803
 5748SOL    HW228707   0.359   0.305  11.779 -1.6868  0.1516  0.7625
 5749SOL     OW28708   1.743   2.163   6.190  0.1473  0.2732 -0.9839
 5749SOL    HW128709   1.726   2.249   6.230  0.8551 -0.6308  1.3064
 5749SOL    HW228710   1.785   2.111   6.259 -1.6449  0.8907  0.5734
 5750SOL     OW28711   4.437   1.278  14.622 -0.7661 -0.1962 -0.2654
 5750SOL    HW128712   4.487   1.215  14.569 -1.7487 -0.6860 -0.6189
 5750SOL    HW228713   4.403   1.338  14.556 -1.2593 -1.1080 -0.8407
 5751SOL     OW28714   3.898   4.506   7.678 -0.2149  0.0404  0.0811
 5751SOL    HW128715   3.881   4.532   7.769  1.9246 -0.3681  0.5833
 5751SOL    HW228716   3.985   4.545   7.673  0.5959 -1.6662  1.0363
 5752SOL     OW28717   3.781   0.889   5.026 -0.0863 -0.0042 -0.5971
 5752SOL    HW128718   3.769   0.812   5.082  0.2778  1.7617  1.9212
 5752SOL    HW228719   3.700   0.881   4.975 -1.5427  0.0649  1.6701
 5753SOL     OW28720   1.607   2.892   7.672 -0.0169  0.4529 -0.9243
 5753SOL    HW128721   1.522   2.928   7.694 -0.5169  0.2845 -2.5625
 5753SOL    HW228722   1.625   2.840   7.750 -1.5877  2.1600  0.5624
 5754SOL     OW28723   2.248   1.318   9.715 -0.0630  0.4095 -0.4957
 5754SOL    HW128724   2.211   1.383   9.655 -0.7838  1.6729  1.2967
 5754SOL    HW228725   2.196   1.335   9.793 -2.7988 -3.3118 -1.5325
 5755SOL     OW28726   2.431   0.724   3.404 -0.2249 -0.0332  0.4373
 5755SOL    HW128727   2.444   0.733   3.499 -0.0559 -1.3749  0.5382
 5755SOL    HW228728   2.445   0.813   3.372  0.4285  0.1491  1.2249
 5756SOL     OW28729   4.408   2.158   8.439  0.0268 -0.0080  0.4490
 5756SOL    HW128730   4.503   2.163   8.427 -0.2131  1.5252 -0.8152
 5756SOL    HW228731   4.367   2.236   8.403  0.2171 -1.8172 -3.7741
 5757SOL     OW28732   3.814   0.834  13.879 -0.1157 -0.5392  0.9832
 5757SOL    HW128733   3.741   0.892  13.857 -0.8511 -1.8827 -0.0844
 5757SOL    HW228734   3.877   0.879  13.823  0.1371 -0.5710  1.2367
 5758SOL     OW28735   1.853   4.080  16.546  0.1774 -0.5827  0.2454
 5758SOL    HW128736   1.788   4.151  16.541  1.0388  0.1722 -0.4133
 5758SOL    HW228737   1.938   4.119  16.565 -1.3099  2.4564  0.7558
 5759SOL     OW28738   2.657   0.138   6.218 -0.1289 -0.0850 -0.1838
 5759SOL    HW128739   2.698   0.052   6.207  1.7719  0.9474 -1.0834
 5759SOL    HW228740   2.731   0.192   6.190  2.0140 -1.5465  2.7004
 5760SOL     OW28741   1.540   1.344  10.048 -0.0856  0.2785 -0.5842
 5760SOL    HW128742   1.614   1.326  10.106  0.4997  0.8541 -1.1475
 5760SOL    HW228743   1.580   1.386   9.972 -1.2068 -0.6234 -1.6870
 5761SOL     OW28744   1.930   3.544  11.541  0.0449  0.2831 -0.1846
 5761SOL    HW128745   1.929   3.602  11.465 -0.3748  2.2258  1.3304
 5761SOL    HW228746   2.017   3.566  11.575  0.8266 -1.2643 -1.1589
 5762SOL     OW28747   3.758   3.961   7.914  0.6899  0.2811 -0.0788
 5762SOL    HW128748   3.730   3.926   7.998  0.7578  0.9105  0.2117
 5762SOL    HW228749   3.846   3.996   7.928 -0.4105  2.6412  1.0226
 5763SOL     OW28750   2.081   3.632  15.482 -0.5877  0.0086  0.3345
 5763SOL    HW128751   2.137   3.557  15.504  1.3846  1.2345 -0.5150
 5763SOL    HW228752   2.093   3.626  15.387  0.9749  2.9309  0.3660
 5764SOL     OW28753   3.224   2.928   1.667 -0.0500 -0.0847 -0.3023
 5764SOL    HW128754   3.153   2.916   1.730  0.3046 -0.3789  0.0436
 5764SOL    HW228755   3.299   2.921   1.726 -0.3963  0.4164  0.1949
 5765SOL     OW28756   4.225   0.926   7.289  0.0649  0.6222 -0.0464
 5765SOL    HW128757   4.198   1.015   7.308 -0.7731  0.9095 -2.5275
 5765SOL    HW228758   4.167   0.882   7.351 -0.1639  0.3380 -0.4617
 5766SOL     OW28759   0.956   2.023   6.479  0.3192  0.1756  0.1621
 5766SOL    HW128760   0.871   2.000   6.441  0.9581 -2.8707  0.6267
 5766SOL    HW228761   0.991   1.935   6.479  0.6656  0.3140 -0.3197
 5767SOL     OW28762   4.723   3.134  17.563 -0.2166 -0.0991  0.1562
 5767SOL    HW128763   4.665   3.058  17.560 -1.6267  0.9720  0.1291
 5767SOL    HW228764   4.676   3.192  17.624 -2.0727 -0.1247 -1.2469
 5768SOL     OW28765   0.780   1.986  14.791 -0.2636  0.1653  0.1697
 5768SOL    HW128766   0.716   2.057  14.799  1.9124  1.9082  2.1756
 5768SOL    HW228767   0.757   1.922  14.859 -2.0968 -0.1234 -0.7183
 5769SOL     OW28768   0.951   4.655   8.266  0.4844 -0.4017  0.4847
 5769SOL    HW128769   0.970   0.024   8.264 -0.4322 -0.1720  2.4199
 5769SOL    HW228770   1.033   4.622   8.229  0.9161 -0.2054  1.2551
 5770SOL     OW28771   1.274   3.182   3.615 -0.2563 -0.1950  0.1049
 5770SOL    HW128772   1.237   3.266   3.587  0.5111  0.1381  0.1076
 5770SOL    HW228773   1.337   3.160   3.547  1.9292  0.3407  1.9765
 5771SOL     OW28774   4.670   1.082  13.884 -0.1510 -0.0476 -0.6961
 5771SOL    HW128775   4.586   1.123  13.867 -0.4192 -0.0577  0.5598
 5771SOL    HW228776   0.007   1.155  13.878  0.6663 -0.7726 -1.1159
 5772SOL     OW28777   2.140   2.678  14.720 -0.9409 -0.4648 -0.0944
 5772SOL    HW128778   2.165   2.684  14.628  2.3008  1.1081  0.8929
 5772SOL    HW228779   2.101   2.766  14.724  0.2990  0.0815  0.0022
 5773SOL     OW28780   3.989   2.395   6.864 -0.1859 -0.5762 -0.0810
 5773SOL    HW128781   3.982   2.343   6.944 -0.3558 -0.5237 -0.0617
 5773SOL    HW228782   3.971   2.330   6.796 -1.8089 -1.6989  1.4206
 5774SOL     OW28783   4.663   3.199   8.304 -1.0125  0.3560 -0.0338
 5774SOL    HW128784   4.673   3.274   8.245  0.9678 -0.9941 -1.3888
 5774SOL    HW228785   4.679   3.132   8.237 -1.4531 -1.7842  2.0223
 5775SOL     OW28786   2.065   4.051  17.665  0.1679 -0.1842 -0.7070
 5775SOL    HW128787   2.149   4.008  17.650 -0.5766 -1.5753 -0.8468
 5775SOL    HW228788   2.044   4.107  17.590  0.6048  0.9690  0.0351
 5776SOL     OW28789   1.622   1.322   4.478 -0.0072  0.2858 -0.2650
 5776SOL    HW128790   1.640   1.263   4.552 -0.6505  0.7499  0.2547
 5776SOL    HW228791   1.656   1.261   4.412  0.8397 -0.0939  0.5224
 5777SOL     OW28792   3.702   3.951   7.460 -0.1053  0.1408 -0.0174
 5777SOL    HW128793   3.685   3.883   7.525  0.8003  1.0965  1.2038
 5777SOL    HW228794   3.664   4.027   7.503  2.9846  1.3935  0.4823
 5778SOL     OW28795   2.040   4.602   4.619  0.5290  0.0005  0.0021
 5778SOL    HW128796   1.950   4.598   4.587  0.5429 -1.8758  0.2287
 5778SOL    HW228797   2.042   4.533   4.685 -0.1196  0.6086  0.6618
 5779SOL     OW28798   2.508   0.781  11.623 -0.3202 -0.4572 -0.4080
 5779SOL    HW128799   2.534   0.689  11.627 -1.2438 -0.6222  2.1320
 5779SOL    HW228800   2.435   0.770  11.685  0.3233 -0.3050  0.3795
 5780SOL     OW28801   4.361   0.681   8.040  0.7523  0.0383  0.6437
 5780SOL    HW128802   4.441   0.687   8.091  1.1738 -2.4573  0.2815
 5780SOL    HW228803   4.395   0.633   7.964 -1.6007 -0.1139 -0.3345
 5781SOL     OW28804   3.178   1.934   4.177 -0.6588  0.0751  0.2379
 5781SOL    HW128805   3.220   1.945   4.092  0.4833 -1.2800  0.6299
 5781SOL    HW228806   3.243   1.988   4.224  2.8685 -1.7753 -2.4930
 5782SOL     OW28807   0.881   0.888   9.111  0.1179 -0.6289  0.4167
 5782SOL    HW128808   0.899   0.871   9.018 -0.0510  0.1775  0.2307
 5782SOL    HW228809   0.947   0.831   9.149  1.6980  1.0216  0.1181
 5783SOL     OW28810   2.945   1.758   6.686  0.1246  0.2467 -0.4670
 5783SOL    HW128811   2.898   1.767   6.770  0.9336  0.5191 -0.0464
 5783SOL    HW228812   2.916   1.670   6.659  2.0569 -1.2693  2.3533
 5784SOL     OW28813   0.964   4.274   3.071  0.5373 -0.4279 -0.1692
 5784SOL    HW128814   0.934   4.337   3.136 -1.0780  0.9298 -2.2221
 5784SOL    HW228815   0.883   4.262   3.021 -1.1222 -1.0862  2.6788
 5785SOL     OW28816   0.170   4.336   1.149  0.2938  0.5870  0.2564
 5785SOL    HW128817   0.094   4.344   1.091 -1.7421  2.5926  3.1445
 5785SOL    HW228818   0.154   4.250   1.186 -0.6394 -0.5259 -2.7495
 5786SOL     OW28819   2.487   0.583   0.272 -0.4800  0.1013 -0.3369
 5786SOL    HW128820   2.522   0.598   0.360 -4.4449 -0.0619  1.2366
 5786SOL    HW228821   2.443   0.666   0.254 -0.1959  0.1555 -0.7968
 5787SOL     OW28822   3.147   1.117  15.815  0.1077 -0.1756  0.0069
 5787SOL    HW128823   3.054   1.126  15.839  0.0531 -0.5749 -0.0467
 5787SOL    HW228824   3.131   1.110  15.721  0.9493 -1.9022 -0.0188
 5788SOL     OW28825   2.468   2.184   6.727  0.5861  0.2445  0.2747
 5788SOL    HW128826   2.389   2.163   6.678  0.4568  1.1335  0.0947
 5788SOL    HW228827   2.431   2.240   6.795  2.3174 -2.4868  3.4349
 5789SOL     OW28828   4.095   1.614   5.903 -0.0105 -0.2222 -0.0533
 5789SOL    HW128829   4.182   1.647   5.882 -0.5433  0.2088 -1.5356
 5789SOL    HW228830   4.041   1.693   5.892  0.5212 -0.0560 -1.3989
 5790SOL     OW28831   1.688   2.736   2.474  0.0898 -0.1199  0.2349
 5790SOL    HW128832   1.689   2.775   2.387  1.3722  0.4537  0.5168
 5790SOL    HW228833   1.652   2.809   2.524 -0.9850 -0.0380 -0.6436
 5791SOL     OW28834   3.510   0.822  14.887 -0.3087 -0.3552 -0.0755
 5791SOL    HW128835   3.528   0.876  14.811  1.5671 -2.0078 -0.7927
 5791SOL    HW228836   3.416   0.840  14.895 -0.7841 -2.1347 -1.4793
 5792SOL     OW28837   2.016   2.701   8.380 -0.0141  0.3308  0.0577
 5792SOL    HW128838   2.044   2.629   8.437 -1.2452  1.5816  2.2720
 5792SOL    HW228839   2.086   2.700   8.315 -1.4681 -3.1679 -1.5004
 5793SOL     OW28840   2.128   3.904   0.203  0.4626 -0.5645 -0.4913
 5793SOL    HW128841   2.212   3.876   0.167  1.5132  1.7144  0.1595
 5793SOL    HW228842   2.062   3.860   0.150  0.2105 -1.0514  0.2302
 5794SOL     OW28843   2.746   2.691   5.233  0.4367 -0.3658  0.2601
 5794SOL    HW128844   2.701   2.652   5.158  1.6410  0.0623 -0.6860
 5794SOL    HW228845   2.834   2.674   5.198  0.3169  1.6318 -1.0057
 5795SOL     OW28846   1.352   3.112  10.539  0.4099 -0.0135 -0.2218
 5795SOL    HW128847   1.305   3.100  10.622  1.6687 -1.8175  0.2235
 5795SOL    HW228848   1.386   3.201  10.552  1.7293 -0.8998  2.4624
 5796SOL     OW28849   4.526   2.474   5.063  0.2529 -0.4002 -0.3948
 5796SOL    HW128850   4.455   2.525   5.023  0.0573 -0.1771  0.2442
 5796SOL    HW228851   4.582   2.535   5.110  2.3279 -0.7456 -2.4059
 5797SOL     OW28852   2.428   3.704  15.481 -0.1472  0.2248 -0.4511
 5797SOL    HW128853   2.494   3.643  15.512  1.3902  2.7294  1.2452
 5797SOL    HW228854   2.463   3.792  15.499  1.1825 -0.3164 -0.4244
 5798SOL     OW28855   0.831   2.679  10.216 -0.1215 -0.2023 -0.2364
 5798SOL    HW128856   0.878   2.678  10.300  1.0768  1.9595 -0.8865
 5798SOL    HW228857   0.860   2.763  10.179 -0.3763  0.7581  1.7343
 5799SOL     OW28858   1.864   0.113   6.249  0.2555  0.2697  0.0159
 5799SOL    HW128859   1.863   0.163   6.167 -1.6981 -2.1946 -1.4503
 5799SOL    HW228860   1.786   0.141   6.296 -0.4134 -0.6170 -0.5577
 5800SOL     OW28861   0.766   4.122  10.764 -0.3862 -0.1637  0.2040
 5800SOL    HW128862   0.744   4.040  10.720  1.6160 -0.0174 -1.0396
 5800SOL    HW228863   0.725   4.113  10.851 -0.7292  1.5764  0.2319
 5801SOL     OW28864   0.924   3.693   6.587 -0.2774 -0.6079  0.1462
 5801SOL    HW128865   0.833   3.715   6.607  0.2822  2.1347 -0.1878
 5801SOL    HW228866   0.953   3.647   6.665 -0.7028 -0.8313  0.1724
 5802SOL     OW28867   1.118   1.128   3.263  0.5836  1.2070  0.1177
 5802SOL    HW128868   1.111   1.080   3.346  0.8534 -1.7772 -1.5999
 5802SOL    HW228869   1.048   1.084   3.216 -0.1208  1.5131  0.8783
 5803SOL     OW28870   1.245   4.563   8.965 -0.1189  0.3581 -0.0209
 5803SOL    HW128871   1.167   4.609   8.996 -0.6498  0.3533 -1.3479
 5803SOL    HW228872   1.253   4.482   9.015  0.1445 -0.5850 -1.5657
 5804SOL     OW28873   2.140   1.847   3.010 -0.2559 -0.4745 -0.3689
 5804SOL    HW128874   2.126   1.921   3.069 -0.9606 -2.3470  1.7792
 5804SOL    HW228875   2.137   1.884   2.921 -0.8819  0.2628 -0.0396
 5805SOL     OW28876   3.270   2.000   1.557 -0.2740  0.4046 -0.1103
 5805SOL    HW128877   3.232   1.963   1.478  2.4271 -0.5734 -0.9499
 5805SOL    HW228878   3.287   2.082   1.510  0.9337  0.0353 -0.3099
 5806SOL     OW28879   1.370   2.820   6.758  0.7899 -0.7118 -0.1177
 5806SOL    HW128880   1.369   2.910   6.792  1.2804 -0.8477  0.2518
 5806SOL    HW228881   1.337   2.823   6.668  0.3840 -0.0535  0.0543
 5807SOL     OW28882   3.376   3.491   2.080 -0.4247 -0.0686 -0.1534
 5807SOL    HW128883   3.301   3.539   2.117  0.3026  1.4490 -0.6471
 5807SOL    HW228884   3.328   3.442   2.013  0.1487  1.1048 -1.4472
 5808SOL     OW28885   0.728   4.218   2.932 -0.1817 -0.1363 -0.0153
 5808SOL    HW128886   0.694   4.151   2.991  2.5044 -1.8329 -0.3815
 5808SOL    HW228887   0.647   4.243   2.887 -0.8235 -0.4558  0.9605
 5809SOL     OW28888   0.290   3.285   8.174  0.1628  0.1323 -0.3342
 5809SOL    HW128889   0.254   3.351   8.233  1.2161 -0.3473  0.8424
 5809SOL    HW228890   0.327   3.216   8.230 -0.6126 -0.4908 -0.5817
 5810SOL     OW28891   2.820   3.443   7.073  0.1189  0.3325  0.2851
 5810SOL    HW128892   2.813   3.536   7.093  1.5145  0.5351 -0.1829
 5810SOL    HW228893   2.863   3.460   6.989 -1.6551  0.7737 -0.5194
 5811SOL     OW28894   2.962   2.290   9.884 -0.0015 -0.0972  0.0745
 5811SOL    HW128895   2.906   2.284   9.806 -0.6737 -1.2945  0.6350
 5811SOL    HW228896   3.031   2.351   9.859  0.3278 -0.7102 -0.5091
 5812SOL     OW28897   2.943   1.086   3.906  0.2591  0.3535  0.5084
 5812SOL    HW128898   3.003   1.134   3.964  2.6385  0.3323 -1.9132
 5812SOL    HW228899   2.883   1.155   3.879 -0.6352 -0.4280  0.5109
 5813SOL     OW28900   3.490   3.221   8.234  0.1299  0.9453 -0.9173
 5813SOL    HW128901   3.441   3.296   8.267 -1.7796  0.6342 -3.0857
 5813SOL    HW228902   3.436   3.150   8.267  1.5947  0.8762  1.3162
 5814SOL     OW28903   1.495   3.108   8.961  0.9462 -0.1033  0.7545
 5814SOL    HW128904   1.419   3.050   8.970 -0.9284  2.2227  0.0256
 5814SOL    HW228905   1.554   3.062   8.902  1.0601 -0.2704  0.9955
 5815SOL     OW28906   3.359   1.500  13.303  0.4246  0.5818 -0.5286
 5815SOL    HW128907   3.303   1.484  13.227 -1.8789  0.6054  1.1470
 5815SOL    HW228908   3.314   1.568  13.353  1.0104 -1.5013  2.8485
 5816SOL     OW28909   0.245   2.806  16.770  0.3177 -0.4382 -0.2887
 5816SOL    HW128910   0.330   2.830  16.734  0.5622 -1.1160 -0.1518
 5816SOL    HW228911   0.201   2.891  16.760 -2.2047 -1.6279  0.8600
 5817SOL     OW28912   0.079   2.418   8.918  0.0681 -0.2593 -0.3829
 5817SOL    HW128913   0.156   2.382   8.874  0.2973 -1.2586  0.8239
 5817SOL    HW228914   0.014   2.353   8.890 -0.4110 -0.1670  0.5074
 5818SOL     OW28915   0.456   3.900  13.265 -0.1153  0.1851  0.5247
 5818SOL    HW128916   0.397   3.872  13.334 -0.0167 -1.2512  0.0365
 5818SOL    HW228917   0.401   3.910  13.187 -1.0548  0.1747  1.1844
 5819SOL     OW28918   1.397   3.674   4.495  0.0122  0.4667 -0.2954
 5819SOL    HW128919   1.343   3.652   4.420 -0.9249  2.0495 -0.0744
 5819SOL    HW228920   1.377   3.599   4.551 -5.0405  2.6554  0.8202
 5820SOL     OW28921   2.624   1.896   7.196 -0.4953 -0.0964 -0.0358
 5820SOL    HW128922   2.703   1.902   7.249 -0.8178  1.2842  0.2611
 5820SOL    HW228923   2.630   1.969   7.134 -0.3593  0.9824  1.2665
 5821SOL     OW28924   0.124   1.514   7.495  0.1766 -0.3193 -0.0508
 5821SOL    HW128925   0.127   1.467   7.411  0.6862  3.3976 -2.1075
 5821SOL    HW228926   0.030   1.531   7.494  0.1004 -0.6886  0.7167
 5822SOL     OW28927   1.127   4.323   6.156 -0.0408  0.3256  0.2321
 5822SOL    HW128928   1.138   4.303   6.249  0.0783 -2.6139 -0.4211
 5822SOL    HW228929   1.045   4.279   6.132  0.5689 -0.6248 -0.0691
 5823SOL     OW28930   2.151   2.176   5.456  0.0528 -0.7595  0.2960
 5823SOL    HW128931   2.141   2.203   5.547  0.5120  2.1691 -0.5064
 5823SOL    HW228932   2.082   2.109   5.451  0.1229 -0.9580  1.9826
 5824SOL     OW28933   0.428   4.563   8.921  0.1735  0.3724  0.1197
 5824SOL    HW128934   0.443   4.657   8.911 -0.1288  0.2224 -1.6780
 5824SOL    HW228935   0.333   4.562   8.921  0.1554  1.2503  1.1297
 5825SOL     OW28936   1.947   1.886  11.938  0.3553 -0.1658  0.0560
 5825SOL    HW128937   1.974   1.930  11.857 -2.3377  0.6836 -0.3724
 5825SOL    HW228938   1.941   1.796  11.908 -2.2838 -1.0720  3.3826
 5826SOL     OW28939   2.611   3.727   7.315 -0.0738  0.0972 -0.1070
 5826SOL    HW128940   2.698   3.744   7.280 -0.4948 -0.6977 -1.5589
 5826SOL    HW228941   2.609   3.786   7.390 -2.9815 -0.8328  0.5566
 5827SOL     OW28942   0.727   0.200   1.278 -0.0125 -0.6148  0.4024
 5827SOL    HW128943   0.778   0.218   1.199 -0.5234  0.8658  0.4025
 5827SOL    HW228944   0.688   0.287   1.278  1.1859 -0.0830  1.2064
 5828SOL     OW28945   3.916   0.479   4.884  0.0680 -0.0810 -0.1464
 5828SOL    HW128946   3.943   0.388   4.895  1.3506  0.2373 -0.6378
 5828SOL    HW228947   3.881   0.492   4.972 -0.8187 -0.9819 -0.3620
 5829SOL     OW28948   2.613   0.249  17.459 -0.3327  0.5710  0.2059
 5829SOL    HW128949   2.646   0.234  17.548 -0.6333  0.8644  0.3659
 5829SOL    HW228950   2.529   0.293  17.470  0.2760  2.0894 -1.2346
 5830SOL     OW28951   4.716   1.676   6.714 -0.5188 -0.7672  0.3593
 5830SOL    HW128952   0.019   1.667   6.805  1.4489  0.2485 -0.1424
 5830SOL    HW228953   0.023   1.591   6.683 -0.0281 -0.5609  0.2922
 5831SOL     OW28954   1.763   0.070   2.114 -0.3865 -0.3796 -0.2078
 5831SOL    HW128955   1.733   0.153   2.150  0.1631 -0.2461 -0.0636
 5831SOL    HW228956   1.714   0.011   2.172 -1.1874 -1.7510 -2.2763
 5832SOL     OW28957   2.590   3.930   7.522 -0.4382  0.1094 -0.8067
 5832SOL    HW128958   2.564   3.899   7.609 -0.7289 -1.1976 -1.3564
 5832SOL    HW228959   2.517   3.992   7.513 -0.4539  0.2036 -0.0753
 5833SOL     OW28960   4.435   2.812   6.906  0.0881  0.2653 -0.3187
 5833SOL    HW128961   4.446   2.907   6.908  0.2345  0.1930  2.4502
 5833SOL    HW228962   4.362   2.798   6.847 -0.5362 -0.5031  0.6294
 5834SOL     OW28963   0.432   1.963  13.439 -0.4064 -0.0867  0.3777
 5834SOL    HW128964   0.399   1.874  13.452  1.0609 -0.6035  0.5173
 5834SOL    HW228965   0.459   1.963  13.347 -0.8694 -0.2306  0.2394
 5835SOL     OW28966   3.609   4.422  10.732 -0.3006 -0.0743  0.5478
 5835SOL    HW128967   3.550   4.460  10.797 -0.3777  0.3731  0.2194
 5835SOL    HW228968   3.671   4.495  10.727 -1.2169  0.7748  1.6537
 5836SOL     OW28969   1.482   2.635   8.759 -0.1298  0.0770  0.3747
 5836SOL    HW128970   1.431   2.716   8.759  0.2101  0.2886  2.4457
 5836SOL    HW228971   1.474   2.606   8.850  3.3502  0.3698  0.7680
 5837SOL     OW28972   0.419   2.682   4.679 -0.4920 -0.1782  0.1819
 5837SOL    HW128973   0.433   2.752   4.615 -2.1990  0.6131  0.6975
 5837SOL    HW228974   0.492   2.693   4.741 -1.5175  2.2221  0.9461
 5838SOL     OW28975   2.858   2.981   4.073 -0.4616  0.4827 -0.0060
 5838SOL    HW128976   2.869   2.955   3.981  0.7366  1.4749 -0.1470
 5838SOL    HW228977   2.948   2.959   4.096 -0.8760  1.1405  2.2289
 5839SOL     OW28978   3.748   2.875  10.953 -0.3259  0.0874 -0.3597
 5839SOL    HW128979   3.762   2.868  11.047 -1.7318 -0.0020 -0.1711
 5839SOL    HW228980   3.662   2.835  10.941  0.0363 -0.5255 -0.9416
 5840SOL     OW28981   2.830   1.748   1.029  0.4660  0.0895  0.2075
 5840SOL    HW128982   2.889   1.678   1.001 -0.3356 -0.4585 -0.1069
 5840SOL    HW228983   2.754   1.692   1.045 -0.5346  1.4319  0.2157
 5841SOL     OW28984   3.136   2.392   8.017 -0.1063 -0.5519 -0.2945
 5841SOL    HW128985   3.067   2.332   7.988 -0.6101 -0.8162  1.4362
 5841SOL    HW228986   3.084   2.470   8.035  1.5311  0.8682 -1.7305
 5842SOL     OW28987   2.921   3.438   4.111 -0.2397  1.3395  0.1804
 5842SOL    HW128988   3.011   3.432   4.079 -0.4590 -1.1716  0.0342
 5842SOL    HW228989   2.868   3.455   4.033 -0.0321 -0.5706 -0.3737
 5843SOL     OW28990   3.858   4.081   6.841 -0.0609 -0.0483  0.5442
 5843SOL    HW128991   3.789   4.135   6.801 -0.3345 -0.5305  0.3607
 5843SOL    HW228992   3.847   4.104   6.933 -0.5911  1.6371  0.0740
 5844SOL     OW28993   2.225   1.798   5.721  0.2705  0.2216 -0.2411
 5844SOL    HW128994   2.161   1.834   5.782  1.8707  4.0055 -0.7889
 5844SOL    HW228995   2.188   1.715   5.691 -1.8812  0.4225  1.9421
 5845SOL     OW28996   1.928   3.400   4.320  0.3714  0.1192  0.3364
 5845SOL    HW128997   1.843   3.444   4.311 -0.0363 -0.3142  2.1592
 5845SOL    HW228998   1.981   3.471   4.358  0.8288  0.3418 -0.7086
 5846SOL     OW28999   1.828   3.992  13.825 -0.2979  0.4160  0.1852
 5846SOL    HW129000   1.835   4.063  13.888  1.4686 -0.5031  1.0476
 5846SOL    HW229001   1.920   3.965  13.829 -0.3914  0.1949  0.9319
 5847SOL     OW29002   2.991   3.410   3.092  0.1923 -0.1917 -0.4186
 5847SOL    HW129003   3.047   3.487   3.083  0.6756 -0.4187  0.6567
 5847SOL    HW229004   2.971   3.425   3.185 -0.6209  0.4062 -0.6923
 5848SOL     OW29005   0.884   3.801   2.490  0.0032  0.3302 -0.7618
 5848SOL    HW129006   0.965   3.756   2.466  0.3293  1.5499 -1.9481
 5848SOL    HW229007   0.904   3.891   2.466  1.2865 -0.0910 -1.2506
 5849SOL     OW29008   2.889   0.913   3.688 -0.3320  0.0341 -0.0051
 5849SOL    HW129009   2.942   0.850   3.640 -0.5975 -1.7826  2.0678
 5849SOL    HW229010   2.959   0.964   3.729  1.8197 -2.8385 -0.1242
 5850SOL     OW29011   0.070   4.171   1.345 -0.5185 -0.2649 -0.4607
 5850SOL    HW129012   0.130   4.168   1.420  0.8849  0.3586 -1.5635
 5850SOL    HW229013   4.712   4.132   1.372 -0.9704  1.0044  0.0367
 5851SOL     OW29014   2.621   3.043  11.855 -0.3864 -0.4249 -0.5263
 5851SOL    HW129015   2.573   3.010  11.931  1.9889  3.0658  2.4674
 5851SOL    HW229016   2.597   3.135  11.863  2.0903  0.2940 -1.5431
 5852SOL     OW29017   0.981   2.790   8.692  0.4406 -0.0910  0.0198
 5852SOL    HW129018   0.965   2.762   8.602 -0.1069 -1.6395  0.6034
 5852SOL    HW229019   0.921   2.865   8.698  2.0124  1.1250  0.5261
 5853SOL     OW29020   0.248   2.784   5.073  0.1592 -0.3676  0.0644
 5853SOL    HW129021   0.332   2.753   5.107  0.5196 -2.4827 -2.7328
 5853SOL    HW229022   0.223   2.712   5.016 -0.5431  0.8649 -1.1782
 5854SOL     OW29023   4.219   2.268   9.017  0.0627  0.1452  0.1204
 5854SOL    HW129024   4.165   2.320   9.076  0.4772 -0.5594  1.1122
 5854SOL    HW229025   4.257   2.337   8.961 -2.6784  1.3409 -0.2709
 5855SOL     OW29026   0.889   2.639  16.168 -0.4459 -0.3822  0.4205
 5855SOL    HW129027   0.864   2.555  16.129 -0.0827  1.0345 -2.8979
 5855SOL    HW229028   0.814   2.694  16.146  0.7888  0.2984 -2.1172
 5856SOL     OW29029   3.053   2.503   7.504 -0.0967 -0.0137  0.1138
 5856SOL    HW129030   2.960   2.506   7.527 -0.3284 -0.9482 -0.7163
 5856SOL    HW229031   3.091   2.542   7.583  2.0419  1.6388 -1.7565
 5857SOL     OW29032   3.619   1.472   8.797  0.3166  0.2069 -0.7935
 5857SOL    HW129033   3.529   1.447   8.777 -0.1896  2.0700 -0.8354
 5857SOL    HW229034   3.666   1.390   8.813  1.5913  1.7164  3.2412
 5858SOL     OW29035   3.043   1.115   3.028 -0.0955 -0.1291 -0.2652
 5858SOL    HW129036   2.997   1.034   3.051 -0.2750 -0.0277 -0.2669
 5858SOL    HW229037   3.095   1.133   3.107 -0.9494  1.5951 -0.0823
 5859SOL     OW29038   1.747   3.954   3.794  0.5283  0.2162 -0.6647
 5859SOL    HW129039   1.748   4.049   3.779 -2.2127  0.1067 -1.4432
 5859SOL    HW229040   1.805   3.937   3.720  1.3195 -0.4891  0.1146
 5860SOL     OW29041   3.713   0.663   7.486  0.3135  0.1812  0.0075
 5860SOL    HW129042   3.628   0.684   7.526  0.7533  2.6128 -0.3604
 5860SOL    HW229043   3.691   0.638   7.397 -0.0859 -0.5724  0.3165
 5861SOL     OW29044   3.512   0.296   7.677  0.4748 -0.3469  0.6943
 5861SOL    HW129045   3.499   0.213   7.630 -2.6079  0.3394  0.3041
 5861SOL    HW229046   3.575   0.329   7.614  0.1456 -1.0382  0.0045
 5862SOL     OW29047   2.384   0.725   0.817  0.3477 -0.1228 -0.0243
 5862SOL    HW129048   2.293   0.754   0.819  0.0899 -0.8258 -1.6871
 5862SOL    HW229049   2.433   0.802   0.847 -0.1220  0.3739 -0.5273
 5863SOL     OW29050   2.592   2.229   3.320 -0.0246 -0.4676 -0.1909
 5863SOL    HW129051   2.573   2.166   3.389  2.5112 -2.4924 -1.3516
 5863SOL    HW229052   2.571   2.176   3.243  1.6937  2.2720 -2.5611
 5864SOL     OW29053   3.463   3.673  10.384 -0.2001 -0.1345 -0.4429
 5864SOL    HW129054   3.421   3.653  10.468 -0.8430 -2.2149 -1.2622
 5864SOL    HW229055   3.516   3.595  10.372  0.4223  0.4205 -1.2541
 5865SOL     OW29056   1.038   4.239   6.891  0.0863 -0.3424  0.0110
 5865SOL    HW129057   1.063   4.324   6.854 -1.1396  1.0467  2.3264
 5865SOL    HW229058   0.985   4.260   6.969 -2.9623 -0.4196 -2.0119
 5866SOL     OW29059   2.707   4.638   9.423 -0.0674  0.4011  0.4111
 5866SOL    HW129060   2.614   4.658   9.413  0.1473  0.8419 -0.6925
 5866SOL    HW229061   2.730   4.569   9.361 -0.8887  0.6244 -0.1310
 5867SOL     OW29062   2.949   3.911  15.916 -0.2593  0.7307  0.0459
 5867SOL    HW129063   2.874   3.966  15.935 -0.1775  1.6170 -2.2630
 5867SOL    HW229064   3.024   3.970  15.922  0.2235  0.2479 -1.2199
 5868SOL     OW29065   2.103   3.112   1.950  0.3245 -0.6335 -0.0464
 5868SOL    HW129066   2.177   3.062   1.915 -0.9757 -0.7337 -2.6393
 5868SOL    HW229067   2.066   3.144   1.868  0.5971 -1.9818 -0.6842
 5869SOL     OW29068   2.846   0.939   7.381  0.3426 -0.8014  0.2775
 5869SOL    HW129069   2.935   0.909   7.362 -0.2144 -0.4028 -2.8983
 5869SOL    HW229070   2.795   0.910   7.306  0.2846  3.0280 -1.1554
 5870SOL     OW29071   4.091   0.671  14.289 -0.2488 -0.5043 -0.6327
 5870SOL    HW129072   4.000   0.673  14.259 -0.6699 -0.4743  0.6480
 5870SOL    HW229073   4.126   0.624  14.213  2.3766 -0.9589  0.8873
 5871SOL     OW29074   4.155   0.534   5.692  0.2862 -0.4912  0.3783
 5871SOL    HW129075   4.127   0.626   5.695 -0.4015 -0.7229  1.0067
 5871SOL    HW229076   4.230   0.532   5.751  0.2791 -0.5439  0.3851
 5872SOL     OW29077   3.221   2.120  15.985 -0.2971 -0.1365  0.1456
 5872SOL    HW129078   3.262   2.206  15.973  2.4414 -1.5712 -0.9398
 5872SOL    HW229079   3.267   2.094  16.064  1.6801 -1.0624 -1.3001
 5873SOL     OW29080   1.750   1.681   7.535 -0.2139  0.2625 -0.7626
 5873SOL    HW129081   1.675   1.689   7.476 -1.0884  1.1962  0.4836
 5873SOL    HW229082   1.810   1.631   7.479 -1.3352  0.2205 -1.9360
 5874SOL     OW29083   2.338   1.093   9.812  0.5814 -0.2131  1.0189
 5874SOL    HW129084   2.322   1.178   9.771  1.3762 -0.5506 -0.0030
 5874SOL    HW229085   2.290   1.035   9.753  2.6730 -0.3171 -0.5953
 5875SOL     OW29086   3.867   3.078   3.815  0.0619  0.2943  0.4718
 5875SOL    HW129087   3.853   3.151   3.754 -0.0506 -0.1440 -0.0287
 5875SOL    HW229088   3.819   3.007   3.772  2.3842  0.6116 -2.6213
 5876SOL     OW29089   2.157   4.603   8.641 -1.0303  0.4161  0.7832
 5876SOL    HW129090   2.197   4.522   8.608 -1.3507  1.2684 -1.6899
 5876SOL    HW229091   2.067   4.571   8.649 -0.6267 -1.2439 -1.3962
 5877SOL     OW29092   3.455   3.067  11.260  0.1730  0.2140 -0.1493
 5877SOL    HW129093   3.382   3.081  11.321  0.7338  0.5561  0.4488
 5877SOL    HW229094   3.420   3.046  11.173 -0.0876  0.2634 -0.0587
 5878SOL     OW29095   3.063   4.069   3.741  0.7195 -0.0198  0.4101
 5878SOL    HW129096   3.114   3.997   3.703  0.2839 -0.4688  0.6846
 5878SOL    HW229097   3.113   4.143   3.706 -0.8696 -0.1624 -2.1834
 5879SOL     OW29098   1.366   3.299   6.014  0.2033 -0.0496  0.3344
 5879SOL    HW129099   1.394   3.253   5.935 -0.4052 -1.5658  1.0171
 5879SOL    HW229100   1.272   3.304   5.996  0.3366 -2.8548 -1.1720
 5880SOL     OW29101   4.722   0.037   7.804 -0.4828 -0.1496  0.1459
 5880SOL    HW129102   4.672   0.027   7.723  1.6408 -1.2036 -1.0245
 5880SOL    HW229103   0.016   4.670   7.823  1.4791 -0.0409 -1.3150
 5881SOL     OW29104   2.519   3.802   7.760  0.2076  0.1368 -0.2136
 5881SOL    HW129105   2.546   3.807   7.852 -0.4057 -1.0674  0.0358
 5881SOL    HW229106   2.425   3.817   7.770  0.3205  0.8184 -0.2092
 5882SOL     OW29107   2.012   1.554   5.923 -0.0946  0.4605 -0.3579
 5882SOL    HW129108   2.085   1.591   5.974 -0.5706  1.6563 -0.5266
 5882SOL    HW229109   2.047   1.475   5.883  2.0302  1.1782  0.0759
 5883SOL     OW29110   4.306   0.033   4.394 -0.1149 -0.2764  0.1421
 5883SOL    HW129111   4.338   0.065   4.478 -4.6523  2.2596  0.9376
 5883SOL    HW229112   4.392   0.019   4.354 -0.6281 -1.7947 -0.4285
 5884SOL     OW29113   4.439   4.103   4.283 -0.1735  0.3285  0.0462
 5884SOL    HW129114   4.393   4.143   4.210 -1.8215  1.0699  1.4978
 5884SOL    HW229115   4.531   4.103   4.256  0.3907  1.3539  1.9383
 5885SOL     OW29116   0.336   0.229   4.449 -0.5951  0.0339 -0.2626
 5885SOL    HW129117   0.264   0.193   4.500  0.6485  0.7076  1.9607
 5885SOL    HW229118   0.406   0.225   4.514  0.1754 -1.4392 -1.1907
 5886SOL     OW29119   2.418   2.116   6.078 -0.1268 -0.0172 -0.0266
 5886SOL    HW129120   2.475   2.093   6.150 -3.9477 -1.5528  2.5141
 5886SOL    HW229121   2.341   2.133   6.132 -2.2433 -1.3234 -2.5906
 5887SOL     OW29122   3.784   1.303  16.333 -0.1104  0.2409  0.2986
 5887SOL    HW129123   3.826   1.388  16.323  1.4191 -0.6054 -0.6013
 5887SOL    HW229124   3.839   1.244  16.281 -0.6210 -0.4764  0.5785
 5888SOL     OW29125   0.210   3.116   2.865  0.2487 -0.6595  0.0421
 5888SOL    HW129126   0.301   3.139   2.847  0.0012  0.0163 -0.3550
 5888SOL    HW229127   0.209   3.155   2.952  0.4365 -1.2714  0.3195
 5889SOL     OW29128   1.246   3.012   7.930  0.7166 -0.1722 -0.3673
 5889SOL    HW129129   1.289   3.093   7.955  1.0779 -0.2362 -0.7796
 5889SOL    HW229130   1.199   2.997   8.012 -1.3635 -1.7594 -1.8430
 5890SOL     OW29131   3.918   1.359  11.939 -0.0498 -0.6656 -0.2477
 5890SOL    HW129132   3.940   1.383  12.028 -1.7158  1.4709 -0.4160
 5890SOL    HW229133   3.929   1.441  11.891 -0.3414  0.1127  1.0358
 5891SOL     OW29134   4.328   2.675   1.641 -0.4511 -0.0140 -0.3752
 5891SOL    HW129135   4.249   2.691   1.693  0.6994 -3.1123  2.2913
 5891SOL    HW229136   4.356   2.585   1.656 -0.5449 -0.4168 -2.6232
 5892SOL     OW29137   4.615   3.789   5.093  0.2862  0.5412  0.3148
 5892SOL    HW129138   4.567   3.801   5.175 -0.2462  1.7051 -0.1671
 5892SOL    HW229139   4.545   3.791   5.028  0.3342  0.5220  0.2622
 5893SOL     OW29140   3.496   0.153   6.069  0.2924  0.0660 -0.6200
 5893SOL    HW129141   3.460   0.162   6.157  1.5728 -2.6570  0.1697
 5893SOL    HW229142   3.589   0.149   6.090  0.2570 -2.2638 -0.8730
 5894SOL     OW29143   2.607   0.034  16.728  0.1675 -0.5376 -0.0128
 5894SOL    HW129144   2.632   4.671  16.753  1.5042 -0.1147  0.1224
 5894SOL    HW229145   2.653   0.090  16.791  0.3475  1.2739 -1.7490
 5895SOL     OW29146   1.140   1.235   3.763  0.3597  0.2716  0.4427
 5895SOL    HW129147   1.053   1.272   3.775  0.7394  0.3682  2.8786
 5895SOL    HW229148   1.154   1.255   3.670 -1.5283  2.7937  0.7225
 5896SOL     OW29149   1.687   1.395   5.802 -0.0475  0.5891  0.7345
 5896SOL    HW129150   1.634   1.441   5.866  1.6090  2.3330  0.8546
 5896SOL    HW229151   1.684   1.464   5.736 -1.3934  0.9816  1.2073
 5897SOL     OW29152   3.366   0.127  17.258 -0.4611 -0.1308 -0.0703
 5897SOL    HW129153   3.340   0.201  17.203  0.3837 -0.4812 -0.9546
 5897SOL    HW229154   3.358   0.158  17.348 -1.3580  1.2882 -0.6407
 5898SOL     OW29155   0.679   2.923   6.504  0.2236  0.1254 -0.4210
 5898SOL    HW129156   0.772   2.942   6.519  0.5075 -0.3609 -1.5501
 5898SOL    HW229157   0.649   2.952   6.590  0.4446 -1.3053  0.1502
 5899SOL     OW29158   0.761   0.616   4.978  0.3515  0.1609 -0.3117
 5899SOL    HW129159   0.830   0.568   5.024 -1.2195 -1.8470 -0.0313
 5899SOL    HW229160   0.724   0.541   4.931  0.7742 -0.3762  0.2131
 5900SOL     OW29161   2.946   2.248   7.883 -0.5091 -0.0612 -0.1702
 5900SOL    HW129162   2.916   2.163   7.914 -0.2876 -0.0892 -0.0276
 5900SOL    HW229163   2.883   2.314   7.914  0.8577 -0.0239  2.5724
 5901SOL     OW29164   0.455   4.324   8.787 -0.0890 -0.2280  0.0776
 5901SOL    HW129165   0.543   4.299   8.815 -1.5084 -1.2384  3.6607
 5901SOL    HW229166   0.439   4.401   8.841  1.0709 -0.7043  1.1051
 5902SOL     OW29167   4.567   3.191   2.075 -0.0254 -0.7723 -0.3098
 5902SOL    HW129168   4.655   3.216   2.102  0.5552 -1.8374 -1.2295
 5902SOL    HW229169   4.526   3.188   2.162 -0.8690 -0.5431 -0.6917
 5903SOL     OW29170   0.981   3.267  12.621 -0.0627  0.7152 -0.6603
 5903SOL    HW129171   1.051   3.329  12.643 -1.2691  1.5284  0.8400
 5903SOL    HW229172   0.973   3.220  12.704  0.2581  0.8937 -0.5286
 5904SOL     OW29173   0.319   2.803  12.102 -0.0159 -0.1228  0.2739
 5904SOL    HW129174   0.231   2.768  12.090  0.8294 -2.9982  2.6111
 5904SOL    HW229175   0.368   2.721  12.110  1.3163  0.5951 -0.3911
 5905SOL     OW29176   1.862   3.519   8.323 -0.5248 -0.1539 -0.1105
 5905SOL    HW129177   1.836   3.538   8.414 -0.3922  0.9004 -0.2894
 5905SOL    HW229178   1.793   3.570   8.281  0.5729 -0.4083 -2.2252
 5906SOL     OW29179   1.899   3.180  15.503  0.1020 -0.5179  0.1486
 5906SOL    HW129180   1.956   3.126  15.558 -0.1767  0.6655  1.6159
 5906SOL    HW229181   1.875   3.251  15.564  0.5258 -1.4308  1.3676
 5907SOL     OW29182   4.165   3.552   9.084  0.6066 -0.4594 -0.2897
 5907SOL    HW129183   4.224   3.479   9.104  0.8545  0.7055  3.1984
 5907SOL    HW229184   4.162   3.549   8.988 -0.5055  0.4202 -0.2966
 5908SOL     OW29185   2.218   0.755  17.698 -0.0975  0.3620  0.9435
 5908SOL    HW129186   2.297   0.726  17.653 -1.2864  1.2787 -1.7503
 5908SOL    HW229187   2.161   0.679  17.692  0.4663 -0.0586  0.9429
 5909SOL     OW29188   0.491   1.899   2.586 -0.0900  0.0221 -0.0664
 5909SOL    HW129189   0.409   1.904   2.537  0.1106 -3.8837 -0.8439
 5909SOL    HW229190   0.531   1.844   2.518 -2.1449  1.5331 -2.4873
 5910SOL     OW29191   3.407   2.927   7.897 -0.9443 -0.6214  0.3141
 5910SOL    HW129192   3.362   2.879   7.827 -1.4464  0.1574  0.1000
 5910SOL    HW229193   3.457   2.859   7.942  0.7743  0.2914 -0.1965
 5911SOL     OW29194   3.455   4.559   9.218 -0.1514 -0.2012 -0.2689
 5911SOL    HW129195   3.536   4.523   9.255 -0.3534 -1.4513 -1.0275
 5911SOL    HW229196   3.481   4.565   9.125  2.5787  0.8624  0.5507
 5912SOL     OW29197   3.499   2.126   1.890  0.1646 -0.4336  0.0931
 5912SOL    HW129198   3.555   2.203   1.898  0.2247 -0.5604  0.9573
 5912SOL    HW229199   3.533   2.061   1.951 -0.1441 -0.8644 -0.1903
 5913SOL     OW29200   2.408   2.584   2.304  1.1196 -0.2102  0.2423
 5913SOL    HW129201   2.492   2.614   2.270  0.0388  3.0341  0.3962
 5913SOL    HW229202   2.396   2.500   2.260 -0.9118  1.7823 -2.9906
 5914SOL     OW29203   0.116   2.575   9.317  0.0980  0.3840 -0.1337
 5914SOL    HW129204   0.192   2.518   9.333  0.1323  0.7252  0.9505
 5914SOL    HW229205   0.109   2.632   9.394  1.7804 -0.3435  0.5546
 5915SOL     OW29206   2.588   2.596  13.173  0.5955 -0.0029 -0.3316
 5915SOL    HW129207   2.668   2.601  13.121  1.7573 -1.4478  1.3539
 5915SOL    HW229208   2.602   2.516  13.223  0.0661  0.6565  0.8729
 5916SOL     OW29209   3.723   1.816   9.318 -0.0830  0.1839  0.2393
 5916SOL    HW129210   3.628   1.824   9.308 -0.1826 -0.7002  0.5291
 5916SOL    HW229211   3.747   1.808   9.226 -2.1517 -0.9966 -0.1838
 5917SOL     OW29212   1.761   3.814  14.430 -0.0168  0.2301 -0.1272
 5917SOL    HW129213   1.851   3.840  14.450  0.0288  0.7083 -0.9622
 5917SOL    HW229214   1.769   3.788  14.338 -0.9916 -0.2318 -0.0796
 5918SOL     OW29215   1.497   4.167   9.803  0.0939  0.0766 -0.5613
 5918SOL    HW129216   1.542   4.249   9.783  1.1273 -0.4817 -0.5524
 5918SOL    HW229217   1.410   4.198   9.829 -0.8519 -0.8911 -2.5964
 5919SOL     OW29218   1.751   0.542   1.044 -0.0889  0.6384  0.1382
 5919SOL    HW129219   1.674   0.488   1.025 -1.7786  2.3989  1.8363
 5919SOL    HW229220   1.812   0.495   0.988 -1.9836  0.8707 -2.1222
 5920SOL     OW29221   2.356   1.063  14.568  0.1538  0.3573 -0.6125
 5920SOL    HW129222   2.272   1.109  14.564 -0.5145 -0.5851  2.4356
 5920SOL    HW229223   2.366   1.041  14.661 -1.8059  1.8868 -0.0213
 5921SOL     OW29224   1.467   4.196   6.845  0.3649  0.0708  0.3574
 5921SOL    HW129225   1.420   4.267   6.801  1.5649  1.1122  0.7721
 5921SOL    HW229226   1.556   4.222   6.823  0.8060 -3.0644 -1.4515
 5922SOL     OW29227   3.835   4.291   2.310  0.6021 -0.3300 -0.6932
 5922SOL    HW129228   3.768   4.225   2.329  1.3729 -1.3958 -1.7229
 5922SOL    HW229229   3.860   4.310   2.400 -1.2221 -3.1886  0.4250
 5923SOL     OW29230   2.365   2.478   2.556 -0.1681 -0.2351 -0.0592
 5923SOL    HW129231   2.320   2.399   2.525 -2.8315  1.9965 -1.8978
 5923SOL    HW229232   2.390   2.514   2.471  1.7126 -0.7445  0.2711
 5924SOL     OW29233   3.099   4.606   3.137  0.1935 -0.8206  0.1777
 5924SOL    HW129234   3.056   4.682   3.097  1.5460 -0.2885 -0.2710
 5924SOL    HW229235   3.100   4.544   3.064 -2.2187  1.1941 -1.6055
 5925SOL     OW29236   2.690   0.921   5.989  0.5908 -0.2169  0.5476
 5925SOL    HW129237   2.779   0.906   5.958 -0.2461 -0.4393 -1.7733
 5925SOL    HW229238   2.635   0.883   5.920  0.3546  3.4544 -1.2566
 5926SOL     OW29239   2.293   1.805  15.854  0.2649  0.0650 -0.2393
 5926SOL    HW129240   2.244   1.728  15.824  2.1731 -1.6419  1.0049
 5926SOL    HW229241   2.292   1.797  15.950  1.7804 -2.1310 -0.4049
 5927SOL     OW29242   0.969   1.993  11.559  0.1136  0.1708 -0.1896
 5927SOL    HW129243   1.028   2.035  11.621 -2.5281  1.4181  1.4798
 5927SOL    HW229244   0.931   2.074  11.525  0.2081  0.3113  0.0392
 5928SOL     OW29245   4.563   0.723   3.040  0.3092 -0.4157  0.3380
 5928SOL    HW129246   4.542   0.759   2.955  0.7708 -1.6731 -0.3133
 5928SOL    HW229247   4.554   0.630   3.020 -1.5464  0.0188 -0.8768
 5929SOL     OW29248   2.362   1.842   2.484  0.0798 -0.5549  0.0102
 5929SOL    HW129249   2.314   1.776   2.434 -0.2903 -0.9487  0.8671
 5929SOL    HW229250   2.435   1.844   2.423 -0.1399 -3.2373 -0.3313
 5930SOL     OW29251   2.833   1.268   7.172  0.2620 -0.2780 -0.0265
 5930SOL    HW129252   2.754   1.218   7.156  0.7514 -1.4984  1.4001
 5930SOL    HW229253   2.864   1.270   7.082  1.9586  1.8366  0.5844
 5931SOL     OW29254   0.724   0.329  15.758 -0.0935 -0.4891  0.0338
 5931SOL    HW129255   0.767   0.388  15.698  0.2022 -0.6591  0.0780
 5931SOL    HW229256   0.772   0.248  15.739 -0.2658 -0.5246 -0.2475
 5932SOL     OW29257   2.411   0.333   3.217 -0.5786  1.5342 -0.0900
 5932SOL    HW129258   2.466   0.398   3.262 -0.3849  1.5370 -0.3322
 5932SOL    HW229259   2.390   0.374   3.133 -0.5586  0.6926 -0.5104
 5933SOL     OW29260   2.339   0.974   2.676  0.2345 -0.2958 -0.2650
 5933SOL    HW129261   2.314   1.028   2.751  2.0929 -0.8741  0.7664
 5933SOL    HW229262   2.420   1.016   2.649  0.4082 -0.7246 -0.4223
 5934SOL     OW29263   1.130   4.318   6.441  0.7739  0.2996 -0.2311
 5934SOL    HW129264   1.088   4.398   6.471  0.3421 -0.9785  2.5385
 5934SOL    HW229265   1.151   4.278   6.525  1.4440  0.4449 -0.3289
 5935SOL     OW29266   1.410   0.661   3.394  0.3785  0.0218 -0.0031
 5935SOL    HW129267   1.397   0.734   3.455 -0.7020  1.5581 -2.0777
 5935SOL    HW229268   1.505   0.652   3.400  0.6821  2.2110 -1.3437
 5936SOL     OW29269   0.581   2.168   2.202 -0.7716  0.0675  0.5244
 5936SOL    HW129270   0.608   2.087   2.159 -0.2254  1.0075 -0.8932
 5936SOL    HW229271   0.620   2.228   2.138 -0.7887 -0.0332  0.4187
 5937SOL     OW29272   4.251   2.601   3.389  0.0118 -0.4931 -0.0380
 5937SOL    HW129273   4.229   2.578   3.479 -1.0124 -0.7900 -0.3662
 5937SOL    HW229274   4.214   2.532   3.333 -1.9761  0.5688 -0.0525
 5938SOL     OW29275   4.542   1.902   2.165  0.4284 -0.3339 -0.2530
 5938SOL    HW129276   4.576   1.875   2.250 -2.3142  0.0447  0.9329
 5938SOL    HW229277   4.454   1.928   2.191 -0.1922 -1.8596 -0.8141
 5939SOL     OW29278   0.953   0.506   4.534  0.0696 -0.3036  0.4208
 5939SOL    HW129279   1.033   0.548   4.565  1.1411 -1.8367 -0.2668
 5939SOL    HW229280   0.980   0.418   4.509 -1.5961 -0.3997 -1.1090
 5940SOL     OW29281   1.263   3.635  11.986  0.2155 -0.0281 -0.5739
 5940SOL    HW129282   1.173   3.633  12.020 -0.2801 -0.7519 -1.9444
 5940SOL    HW229283   1.304   3.549  12.001 -1.1737 -0.2513  1.9309
 5941SOL     OW29284   1.943   1.229  13.715 -0.2488  0.1965 -0.4655
 5941SOL    HW129285   1.881   1.270  13.654 -1.8176 -0.5923  0.6085
 5941SOL    HW229286   1.961   1.151  13.662 -0.6386  0.4789 -1.0165
 5942SOL     OW29287   1.901   0.234  15.081  0.4999 -0.7984 -0.4374
 5942SOL    HW129288   1.811   0.265  15.073  0.4566 -1.0646 -0.9272
 5942SOL    HW229289   1.949   0.311  15.051  0.6054 -0.1280  1.4537
 5943SOL     OW29290   4.244   3.988  10.896 -0.2599  0.1047  0.3421
 5943SOL    HW129291   4.216   3.935  10.971 -0.6339  0.7536  0.6717
 5943SOL    HW229292   4.244   3.920  10.829 -0.6903  1.9629 -1.5688
 5944SOL     OW29293   1.085   3.094  12.439  0.7008  0.2392 -0.1857
 5944SOL    HW129294   1.069   3.004  12.465 -2.3004  1.7893  3.3564
 5944SOL    HW229295   1.041   3.149  12.504  2.0141 -0.8966  1.6709
 5945SOL     OW29296   2.532   1.618   5.903  0.2939  0.1167  0.0418
 5945SOL    HW129297   2.589   1.687   5.938 -0.0919  0.7924 -0.6748
 5945SOL    HW229298   2.448   1.650   5.939 -0.2467 -1.1502 -0.0981
 5946SOL     OW29299   3.910   2.420   1.807 -0.5939 -0.1389  0.2209
 5946SOL    HW129300   3.987   2.408   1.864 -0.8505 -1.1782  0.3430
 5946SOL    HW229301   3.936   2.499   1.760 -0.4822 -0.1697  0.2297
 5947SOL     OW29302   4.234   0.741   2.748  0.0212  0.4442  0.1299
 5947SOL    HW129303   4.225   0.738   2.844  2.2889  0.6780  0.3526
 5947SOL    HW229304   4.155   0.696   2.719  0.8510 -0.0859 -1.2519
 5948SOL     OW29305   1.541   1.708   8.116  0.1429 -0.2608 -0.8454
 5948SOL    HW129306   1.544   1.760   8.036  1.4688  1.0368  0.0544
 5948SOL    HW229307   1.521   1.620   8.084  0.1808 -1.1490  1.5418
 5949SOL     OW29308   3.073   1.444   5.446 -0.3123  0.4209  0.1973
 5949SOL    HW129309   3.133   1.371   5.432 -0.7223 -0.5582  3.4409
 5949SOL    HW229310   3.059   1.486   5.361 -2.5237  0.7187  0.7034
 5950SOL     OW29311   4.605   4.141   3.091 -0.4702  0.0510 -0.5146
 5950SOL    HW129312   4.616   4.087   3.170 -1.7055  0.2979 -0.1646
 5950SOL    HW229313   4.561   4.076   3.035  0.5795 -0.8577 -0.2806
 5951SOL     OW29314   4.235   2.096   3.604 -0.4210  0.6177  0.2038
 5951SOL    HW129315   4.259   2.170   3.659 -1.3029  0.1363  1.2239
 5951SOL    HW229316   4.266   2.027   3.662  2.8841  0.4382 -1.7804
 5952SOL     OW29317   3.674   4.654   5.968 -0.1666 -0.3520 -0.5976
 5952SOL    HW129318   3.634   4.574   5.936  0.1570 -0.6857 -0.1707
 5952SOL    HW229319   3.614   4.719   5.932 -1.1708 -1.2346 -0.4967
 5953SOL     OW29320   3.017   2.505  16.887 -0.1116  0.2643 -0.8755
 5953SOL    HW129321   2.956   2.475  16.955  1.0408 -1.3117 -0.5436
 5953SOL    HW229322   3.098   2.483  16.932 -0.6262 -0.9327 -0.5262
 5954SOL     OW29323   1.506   4.692   6.225 -0.4747  0.1277  0.0779
 5954SOL    HW129324   1.432   4.712   6.169 -1.2303 -2.4587  0.1459
 5954SOL    HW229325   1.493   4.615   6.281  2.9937 -0.2471  0.3728
 5955SOL     OW29326   4.095   4.213   6.703 -0.1970  0.4516 -0.5207
 5955SOL    HW129327   4.108   4.118   6.700  0.0642  0.5220 -1.5413
 5955SOL    HW229328   4.062   4.220   6.793 -0.0515 -2.4839 -0.2342
 5956SOL     OW29329   2.431   3.944  16.455  0.1654  0.7838  0.2677
 5956SOL    HW129330   2.342   3.979  16.447 -0.1881 -0.3626 -0.7936
 5956SOL    HW229331   2.414   3.859  16.496  0.8046  1.4631  1.9547
 5957SOL     OW29332   3.022   3.387   5.152  0.4069  0.2617 -0.2131
 5957SOL    HW129333   2.987   3.354   5.234  0.8870 -0.8929 -0.4742
 5957SOL    HW229334   3.025   3.314   5.090 -0.4198 -0.7865  0.9859
 5958SOL     OW29335   4.484   0.941   6.173 -0.3094  0.4966  0.3777
 5958SOL    HW129336   4.502   0.983   6.089 -0.7360  1.1979  0.6465
 5958SOL    HW229337   4.572   0.930   6.209  0.0653  3.3521  0.2835
 5959SOL     OW29338   0.314   3.238   2.316 -0.0751  0.1004 -0.3163
 5959SOL    HW129339   0.367   3.315   2.292 -1.4703  0.9759 -0.5718
 5959SOL    HW229340   0.367   3.204   2.388 -0.9500 -1.3579 -0.3733
 5960SOL     OW29341   1.510   1.683   3.218  0.2752 -0.2002 -0.6477
 5960SOL    HW129342   1.496   1.687   3.312 -1.1282  3.0397 -0.9702
 5960SOL    HW229343   1.457   1.611   3.183  1.5520 -1.4346 -0.0025
 5961SOL     OW29344   1.767   2.139   7.471  0.2333 -0.2586  0.2973
 5961SOL    HW129345   1.769   2.113   7.379 -1.8894  0.0277  0.1720
 5961SOL    HW229346   1.789   2.232   7.466  1.2523 -0.6396 -2.5389
 5962SOL     OW29347   0.424   1.661   0.144 -0.5561 -0.5598  0.4385
 5962SOL    HW129348   0.498   1.604   0.160  0.0805 -0.0826 -0.7642
 5962SOL    HW229349   0.456   1.748   0.170 -1.0107 -0.1488 -0.3542
 5963SOL     OW29350   0.439   0.879   2.477  0.4619  0.2705  0.6861
 5963SOL    HW129351   0.467   0.953   2.531 -3.1389  2.1627 -0.0336
 5963SOL    HW229352   0.508   0.885   2.410  1.2134 -0.0751  1.4256
 5964SOL     OW29353   0.128   0.418   2.878  0.2012  0.1667  0.2259
 5964SOL    HW129354   0.126   0.329   2.842 -0.3476 -0.1178  0.9701
 5964SOL    HW229355   0.108   0.399   2.970  1.1513  4.6240  1.3417
 5965SOL     OW29356   2.449   3.702  14.439  0.4720  0.5973 -0.5207
 5965SOL    HW129357   2.526   3.701  14.495 -0.9052 -0.1278  1.3380
 5965SOL    HW229358   2.384   3.752  14.487  0.7748  0.0481  0.4579
 5966SOL     OW29359   2.471   3.534  11.226  0.1894 -0.1123  0.6655
 5966SOL    HW129360   2.542   3.553  11.288 -0.3648  3.2201  0.2919
 5966SOL    HW229361   2.397   3.554  11.284 -1.8489 -1.3379 -1.5564
 5967SOL     OW29362   4.338   1.766   9.069  0.2863 -0.2611  0.1596
 5967SOL    HW129363   4.287   1.847   9.063 -1.1196 -1.3986 -3.2433
 5967SOL    HW229364   4.307   1.742   9.157  0.2839  2.6838  0.9600
 5968SOL     OW29365   0.236   3.668   6.614  0.0867 -0.5154 -0.1700
 5968SOL    HW129366   0.207   3.664   6.523  0.1890  0.5538 -0.2473
 5968SOL    HW229367   0.153   3.632   6.645  1.0457 -3.3281 -0.9228
 5969SOL     OW29368   1.337   4.536  17.694 -0.2859 -0.0254  0.0030
 5969SOL    HW129369   1.356   4.446  17.667  2.7699  0.3598  0.8633
 5969SOL    HW229370   1.272   4.520   0.060  1.2307  0.4468  1.5706
 5970SOL     OW29371   0.706   0.590  11.555 -0.0529 -0.5877 -0.1123
 5970SOL    HW129372   0.751   0.594  11.471  0.8530  0.7486  0.4367
 5970SOL    HW229373   0.639   0.527  11.530 -0.7436  0.8073 -1.7912
 5971SOL     OW29374   1.525   1.151  13.725 -0.0747  0.5994  0.6088
 5971SOL    HW129375   1.576   1.125  13.648  0.9046  2.2117  0.6969
 5971SOL    HW229376   1.596   1.133  13.787 -0.0185 -0.3949  0.2494
 5972SOL     OW29377   0.443   3.424   1.725  0.6370 -0.2980  0.0152
 5972SOL    HW129378   0.381   3.432   1.798  0.2920  0.4472 -0.3673
 5972SOL    HW229379   0.521   3.456   1.771 -0.2119  1.5142  0.1787
 5973SOL     OW29380   1.423   1.911   8.757 -0.1013  0.3037  0.4143
 5973SOL    HW129381   1.516   1.933   8.747 -0.3809  0.7546 -1.1408
 5973SOL    HW229382   1.390   1.999   8.740  3.2064  0.8929 -2.9367
 5974SOL     OW29383   0.338   0.746   9.285  0.3998 -0.3782 -0.6089
 5974SOL    HW129384   0.334   0.752   9.190 -0.7671 -2.3805 -0.6977
 5974SOL    HW229385   0.421   0.790   9.304  1.0654 -1.2363 -1.5530
 5975SOL     OW29386   1.121   0.236   2.917 -0.6963 -0.5591 -0.1724
 5975SOL    HW129387   1.043   0.203   2.872 -1.4106 -0.0116  0.6542
 5975SOL    HW229388   1.149   0.153   2.955 -0.6238 -0.5141 -0.1253
 5976SOL     OW29389   3.227   2.828   3.144  0.1850  0.3865  0.0308
 5976SOL    HW129390   3.273   2.800   3.223 -0.9893  0.9235  0.8932
 5976SOL    HW229391   3.190   2.745   3.113  0.5893 -0.5236  2.0066
 5977SOL     OW29392   3.073   0.648   3.622  0.2083  0.7950 -0.7506
 5977SOL    HW129393   3.099   0.684   3.707 -2.0192  0.3491  0.1518
 5977SOL    HW229394   3.161   0.629   3.593 -0.0776 -0.7746 -0.5978
 5978SOL     OW29395   0.044   0.549   3.452  0.2430  0.3772  0.0510
 5978SOL    HW129396   0.071   0.477   3.395 -1.2576  1.6845 -2.3152
 5978SOL    HW229397   0.024   0.493   3.527 -0.6320 -0.1980 -0.6106
 5979SOL     OW29398   0.465   3.810   2.103  0.5693  0.3408 -0.5482
 5979SOL    HW129399   0.446   3.859   2.023  2.0028 -0.5514 -1.4279
 5979SOL    HW229400   0.559   3.824   2.114  0.2687  0.2336  2.2830
 5980SOL     OW29401   2.556   1.126  15.976  0.4036 -0.5540 -0.4273
 5980SOL    HW129402   2.588   1.160  15.892  0.5452  2.3518  0.8135
 5980SOL    HW229403   2.491   1.193  15.996  0.1245 -0.9071 -0.1566
 5981SOL     OW29404   4.067   1.478   2.938 -0.8018  0.1708  0.2111
 5981SOL    HW129405   4.113   1.560   2.923 -1.7718  0.2910 -2.1464
 5981SOL    HW229406   4.072   1.472   3.033 -0.6729  0.9259  0.2489
 5982SOL     OW29407   3.021   1.355  17.428  0.2070  0.3925  0.2609
 5982SOL    HW129408   3.090   1.421  17.434 -0.0489  0.6966 -0.1635
 5982SOL    HW229409   3.074   1.275  17.422  0.0785  0.3508 -0.2622
 5983SOL     OW29410   4.380   0.060  16.924 -0.3211  0.1411 -0.0335
 5983SOL    HW129411   4.323   0.003  16.873 -1.7556  1.3271  0.2689
 5983SOL    HW229412   4.461   0.049  16.874 -1.6612  0.7997 -2.3512
 5984SOL     OW29413   0.291   1.659   3.745  0.1958  0.8299  0.0059
 5984SOL    HW129414   0.371   1.614   3.719  1.3632  2.1910  1.2856
 5984SOL    HW229415   0.260   1.623   3.828  0.5333 -3.3168 -1.6269
 5985SOL     OW29416   0.955   4.398   7.212  0.5737  0.1267 -0.0639
 5985SOL    HW129417   0.864   4.372   7.227  0.5313  0.5766  0.4334
 5985SOL    HW229418   0.995   4.321   7.253 -0.8293 -0.8947 -0.6308
 5986SOL     OW29419   4.625   3.595  14.716 -0.1028 -0.7540  0.1488
 5986SOL    HW129420   4.560   3.554  14.660 -2.0023  2.3091  0.1112
 5986SOL    HW229421   4.619   3.685  14.683 -0.3642 -0.9327 -0.2938
 5987SOL     OW29422   0.980   2.469   6.754  0.3304  0.3560  0.1790
 5987SOL    HW129423   1.031   2.415   6.816  0.5851 -0.4234 -0.7068
 5987SOL    HW229424   0.922   2.405   6.712  1.5489 -1.6843  1.5569
 5988SOL     OW29425   2.858   0.885  17.141  0.2015 -0.1220 -0.6013
 5988SOL    HW129426   2.881   0.926  17.057 -1.3622 -1.0078 -1.4568
 5988SOL    HW229427   2.837   0.797  17.109  1.4830 -0.9665  0.8781
 5989SOL     OW29428   2.095   2.503   4.863  0.6026 -0.6802  0.5179
 5989SOL    HW129429   2.036   2.489   4.789 -1.0957  1.7385  1.4283
 5989SOL    HW229430   2.133   2.415   4.864 -0.5463 -1.1690  1.9582
 5990SOL     OW29431   4.194   0.513   3.500  0.0048 -0.3244 -0.4591
 5990SOL    HW129432   4.192   0.420   3.523 -2.0224 -0.0047  0.7552
 5990SOL    HW229433   4.124   0.543   3.559  1.4937  2.0110  0.1078
 5991SOL     OW29434   2.427   4.033   9.142  0.2811  0.4530 -0.1884
 5991SOL    HW129435   2.468   4.027   9.056 -0.1791 -0.8768 -0.3128
 5991SOL    HW229436   2.439   3.948   9.184  3.5653  0.3528 -1.3151
 5992SOL     OW29437   0.107   3.211  15.644 -0.1571  0.2837  0.0430
 5992SOL    HW129438   0.153   3.219  15.561 -0.4126  1.3819  0.0125
 5992SOL    HW229439   0.062   3.131  15.615  1.0048  0.0793 -1.1443
 5993SOL     OW29440   4.473   3.504   4.445  0.1488  0.0193  0.2542
 5993SOL    HW129441   4.513   3.496   4.359  0.6727 -1.5365  0.6274
 5993SOL    HW229442   4.491   3.596   4.463 -1.0882  0.0697  1.2110
 5994SOL     OW29443   2.650   0.609  16.193  0.1728 -0.1109  0.3872
 5994SOL    HW129444   2.743   0.630  16.195  0.0756  0.5266 -1.4316
 5994SOL    HW229445   2.618   0.674  16.129 -0.8294 -1.4963 -0.5138
 5995SOL     OW29446   1.009   4.122   4.660  0.0392 -0.2780 -0.1435
 5995SOL    HW129447   0.978   4.200   4.705 -0.9608 -0.3793 -0.6763
 5995SOL    HW229448   1.000   4.064   4.735  1.9020  1.1983  1.2319
 5996SOL     OW29449   3.426   2.740   2.307 -0.2933  0.4755  0.4654
 5996SOL    HW129450   3.361   2.671   2.318 -0.6163  1.1052  2.5207
 5996SOL    HW229451   3.466   2.712   2.225  0.7045 -2.1240  1.8638
 5997SOL     OW29452   2.902   4.138   9.841 -0.8615 -0.4370 -1.0402
 5997SOL    HW129453   2.842   4.107   9.909  0.2948 -1.4670 -0.4862
 5997SOL    HW229454   2.974   4.171   9.896 -0.9661  0.3634 -1.3858
 5998SOL     OW29455   0.955   4.389   7.850 -0.0297  0.3364  0.4983
 5998SOL    HW129456   1.047   4.414   7.842  0.2710 -0.7388  0.6101
 5998SOL    HW229457   0.902   4.469   7.847 -0.9284 -0.2470  0.5686
 5999SOL     OW29458   1.602   0.489   8.321 -0.5170  0.5234  0.4380
 5999SOL    HW129459   1.516   0.484   8.362 -0.6369  1.5616  0.3115
 5999SOL    HW229460   1.591   0.558   8.256  1.7190  1.2075  0.7671
 6000SOL     OW29461   3.485   3.160  16.034 -0.3170  0.0341  0.0731
 6000SOL    HW129462   3.496   3.095  16.102 -1.4542  0.3767  0.5873
 6000SOL    HW229463   3.479   3.241  16.085  3.8457  0.7811 -0.5950
 6001SOL     OW29464   0.831   4.386   3.874  0.1159 -0.1883  0.4850
 6001SOL    HW129465   0.894   4.409   3.806  0.1367 -1.7581 -0.0337
 6001SOL    HW229466   0.860   4.452   3.937  1.8989 -2.1315  1.7152
 6002SOL     OW29467   4.610   0.232   0.644 -0.0265  0.1588 -0.3648
 6002SOL    HW129468   4.593   0.138   0.653  1.7363 -0.2045 -0.8815
 6002SOL    HW229469   4.653   0.230   0.559  2.6169  0.6840  0.9705
 6003SOL     OW29470   0.400   3.928  12.400 -0.1313 -0.4642  0.2425
 6003SOL    HW129471   0.407   4.013  12.357 -0.2267 -1.3751 -1.5839
 6003SOL    HW229472   0.312   3.935  12.435  0.6197 -0.0308  2.0450
 6004SOL     OW29473   0.217   2.021   1.785 -0.0950  0.0910 -0.0105
 6004SOL    HW129474   0.204   1.934   1.747  2.4801 -0.3304  0.0547
 6004SOL    HW229475   0.312   2.035   1.778  0.0578 -0.8521  0.2195
 6005SOL     OW29476   2.946   2.681   6.324  0.3971 -0.3432 -0.0062
 6005SOL    HW129477   2.950   2.777   6.324 -1.2311 -0.2912  4.3443
 6005SOL    HW229478   2.883   2.665   6.394  0.2638  0.3585  0.0373
 6006SOL     OW29479   3.236   0.904  15.380  0.1824 -0.1719  0.6461
 6006SOL    HW129480   3.270   0.949  15.303 -0.3031 -1.0191 -0.0700
 6006SOL    HW229481   3.239   0.816  15.343 -0.6261  0.5659 -1.1550
 6007SOL     OW29482   0.795   0.339   3.041 -0.2701  0.1278  0.0199
 6007SOL    HW129483   0.883   0.360   3.072 -1.3919  1.6875  2.0916
 6007SOL    HW229484   0.775   0.420   2.993  1.8740  0.7498  0.1716
 6008SOL     OW29485   2.029   1.188  14.004  0.4998  0.7222 -0.0791
 6008SOL    HW129486   2.039   1.186  13.909  3.4084  1.1997  0.2369
 6008SOL    HW229487   2.064   1.275  14.023  0.2587  0.7007  0.4579
 6009SOL     OW29488   1.448   2.834   3.875  0.2408 -0.3774 -0.3259
 6009SOL    HW129489   1.460   2.899   3.806  1.0360  1.6528  1.7300
 6009SOL    HW229490   1.433   2.754   3.825 -0.2756 -1.4861  1.5720
 6010SOL     OW29491   0.754   4.461   9.670  1.0577  0.3866  0.3378
 6010SOL    HW129492   0.788   4.522   9.604  0.3593 -0.2913 -0.6425
 6010SOL    HW229493   0.826   4.409   9.706  0.2337 -0.6543  0.4772
 6011SOL     OW29494   1.316   4.522  14.112  0.3629 -0.6662 -0.1128
 6011SOL    HW129495   1.362   4.536  14.195 -0.3804 -0.1698  0.2170
 6011SOL    HW229496   1.228   4.503  14.142  0.7247 -1.8612  0.1815
 6012SOL     OW29497   3.987   1.461  15.563 -0.2099  0.2748  0.3433
 6012SOL    HW129498   3.921   1.528  15.550  1.2738  1.7130  0.2689
 6012SOL    HW229499   3.942   1.398  15.507  0.4649 -1.2718  1.5200
 6013SOL     OW29500   1.332   3.015   5.645  0.1635 -0.7199  0.1732
 6013SOL    HW129501   1.353   3.101   5.683 -2.0699 -0.3667  0.5809
 6013SOL    HW229502   1.416   2.972   5.632  0.4353 -0.0428 -0.3426
 6014SOL     OW29503   3.751   4.672   3.341  0.1464 -0.4324 -0.5783
 6014SOL    HW129504   3.673   4.671   3.285  1.0973  2.1301 -1.9958
 6014SOL    HW229505   3.825   4.689   3.281 -0.3397  2.3812 -0.4046
 6015SOL     OW29506   4.312   4.463   3.857  0.1117  0.0305  0.0479
 6015SOL    HW129507   4.337   4.433   3.769 -1.3832  0.4244 -0.5177
 6015SOL    HW229508   4.373   4.536   3.865 -0.4919  0.6040 -0.6396
 6016SOL     OW29509   0.148   3.244   9.470 -0.2881  0.3329 -0.7220
 6016SOL    HW129510   0.235   3.220   9.437 -1.5540 -1.5162 -2.7219
 6016SOL    HW229511   0.170   3.240   9.563 -1.1758 -0.1148 -0.5343
 6017SOL     OW29512   0.564   3.591   7.803 -0.0849 -0.2222  0.5589
 6017SOL    HW129513   0.503   3.591   7.729  1.7062 -0.6745 -0.9179
 6017SOL    HW229514   0.546   3.517   7.861 -0.3925 -1.7912 -1.5238
 6018SOL     OW29515   1.970   2.403  13.261 -0.3886  0.5520 -0.5342
 6018SOL    HW129516   2.038   2.446  13.312 -0.0100 -1.4599  0.6530
 6018SOL    HW229517   2.007   2.398  13.173  0.3555 -0.1995 -0.1763
 6019SOL     OW29518   3.572   0.629   4.234 -0.3959 -0.6404 -0.3547
 6019SOL    HW129519   3.596   0.713   4.274 -1.8053 -0.0711 -0.7257
 6019SOL    HW229520   3.545   0.591   4.317 -2.0239 -1.4436 -1.2766
 6020SOL     OW29521   3.705   2.958   5.311  0.0559  0.3963  0.7087
 6020SOL    HW129522   3.691   3.019   5.384  2.6391 -1.2620  2.5764
 6020SOL    HW229523   3.794   2.987   5.291  0.4468 -1.1621  0.1705
 6021SOL     OW29524   4.189   3.876   4.748  0.3272  0.2101 -0.0215
 6021SOL    HW129525   4.129   3.822   4.696 -0.4997 -0.2692  1.4348
 6021SOL    HW229526   4.182   3.956   4.697 -2.2482  0.2592  0.4363
 6022SOL     OW29527   3.501   4.043   8.350 -0.7148 -0.0079 -0.0184
 6022SOL    HW129528   3.474   4.118   8.402  0.1486 -0.1960  0.7118
 6022SOL    HW229529   3.465   3.967   8.395  1.1442 -0.3531  0.8811
 6023SOL     OW29530   0.827   0.571  14.474  0.1550 -0.5126 -0.7161
 6023SOL    HW129531   0.758   0.634  14.454 -0.7274 -1.1179  0.4018
 6023SOL    HW229532   0.902   0.584  14.417  0.7288  0.8081  0.3295
 6024SOL     OW29533   3.960   2.195   8.294  0.1242  0.3780  0.2408
 6024SOL    HW129534   4.018   2.178   8.368 -0.4508  1.8610  1.0556
 6024SOL    HW229535   3.938   2.106   8.266  1.3194  0.4611 -0.9500
 6025SOL     OW29536   1.760   2.679  16.492  0.2672 -0.8488  0.0991
 6025SOL    HW129537   1.747   2.769  16.522  1.6477 -0.0947 -1.5933
 6025SOL    HW229538   1.703   2.677  16.415 -0.2709  0.7907  0.4600
 6026SOL     OW29539   1.085   1.577   9.955  0.0318  0.0898  0.3223
 6026SOL    HW129540   1.054   1.490   9.978  1.7541 -0.3594  0.9271
 6026SOL    HW229541   1.016   1.608   9.895  0.9292  0.3312 -0.5820
 6027SOL     OW29542   4.018   4.077  12.986  0.4312  0.1969 -0.4883
 6027SOL    HW129543   4.003   4.095  13.079 -0.2929 -0.0787 -0.5550
 6027SOL    HW229544   3.981   3.989  12.983  0.3811  0.1913  0.2395
 6028SOL     OW29545   4.085   1.596   5.115 -0.4805  0.0255 -0.0408
 6028SOL    HW129546   4.018   1.578   5.050 -0.0063  0.8137 -0.7462
 6028SOL    HW229547   4.047   1.570   5.199  2.4683 -2.2403  0.6261
 6029SOL     OW29548   1.955   3.107  14.439  0.1149  0.4077  0.2082
 6029SOL    HW129549   2.017   3.076  14.373  0.3283 -1.2036  1.1657
 6029SOL    HW229550   1.871   3.093  14.396  0.9819 -0.4532 -1.2141
 6030SOL     OW29551   3.605   0.516   6.529  0.0026  0.0429 -0.0811
 6030SOL    HW129552   3.691   0.553   6.545 -0.1233  0.0778  0.5249
 6030SOL    HW229553   3.571   0.578   6.464  1.9185  0.1272 -1.0039
 6031SOL     OW29554   1.330   0.922  12.591 -0.2020 -0.6360  0.1746
 6031SOL    HW129555   1.309   0.944  12.682  4.0709  0.5149  0.8525
 6031SOL    HW229556   1.400   0.986  12.588  0.5299 -1.2279  4.4886
 6032SOL     OW29557   0.946   0.721   2.858 -0.7851 -0.0558 -0.1916
 6032SOL    HW129558   1.009   0.670   2.806  1.0980 -0.0846  2.0891
 6032SOL    HW229559   1.005   0.731   2.934 -0.1265  1.5603 -0.9127
 6033SOL     OW29560   2.002   4.564   6.873 -0.7556  0.2677 -0.5371
 6033SOL    HW129561   2.095   4.580   6.892 -0.7879  0.0998 -0.2302
 6033SOL    HW229562   1.972   4.637   6.927  2.2869  0.3348  1.0928
 6034SOL     OW29563   0.600   4.322  13.066  0.2605 -0.1583 -0.3218
 6034SOL    HW129564   0.618   4.242  13.114  0.7103  1.0012  1.4462
 6034SOL    HW229565   0.591   4.295  12.975  0.9397 -0.6282 -0.2498
 6035SOL     OW29566   0.918   3.017   4.146  0.0716  0.3194 -0.3749
 6035SOL    HW129567   0.949   2.936   4.187 -0.2959 -0.1284 -0.9996
 6035SOL    HW229568   0.965   3.020   4.063  0.4780 -0.7115 -0.1873
 6036SOL     OW29569   3.591   3.086  15.095  0.2684 -0.0447 -0.7588
 6036SOL    HW129570   3.546   3.170  15.094  0.2882 -0.0064  1.2195
 6036SOL    HW229571   3.542   3.049  15.022 -0.9989  1.5497 -0.7100
 6037SOL     OW29572   3.181   0.624   8.301 -0.3176 -0.0857 -0.4654
 6037SOL    HW129573   3.172   0.606   8.395  0.3854 -0.3341 -0.4486
 6037SOL    HW229574   3.260   0.575   8.281 -1.1997 -0.7483 -2.3260
 6038SOL     OW29575   3.125   0.457   8.560  0.5592 -0.0028 -0.3206
 6038SOL    HW129576   3.150   0.372   8.523  0.5808  0.2921 -0.9835
 6038SOL    HW229577   3.211   0.499   8.561  0.3333  0.4432  2.3654
 6039SOL     OW29578   2.310   1.907   6.889 -0.4901  0.4402 -0.7218
 6039SOL    HW129579   2.281   1.996   6.910  0.9139  0.7480 -0.0765
 6039SOL    HW229580   2.313   1.912   6.793 -2.3242 -0.8102 -0.8310
 6040SOL     OW29581   4.425   4.220   1.665  0.1934  0.3575 -0.8766
 6040SOL    HW129582   4.335   4.247   1.646 -0.4882 -1.6462 -0.4841
 6040SOL    HW229583   4.432   4.129   1.635 -1.7394  0.9747 -3.1810
 6041SOL     OW29584   4.266   1.267   6.617 -0.2541  0.3748  0.0098
 6041SOL    HW129585   4.272   1.361   6.632  0.5564  0.0177  1.8126
 6041SOL    HW229586   4.246   1.274   6.523 -0.0214  1.1819  0.0150
 6042SOL     OW29587   1.840   3.178   6.172 -0.0450 -0.2910  0.4276
 6042SOL    HW129588   1.797   3.109   6.121 -1.2381 -0.1455  1.2425
 6042SOL    HW229589   1.900   3.211   6.105  0.5053 -2.1098  0.0327
 6043SOL     OW29590   0.083   2.899  14.924 -0.0287 -0.0740  0.2591
 6043SOL    HW129591   0.082   2.978  14.979 -2.3355  0.7875 -1.0036
 6043SOL    HW229592   4.715   2.912  14.903 -0.3654 -0.3548  1.5323
 6044SOL     OW29593   0.528   3.680  10.512 -0.0171  0.1963 -0.1794
 6044SOL    HW129594   0.489   3.727  10.438  1.1001 -0.3622 -1.1195
 6044SOL    HW229595   0.620   3.681  10.486  0.0071 -1.2734 -0.1457
 6045SOL     OW29596   0.420   1.494   8.831  0.2127 -0.2770  0.2727
 6045SOL    HW129597   0.370   1.422   8.871 -0.2261  1.2622  2.5468
 6045SOL    HW229598   0.498   1.440   8.818  0.0975  0.0887 -1.8025
 6046SOL     OW29599   0.858   1.241   6.883  0.0544 -0.7047 -0.4021
 6046SOL    HW129600   0.887   1.201   6.801  0.7679  1.5579 -1.2535
 6046SOL    HW229601   0.847   1.334   6.862  0.9481 -0.9007 -1.7556
 6047SOL     OW29602   0.016   4.139   8.605  0.4901  0.5608  0.3444
 6047SOL    HW129603   0.106   4.169   8.622  0.7052  0.7079 -1.0703
 6047SOL    HW229604   4.695   4.213   8.566 -1.3938  1.4708  4.2939
 6048SOL     OW29605   1.051   3.867   4.354  0.3851  0.3947  0.6242
 6048SOL    HW129606   1.053   3.937   4.418 -3.7005  2.4245 -1.4519
 6048SOL    HW229607   1.057   3.917   4.272  1.5709  0.1525  0.5628
 6049SOL     OW29608   2.254   2.549   2.828  0.1883  0.5735  0.3188
 6049SOL    HW129609   2.327   2.577   2.883  1.0702 -1.7287  0.2807
 6049SOL    HW229610   2.264   2.454   2.835 -0.6248  0.4132 -0.7018
 6050SOL     OW29611   0.994   0.058   3.887  0.1973  0.0395  0.0774
 6050SOL    HW129612   1.018   0.144   3.921 -0.3942  0.4545 -0.5427
 6050SOL    HW229613   0.921   0.088   3.832  1.0391 -1.0079 -1.5926
 6051SOL     OW29614   4.590   4.043   5.796 -0.3368 -0.2490 -0.6591
 6051SOL    HW129615   4.657   4.107   5.821  0.6471 -1.6983  0.3970
 6051SOL    HW229616   4.518   4.100   5.766  1.7963  1.6387 -2.1675
 6052SOL     OW29617   3.449   0.112   3.622 -0.3446  0.2758  0.0675
 6052SOL    HW129618   3.444   0.202   3.654 -0.2163 -1.1299  4.1064
 6052SOL    HW229619   3.356   0.089   3.625 -0.5739  1.0210 -1.0988
 6053SOL     OW29620   2.718   0.463  15.628  0.2805 -0.1871 -0.1216
 6053SOL    HW129621   2.667   0.412  15.691  0.7660  0.6269  0.9442
 6053SOL    HW229622   2.783   0.507  15.684 -1.2248  1.2923  0.4445
 6054SOL     OW29623   2.186   1.514   1.309 -0.3432  0.6514 -0.1276
 6054SOL    HW129624   2.115   1.555   1.259 -1.5665  0.5459  1.5460
 6054SOL    HW229625   2.198   1.565   1.389  1.5132 -1.0981  0.7015
 6055SOL     OW29626   2.135   3.165   3.098 -0.7802 -0.2803 -0.4343
 6055SOL    HW129627   2.146   3.084   3.048  0.5807 -0.8435  0.7842
 6055SOL    HW229628   2.095   3.121   3.173 -1.2819  2.4577  0.9121
 6056SOL     OW29629   0.811   2.290   5.931 -0.2512 -0.3399 -0.0910
 6056SOL    HW129630   0.810   2.251   6.018  0.8386  0.7394  0.4164
 6056SOL    HW229631   0.758   2.228   5.882  1.2184 -0.6335 -1.3214
 6057SOL     OW29632   2.378   0.426   7.868  0.1626  0.2125 -0.1619
 6057SOL    HW129633   2.418   0.476   7.939  0.0920 -0.1532  0.1324
 6057SOL    HW229634   2.347   0.343   7.902 -2.9541  1.7705  0.7740
 6058SOL     OW29635   1.132   2.873   5.759  0.0857  0.1335 -0.3871
 6058SOL    HW129636   1.104   2.936   5.825  0.0194  1.3290 -1.5646
 6058SOL    HW229637   1.206   2.921   5.721 -0.5647 -0.3713 -2.2694
 6059SOL     OW29638   1.969   4.340   3.226 -0.2782  0.1834  0.0038
 6059SOL    HW129639   2.012   4.397   3.289 -3.4118  0.6926  1.7099
 6059SOL    HW229640   1.898   4.309   3.283 -0.4749  2.1696  0.8357
 6060SOL     OW29641   0.024   1.567   8.254 -0.2128  0.1676 -0.2221
 6060SOL    HW129642   0.107   1.548   8.297 -0.3492 -1.8352 -0.8179
 6060SOL    HW229643   4.718   1.634   8.315  0.8622  0.5443 -0.0917
 6061SOL     OW29644   3.943   3.231   3.189  0.6750 -0.0366 -0.4401
 6061SOL    HW129645   3.988   3.146   3.187  1.4324  0.3177  1.4094
 6061SOL    HW229646   3.972   3.263   3.104  0.0102  2.2429  0.1930
 6062SOL     OW29647   3.845   2.646  13.226  0.0875 -0.0396  0.2746
 6062SOL    HW129648   3.803   2.638  13.141  0.9181 -0.2818 -0.1148
 6062SOL    HW229649   3.835   2.739  13.249  2.3589  0.6718 -1.5998
 6063SOL     OW29650   4.640   2.960   1.914 -0.7040 -0.2238  0.0701
 6063SOL    HW129651   4.625   3.050   1.942  1.0688 -0.2763  1.1363
 6063SOL    HW229652   0.008   2.954   1.936 -0.8265  3.1937  1.4014
 6064SOL     OW29653   2.892   1.021   0.856  0.4945 -0.1602  0.7908
 6064SOL    HW129654   2.904   0.959   0.784  0.6133  1.5461 -0.6991
 6064SOL    HW229655   2.956   0.996   0.922  1.8554  0.8299 -0.1334
 6065SOL     OW29656   0.192   3.564   7.402  0.4717 -0.0828 -0.2659
 6065SOL    HW129657   0.197   3.590   7.310 -0.5883  1.2270  0.0428
 6065SOL    HW229658   0.108   3.517   7.409  0.1541  0.4903 -0.2115
 6066SOL     OW29659   1.975   3.305   1.785  0.3096 -0.4271  0.4028
 6066SOL    HW129660   1.987   3.278   1.694 -1.6910 -3.4259  1.0200
 6066SOL    HW229661   1.880   3.318   1.792  0.5057  1.3575 -0.3307
 6067SOL     OW29662   2.421   2.546   3.064 -0.1748 -0.4741 -0.2730
 6067SOL    HW129663   2.358   2.547   3.137  0.7704  0.6095  0.5430
 6067SOL    HW229664   2.487   2.606   3.099  0.8519 -2.1316  0.6872
 6068SOL     OW29665   2.775   1.750  17.652  0.1153 -0.2320  0.7565
 6068SOL    HW129666   2.812   1.664  17.673 -0.0407  0.1465  2.6215
 6068SOL    HW229667   2.750   1.787   0.035  0.5939  0.5767  0.5477
 6069SOL     OW29668   3.497   3.026  15.519 -0.0658  0.3170  0.0636
 6069SOL    HW129669   3.454   3.062  15.441  0.2130 -2.0304 -1.1560
 6069SOL    HW229670   3.472   3.094  15.582  1.8566 -0.2189  1.4124
 6070SOL     OW29671   3.834   1.983  17.061  0.3415  0.3644 -0.3048
 6070SOL    HW129672   3.834   1.893  17.029  3.6345  0.5641 -0.8173
 6070SOL    HW229673   3.887   1.975  17.139  2.5324  3.7647 -1.4290
 6071SOL     OW29674   2.370   3.372   9.403  0.0384 -0.0651  0.1434
 6071SOL    HW129675   2.370   3.466   9.423  2.2121 -0.0788  0.1622
 6071SOL    HW229676   2.282   3.349   9.372  0.5742  1.3409 -2.4409
 6072SOL     OW29677   0.611   1.641   3.471 -0.1332  0.1131 -0.4485
 6072SOL    HW129678   0.693   1.682   3.499  1.3322 -2.3055 -1.1863
 6072SOL    HW229679   0.577   1.680   3.391  1.4299 -1.2999 -1.7954
 6073SOL     OW29680   2.797   0.958   4.381 -0.4334  0.7348 -0.2378
 6073SOL    HW129681   2.771   0.880   4.429  0.5429  0.0231 -0.8712
 6073SOL    HW229682   2.728   1.024   4.388  0.5683  2.0083 -2.4360
 6074SOL     OW29683   0.951   1.718  16.399 -0.6788  0.7330 -0.1224
 6074SOL    HW129684   0.989   1.721  16.311  0.5156  0.4466  0.3897
 6074SOL    HW229685   1.015   1.772  16.446  1.6269 -2.0845 -0.0593
 6075SOL     OW29686   0.546   4.389   0.321 -0.1467 -0.3021  0.2185
 6075SOL    HW129687   0.580   4.449   0.387 -0.4650  2.2304 -1.9084
 6075SOL    HW229688   0.483   4.338   0.371 -2.1228  1.2976 -0.5912
 6076SOL     OW29689   2.527   1.689   6.773  0.2237  0.6108  0.1029
 6076SOL    HW129690   2.562   1.774   6.745  0.2781  0.6438  0.2710
 6076SOL    HW229691   2.471   1.727   6.842 -1.1779 -1.5699  0.1614
 6077SOL     OW29692   2.642   3.715   5.706 -0.4286 -0.4607  0.0956
 6077SOL    HW129693   2.576   3.727   5.637  0.1549  0.7955 -0.2501
 6077SOL    HW229694   2.602   3.674   5.782  2.6972 -2.3118  0.7250
 6078SOL     OW29695   2.595   0.751  14.981  0.2810  0.2377  0.1916
 6078SOL    HW129696   2.642   0.670  14.960 -0.3231 -0.4835  1.5609
 6078SOL    HW229697   2.530   0.717  15.044  0.4779 -2.6120 -1.1492
 6079SOL     OW29698   1.860   1.313   7.860 -0.4604 -0.1139 -0.2727
 6079SOL    HW129699   1.841   1.362   7.780  0.5547 -2.2585 -1.8296
 6079SOL    HW229700   1.779   1.270   7.885 -1.2481  1.8557  0.5603
 6080SOL     OW29701   3.898   4.518   6.032 -0.4259 -0.1251 -0.6295
 6080SOL    HW129702   3.900   4.454   5.960  2.9389  0.2833 -0.9121
 6080SOL    HW229703   3.818   4.562   6.003  0.8801  1.8066 -1.2915
 6081SOL     OW29704   0.080   2.197  11.361 -0.4822 -0.0974  0.4263
 6081SOL    HW129705   0.075   2.287  11.393  3.1916  0.0243  0.6896
 6081SOL    HW229706   0.013   2.151  11.411 -0.4256 -0.2005  0.4072
 6082SOL     OW29707   4.053   2.253   7.341  0.2742 -0.3250  0.0324
 6082SOL    HW129708   4.098   2.337   7.354 -1.0779  0.6261 -1.3633
 6082SOL    HW229709   4.123   2.191   7.363 -0.0630  0.2582  2.7039
 6083SOL     OW29710   2.484   3.120   0.198 -0.0856 -0.3030  0.3885
 6083SOL    HW129711   2.459   3.027   0.202 -0.2065 -0.1852  2.3219
 6083SOL    HW229712   2.490   3.133   0.104  1.0789  0.0914  0.5168
 6084SOL     OW29713   3.831   2.561  15.653  0.2925 -0.4816 -0.4847
 6084SOL    HW129714   3.776   2.612  15.594 -1.1533  0.4457  1.6589
 6084SOL    HW229715   3.809   2.595  15.740 -1.9321  0.8389 -1.5738
 6085SOL     OW29716   2.884   2.334   8.214  0.4033  0.3033 -0.5681
 6085SOL    HW129717   2.853   2.255   8.170 -2.1193  0.8440  0.2374
 6085SOL    HW229718   2.803   2.383   8.207  0.2660 -0.0536 -1.4340
 6086SOL     OW29719   2.907   2.260   2.282  0.0526 -0.0373 -0.3730
 6086SOL    HW129720   2.886   2.177   2.326  0.2230  0.2027  0.1615
 6086SOL    HW229721   2.987   2.231   2.238  0.1598  0.3503 -0.4287
 6087SOL     OW29722   2.145   3.916   5.825  0.0230 -0.2212  0.0039
 6087SOL    HW129723   2.124   3.898   5.916 -0.7120  1.5330  0.1703
 6087SOL    HW229724   2.117   4.006   5.812  0.6088 -0.1141 -0.5503
 6088SOL     OW29725   3.516   3.608   8.183  0.2818 -0.2167  0.1790
 6088SOL    HW129726   3.496   3.659   8.262 -0.8554 -2.4418  1.3510
 6088SOL    HW229727   3.432   3.562   8.179 -0.1091  0.5134  0.0123
 6089SOL     OW29728   1.858   1.255   4.186  0.4123  0.5423  0.0003
 6089SOL    HW129729   1.826   1.193   4.251 -3.2974  1.5357 -0.9227
 6089SOL    HW229730   1.919   1.311   4.235 -1.7176  1.7450  1.2744
 6090SOL     OW29731   4.272   4.564  16.791 -1.0422 -0.3727  0.6687
 6090SOL    HW129732   4.288   4.489  16.847  0.2001 -0.8643 -0.3485
 6090SOL    HW229733   4.177   4.553  16.778 -0.9753 -1.1210  0.8349
 6091SOL     OW29734   1.680   1.022  12.339  0.1294 -0.5207  0.0727
 6091SOL    HW129735   1.772   1.033  12.362 -0.2416  1.1023  0.7790
 6091SOL    HW229736   1.660   1.096  12.281  0.0725 -0.3195  0.3475
 6092SOL     OW29737   1.945   4.322   6.939 -0.0221  0.3288  0.1491
 6092SOL    HW129738   1.999   4.393   6.904 -1.0582  1.6242  1.2109
 6092SOL    HW229739   1.969   4.333   7.031  0.5662  1.1432 -0.0977
 6093SOL     OW29740   4.643   2.968  10.388 -0.0874  0.1569 -0.5126
 6093SOL    HW129741   4.705   2.968  10.462 -0.3164  0.0921 -0.3217
 6093SOL    HW229742   4.654   3.055  10.349 -0.9712  0.7521  0.5644
 6094SOL     OW29743   4.436   3.291  10.865  0.0412  0.5326 -0.3447
 6094SOL    HW129744   4.394   3.255  10.943  0.6415  2.1350  0.7265
 6094SOL    HW229745   4.484   3.223  10.817 -0.4791 -0.8928  1.1365
 6095SOL     OW29746   1.669   3.794   7.685 -0.1071  0.0597 -0.0865
 6095SOL    HW129747   1.636   3.876   7.723 -2.3965 -1.5711  1.4203
 6095SOL    HW229748   1.729   3.758   7.751  0.6307 -0.4822 -1.0687
 6096SOL     OW29749   3.609   2.422  16.878 -0.9014 -0.4036 -0.2111
 6096SOL    HW129750   3.628   2.516  16.877 -0.0891 -0.5691 -0.8937
 6096SOL    HW229751   3.670   2.396  16.809 -0.0174 -0.6146  0.6491
 6097SOL     OW29752   1.990   1.167  15.600 -0.3719  0.3026 -0.0849
 6097SOL    HW129753   1.973   1.241  15.658 -5.7286  0.1317 -1.5039
 6097SOL    HW229754   2.006   1.211  15.517 -1.1559 -0.4793 -0.6484
 6098SOL     OW29755   3.475   1.037   0.233  0.2016 -0.3046  0.2100
 6098SOL    HW129756   3.519   0.972   0.287  0.6723  1.6242  2.1083
 6098SOL    HW229757   3.383   1.010   0.243  0.6066 -1.4027  0.9983
 6099SOL     OW29758   3.258   0.659   2.335 -0.0576 -0.5056  0.3917
 6099SOL    HW129759   3.221   0.689   2.418 -0.5508  0.9857 -0.3696
 6099SOL    HW229760   3.239   0.566   2.351  0.3976 -0.4457  1.2733
 6100SOL     OW29761   1.158   0.824  10.623  0.1090  0.0728 -0.6558
 6100SOL    HW129762   1.081   0.857  10.576  0.3076  0.1173 -0.9503
 6100SOL    HW229763   1.209   0.903  10.637  0.3321 -0.1712 -0.0914
 6101SOL     OW29764   0.683   1.871   8.278  0.1385 -0.3818 -0.3919
 6101SOL    HW129765   0.631   1.833   8.349  0.6579 -2.2480 -0.9985
 6101SOL    HW229766   0.692   1.961   8.309 -2.0748 -0.2011 -0.2732
 6102SOL     OW29767   3.176   3.945   4.592  0.4016  0.3410  0.8883
 6102SOL    HW129768   3.142   3.968   4.505  0.4521 -2.3984  0.1351
 6102SOL    HW229769   3.214   3.862   4.566 -2.1534  0.4275 -3.1837
 6103SOL     OW29770   3.145   3.172   7.806  0.6268 -0.0945 -0.2672
 6103SOL    HW129771   3.202   3.199   7.878  1.7511 -1.7137 -0.5507
 6103SOL    HW229772   3.064   3.162   7.857 -0.4233 -0.3001 -1.9711
 6104SOL     OW29773   0.300   3.997   3.211  0.0026  0.1295  0.1930
 6104SOL    HW129774   0.312   3.906   3.237  0.9606  0.0780 -0.4141
 6104SOL    HW229775   0.263   4.035   3.291 -2.0104 -0.8575 -0.2746
 6105SOL     OW29776   0.347   2.360   2.891 -0.0550 -0.1071  0.2145
 6105SOL    HW129777   0.258   2.323   2.890  0.0221 -0.2723 -0.4127
 6105SOL    HW229778   0.367   2.377   2.799 -0.5799 -0.6208  0.0060
 6106SOL     OW29779   0.942   3.767   6.287  0.1018  0.2582 -0.4836
 6106SOL    HW129780   0.961   3.855   6.320  0.4952 -0.4905  1.3027
 6106SOL    HW229781   0.928   3.721   6.370  1.4801  1.4636  0.4098
 6107SOL     OW29782   0.134   4.210   3.703 -0.0247 -0.0360 -0.1516
 6107SOL    HW129783   0.183   4.270   3.646  0.2254 -0.5480 -0.4710
 6107SOL    HW229784   0.170   4.229   3.790 -0.1615 -0.6325  0.0328
 6108SOL     OW29785   0.836   2.723  16.805  0.5228  0.1285 -0.6008
 6108SOL    HW129786   0.883   2.777  16.869  1.7269 -0.6774 -0.7983
 6108SOL    HW229787   0.753   2.769  16.791 -0.1985 -0.7609  0.7014
 6109SOL     OW29788   2.129   1.735  10.389 -0.3126 -0.2352 -0.4353
 6109SOL    HW129789   2.096   1.655  10.348 -0.1503 -2.2550  3.3301
 6109SOL    HW229790   2.044   1.775  10.408  0.3298 -0.8428  3.9051
 6110SOL     OW29791   2.107   0.217   9.695  0.4895 -0.3924 -0.4799
 6110SOL    HW129792   2.111   0.139   9.750 -1.8712  0.1298  0.4335
 6110SOL    HW229793   2.166   0.284   9.730  1.2159 -0.6236 -1.2407
 6111SOL     OW29794   4.343   3.738   0.795  0.4286  0.2517 -0.5102
 6111SOL    HW129795   4.348   3.742   0.890 -3.0711  1.5120 -0.3715
 6111SOL    HW229796   4.305   3.824   0.780 -1.5778 -0.8529 -1.7409
 6112SOL     OW29797   3.207   0.232   8.427  0.4376 -0.5925 -0.2232
 6112SOL    HW129798   3.178   0.184   8.349 -0.5351 -0.0589 -0.1832
 6112SOL    HW229799   3.265   0.293   8.382 -0.0211 -0.2759 -0.3793
 6113SOL     OW29800   1.641   1.479  14.850  0.3868  0.2251 -0.4291
 6113SOL    HW129801   1.632   1.437  14.936 -0.0987 -1.8782 -1.5052
 6113SOL    HW229802   1.579   1.550  14.872 -1.2256 -1.8624  1.8089
 6114SOL     OW29803   2.240   2.267   5.182 -0.7679 -0.3059 -0.0119
 6114SOL    HW129804   2.203   2.352   5.204  0.6690  0.0590  0.9509
 6114SOL    HW229805   2.237   2.225   5.268 -2.2222 -0.4503 -0.1431
 6115SOL     OW29806   3.784   3.837   8.629 -0.2172 -0.0640  0.2377
 6115SOL    HW129807   3.790   3.932   8.620 -0.2682  0.0654  1.5799
 6115SOL    HW229808   3.744   3.847   8.716 -1.7056 -0.0683 -0.4423
 6116SOL     OW29809   3.314   3.315  10.380  0.5163  0.3917  0.1017
 6116SOL    HW129810   3.379   3.369  10.335 -1.0311  0.4208 -2.0880
 6116SOL    HW229811   3.317   3.351  10.468 -1.5281 -3.2050  1.6491
 6117SOL     OW29812   4.225   2.880   5.548  0.1949  0.3873 -0.0926
 6117SOL    HW129813   4.217   2.848   5.458  1.6478  0.6776 -0.3215
 6117SOL    HW229814   4.294   2.946   5.542 -0.0326  0.4052 -2.4552
 6118SOL     OW29815   3.958   0.112   5.344 -0.8237 -0.4559  0.0316
 6118SOL    HW129816   3.927   0.024   5.324  0.6556 -0.3516 -2.7650
 6118SOL    HW229817   4.054   0.105   5.350 -0.9997 -2.6264  0.1888
 6119SOL     OW29818   1.051   4.662   4.793 -0.2034 -0.0331  0.3175
 6119SOL    HW129819   1.124   4.663   4.855  0.5365 -1.3042 -0.5331
 6119SOL    HW229820   1.104   4.666   4.714  0.6899  0.2265  0.9233
 6120SOL     OW29821   4.710   2.391   2.378  0.1129 -0.4062  0.3680
 6120SOL    HW129822   4.699   2.299   2.354 -1.7302  0.0138 -0.3410
 6120SOL    HW229823   4.706   2.432   2.292 -1.7560 -0.5207  0.4068
 6121SOL     OW29824   2.344   0.024  16.245  0.8451 -0.5074  0.1497
 6121SOL    HW129825   2.387   0.062  16.168 -1.0432  1.7112  0.1752
 6121SOL    HW229826   2.322   4.662  16.211 -1.8772  0.0529  0.5089
 6122SOL     OW29827   4.458   4.537   5.599 -0.0601  0.1736 -0.2191
 6122SOL    HW129828   4.412   4.530   5.682 -0.4750 -1.9979 -0.6335
 6122SOL    HW229829   4.409   4.611   5.564 -3.1047 -2.1115 -0.7441
 6123SOL     OW29830   3.112   3.347   3.563 -0.1995  0.2974 -0.2761
 6123SOL    HW129831   3.049   3.371   3.630  0.8076 -0.7157  1.0496
 6123SOL    HW229832   3.130   3.256   3.589 -1.9735 -0.6305 -2.2302
 6124SOL     OW29833   2.946   3.484  14.923  0.0071 -0.0538 -0.1650
 6124SOL    HW129834   2.861   3.515  14.894  0.9465  2.4317 -0.2414
 6124SOL    HW229835   2.980   3.471  14.834 -0.0465  1.0090 -0.3389
 6125SOL     OW29836   4.488   3.892   7.218  0.6580  0.0258 -0.2239
 6125SOL    HW129837   4.506   3.844   7.299  2.0925  0.6610 -0.1685
 6125SOL    HW229838   4.393   3.908   7.219  0.8164  1.1202 -2.2652
 6126SOL     OW29839   2.038   4.329   9.939 -0.1276  0.6007 -0.2034
 6126SOL    HW129840   2.049   4.264   9.869 -2.7608  2.0310 -1.9475
 6126SOL    HW229841   2.033   4.265  10.010  0.4557  1.3011  0.4660
 6127SOL     OW29842   3.034   0.917   7.622  0.0048  0.5543  0.0241
 6127SOL    HW129843   3.064   0.842   7.571 -1.0886 -0.5900  1.0620
 6127SOL    HW229844   3.068   0.995   7.578 -0.8604  0.0378 -1.5578
 6128SOL     OW29845   0.051   3.742   3.287  0.0267  0.0588 -0.0831
 6128SOL    HW129846   0.130   3.716   3.239  0.0607 -0.8515  0.4726
 6128SOL    HW229847   4.707   3.702   3.234  0.8564  1.1946 -2.0138
 6129SOL     OW29848   2.577   4.354   6.309 -0.2859  0.3169 -0.0811
 6129SOL    HW129849   2.484   4.356   6.332 -0.1935  2.3272  0.0521
 6129SOL    HW229850   2.582   4.310   6.224 -1.3638  0.2011 -0.0818
 6130SOL     OW29851   3.654   1.183   7.636  0.2502  0.0443 -0.5226
 6130SOL    HW129852   3.574   1.172   7.687  1.6208 -1.6672  1.3000
 6130SOL    HW229853   3.703   1.102   7.650 -0.0949 -0.0711 -0.0077
 6131SOL     OW29854   2.254   3.804   7.823 -0.4718  0.4788  0.5599
 6131SOL    HW129855   2.248   3.789   7.917  0.1357 -2.2348  0.1666
 6131SOL    HW229856   2.185   3.743   7.798 -1.0593  1.8292 -1.1472
 6132SOL     OW29857   1.188   0.478   7.995  0.0089  0.3986 -0.1966
 6132SOL    HW129858   1.162   0.394   7.957  1.6842 -0.3365  0.2331
 6132SOL    HW229859   1.282   0.460   7.999 -0.0765  0.0627  0.3435
 6133SOL     OW29860   0.969   4.367   4.783  0.0240 -0.2032 -0.2280
 6133SOL    HW129861   1.025   4.444   4.796  0.0710 -0.1218 -0.9183
 6133SOL    HW229862   0.994   4.320   4.863  1.4185  2.2491  0.7864
 6134SOL     OW29863   0.856   3.261   8.958  0.5450 -0.2423 -0.2074
 6134SOL    HW129864   0.810   3.294   9.035  1.3234  0.2646  0.0526
 6134SOL    HW229865   0.815   3.317   8.892  1.6548  0.0369 -0.6609
 6135SOL     OW29866   0.464   0.210  11.577 -0.1159 -0.6178  0.3457
 6135SOL    HW129867   0.419   0.130  11.548 -3.2226  1.3035 -0.1335
 6135SOL    HW229868   0.541   0.166  11.613  0.4860 -0.1541 -0.3981
 6136SOL     OW29869   4.058   1.957   5.359  0.2107 -0.0167  0.9836
 6136SOL    HW129870   3.965   1.935   5.369 -0.7591  2.7096 -1.7390
 6136SOL    HW229871   4.094   1.925   5.441 -0.5218 -2.9230  0.1597
 6137SOL     OW29872   0.769   1.038   8.350  0.2501 -0.0211  0.5860
 6137SOL    HW129873   0.796   0.946   8.344 -1.3579 -0.3445 -1.9244
 6137SOL    HW229874   0.680   1.034   8.385 -0.2123  0.8951 -0.4846
 6138SOL     OW29875   4.432   2.239   6.126 -0.1196  0.0337  0.5329
 6138SOL    HW129876   4.340   2.240   6.099 -0.1646  3.0206  0.8483
 6138SOL    HW229877   4.418   2.171   6.191 -0.4188  1.0907  1.5698
 6139SOL     OW29878   1.040   0.900   4.968  0.0026  0.0498 -0.2264
 6139SOL    HW129879   1.132   0.873   4.966  0.2768  0.8303  1.5798
 6139SOL    HW229880   0.989   0.830   5.007 -0.5249  0.2546 -0.5523
 6140SOL     OW29881   0.813   3.621  16.233 -0.3526 -0.2032 -0.1871
 6140SOL    HW129882   0.772   3.592  16.315 -0.6984 -0.4255 -0.4344
 6140SOL    HW229883   0.740   3.644  16.175  0.7038  0.9273 -1.0825
 6141SOL     OW29884   4.177   3.040   8.360 -0.3162  0.5347 -0.0514
 6141SOL    HW129885   4.188   3.014   8.452 -1.5836 -1.8425 -0.5635
 6141SOL    HW229886   4.206   3.130   8.372  2.7486 -0.2679 -1.4415
 6142SOL     OW29887   1.606   0.803  14.400 -0.6408  0.0114 -0.4206
 6142SOL    HW129888   1.577   0.889  14.370  0.3447 -0.1223 -1.7635
 6142SOL    HW229889   1.627   0.760  14.317 -0.8397 -2.4936  0.8222
 6143SOL     OW29890   0.748   2.562   4.657 -0.2176  0.2147 -0.0459
 6143SOL    HW129891   0.705   2.604   4.732  1.1035 -0.2425  0.9705
 6143SOL    HW229892   0.741   2.626   4.587 -2.0526 -0.2663 -0.2957
 6144SOL     OW29893   3.278   2.814   9.988  0.2910 -0.1271 -0.1770
 6144SOL    HW129894   3.235   2.728   9.982  2.2626 -1.0872 -0.3526
 6144SOL    HW229895   3.334   2.808  10.066  2.7675  3.6479 -1.6787
 6145SOL     OW29896   1.645   1.995   1.359 -0.4798 -0.0591  0.2750
 6145SOL    HW129897   1.611   1.906   1.357  0.6441 -0.4802 -0.2968
 6145SOL    HW229898   1.576   2.039   1.310 -1.1472 -1.7481 -0.2718
 6146SOL     OW29899   3.102   3.254  12.729  0.0603 -0.2297  0.0076
 6146SOL    HW129900   3.103   3.187  12.661  2.3018 -0.3765  0.1887
 6146SOL    HW229901   3.042   3.216  12.794 -0.0079 -1.4055 -0.7445
 6147SOL     OW29902   1.792   3.469   0.374 -0.3457  0.1046  0.7262
 6147SOL    HW129903   1.847   3.400   0.337  0.3221  1.0645 -0.0591
 6147SOL    HW229904   1.713   3.415   0.379 -0.0651 -0.4495 -0.7662
 6148SOL     OW29905   0.250   0.175   6.052 -0.4752 -0.3938  0.1446
 6148SOL    HW129906   0.250   0.270   6.058 -0.2034 -0.3710 -0.2552
 6148SOL    HW229907   0.342   0.152   6.061 -0.0056  0.8249 -1.6725
 6149SOL     OW29908   1.512   1.730  14.817  0.0829  0.3508  0.3385
 6149SOL    HW129909   1.438   1.708  14.760  0.8388 -2.4516  0.4147
 6149SOL    HW229910   1.569   1.775  14.756 -1.1007  2.9081  1.1129
 6150SOL     OW29911   1.714   1.634   3.586 -0.0007  0.3809 -0.2899
 6150SOL    HW129912   1.752   1.559   3.631  1.1438  1.1871  0.0874
 6150SOL    HW229913   1.733   1.621   3.493 -1.5751  0.2294 -0.5971
 6151SOL     OW29914   0.624   2.953   4.276  0.3045 -0.1702 -0.0357
 6151SOL    HW129915   0.640   2.892   4.204 -1.8082  0.6547 -1.2026
 6151SOL    HW229916   0.677   3.028   4.249 -0.8743 -0.2831 -2.6647
 6152SOL     OW29917   3.045   4.399   5.576 -0.0681  0.1196 -0.0502
 6152SOL    HW129918   2.972   4.442   5.531 -2.7501 -0.2485  3.9543
 6152SOL    HW229919   2.991   4.381   5.653  1.7469  2.0589  1.6807
 6153SOL     OW29920   2.231   2.717   6.881 -0.0729  0.4423  0.6473
 6153SOL    HW129921   2.207   2.770   6.804  0.0015 -0.9381 -0.3297
 6153SOL    HW229922   2.167   2.743   6.946 -0.0635 -0.1274  0.8778
 6154SOL     OW29923   1.929   4.261   8.489 -0.6790 -0.2593  0.1594
 6154SOL    HW129924   1.987   4.315   8.435 -3.0710  0.8146 -1.3358
 6154SOL    HW229925   1.952   4.302   8.572  0.4595 -0.6353  0.0306
 6155SOL     OW29926   1.943   1.680   5.014  0.6065  0.3492 -0.1468
 6155SOL    HW129927   1.869   1.738   4.994 -0.2049 -1.0817 -1.3451
 6155SOL    HW229928   1.998   1.731   5.073  0.4026  0.5679 -0.1453
 6156SOL     OW29929   2.392   0.262  14.090  0.3471  0.3329 -0.3377
 6156SOL    HW129930   2.334   0.187  14.084  1.5280 -0.5129 -1.4178
 6156SOL    HW229931   2.466   0.226  14.139 -1.9365 -2.0484  1.3250
 6157SOL     OW29932   0.207   3.552   6.069 -0.3324  0.0055 -0.8847
 6157SOL    HW129933   0.159   3.633   6.083 -1.3943 -0.9403  0.9604
 6157SOL    HW229934   0.139   3.488   6.089 -2.2429  2.4089  0.1933
 6158SOL     OW29935   1.187   1.444  10.304  1.3756 -0.3316  0.3249
 6158SOL    HW129936   1.102   1.482  10.325  0.9939  0.1028 -2.0192
 6158SOL    HW229937   1.159   1.359  10.268 -0.5521  0.8595 -0.9927
 6159SOL     OW29938   1.902   0.147  15.908  0.0310 -0.3883  0.2060
 6159SOL    HW129939   1.995   0.167  15.922 -0.2518  1.0376  0.0492
 6159SOL    HW229940   1.898   0.118  15.816 -0.7609  0.6914 -0.0997
 6160SOL     OW29941   3.171   3.783   2.071 -0.0123  0.0389 -0.6949
 6160SOL    HW129942   3.214   3.860   2.110 -0.6436  0.3621 -0.6436
 6160SOL    HW229943   3.207   3.794   1.982  1.0582  1.9639 -0.0249
 6161SOL     OW29944   1.767   3.258   7.120  0.2706 -0.3417  0.4170
 6161SOL    HW129945   1.712   3.296   7.051  0.4214  1.3178  1.2081
 6161SOL    HW229946   1.723   3.173   7.116 -2.3307  0.9891  0.8315
 6162SOL     OW29947   1.460   1.971   5.186  0.0674  0.1193  0.1862
 6162SOL    HW129948   1.491   2.046   5.135  0.3623 -0.1228  0.0079
 6162SOL    HW229949   1.394   1.935   5.128 -0.1196 -0.2660  0.6346
 6163SOL     OW29950   0.511   0.093  13.386  0.4354  0.9668 -0.3009
 6163SOL    HW129951   0.497   0.004  13.421 -0.5381  1.1396 -0.2320
 6163SOL    HW229952   0.602   0.113  13.404  0.2838  3.0131 -1.7792
 6164SOL     OW29953   0.563   2.461   8.000 -0.5211  0.0465 -0.6530
 6164SOL    HW129954   0.509   2.401   7.947 -0.0305 -0.6309 -0.3924
 6164SOL    HW229955   0.550   2.535   7.942 -1.3597 -1.1978 -2.0627
 6165SOL     OW29956   0.835   4.483   6.727  0.5371 -0.4404 -0.3242
 6165SOL    HW129957   0.895   4.491   6.801 -0.9384 -0.3013  0.8417
 6165SOL    HW229958   0.766   4.544   6.751  0.7675 -0.5694  0.6540
 6166SOL     OW29959   1.335   4.626   4.092  0.8001 -0.1730  0.1294
 6166SOL    HW129960   1.357   4.615   3.999 -0.4420 -1.2764 -0.0230
 6166SOL    HW229961   1.403   4.575   4.136 -0.0507  1.1836  3.0397
 6167SOL     OW29962   2.697   3.646  10.065  0.5887  0.2862  0.3782
 6167SOL    HW129963   2.713   3.569  10.120  2.0751 -0.6580 -1.3628
 6167SOL    HW229964   2.736   3.719  10.113  0.2174  2.2932 -2.3753
 6168SOL     OW29965   0.202   4.055   6.577  0.0319  0.3193  0.3838
 6168SOL    HW129966   0.121   4.018   6.541  0.0887 -1.4877  2.1215
 6168SOL    HW229967   0.222   4.119   6.509 -0.1243  0.0836  0.1161
 6169SOL     OW29968   0.236   1.350   4.076  0.5890  0.4308 -0.2900
 6169SOL    HW129969   0.218   1.256   4.072 -0.9561  0.6874  0.6116
 6169SOL    HW229970   0.274   1.361   3.989  0.0848  1.4706 -0.3692
 6170SOL     OW29971   1.913   3.796   6.768 -0.0096  0.3321  0.4286
 6170SOL    HW129972   1.984   3.827   6.712  0.7044 -0.2770  1.0059
 6170SOL    HW229973   1.921   3.860   6.840 -0.4554  0.0225  0.7562
 6171SOL     OW29974   1.884   0.241   4.073  0.0023  0.8935  0.0530
 6171SOL    HW129975   1.882   0.149   4.048 -1.9119  0.7623  0.6633
 6171SOL    HW229976   1.900   0.220   4.165  2.6735  0.3702 -0.5283
 6172SOL     OW29977   3.545   0.671  16.301  0.2051 -0.3250  0.0020
 6172SOL    HW129978   3.544   0.767  16.306 -2.4246 -0.2881 -1.8808
 6172SOL    HW229979   3.603   0.654  16.227  0.5855  0.4641  0.1185
 6173SOL     OW29980   0.900   4.480   3.228  0.2764 -0.1553 -0.5838
 6173SOL    HW129981   0.963   4.540   3.268  4.6001 -3.8882 -1.8305
 6173SOL    HW229982   0.824   4.486   3.286  0.4986  0.6353 -0.3745
 6174SOL     OW29983   3.661   2.482  12.019  0.2843 -0.1329  0.1613
 6174SOL    HW129984   3.752   2.455  12.032  0.0043 -1.2772 -0.2618
 6174SOL    HW229985   3.627   2.511  12.104  0.9695  0.9714  0.0635
 6175SOL     OW29986   3.762   3.107   5.542  0.6666 -0.2877  0.2325
 6175SOL    HW129987   3.857   3.104   5.531  0.7047  2.9737 -0.2584
 6175SOL    HW229988   3.756   3.190   5.590  0.1356 -0.4831  0.5067
 6176SOL     OW29989   4.223   4.358   4.613  0.2038  0.0460 -0.0494
 6176SOL    HW129990   4.239   4.446   4.645  0.5726 -0.4631  1.1386
 6176SOL    HW229991   4.143   4.382   4.565  0.5351  2.5131  0.6665
 6177SOL     OW29992   0.163   4.183  12.895 -0.0194 -0.2395 -0.0579
 6177SOL    HW129993   0.099   4.157  12.829 -0.5542  3.1511 -0.8823
 6177SOL    HW229994   0.108   4.256  12.925  0.3669  0.0893 -0.1486
 6178SOL     OW29995   0.277   0.008   6.654 -0.0254  0.2005  0.1026
 6178SOL    HW129996   0.321   0.092   6.663  0.6734 -0.2293  0.7233
 6178SOL    HW229997   0.206   0.021   6.716 -1.1587  0.9883 -1.3664
 6179SOL     OW29998   3.030   1.812  13.383  0.5379 -0.4780 -0.0693
 6179SOL    HW129999   3.020   1.831  13.477 -0.3007  0.5757 -0.3792
 6179SOL    HW230000   3.123   1.790  13.392  0.9948  1.8821  1.0416
 6180SOL     OW30001   1.516   2.329   7.080  0.0945  0.3514  0.0989
 6180SOL    HW130002   1.483   2.301   7.165  2.1059 -2.6062 -0.0782
 6180SOL    HW230003   1.538   2.421   7.090  1.4020  0.0707 -0.0518
 6181SOL     OW30004   0.523   1.163   3.874  0.0696  0.5128  0.0620
 6181SOL    HW130005   0.450   1.104   3.863  1.6431 -1.1461 -1.3549
 6181SOL    HW230006   0.601   1.110   3.891 -0.5867 -0.4848 -0.1140
 6182SOL     OW30007   2.084   1.561   5.527 -0.1303 -0.1713  0.0043
 6182SOL    HW130008   2.180   1.555   5.529 -0.1011  1.2786  2.8173
 6182SOL    HW230009   2.065   1.470   5.549 -1.7196  0.1808  0.0376
 6183SOL     OW30010   1.431   2.441   7.627 -0.0975  0.1308 -0.6657
 6183SOL    HW130011   1.426   2.365   7.686  2.5178  1.2398  1.0077
 6183SOL    HW230012   1.526   2.439   7.613  0.0745 -1.6602  0.6932
 6184SOL     OW30013   4.690   2.194   8.329 -0.1298 -0.1312  0.7784
 6184SOL    HW130014   4.708   2.284   8.358 -0.2062  0.0221  0.3554
 6184SOL    HW230015   0.021   2.156   8.396 -0.3646 -2.3362 -0.2729
 6185SOL     OW30016   3.837   2.977   2.857 -0.8225 -0.6104 -0.1596
 6185SOL    HW130017   3.844   2.888   2.890 -1.6485 -0.8443 -0.6160
 6185SOL    HW230018   3.833   2.952   2.765 -0.3470 -1.1931 -0.0160
 6186SOL     OW30019   3.309   4.623   3.807  0.0640 -0.3804  0.2898
 6186SOL    HW130020   3.286   4.539   3.769 -2.1626 -0.5592  2.0547
 6186SOL    HW230021   3.401   4.632   3.780  0.3837  0.5753  1.6573
 6187SOL     OW30022   1.890   2.021   6.356 -0.0370  0.0498 -0.1348
 6187SOL    HW130023   1.953   2.063   6.414 -0.9221  0.0647  0.8082
 6187SOL    HW230024   1.886   1.935   6.397 -1.5208  0.3686  0.3833
 6188SOL     OW30025   1.406   4.725  12.298  0.0943  0.4967 -0.1076
 6188SOL    HW130026   1.464   0.021  12.371  1.5272  2.1165 -1.7308
 6188SOL    HW230027   1.328   0.049  12.327  0.1193  0.3083  0.2795
 6189SOL     OW30028   4.114   3.485   5.572 -0.6873 -0.0892 -0.5988
 6189SOL    HW130029   4.125   3.391   5.560 -0.7841 -0.3799  1.5216
 6189SOL    HW230030   4.076   3.511   5.488  0.2282  0.5383 -0.8264
 6190SOL     OW30031   3.849   4.002   6.240 -0.0289  0.2632 -0.2232
 6190SOL    HW130032   3.803   4.061   6.300 -0.1973 -1.7288  1.6451
 6190SOL    HW230033   3.903   3.950   6.300  1.2531  0.2126 -1.4358
 6191SOL     OW30034   2.034   1.106   4.745 -0.0931 -0.5022  0.0510
 6191SOL    HW130035   2.123   1.077   4.764  0.7834  0.7726 -2.1775
 6191SOL    HW230036   2.022   1.153   4.828  1.5433  0.6808 -0.3832
 6192SOL     OW30037   0.093   3.386   3.315  0.5993 -0.0778  0.1443
 6192SOL    HW130038   0.009   3.394   3.271  0.4971  0.4541  0.4318
 6192SOL    HW230039   0.070   3.345   3.398  0.0174  1.9296  0.9920
 6193SOL     OW30040   2.669   1.552   6.971  0.1671  0.2992 -0.1865
 6193SOL    HW130041   2.604   1.499   7.016 -0.2255  1.3304  0.4555
 6193SOL    HW230042   2.615   1.604   6.912 -0.4257  0.2014  0.2822
 6194SOL     OW30043   3.643   1.738   5.797 -0.0434 -0.4400 -0.2913
 6194SOL    HW130044   3.616   1.656   5.755 -0.3555 -0.6412  0.3077
 6194SOL    HW230045   3.563   1.788   5.781 -0.2333 -0.8220 -0.5574
 6195SOL     OW30046   3.320   1.350   9.594 -0.1993  0.2264 -0.6215
 6195SOL    HW130047   3.250   1.323   9.653 -0.6197 -2.0134 -2.1528
 6195SOL    HW230048   3.330   1.270   9.542  0.7688 -0.1611  0.1556
 6196SOL     OW30049   1.071   0.943   7.848  0.0986 -0.1158 -0.3079
 6196SOL    HW130050   1.161   0.934   7.815 -0.1000  0.5966 -1.0523
 6196SOL    HW230051   1.076   0.934   7.943  2.2046 -3.0779 -0.6770
 6197SOL     OW30052   3.048   3.961   7.637 -0.4650 -0.2929 -0.7728
 6197SOL    HW130053   3.123   3.916   7.600 -2.0741 -3.1327 -0.5542
 6197SOL    HW230054   3.068   4.054   7.628  0.7897 -0.3394  1.4062
 6198SOL     OW30055   2.156   3.137  14.630  0.5385  0.3351  0.2454
 6198SOL    HW130056   2.078   3.143  14.576  0.3668  1.2549  0.5965
 6198SOL    HW230057   2.181   3.047  14.607 -0.7219 -0.0405  0.3401
 6199SOL     OW30058   4.548   3.838   5.376 -0.7738 -0.2760  0.2792
 6199SOL    HW130059   4.637   3.804   5.380  0.8222  3.6340 -1.5425
 6199SOL    HW230060   4.501   3.790   5.444 -0.0789 -1.8762 -0.3790
 6200SOL     OW30061   0.232   1.283   2.252  0.7253  0.0645  0.7274
 6200SOL    HW130062   0.222   1.368   2.208  0.1467  0.0610  0.8396
 6200SOL    HW230063   0.152   1.235   2.232  2.6800 -1.8949 -2.2790
 6201SOL     OW30064   3.917   1.906   7.620  0.6840  0.2821  0.3592
 6201SOL    HW130065   3.856   1.969   7.582  0.6543  0.7984  1.2556
 6201SOL    HW230066   3.957   1.863   7.544  1.8910 -0.3727  1.3494
 6202SOL     OW30067   1.236   0.256   7.500  0.2538  0.3768 -0.4522
 6202SOL    HW130068   1.171   0.306   7.451 -1.8226 -1.2099  0.6794
 6202SOL    HW230069   1.262   0.327   7.559  1.1493 -0.1910 -0.1707
 6203SOL     OW30070   0.424   3.504   4.971 -0.0391 -0.0511 -0.2708
 6203SOL    HW130071   0.369   3.569   5.014  0.1134 -0.3871  0.4266
 6203SOL    HW230072   0.489   3.559   4.926  0.1572  0.0881  0.1823
 6204SOL     OW30073   1.340   2.267   8.148  0.6005 -0.0041  0.0142
 6204SOL    HW130074   1.354   2.283   8.241  0.3497 -1.0951  0.2338
 6204SOL    HW230075   1.380   2.181   8.137  0.3580 -0.0219 -0.7376
 6205SOL     OW30076   2.379   2.669   9.591  0.3130 -0.0786 -0.5397
 6205SOL    HW130077   2.468   2.638   9.605 -0.5946 -2.3528  0.2016
 6205SOL    HW230078   2.398   2.761   9.611 -1.5706 -0.0501  1.1975
 6206SOL     OW30079   0.029   0.968   6.555  0.0076 -0.0371 -0.2721
 6206SOL    HW130080   4.700   1.038   6.590  0.4599  0.2564 -0.1592
 6206SOL    HW230081   0.112   0.992   6.596 -0.6776  2.8995 -0.6019
 6207SOL     OW30082   0.988   0.706   3.882  0.4981 -0.0112 -0.1979
 6207SOL    HW130083   1.013   0.781   3.828  1.9092 -2.1053 -2.4362
 6207SOL    HW230084   0.894   0.724   3.885  0.6122  0.8932 -2.2386
 6208SOL     OW30085   4.588   0.463   1.244  0.1784 -0.4928 -0.2698
 6208SOL    HW130086   4.550   0.376   1.255 -2.4204  0.4791 -1.6187
 6208SOL    HW230087   4.516   0.521   1.268  0.9867  0.9118 -1.2039
 6209SOL     OW30088   1.072   2.924   6.792 -0.4237  0.0541  0.1728
 6209SOL    HW130089   0.978   2.935   6.778 -0.4628  1.3666  1.3887
 6209SOL    HW230090   1.060   2.945   6.884  0.1806 -1.4688  0.5875
 6210SOL     OW30091   1.986   0.584   4.993 -0.0551  0.0847  0.2596
 6210SOL    HW130092   2.063   0.539   5.029 -0.4034 -0.8909 -0.2070
 6210SOL    HW230093   2.015   0.578   4.902  3.7685 -2.0707  1.6185
 6211SOL     OW30094   1.241   0.695   6.987 -0.0042 -0.0136  0.4389
 6211SOL    HW130095   1.280   0.781   7.001  3.7105 -0.8985 -4.5472
 6211SOL    HW230096   1.282   0.675   6.903 -2.6507 -0.3924 -0.7553
 6212SOL     OW30097   2.345   3.275   3.714 -0.2661  0.3483 -0.2914
 6212SOL    HW130098   2.431   3.239   3.691  0.8510  2.0125  1.2250
 6212SOL    HW230099   2.368   3.358   3.757 -1.9463  0.6053  0.1302
 6213SOL     OW30100   4.041   3.147  14.838 -0.1132 -0.1026  0.5465
 6213SOL    HW130101   3.948   3.142  14.817  0.6547 -1.4566 -2.4755
 6213SOL    HW230102   4.075   3.159  14.750  1.6920 -1.6727  1.0308
 6214SOL     OW30103   1.154   2.310   5.586  0.3293  0.3572 -0.6293
 6214SOL    HW130104   1.155   2.241   5.652  0.0515 -0.4268 -1.4416
 6214SOL    HW230105   1.212   2.377   5.622 -0.7528  0.6638  0.5462
 6215SOL     OW30106   3.281   2.603   7.116 -0.3609 -0.5470  0.4558
 6215SOL    HW130107   3.275   2.674   7.051 -0.1196 -0.3896  0.6053
 6215SOL    HW230108   3.320   2.532   7.066  0.4278  0.5749 -0.5361
 6216SOL     OW30109   0.328   2.929   4.054  0.1321 -0.0082  0.1687
 6216SOL    HW130110   0.371   2.915   3.969 -0.6296  3.3583 -0.7393
 6216SOL    HW230111   0.303   2.840   4.081 -0.4581  0.4808  1.2324
 6217SOL     OW30112   3.939   3.294   5.106  0.1580  0.2531 -0.1771
 6217SOL    HW130113   3.909   3.316   5.017 -2.3244 -0.5620  0.4675
 6217SOL    HW230114   3.974   3.206   5.094 -2.3722 -0.4750 -2.3614
 6218SOL     OW30115   0.232   1.336  15.273  0.5631  0.2164 -0.2584
 6218SOL    HW130116   0.193   1.412  15.230  2.0508  0.8870 -0.4267
 6218SOL    HW230117   0.280   1.291  15.204  0.9119 -0.0903  0.1848
 6219SOL     OW30118   1.871   1.496   4.540  0.4362  0.3139 -0.0253
 6219SOL    HW130119   1.938   1.499   4.471 -0.7439 -0.7759 -1.2267
 6219SOL    HW230120   1.914   1.459   4.618 -0.7442  0.0355  0.4874
 6220SOL     OW30121   1.051   0.225   5.664 -0.6671  0.2767  0.1043
 6220SOL    HW130122   1.099   0.268   5.735 -0.2189  0.0653 -0.0710
 6220SOL    HW230123   0.996   0.162   5.710 -2.5558  1.3155 -0.7545
 6221SOL     OW30124   2.569   4.524   6.886  0.3293 -0.0168  0.2864
 6221SOL    HW130125   2.662   4.543   6.901  0.7106 -0.1193 -1.8904
 6221SOL    HW230126   2.563   4.491   6.796 -0.2121 -1.0917  0.7200
 6222SOL     OW30127   3.277   3.468  13.720 -0.2115 -0.3595  0.1062
 6222SOL    HW130128   3.213   3.520  13.672 -0.6957 -2.1625 -1.2125
 6222SOL    HW230129   3.337   3.537  13.746 -0.9949  0.3540  0.0116
 6223SOL     OW30130   2.870   0.432   1.040 -0.1616 -0.2714  0.6653
 6223SOL    HW130131   2.785   0.476   1.031  0.4764  1.1496  1.5921
 6223SOL    HW230132   2.845   0.346   1.073  2.4055 -2.1498 -2.3639
 6224SOL     OW30133   1.081   0.702  11.172 -1.2389 -0.5075 -0.6475
 6224SOL    HW130134   1.052   0.699  11.264 -0.6956  1.8138 -0.4098
 6224SOL    HW230135   1.132   0.783  11.173 -0.7667 -0.8065 -0.4597
 6225SOL     OW30136   2.850   0.564  15.847 -0.8940  0.4415 -0.0017
 6225SOL    HW130137   2.810   0.651  15.847  1.5993  1.5727 -0.3060
 6225SOL    HW230138   2.923   0.581  15.907 -2.5244 -0.0963  2.1550
 6226SOL     OW30139   2.222   1.273   6.432 -0.6530  0.0710  0.0794
 6226SOL    HW130140   2.282   1.332   6.477  1.0912 -1.0804 -0.7270
 6226SOL    HW230141   2.149   1.334   6.424 -2.2181 -1.3170  3.6221
 6227SOL     OW30142   2.039   3.501   3.375  0.2036  0.4721  0.2339
 6227SOL    HW130143   2.083   3.431   3.423  0.4550 -1.3556 -2.6556
 6227SOL    HW230144   1.946   3.478   3.381  0.0577  0.9276 -0.3159
 6228SOL     OW30145   1.541   3.906   2.856  0.0953  0.3874 -0.0409
 6228SOL    HW130146   1.546   3.832   2.796 -0.0403  0.6381 -0.3637
 6228SOL    HW230147   1.580   3.976   2.803  2.8616 -2.3757 -1.7194
 6229SOL     OW30148   4.608   4.094   4.572 -0.6774 -0.4819  0.5253
 6229SOL    HW130149   4.528   4.105   4.623 -0.0714  0.2479  1.3414
 6229SOL    HW230150   4.625   4.003   4.597 -0.4274  0.0401  2.2567
 6230SOL     OW30151   4.697   2.716  16.824  0.0895 -0.7443 -0.4985
 6230SOL    HW130152   0.062   2.724  16.793 -0.2981  0.8307 -1.2466
 6230SOL    HW230153   4.656   2.661  16.757  0.9131 -4.0945  1.7252
 6231SOL     OW30154   3.529   3.559   6.167  0.6667 -0.0196  0.3901
 6231SOL    HW130155   3.574   3.634   6.128  1.1941 -0.2987  0.4740
 6231SOL    HW230156   3.562   3.568   6.256  0.8735 -1.8533  0.4931
 6232SOL     OW30157   3.151   1.767   4.444 -0.2879  0.4767 -0.4281
 6232SOL    HW130158   3.207   1.691   4.457 -1.9185 -0.5037  0.8735
 6232SOL    HW230159   3.170   1.806   4.359 -0.8847 -0.2137 -0.8768
 6233SOL     OW30160   2.974   1.064   9.869  0.4618 -0.3352 -0.4349
 6233SOL    HW130161   3.048   1.070   9.809  0.2987 -2.3471 -0.8128
 6233SOL    HW230162   2.931   1.143   9.834  1.1521 -0.3797 -1.3732
 6234SOL     OW30163   0.144   3.053   5.844 -0.5670 -0.1821  0.1277
 6234SOL    HW130164   0.126   2.968   5.804  0.8868 -0.3351 -0.2282
 6234SOL    HW230165   0.084   3.109   5.795 -1.7429 -1.7077 -0.1827
 6235SOL     OW30166   1.446   1.500   5.280  0.0495  0.4344 -0.2792
 6235SOL    HW130167   1.488   1.542   5.204  0.0456  0.7895 -0.0861
 6235SOL    HW230168   1.389   1.571   5.311 -0.6024  0.6197 -1.8786
 6236SOL     OW30169   0.819   3.263   4.489 -0.4273  0.1023 -0.4831
 6236SOL    HW130170   0.879   3.189   4.482 -2.1097 -1.1135 -2.0833
 6236SOL    HW230171   0.738   3.241   4.444 -0.3356 -0.6137 -0.2955
 6237SOL     OW30172   1.614   1.592   4.512 -0.5506  0.2351 -0.1611
 6237SOL    HW130173   1.602   1.498   4.506  2.9000 -0.1355 -1.4190
 6237SOL    HW230174   1.707   1.585   4.535 -0.7159  0.5512  0.6042
 6238SOL     OW30175   2.336   2.920  16.857  0.1715 -0.5006 -0.0696
 6238SOL    HW130176   2.386   2.962  16.927  0.7490 -1.1528 -0.0935
 6238SOL    HW230177   2.405   2.892  16.797  0.1198 -0.3577 -0.1951
 6239SOL     OW30178   3.692   0.579  16.093 -0.0377  0.1419  0.2544
 6239SOL    HW130179   3.662   0.581  16.002  1.6630 -0.9645 -0.3322
 6239SOL    HW230180   3.674   0.487  16.110  3.5359 -0.6717 -0.3745
 6240SOL     OW30181   4.078   1.485   7.422  0.4105 -0.5505 -0.5442
 6240SOL    HW130182   4.120   1.415   7.372 -0.5687 -1.6795  0.2071
 6240SOL    HW230183   4.014   1.514   7.356 -1.3327 -2.3652  0.3625
 6241SOL     OW30184   1.931   0.185   8.572 -0.5109 -0.3489 -0.5457
 6241SOL    HW130185   2.027   0.191   8.570 -0.4949 -0.2311  0.6781
 6241SOL    HW230186   1.928   0.157   8.481 -0.3573 -1.4588 -0.2040
 6242SOL     OW30187   3.716   1.220   4.807 -0.0553  0.1954 -0.2413
 6242SOL    HW130188   3.655   1.180   4.869  1.0345  0.6394  1.1470
 6242SOL    HW230189   3.692   1.191   4.719  0.4136  2.8425 -1.2405
 6243SOL     OW30190   2.222   2.101  14.729 -0.0612 -0.2462 -0.1057
 6243SOL    HW130191   2.172   2.172  14.771  1.1029  0.1032  0.7071
 6243SOL    HW230192   2.157   2.033  14.746  1.1237 -0.8314  2.1703
 6244SOL     OW30193   3.653   3.971  12.064  0.2107 -0.6635  0.0547
 6244SOL    HW130194   3.739   4.012  12.060 -0.0699 -0.1219 -0.3515
 6244SOL    HW230195   3.599   4.048  12.046  1.7180 -0.3622 -3.0469
 6245SOL     OW30196   2.219   3.518   8.984  0.7565 -0.2442 -0.2125
 6245SOL    HW130197   2.145   3.579   8.980  1.5792  0.7270 -0.5382
 6245SOL    HW230198   2.278   3.566   9.042  1.0859 -0.4630 -0.3662
 6246SOL     OW30199   1.042   3.640  16.112  0.0331  0.2379  0.3071
 6246SOL    HW130200   1.081   3.725  16.132 -1.1203  0.4752  1.5246
 6246SOL    HW230201   0.963   3.657  16.164  0.8616  0.6635  1.4270
 6247SOL     OW30202   2.140   0.943   6.939 -0.1329 -0.4544  0.4116
 6247SOL    HW130203   2.182   0.860   6.963 -0.9850 -0.7481  0.8682
 6247SOL    HW230204   2.166   1.002   7.010 -2.4407 -1.3736  2.0062
 6248SOL     OW30205   0.328   2.068  16.475  0.0872  0.8361  0.1139
 6248SOL    HW130206   0.350   2.092  16.385  0.6166  1.8061  0.5040
 6248SOL    HW230207   0.270   1.993  16.463  2.1671 -0.3229 -2.7931
 6249SOL     OW30208   2.236   1.919  10.546 -0.2313  0.0589 -0.1002
 6249SOL    HW130209   2.195   1.854  10.489  0.1645 -1.3327  1.1975
 6249SOL    HW230210   2.321   1.943  10.508  0.6219 -1.4412  0.8599
 6250SOL     OW30211   3.357   0.579  15.088 -0.0115  0.2580  0.2331
 6250SOL    HW130212   3.281   0.615  15.133  0.4674 -0.5569  1.7056
 6250SOL    HW230213   3.311   0.566  15.005 -1.9509 -0.0794  1.3654
 6251SOL     OW30214   2.444   1.278   1.978 -0.1845  0.1292  0.0233
 6251SOL    HW130215   2.434   1.373   1.988 -0.4636  0.2697 -1.6785
 6251SOL    HW230216   2.406   1.247   2.060  0.9060  0.6467  0.7360
 6252SOL     OW30217   3.417   4.409   4.318  0.2021 -0.1608 -0.3222
 6252SOL    HW130218   3.385   4.498   4.304 -2.0671 -0.8761  0.3672
 6252SOL    HW230219   3.427   4.373   4.230 -0.5531 -0.9718 -0.0731
 6253SOL     OW30220   3.702   0.896   8.527 -0.4373 -0.1715 -0.5635
 6253SOL    HW130221   3.673   0.894   8.618  0.3609 -2.5956 -0.3723
 6253SOL    HW230222   3.736   0.985   8.517  0.8657 -0.3660  2.0623
 6254SOL     OW30223   2.683   0.183  15.450 -0.3282  0.5757 -0.1367
 6254SOL    HW130224   2.653   0.223  15.531 -0.0435 -0.0722  0.2909
 6254SOL    HW230225   2.610   0.124  15.435  0.4660  0.0313 -1.8659
 6255SOL     OW30226   0.570   2.920   7.213  0.0606  0.0197 -0.0156
 6255SOL    HW130227   0.624   2.998   7.207  0.1585 -0.0025  0.6149
 6255SOL    HW230228   0.520   2.940   7.292 -2.3046 -1.8078 -1.0162
 6256SOL     OW30229   0.039   3.865   5.663 -0.2360 -0.0144  0.1101
 6256SOL    HW130230   4.710   3.926   5.713  0.3661 -1.3650  2.4203
 6256SOL    HW230231   4.709   3.787   5.673 -1.3683  0.8983  0.9384
 6257SOL     OW30232   3.845   4.352   6.988 -0.2450  0.3782 -0.0029
 6257SOL    HW130233   3.934   4.329   6.961  0.5633  2.2334  1.0718
 6257SOL    HW230234   3.823   4.288   7.056 -0.6693 -2.0273 -2.4082
 6258SOL     OW30235   1.405   3.055  15.007 -0.3778  0.0311  0.0186
 6258SOL    HW130236   1.400   3.102  15.090  1.0382  0.8570 -0.3760
 6258SOL    HW230237   1.490   3.020  15.033  0.1038  1.8144  0.8312
 6259SOL     OW30238   4.487   2.332  16.794 -0.1213  0.4758 -0.1943
 6259SOL    HW130239   4.415   2.307  16.736  0.3984  0.5253 -0.8546
 6259SOL    HW230240   4.462   2.424  16.808  0.1803  0.7466 -1.4804
 6260SOL     OW30241   0.356   3.064   9.401 -0.2916  0.4584 -0.1769
 6260SOL    HW130242   0.447   3.094   9.398  0.0666 -0.5625  0.6688
 6260SOL    HW230243   0.369   2.977   9.438 -1.2820  0.3364 -0.1209
 6261SOL     OW30244   0.436   4.317   2.813 -0.4175 -0.6441 -0.2521
 6261SOL    HW130245   0.432   4.267   2.895 -1.9260  3.1280  1.9524
 6261SOL    HW230246   0.457   4.407   2.840 -1.4940  0.1977 -2.2958
 6262SOL     OW30247   4.156   3.712  16.217 -0.4801 -0.0240  0.5400
 6262SOL    HW130248   4.198   3.795  16.195 -3.3033  2.1334  3.3318
 6262SOL    HW230249   4.160   3.718  16.312  2.2731 -3.2124  0.6472
 6263SOL     OW30250   3.265   2.473   6.169  0.0764  0.1490 -0.0506
 6263SOL    HW130251   3.228   2.514   6.247  0.3884  0.7056 -0.2010
 6263SOL    HW230252   3.356   2.495   6.187  0.7612 -0.5508 -2.6111
 6264SOL     OW30253   4.423   0.074   3.214 -0.2608 -0.8538 -0.0111
 6264SOL    HW130254   4.339   0.119   3.228  1.1024  1.5545  0.4117
 6264SOL    HW230255   4.411   0.048   3.123 -4.2023  0.6934  0.0771
 6265SOL     OW30256   1.942   2.699  15.262 -0.1593 -1.0468 -0.2848
 6265SOL    HW130257   1.989   2.670  15.184 -0.6302 -1.3759 -0.4495
 6265SOL    HW230258   1.897   2.777  15.229  0.3796 -0.4615  0.3644
 6266SOL     OW30259   3.336   3.475  10.600  0.2288  0.2842 -0.2863
 6266SOL    HW130260   3.259   3.474  10.656 -1.0032  0.6790 -1.9569
 6266SOL    HW230261   3.383   3.553  10.630  0.0052 -0.0653  0.9616
 6267SOL     OW30262   2.163   3.038   2.813 -0.5828 -0.4641 -0.1383
 6267SOL    HW130263   2.087   3.095   2.797  0.8068  1.3421 -0.2462
 6267SOL    HW230264   2.216   3.062   2.737  2.9036 -1.4877  2.0002
 6268SOL     OW30265   1.528   3.678   2.278 -0.6918 -0.1206 -0.1736
 6268SOL    HW130266   1.490   3.757   2.316 -0.9200 -0.1013 -0.4387
 6268SOL    HW230267   1.616   3.695   2.312 -0.7337 -0.9854  0.3743
 6269SOL     OW30268   1.902   3.261  11.595  0.0104  0.2765  0.2884
 6269SOL    HW130269   1.873   3.351  11.612  1.0111  0.9995 -1.7341
 6269SOL    HW230270   1.918   3.276  11.502 -1.6319  3.8554  0.5880
 6270SOL     OW30271   2.467   1.787  15.017  0.0131 -0.0409 -0.3616
 6270SOL    HW130272   2.479   1.875  14.982 -0.3122  0.5484  0.9835
 6270SOL    HW230273   2.476   1.793  15.112  1.2277  3.0363 -0.6731
 6271SOL     OW30274   0.077   4.203   5.833 -0.3600  0.6272 -0.3178
 6271SOL    HW130275   0.064   4.288   5.874  0.6375 -0.0354  1.3881
 6271SOL    HW230276   0.152   4.225   5.777 -1.3825  1.8448 -1.2150
 6272SOL     OW30277   3.131   2.433  12.508  0.3993 -0.0667  0.5617
 6272SOL    HW130278   3.143   2.513  12.560  0.0321  0.8364 -0.7271
 6272SOL    HW230279   3.108   2.375  12.580  0.1138  0.6836  1.0740
 6273SOL     OW30280   0.626   1.766   7.159  0.2473 -0.5292 -0.7140
 6273SOL    HW130281   0.671   1.789   7.078 -0.0400  0.9077 -0.4599
 6273SOL    HW230282   0.599   1.678   7.135  0.5952 -0.8239 -0.0374
 6274SOL     OW30283   0.818   1.807   3.545  0.2180 -0.6479  0.0272
 6274SOL    HW130284   0.855   1.855   3.470  0.7631  1.0686  1.3934
 6274SOL    HW230285   0.884   1.740   3.561 -0.8084 -0.9960  2.7535
 6275SOL     OW30286   0.428   1.982   7.089  0.1812  0.7143  0.4304
 6275SOL    HW130287   0.409   2.065   7.045  0.8942  0.7421  0.1792
 6275SOL    HW230288   0.504   1.952   7.039  0.1972 -2.6010  2.4734
 6276SOL     OW30289   2.108   2.412  16.353 -0.1685  0.4376 -0.1271
 6276SOL    HW130290   2.179   2.425  16.289  0.7406 -1.9304  0.4242
 6276SOL    HW230291   2.106   2.492  16.406  1.7731 -0.4064  1.2212
 6277SOL     OW30292   0.937   1.741   8.552  0.4002  0.3342  0.4409
 6277SOL    HW130293   0.942   1.821   8.499 -0.6405 -0.5820 -1.0446
 6277SOL    HW230294   0.874   1.771   8.618  1.4779 -1.0090  2.0612
 6278SOL     OW30295   3.068   0.915   1.531  0.2235 -0.9666  0.2846
 6278SOL    HW130296   3.064   0.946   1.441  0.0815  0.5324  0.8098
 6278SOL    HW230297   3.112   0.993   1.564 -0.6430 -0.2431 -0.2642
 6279SOL     OW30298   4.339   1.813   7.690  0.2659  0.1753  0.2937
 6279SOL    HW130299   4.308   1.733   7.647  0.6162  1.0428 -1.5826
 6279SOL    HW230300   4.304   1.796   7.777  0.2692 -1.9745 -0.1255
 6280SOL     OW30301   2.263   0.775   5.234 -0.2234 -0.2365  0.7224
 6280SOL    HW130302   2.331   0.838   5.259  0.8086 -1.6572  1.5098
 6280SOL    HW230303   2.220   0.750   5.316 -1.9885 -1.2055 -0.4931
 6281SOL     OW30304   4.054   2.696  10.896  0.6633  0.3743 -0.2473
 6281SOL    HW130305   4.095   2.753  10.960  0.3882  0.4638 -0.1537
 6281SOL    HW230306   3.975   2.745  10.874 -0.1445  0.2046  2.3187
 6282SOL     OW30307   0.518   0.256   1.783  0.6068  1.0289  0.2250
 6282SOL    HW130308   0.436   0.278   1.739  0.2891 -2.4477 -0.9928
 6282SOL    HW230309   0.509   0.286   1.873  1.8701 -0.3473  0.8012
 6283SOL     OW30310   1.154   1.773   7.486 -0.0199 -0.1493 -0.5669
 6283SOL    HW130311   1.147   1.846   7.424  0.7807 -0.5288 -1.0952
 6283SOL    HW230312   1.075   1.721   7.470 -1.2733  1.7290 -0.4600
 6284SOL     OW30313   3.358   2.376   7.836 -0.2677 -0.2467  0.2327
 6284SOL    HW130314   3.399   2.290   7.843  2.0936  0.9163  0.5582
 6284SOL    HW230315   3.287   2.359   7.898 -1.5385  0.4892 -0.9992
 6285SOL     OW30316   1.755   1.083   4.373 -0.0599 -0.0651 -0.4341
 6285SOL    HW130317   1.800   0.999   4.382  0.2708  0.1235 -0.3612
 6285SOL    HW230318   1.779   1.130   4.452  0.4586  1.1412 -1.3098
 6286SOL     OW30319   3.936   2.776   3.998  0.3850  0.1887 -0.1499
 6286SOL    HW130320   4.001   2.706   4.012  1.2283  0.8695 -0.6959
 6286SOL    HW230321   3.947   2.782   3.903  0.6838  2.1763  0.0252
 6287SOL     OW30322   4.377   3.153   1.670  0.2475  0.0091  0.3393
 6287SOL    HW130323   4.308   3.109   1.718 -1.0107 -0.5505 -1.9736
 6287SOL    HW230324   4.440   3.084   1.652  0.5060  0.1199  0.8182
 6288SOL     OW30325   2.500   1.840   8.032  0.3861 -0.7994 -0.3117
 6288SOL    HW130326   2.490   1.750   8.002 -0.0442 -1.2753  1.2309
 6288SOL    HW230327   2.509   1.819   8.125  0.1935  2.6611  0.4824
 6289SOL     OW30328   2.055   0.416  15.591  0.6066  0.5453  0.3441
 6289SOL    HW130329   1.991   0.477  15.627 -0.3189 -0.3841  0.2821
 6289SOL    HW230330   2.124   0.419  15.657  0.8309 -3.2013  0.2935
 6290SOL     OW30331   1.133   1.845   9.619  0.2325  0.8066  0.1460
 6290SOL    HW130332   1.167   1.932   9.638 -0.1079  0.7668  0.9143
 6290SOL    HW230333   1.219   1.805   9.607  0.6335  1.8957 -0.6519
 6291SOL     OW30334   3.336   0.347   5.436  0.4815 -0.3784 -0.0115
 6291SOL    HW130335   3.360   0.332   5.528 -1.1038  0.1458  0.5090
 6291SOL    HW230336   3.260   0.406   5.438  0.3641 -0.5803  1.4428
 6292SOL     OW30337   4.086   4.026   2.098  0.0259 -0.3902  0.3030
 6292SOL    HW130338   4.008   3.979   2.070 -2.2122  3.7265 -0.3490
 6292SOL    HW230339   4.128   4.053   2.016 -0.3966 -2.8365 -0.7435
 6293SOL     OW30340   0.520   1.462   2.303  0.2841 -0.6358  0.0416
 6293SOL    HW130341   0.504   1.367   2.301 -0.3426 -0.5112 -1.1616
 6293SOL    HW230342   0.429   1.492   2.311  0.2315 -0.6429 -0.5353
 6294SOL     OW30343   3.943   1.720   8.720 -0.3440 -0.3835 -0.5770
 6294SOL    HW130344   3.944   1.778   8.644 -1.5261  1.0655  0.5445
 6294SOL    HW230345   3.858   1.741   8.756  1.2788  3.1445  1.1512
 6295SOL     OW30346   2.976   2.417   3.580  0.7525 -0.5596 -0.0356
 6295SOL    HW130347   2.910   2.353   3.552 -0.1405  1.0813 -1.6170
 6295SOL    HW230348   2.919   2.494   3.576  0.1756 -0.9817 -0.0017
 6296SOL     OW30349   1.248   0.017   3.086 -0.1382  0.3321 -0.1329
 6296SOL    HW130350   1.302   0.076   3.138 -0.5230  0.4883  0.0888
 6296SOL    HW230351   1.311   4.686   3.041 -0.0955 -0.2774  0.6928
 6297SOL     OW30352   4.124   0.501   6.824  0.0592  0.9096 -0.1275
 6297SOL    HW130353   4.085   0.465   6.745  2.5032 -0.9587 -0.5068
 6297SOL    HW230354   4.122   0.589   6.786 -1.6426  0.1016 -1.9263
 6298SOL     OW30355   0.918   4.388  12.578 -0.0070 -0.4224  0.2980
 6298SOL    HW130356   0.988   4.410  12.640  1.3305 -1.9385 -0.6958
 6298SOL    HW230357   0.970   4.402  12.499 -1.6721 -1.9638 -1.0620
 6299SOL     OW30358   3.574   4.446   7.008  0.0820 -0.0001  0.2834
 6299SOL    HW130359   3.560   4.409   7.095  0.1464  1.0835  0.7573
 6299SOL    HW230360   3.669   4.433   7.006  0.3802  2.3553 -1.3430
 6300SOL     OW30361   4.046   0.560   4.135  0.1584  0.6597 -0.8039
 6300SOL    HW130362   4.051   0.474   4.094  1.2181  0.6129 -0.5922
 6300SOL    HW230363   4.127   0.572   4.185  0.3532  2.2218 -1.5109
 6301SOL     OW30364   4.083   0.322  14.515  0.2071 -0.1001 -0.4301
 6301SOL    HW130365   4.143   0.395  14.531  2.0952 -1.4649 -1.2175
 6301SOL    HW230366   4.097   0.275  14.597  1.8552  1.2877  0.0871
 6302SOL     OW30367   3.742   3.519   5.395  0.7112 -0.2870 -0.3056
 6302SOL    HW130368   3.837   3.513   5.403  0.8715  2.0297 -0.4159
 6302SOL    HW230369   3.722   3.456   5.326  0.0547 -0.5029  0.0872
 6303SOL     OW30370   2.946   0.702   7.966 -0.2445  0.0430  0.2800
 6303SOL    HW130371   2.924   0.655   7.886  0.9224 -0.3768  0.2086
 6303SOL    HW230372   2.904   0.647   8.032  0.5478 -0.2553  0.5366
 6304SOL     OW30373   1.435   1.599   8.358  0.4839  0.0191 -0.0741
 6304SOL    HW130374   1.347   1.625   8.387  0.2261 -1.6214  0.6234
 6304SOL    HW230375   1.457   1.658   8.286 -2.6020  0.0780 -0.9552
 6305SOL     OW30376   3.255   4.343   6.134  0.8028  0.0288 -0.1208
 6305SOL    HW130377   3.329   4.400   6.112  0.1280  1.4504  1.2667
 6305SOL    HW230378   3.279   4.313   6.223 -0.5364 -0.0969  0.1906
 6306SOL     OW30379   3.782   2.190  13.537 -0.0576 -0.2346  0.4142
 6306SOL    HW130380   3.820   2.132  13.603 -1.3913 -0.5965  0.8542
 6306SOL    HW230381   3.754   2.269  13.583  0.8302 -0.9685  2.1936
 6307SOL     OW30382   2.394   0.631   6.277  0.1269 -0.6966 -0.3324
 6307SOL    HW130383   2.489   0.626   6.268  0.0837 -0.0916 -1.0516
 6307SOL    HW230384   2.369   0.712   6.233  1.9965  0.1641  0.1953
 6308SOL     OW30385   2.506   1.085   2.871 -0.0790 -0.2635  0.0365
 6308SOL    HW130386   2.511   1.139   2.950  0.4203  0.0345 -0.1919
 6308SOL    HW230387   2.574   1.030   2.910  0.9786  0.9068 -0.1271
 6309SOL     OW30388   4.075   4.460   8.253 -0.4187 -0.1452  0.1062
 6309SOL    HW130389   4.150   4.516   8.234 -0.1787 -1.8525 -3.9603
 6309SOL    HW230390   4.012   4.531   8.262  0.7079  0.4961  2.7908
 6310SOL     OW30391   0.544   2.607  15.510  0.5533  0.4661 -0.4789
 6310SOL    HW130392   0.451   2.627  15.520  0.4694  0.2627 -0.8802
 6310SOL    HW230393   0.580   2.693  15.532 -0.3630  1.2928 -2.2666
 6311SOL     OW30394   2.536   0.378   6.039 -0.1173 -0.0074  0.1370
 6311SOL    HW130395   2.564   0.299   6.086 -0.1885 -0.1771 -0.1096
 6311SOL    HW230396   2.622   0.398   6.002 -0.1335  3.1940  1.8466
 6312SOL     OW30397   2.658   2.419  10.454 -0.8304  0.2406 -0.1081
 6312SOL    HW130398   2.605   2.499  10.452  2.4363  2.4143 -1.8349
 6312SOL    HW230399   2.743   2.464  10.454  0.0579 -1.4378 -1.4691
 6313SOL     OW30400   1.508   2.713   7.905  0.2563 -0.3345 -0.1617
 6313SOL    HW130401   1.567   2.639   7.915 -1.8157 -1.5055  3.7429
 6313SOL    HW230402   1.424   2.676   7.932  0.2648 -0.9648 -1.0103
 6314SOL     OW30403   2.395   2.394   6.026 -0.3051  0.9197 -0.5222
 6314SOL    HW130404   2.358   2.347   5.951 -0.5352  0.7113 -0.2770
 6314SOL    HW230405   2.415   2.319   6.081 -2.4176  1.0369  0.3893
 6315SOL     OW30406   2.361   4.490   9.086  0.2572  0.2705 -0.3410
 6315SOL    HW130407   2.349   4.535   9.169 -0.9470  0.3411 -0.5499
 6315SOL    HW230408   2.284   4.521   9.038  1.2493 -1.5530 -3.1604
 6316SOL     OW30409   3.709   1.283   5.284 -0.3267 -0.1013  0.7180
 6316SOL    HW130410   3.778   1.221   5.261  0.5211  1.6087 -1.2891
 6316SOL    HW230411   3.636   1.236   5.324 -0.6407 -0.0490  0.2014
 6317SOL     OW30412   1.621   4.364   5.205 -0.1045 -0.1505  0.1777
 6317SOL    HW130413   1.528   4.356   5.228 -0.5968  0.9147 -1.4529
 6317SOL    HW230414   1.617   4.418   5.126 -0.6422 -0.1289  0.2151
 6318SOL     OW30415   3.216   1.415  14.912 -0.4892  0.0469 -0.1213
 6318SOL    HW130416   3.240   1.429  14.820  0.4738 -1.1925 -0.0654
 6318SOL    HW230417   3.144   1.478  14.909 -1.5038 -1.0200  1.9086
 6319SOL     OW30418   4.181   1.286   3.954  0.0209  1.0177 -0.3350
 6319SOL    HW130419   4.211   1.214   3.899  0.6448  0.9491  0.0936
 6319SOL    HW230420   4.172   1.251   4.043 -0.1800  1.2713 -0.2547
 6320SOL     OW30421   0.119   3.912   5.004 -0.3127 -0.1945  0.2252
 6320SOL    HW130422   0.038   3.872   5.036 -1.3239  1.2613 -0.4935
 6320SOL    HW230423   0.086   3.965   4.931 -0.6085  0.5557  0.8932
 6321SOL     OW30424   2.916   0.293   8.068 -0.3896  0.0295  0.4515
 6321SOL    HW130425   2.928   0.335   8.154 -1.5187  0.4651  0.3964
 6321SOL    HW230426   2.920   0.205   8.106 -1.1808 -1.0500 -1.9402
 6322SOL     OW30427   2.660   0.006   2.163  0.3940  0.3772 -0.2900
 6322SOL    HW130428   2.694   0.077   2.218 -1.7630  0.2522  1.2025
 6322SOL    HW230429   2.744   4.713   2.121  1.2058  0.1565  1.3929
 6323SOL     OW30430   3.974   4.426   9.251  0.4033  0.0630 -0.3031
 6323SOL    HW130431   4.007   4.432   9.340  1.0185 -2.9736 -0.3149
 6323SOL    HW230432   3.921   4.505   9.238 -4.0942 -2.5007  2.6203
 6324SOL     OW30433   3.100   0.414   4.766  0.3018 -0.3519 -0.0274
 6324SOL    HW130434   3.137   0.497   4.734 -0.7434 -0.3716 -1.2940
 6324SOL    HW230435   3.135   0.351   4.702 -2.7300 -1.1648 -0.8559
 6325SOL     OW30436   3.536   3.538  10.854  0.1624  0.3803 -0.7622
 6325SOL    HW130437   3.568   3.487  10.779  0.0473  0.5229 -0.9102
 6325SOL    HW230438   3.486   3.607  10.810  0.2308  1.9350  1.6074
 6326SOL     OW30439   4.438   4.649   6.865 -0.3268 -0.4514 -0.0059
 6326SOL    HW130440   4.413   4.692   6.948  0.0550  0.0537 -0.1528
 6326SOL    HW230441   4.376   4.685   6.802  0.8609 -2.1663 -2.1224
 6327SOL     OW30442   3.920   3.264   8.476  0.3258 -0.0850  0.3784
 6327SOL    HW130443   3.855   3.195   8.466  1.6357 -1.1476 -1.0042
 6327SOL    HW230444   3.871   3.345   8.483  3.2483  1.6097  1.4069
 6328SOL     OW30445   1.329   2.503   3.549  0.4820 -0.1547  0.2062
 6328SOL    HW130446   1.378   2.529   3.627 -0.2820  0.6804  0.4116
 6328SOL    HW230447   1.303   2.592   3.524  1.3095 -0.7580 -2.8091
 6329SOL     OW30448   4.297   0.933   5.869 -0.0664 -0.1103  0.1916
 6329SOL    HW130449   4.336   1.011   5.908 -0.8363  0.4848 -0.2100
 6329SOL    HW230450   4.364   0.915   5.803 -0.6855  0.8220 -0.7006
 6330SOL     OW30451   4.658   2.674  15.599 -0.2265  0.0601  0.3189
 6330SOL    HW130452   4.651   2.638  15.510  2.2117 -0.0295  0.1649
 6330SOL    HW230453   0.007   2.623  15.632 -0.7746 -0.6371  0.4610
 6331SOL     OW30454   0.406   3.198   6.680 -0.1300  0.1581 -0.2262
 6331SOL    HW130455   0.316   3.174   6.663 -0.6350  2.2672 -0.5657
 6331SOL    HW230456   0.406   3.177   6.774 -0.5157  1.4587  0.0632
 6332SOL     OW30457   0.117   3.730  15.991  0.1988 -0.1404  0.6573
 6332SOL    HW130458   0.125   3.661  16.057  0.6275  0.0458  0.7976
 6332SOL    HW230459   0.196   3.711  15.939 -0.6205  1.6530 -1.2412
 6333SOL     OW30460   1.806   0.079   7.227  0.2272  0.2972 -0.4118
 6333SOL    HW130461   1.717   0.084   7.190  0.7174 -0.7963 -1.7477
 6333SOL    HW230462   1.778   0.090   7.318 -0.5326 -1.5758 -0.4289
 6334SOL     OW30463   0.984   0.668  13.479 -0.1625  0.4771  0.5061
 6334SOL    HW130464   0.980   0.585  13.526 -0.7785  0.1647 -0.0923
 6334SOL    HW230465   1.056   0.708  13.528  0.4217  1.2749 -1.0042
 6335SOL     OW30466   3.065   1.044  15.528  0.2236 -0.3126 -0.5927
 6335SOL    HW130467   3.130   1.006  15.470  0.8484 -1.5685  0.9413
 6335SOL    HW230468   2.980   1.010  15.499  0.0129 -0.3158  0.0289
 6336SOL     OW30469   0.393   1.139   9.033  0.8118  0.2522  0.1298
 6336SOL    HW130470   0.328   1.194   8.988  0.9258 -0.8981 -1.4337
 6336SOL    HW230471   0.457   1.132   8.963  0.5771 -2.9772  0.2580
 6337SOL     OW30472   1.052   1.376   5.686  0.6795 -0.0551  0.3047
 6337SOL    HW130473   1.132   1.412   5.724  1.2534 -0.9643 -0.0225
 6337SOL    HW230474   1.052   1.427   5.604 -0.3979  0.2311  0.4844
 6338SOL     OW30475   0.080   1.499  13.495  0.3573 -0.2810  0.5246
 6338SOL    HW130476   4.723   1.505  13.544  0.8054 -2.7057  1.6162
 6338SOL    HW230477   0.041   1.502  13.408  1.5378 -2.8775 -0.0869
 6339SOL     OW30478   3.896   2.789   3.688  0.0480 -0.0966  0.1787
 6339SOL    HW130479   3.833   2.768   3.619 -0.5127  0.3843  0.5480
 6339SOL    HW230480   3.964   2.836   3.640 -0.1967  0.7806  0.6974
 6340SOL     OW30481   4.549   0.470   3.648  0.0070  0.2248  0.1787
 6340SOL    HW130482   4.469   0.471   3.700 -0.1237 -1.0248 -0.0010
 6340SOL    HW230483   4.604   0.439   3.721  0.7151  0.6492 -0.1741
 6341SOL     OW30484   2.464   3.747  16.632  0.4383  0.4226  0.3152
 6341SOL    HW130485   2.433   3.658  16.647 -1.4145  1.4386  2.3955
 6341SOL    HW230486   2.524   3.759  16.706  1.0767 -0.5473 -0.0475
 6342SOL     OW30487   1.040   1.728  11.711 -0.1076  0.1518 -0.2619
 6342SOL    HW130488   0.961   1.749  11.760  1.8630  1.1917  2.4616
 6342SOL    HW230489   1.078   1.679  11.783  0.5999 -0.4533 -1.0435
 6343SOL     OW30490   3.426   1.014   8.814 -0.4876 -0.4969 -0.0670
 6343SOL    HW130491   3.414   0.919   8.815 -1.3870 -0.3843 -0.5645
 6343SOL    HW230492   3.483   1.016   8.891 -0.1631 -0.6788 -0.2995
 6344SOL     OW30493   1.014   3.693   7.479 -0.3343 -0.1348 -0.0323
 6344SOL    HW130494   1.051   3.648   7.403  0.4878 -0.0521  0.3204
 6344SOL    HW230495   0.936   3.643   7.503 -0.3727  0.0099  0.1443
 6345SOL     OW30496   1.106   2.776  15.689  0.5455 -0.2778 -0.5875
 6345SOL    HW130497   1.128   2.851  15.634  1.1252 -0.0503 -0.0362
 6345SOL    HW230498   1.193   2.737  15.680  0.5423 -0.4005 -0.0632
 6346SOL     OW30499   0.978   2.724   3.043 -0.2887 -0.1678 -0.5285
 6346SOL    HW130500   0.925   2.777   3.102 -0.1904 -0.2955 -0.3268
 6346SOL    HW230501   0.999   2.793   2.980  1.2872  0.6969  0.9396
 6347SOL     OW30502   1.638   4.159   1.034  0.1126 -0.6160  0.1382
 6347SOL    HW130503   1.550   4.124   1.046  0.0972 -0.5726  0.1503
 6347SOL    HW230504   1.671   4.147   1.123  1.9441  1.1398 -0.3134
 6348SOL     OW30505   3.359   3.048  13.539 -0.2711  0.1686  0.0567
 6348SOL    HW130506   3.394   3.122  13.490 -0.1219 -0.0909 -0.2270
 6348SOL    HW230507   3.307   3.094  13.605  0.8992  2.1065 -0.3748
 6349SOL     OW30508   3.924   4.212   9.099  0.6229  0.4009  0.1726
 6349SOL    HW130509   3.995   4.245   9.044  0.1097 -2.1693 -2.0562
 6349SOL    HW230510   3.918   4.278   9.167 -1.5728  0.8546 -0.4664
 6350SOL     OW30511   2.093   4.246   6.170 -0.5192 -0.0536  0.1210
 6350SOL    HW130512   2.023   4.245   6.235 -0.6170  1.0736  0.0365
 6350SOL    HW230513   2.101   4.340   6.153 -0.0526 -0.0638  0.2773
 6351SOL     OW30514   1.718   4.574  16.346  0.3399 -0.0911 -0.1722
 6351SOL    HW130515   1.754   4.655  16.383 -0.4052  0.1625 -0.0143
 6351SOL    HW230516   1.625   4.589  16.357  0.4257  0.0679  0.3353
 6352SOL     OW30517   2.073   3.372  13.094 -0.1943 -0.4068  0.2450
 6352SOL    HW130518   2.044   3.396  13.182  3.9468 -0.3076  1.5949
 6352SOL    HW230519   2.139   3.439  13.077  0.3915 -0.3139  2.9000
 6353SOL     OW30520   1.207   1.668   5.987  0.2408 -0.1461 -0.1020
 6353SOL    HW130521   1.189   1.689   6.078  1.7477 -0.7606  0.3427
 6353SOL    HW230522   1.172   1.751   5.955  1.3209  0.8492  1.3026
 6354SOL     OW30523   3.446   0.256   4.918  0.1093 -0.5475 -0.1257
 6354SOL    HW130524   3.375   0.217   4.969  0.1837 -2.0128 -1.1064
 6354SOL    HW230525   3.401   0.333   4.885  0.0946 -0.5467 -0.1033
 6355SOL     OW30526   1.933   1.570   6.928 -0.4810 -0.4311  0.8921
 6355SOL    HW130527   1.861   1.625   6.960 -0.6339  0.2177 -0.5762
 6355SOL    HW230528   2.010   1.594   6.979 -1.0641  1.7921  0.7278
 6356SOL     OW30529   1.331   3.812  12.192 -0.1451  0.4522  0.6534
 6356SOL    HW130530   1.281   3.761  12.128 -2.1737  0.2887  2.3488
 6356SOL    HW230531   1.411   3.762  12.206  0.3718  1.6544  1.9375
 6357SOL     OW30532   0.575   2.990   3.592 -0.2359  0.1794 -0.2876
 6357SOL    HW130533   0.532   3.031   3.517  2.8150  0.5158 -1.8438
 6357SOL    HW230534   0.606   2.910   3.549  0.5758 -0.2869  1.1502
 6358SOL     OW30535   0.211   0.300  12.078  0.3560  0.0908  0.1430
 6358SOL    HW130536   0.210   0.322  11.985 -0.7463  0.0862  0.1512
 6358SOL    HW230537   0.301   0.309  12.110  0.2211  0.1225  0.5204
 6359SOL     OW30538   3.256   0.074   5.900  0.1108 -0.6016  0.1432
 6359SOL    HW130539   3.305   0.006   5.854 -0.1861  0.3673 -1.5798
 6359SOL    HW230540   3.325   0.126   5.942  0.4007  0.3102 -1.4682
 6360SOL     OW30541   2.387   3.617  13.275  0.0075  0.1880  0.1846
 6360SOL    HW130542   2.376   3.601  13.181  0.7310 -0.6691  0.2440
 6360SOL    HW230543   2.294   3.621  13.298 -0.7260 -0.2274 -2.6744
 6361SOL     OW30544   4.155   4.013   8.100  0.5287  0.5031 -0.2299
 6361SOL    HW130545   4.103   4.020   8.020  0.4195  2.5578  0.0219
 6361SOL    HW230546   4.240   3.986   8.066 -0.0560 -0.9989 -0.4941
 6362SOL     OW30547   3.014   4.301  14.705 -0.9529 -0.7853 -0.1750
 6362SOL    HW130548   3.003   4.388  14.668 -0.8733 -0.8527 -0.3583
 6362SOL    HW230549   3.088   4.324  14.762 -1.5526 -0.9602  0.6800
 6363SOL     OW30550   0.528   1.038   2.708  0.1312 -0.3909 -0.2068
 6363SOL    HW130551   0.491   1.052   2.795 -1.2964 -2.1366 -0.5220
 6363SOL    HW230552   0.587   0.963   2.713  1.4521  0.6456 -0.2213
 6364SOL     OW30553   4.524   3.408  16.074  0.1345 -0.1635 -0.5689
 6364SOL    HW130554   4.456   3.364  16.125  0.1001 -0.6457 -1.0381
 6364SOL    HW230555   4.541   3.332  16.019 -0.6131 -1.7781  1.4269
 6365SOL     OW30556   4.161   3.129   3.547 -0.5002 -0.0919 -0.0635
 6365SOL    HW130557   4.076   3.148   3.585  1.0116  0.6260  2.9602
 6365SOL    HW230558   4.230   3.168   3.601 -0.5645  1.2822 -0.9647
 6366SOL     OW30559   2.693   3.600   0.969 -0.1627 -0.0745 -0.6308
 6366SOL    HW130560   2.702   3.584   1.063  1.0069 -2.6005 -1.1704
 6366SOL    HW230561   2.751   3.676   0.966 -2.7975  2.0701  1.2226
 6367SOL     OW30562   4.128   0.311  15.363 -0.2843  0.4685 -0.4797
 6367SOL    HW130563   4.040   0.328  15.330 -0.4420 -0.1865 -0.3875
 6367SOL    HW230564   4.165   0.248  15.301 -0.5808 -0.8390  0.6789
 6368SOL     OW30565   2.431   1.349   5.864 -0.4552 -0.0347 -0.2153
 6368SOL    HW130566   2.451   1.435   5.901 -0.7381 -0.0927  0.0699
 6368SOL    HW230567   2.451   1.365   5.772  0.2479 -1.4296 -0.3069
 6369SOL     OW30568   2.729   3.974   7.005 -0.3227  0.4967 -0.1459
 6369SOL    HW130569   2.637   3.982   6.979 -0.9531  0.3506  2.0362
 6369SOL    HW230570   2.771   3.984   6.919 -2.3196 -2.9072 -1.5611
 6370SOL     OW30571   3.295   1.391   0.098 -0.3356  0.1907 -0.2997
 6370SOL    HW130572   3.227   1.403   0.164  0.0699 -0.8189  0.3066
 6370SOL    HW230573   3.262   1.314   0.051  1.0491 -0.2249 -0.5793
 6371SOL     OW30574   4.149   3.895   7.626  0.2362 -0.4264 -0.0981
 6371SOL    HW130575   4.152   3.919   7.719  0.4434 -1.2858  0.1189
 6371SOL    HW230576   4.075   3.834   7.627 -0.4415  0.4217  1.9929
 6372SOL     OW30577   0.653   4.420  10.372  0.1034  0.0911 -0.3202
 6372SOL    HW130578   0.678   4.414  10.280  0.2925 -2.1173 -0.1372
 6372SOL    HW230579   0.722   4.470  10.414  1.5430 -2.5463  0.4757
 6373SOL     OW30580   3.814   1.443   4.665  0.2904 -0.8583  0.4947
 6373SOL    HW130581   3.773   1.369   4.710  0.4002 -0.1199  1.8009
 6373SOL    HW230582   3.818   1.509   4.734 -0.2922  1.0924 -1.3581
 6374SOL     OW30583   0.165   3.522   6.969  0.2207  0.1572  0.3657
 6374SOL    HW130584   0.097   3.586   6.990  0.8269  0.8975  0.1041
 6374SOL    HW230585   0.242   3.561   7.012  1.3403 -1.4030 -0.2241
 6375SOL     OW30586   3.272   3.977   1.922 -0.2464 -0.2105  0.2700
 6375SOL    HW130587   3.313   4.003   2.004  0.0656  0.5521 -0.1298
 6375SOL    HW230588   3.203   4.041   1.904  0.9321  1.7169  2.5750
 6376SOL     OW30589   4.034   0.938   8.758  0.2048  0.0310 -0.2806
 6376SOL    HW130590   4.083   0.939   8.676 -1.0796  0.5189 -1.0597
 6376SOL    HW230591   3.978   1.015   8.745 -0.6428 -0.2718  1.5497
 6377SOL     OW30592   1.973   0.519   7.120 -0.0409 -0.0930  0.2671
 6377SOL    HW130593   1.975   0.467   7.040 -0.1542 -0.9079  0.7851
 6377SOL    HW230594   2.039   0.477   7.176 -1.3589  2.4935  3.7756
 6378SOL     OW30595   2.066   2.493  17.397  0.8060  0.4235  0.1305
 6378SOL    HW130596   2.146   2.467  17.443  1.3915  0.2541 -0.9810
 6378SOL    HW230597   2.017   2.518  17.475  2.2322  1.3153  0.7404
 6379SOL     OW30598   3.071   1.565   5.753 -0.2707 -0.3502  0.4153
 6379SOL    HW130599   3.051   1.655   5.728  2.2049  0.2330  0.5600
 6379SOL    HW230600   3.071   1.522   5.667  0.5345 -1.4269  0.9561
 6380SOL     OW30601   0.035   4.180  15.464  0.3480 -0.3420  0.4270
 6380SOL    HW130602   4.704   4.245  15.508 -0.5647 -0.8054 -0.0604
 6380SOL    HW230603   0.090   4.242  15.416  1.4812 -1.6233  0.1121
 6381SOL     OW30604   1.591   0.592   6.528  0.6155 -0.1327  0.1860
 6381SOL    HW130605   1.615   0.505   6.561  2.9421  0.1762 -0.7155
 6381SOL    HW230606   1.502   0.597   6.562  0.1691 -1.1956 -0.8362
 6382SOL     OW30607   3.720   3.225   8.788  0.4350 -0.0528  0.2919
 6382SOL    HW130608   3.762   3.254   8.870 -1.0919  1.0126  0.7033
 6382SOL    HW230609   3.647   3.286   8.794  1.0842  0.7453  0.1584
 6383SOL     OW30610   2.320   2.275   1.818  0.0840  0.0060 -0.3788
 6383SOL    HW130611   2.400   2.251   1.772 -0.1415  0.2319 -0.8862
 6383SOL    HW230612   2.340   2.369   1.824  2.3900 -0.5594  0.6131
 6384SOL     OW30613   0.240   0.821   4.472  0.1759 -0.2281 -0.0124
 6384SOL    HW130614   0.265   0.751   4.410  1.5876  1.1883 -1.0552
 6384SOL    HW230615   0.161   0.844   4.423 -0.2403 -1.7268 -0.0691
 6385SOL     OW30616   3.306   4.237   1.761  0.2821  0.4010  0.3871
 6385SOL    HW130617   3.327   4.191   1.680 -0.2373 -0.5587  0.8060
 6385SOL    HW230618   3.212   4.223   1.770  0.2424  0.6500  0.3507
 6386SOL     OW30619   1.361   0.502   4.122  0.3991  0.4688 -0.4115
 6386SOL    HW130620   1.372   0.409   4.101 -0.5762 -0.2316  2.1717
 6386SOL    HW230621   1.318   0.536   4.043  1.6757  3.7809  0.3399
 6387SOL     OW30622   1.864   1.559   8.144  0.1428 -0.0709 -0.4197
 6387SOL    HW130623   1.789   1.509   8.175  0.2128 -0.1398 -0.3633
 6387SOL    HW230624   1.856   1.562   8.049 -0.5456 -0.6492 -0.3799
 6388SOL     OW30625   1.687   0.502   7.202  0.7710 -1.1992 -0.0121
 6388SOL    HW130626   1.761   0.534   7.151  0.2735 -0.6746 -0.4024
 6388SOL    HW230627   1.727   0.506   7.289 -0.5731 -0.5577  0.5864
 6389SOL     OW30628   1.922   0.400   6.299  0.1667 -0.1200 -0.0476
 6389SOL    HW130629   1.866   0.346   6.243  0.2345 -1.1588  0.8834
 6389SOL    HW230630   2.005   0.383   6.255  0.1458  2.3988 -1.0566
 6390SOL     OW30631   2.010   0.949   7.867 -0.0017  0.4117  0.7401
 6390SOL    HW130632   2.034   0.929   7.958 -3.9621  0.6510  1.8098
 6390SOL    HW230633   2.021   1.044   7.875  1.4723  0.4124 -1.2314
 6391SOL     OW30634   3.583   3.350  12.236 -0.2860 -0.3495  0.8497
 6391SOL    HW130635   3.641   3.360  12.312  1.5085  0.9348 -0.7006
 6391SOL    HW230636   3.622   3.280  12.183  2.3070  1.1917  0.7257
 6392SOL     OW30637   3.136   0.012   5.023  0.3494  0.5466  0.1021
 6392SOL    HW130638   3.121   0.107   5.025  2.9014  0.9384  0.7598
 6392SOL    HW230639   3.165   4.709   5.110 -1.6228  0.5893  0.7826
 6393SOL     OW30640   0.049   1.209   6.343 -0.1669  0.1667  0.2469
 6393SOL    HW130641   0.027   1.116   6.340  0.6856 -0.0685  1.6026
 6393SOL    HW230642   0.045   1.238   6.434 -0.2160 -1.2995  0.7159
 6394SOL     OW30643   0.249   1.084   1.990 -0.0726 -0.2293  0.2089
 6394SOL    HW130644   0.281   1.041   2.069  1.8363 -2.6519 -1.8871
 6394SOL    HW230645   0.160   1.106   2.019 -1.5933 -2.9595 -2.4326
 6395SOL     OW30646   2.565   4.363   3.689  0.2384 -0.1070 -0.4414
 6395SOL    HW130647   2.637   4.301   3.680  0.1585 -0.4259  1.0474
 6395SOL    HW230648   2.596   4.428   3.627 -0.1177  1.2998  0.8656
 6396SOL     OW30649   2.736   4.593  15.595  0.4669 -0.3566  0.3823
 6396SOL    HW130650   2.651   4.628  15.568  0.9474 -0.3122 -1.1027
 6396SOL    HW230651   2.788   4.656  15.645 -1.4674  1.2089  0.3989
 6397SOL     OW30652   1.839   0.840  11.594 -0.0830  0.6032  0.3113
 6397SOL    HW130653   1.848   0.746  11.579 -2.1339  0.1308  2.0768
 6397SOL    HW230654   1.927   0.865  11.622  0.0302  0.1648  0.3577
 6398SOL     OW30655   1.310   2.916  14.438  0.0494  0.8755 -0.1605
 6398SOL    HW130656   1.226   2.951  14.407 -0.4253  1.4514  1.7831
 6398SOL    HW230657   1.339   2.867  14.362 -0.1433  0.5831 -0.0471
 6399SOL     OW30658   4.488   0.644  12.476  0.1464 -0.4349  0.0391
 6399SOL    HW130659   4.478   0.614  12.386 -1.7315  1.2563 -0.3463
 6399SOL    HW230660   4.562   0.704  12.470 -0.2644  0.2062  1.2989
 6400SOL     OW30661   0.702   0.239   0.808 -0.5277 -0.4257 -0.2150
 6400SOL    HW130662   0.779   0.185   0.828  0.8685  0.6908 -2.6667
 6400SOL    HW230663   0.642   0.227   0.882  2.3988  0.4055  2.2605
 6401SOL     OW30664   0.581   4.206   5.887  0.0544 -0.5441  0.6309
 6401SOL    HW130665   0.669   4.224   5.853 -0.1473 -3.3100 -1.3336
 6401SOL    HW230666   0.545   4.294   5.889  2.2254  0.3673 -0.1364
 6402SOL     OW30667   0.943   0.166   6.009 -0.0764 -0.3145 -0.0910
 6402SOL    HW130668   1.001   0.089   6.008 -2.1045 -1.8596  0.7835
 6402SOL    HW230669   0.860   0.125   6.034 -0.4986  0.1237 -0.7640
 6403SOL     OW30670   3.660   2.512  15.172  0.5766 -0.4723  0.2560
 6403SOL    HW130671   3.570   2.499  15.203  0.5584 -2.3034 -0.5605
 6403SOL    HW230672   3.655   2.591  15.118  0.4689  0.3825  1.5296
 6404SOL     OW30673   0.421   1.358   5.061  0.4788  0.1045 -0.1174
 6404SOL    HW130674   0.343   1.319   5.022 -0.0546  0.7202  0.3407
 6404SOL    HW230675   0.448   1.283   5.115  0.2307 -0.3594 -0.6384
 6405SOL     OW30676   0.121   2.316  16.855 -0.0727 -0.0026 -0.3950
 6405SOL    HW130677   0.045   2.267  16.824 -0.2384  0.6971 -1.0923
 6405SOL    HW230678   0.131   2.382  16.787  2.2227 -0.7939 -0.8285
 6406SOL     OW30679   3.697   4.406   5.050  0.5638  0.5416  0.3349
 6406SOL    HW130680   3.733   4.436   5.134  2.4815 -0.0572 -0.2717
 6406SOL    HW230681   3.621   4.463   5.064 -0.0810 -1.1575  3.7195
 6407SOL     OW30682   4.548   1.598   7.173  0.0974  0.2713 -0.3656
 6407SOL    HW130683   4.533   1.520   7.227 -2.5866  0.3042 -1.0709
 6407SOL    HW230684   4.546   1.668   7.239  1.0997 -1.7818  1.8580
 6408SOL     OW30685   2.728   2.826   5.490 -0.2788 -0.1947  0.3239
 6408SOL    HW130686   2.747   2.781   5.407 -0.4838  0.9125 -0.3244
 6408SOL    HW230687   2.732   2.756   5.554 -0.3055 -0.8193 -0.3631
 6409SOL     OW30688   4.323   4.228   2.760 -0.1806  0.7598 -0.1752
 6409SOL    HW130689   4.295   4.191   2.677 -1.4963 -2.4873  1.7002
 6409SOL    HW230690   4.374   4.157   2.798  0.7753  1.5052 -0.0869
 6410SOL     OW30691   4.333   4.096   9.656  0.1385 -0.2011  0.4049
 6410SOL    HW130692   4.320   4.128   9.567 -0.1074  0.0109  0.5152
 6410SOL    HW230693   4.255   4.135   9.696 -0.4423 -0.9522  0.0060
 6411SOL     OW30694   1.492   3.200   4.512 -0.1076  0.3093 -0.7686
 6411SOL    HW130695   1.414   3.188   4.459 -0.7284  1.2516 -0.0793
 6411SOL    HW230696   1.549   3.134   4.472 -1.8995 -2.3763  1.1925
 6412SOL     OW30697   0.778   3.576  11.242  0.2442  0.0510  0.0552
 6412SOL    HW130698   0.861   3.576  11.195  1.0564 -1.8762  1.5176
 6412SOL    HW230699   0.742   3.488  11.239  2.3484 -0.7730 -0.6228
 6413SOL     OW30700   1.283   0.141   2.331 -0.1866 -0.0285  0.4902
 6413SOL    HW130701   1.278   0.183   2.244 -0.9109 -1.0794  0.0371
 6413SOL    HW230702   1.327   0.204   2.389 -0.8059 -0.1635  1.0993
 6414SOL     OW30703   3.221   1.055   8.090 -0.3960  0.5113 -0.1057
 6414SOL    HW130704   3.184   1.018   8.010  0.8053 -2.1111  0.5303
 6414SOL    HW230705   3.272   0.987   8.134 -1.7036  0.4901  1.3780
 6415SOL     OW30706   3.842   3.862  16.156 -0.0551  0.2032 -0.2591
 6415SOL    HW130707   3.909   3.848  16.222 -1.0661 -1.8382  0.3193
 6415SOL    HW230708   3.823   3.954  16.174  1.7225  0.8122 -1.5704
 6416SOL     OW30709   4.008   2.136   4.774 -0.2053 -0.5018  0.2272
 6416SOL    HW130710   4.095   2.149   4.735 -0.3177 -0.3556  0.0270
 6416SOL    HW230711   3.996   2.196   4.848  0.4257 -1.4306  1.0894
 6417SOL     OW30712   1.274   3.108   2.748 -0.1502 -0.2671 -0.1835
 6417SOL    HW130713   1.262   3.079   2.657 -2.4715  2.6375 -0.8199
 6417SOL    HW230714   1.196   3.163   2.758  0.0839  0.3949 -1.9636
 6418SOL     OW30715   1.941   3.418   0.805  0.7068  0.6267  0.2220
 6418SOL    HW130716   1.936   3.426   0.900  0.1411 -2.0106  0.4225
 6418SOL    HW230717   1.966   3.508   0.787  1.1601 -0.0420 -2.5699
 6419SOL     OW30718   3.464   2.750   0.899 -0.2450  0.2302  0.1097
 6419SOL    HW130719   3.413   2.675   0.868 -0.3325  1.0180 -1.6221
 6419SOL    HW230720   3.553   2.719   0.881  0.8573  4.3059 -1.3288
 6420SOL     OW30721   0.966   4.359   1.301  0.7282 -0.3527  0.0825
 6420SOL    HW130722   1.054   4.339   1.334  0.6980  0.2105  0.4959
 6420SOL    HW230723   0.920   4.377   1.383 -0.1021  0.0058 -0.4664
 6421SOL     OW30724   0.515   1.723  17.583 -0.2814  0.4208 -0.5112
 6421SOL    HW130725   0.511   1.635  17.546 -0.6882 -0.0040  0.5485
 6421SOL    HW230726   0.449   1.705  17.650 -1.1229  0.3936 -1.3560
 6422SOL     OW30727   0.881   1.668   6.715  0.2885  0.3567 -0.1778
 6422SOL    HW130728   0.795   1.660   6.755 -0.5255  0.8718 -1.8239
 6422SOL    HW230729   0.923   1.638   6.795  0.2280  2.3754  0.6035
 6423SOL     OW30730   1.827   2.117  17.091 -0.1548 -0.6924  0.0146
 6423SOL    HW130731   1.867   2.188  17.142 -1.1222  1.2082 -1.8767
 6423SOL    HW230732   1.881   2.040  17.109  0.8954  0.2346  0.8647
 6424SOL     OW30733   0.042   2.936   9.315 -0.1403  0.1461 -0.2333
 6424SOL    HW130734   0.094   2.885   9.378 -0.6539 -0.8742 -0.6471
 6424SOL    HW230735   0.002   2.999   9.376  0.0000 -0.0774  0.0909
 6425SOL     OW30736   3.929   4.005   0.420  0.0783  0.2178  0.0191
 6425SOL    HW130737   3.928   4.047   0.334  2.9726  0.0805 -0.0989
 6425SOL    HW230738   3.844   4.037   0.450 -0.6551 -2.2582  0.5673
 6426SOL     OW30739   0.914   3.489   6.142 -0.5313  0.0597  0.4207
 6426SOL    HW130740   0.901   3.444   6.225  1.0535 -0.0435  0.6116
 6426SOL    HW230741   0.898   3.582   6.161  1.3140  0.2195  1.1261
 6427SOL     OW30742   3.338   3.766   5.490  0.1767  0.3418  0.2148
 6427SOL    HW130743   3.385   3.850   5.486  1.0498 -0.1679 -0.1058
 6427SOL    HW230744   3.407   3.699   5.489  0.0654  0.2372 -0.8534
 6428SOL     OW30745   0.178   2.341   6.125 -0.0883 -0.1443 -0.2530
 6428SOL    HW130746   0.142   2.263   6.169  1.0424 -0.4433  0.1484
 6428SOL    HW230747   0.104   2.401   6.114  2.4701  2.7026 -1.8666
 6429SOL     OW30748   2.299   2.612   3.378 -0.3095  0.0164  0.2952
 6429SOL    HW130749   2.328   2.524   3.352  0.6687  0.0644  1.2330
 6429SOL    HW230750   2.272   2.650   3.294 -0.4108  1.0942  0.8187
 6430SOL     OW30751   2.033   3.519   2.260  0.1569  0.0183 -0.2391
 6430SOL    HW130752   2.062   3.461   2.190 -0.5862  0.7529 -1.1549
 6430SOL    HW230753   1.944   3.541   2.233 -0.6519 -0.5501  1.9618
 6431SOL     OW30754   2.186   4.530  11.767  0.4819  0.4292  0.1249
 6431SOL    HW130755   2.280   4.514  11.776  0.5835  1.5989  1.0989
 6431SOL    HW230756   2.175   4.533  11.672  0.1926 -0.9615  0.1114
 6432SOL     OW30757   3.402   0.662   6.902  0.6460 -0.2949 -0.1648
 6432SOL    HW130758   3.471   0.723   6.927  0.7268 -0.3536 -0.2449
 6432SOL    HW230759   3.360   0.708   6.829  0.0853  0.0839  0.3928
 6433SOL     OW30760   0.101   4.699   7.083 -0.1867  0.3636  0.0285
 6433SOL    HW130761   0.103   4.604   7.083 -2.5234  0.3285  0.1703
 6433SOL    HW230762   0.196   4.711   7.079 -0.2654  0.8008 -0.5073
 6434SOL     OW30763   1.925   4.184   5.526  0.3245 -0.0069 -0.1264
 6434SOL    HW130764   1.999   4.135   5.490 -0.1328  0.0963 -1.2133
 6434SOL    HW230765   1.902   4.136   5.605  1.5012 -0.2250  0.0771
 6435SOL     OW30766   1.422   1.147   8.180  0.0917  0.1221 -0.0130
 6435SOL    HW130767   1.487   1.152   8.110 -0.9200  1.4503 -0.8448
 6435SOL    HW230768   1.478   1.150   8.258  1.6951 -1.2987 -1.0975
 6436SOL     OW30769   3.930   3.565   9.381 -0.0526 -0.2025  0.1207
 6436SOL    HW130770   3.946   3.476   9.350  0.5923 -0.6788  1.8151
 6436SOL    HW230771   3.973   3.616   9.313 -0.1338 -0.0609  0.1767
 6437SOL     OW30772   4.504   1.019   3.868 -0.6081 -0.3564 -0.2310
 6437SOL    HW130773   4.495   0.935   3.913  1.3663 -0.9094 -0.9252
 6437SOL    HW230774   4.557   1.068   3.931 -1.7934  0.4251  0.1712
 6438SOL     OW30775   0.798   4.052   2.224  0.6611 -0.3442 -0.6768
 6438SOL    HW130776   0.766   4.076   2.137 -2.9413  0.4794  0.8822
 6438SOL    HW230777   0.843   4.135   2.239  0.2889 -0.1693 -0.5394
 6439SOL     OW30778   1.500   3.606  13.950 -0.0698  0.0494  0.6248
 6439SOL    HW130779   1.475   3.519  13.919  0.8535 -1.0863  3.0130
 6439SOL    HW230780   1.460   3.662  13.885 -1.1106 -3.0931 -1.4486
 6440SOL     OW30781   3.837   3.166   2.011 -0.3416 -0.4459 -0.0630
 6440SOL    HW130782   3.873   3.254   2.003 -1.1910 -0.0820  0.1028
 6440SOL    HW230783   3.766   3.175   2.074 -1.0748 -0.8035 -0.8402
 6441SOL     OW30784   3.788   0.578  16.751  0.1825 -0.0188 -0.3161
 6441SOL    HW130785   3.724   0.633  16.796 -0.2390 -1.5085  0.8692
 6441SOL    HW230786   3.762   0.593  16.660 -0.7778  1.6271  0.2379
 6442SOL     OW30787   1.714   2.855   2.232  0.3740 -0.0902  0.3940
 6442SOL    HW130788   1.772   2.904   2.173  0.9940 -0.3738  0.7604
 6442SOL    HW230789   1.642   2.844   2.171  2.7473 -2.3816 -2.0168
 6443SOL     OW30790   0.531   0.708   7.417 -0.4258  0.2379 -0.1798
 6443SOL    HW130791   0.603   0.751   7.372  0.8108 -1.0284  0.5703
 6443SOL    HW230792   0.565   0.701   7.507  0.2199  0.7534 -0.3847
 6444SOL     OW30793   0.863   0.320   1.498  0.5497 -0.0427  0.6996
 6444SOL    HW130794   0.821   0.254   1.553 -0.6773  2.1468  2.3869
 6444SOL    HW230795   0.838   0.276   1.417 -2.0409  1.6624  0.5915
 6445SOL     OW30796   1.124   3.584  17.098  0.4347 -0.0986 -0.5535
 6445SOL    HW130797   1.202   3.622  17.139 -0.4177  0.7489  0.2701
 6445SOL    HW230798   1.050   3.621  17.146  0.5065  1.0846 -1.3693
 6446SOL     OW30799   3.949   1.394   2.260  0.2601 -0.3575 -0.2273
 6446SOL    HW130800   4.031   1.380   2.213  0.6332 -0.3175  0.4132
 6446SOL    HW230801   3.945   1.317   2.317  0.2560  1.3708  2.1256
 6447SOL     OW30802   2.426   2.735   4.136 -0.5101 -0.1773  0.4421
 6447SOL    HW130803   2.376   2.690   4.204 -1.7316 -0.9316 -0.9446
 6447SOL    HW230804   2.491   2.792   4.177  0.4644 -0.7656 -0.2829
 6448SOL     OW30805   2.080   0.705  11.442 -0.0965 -0.0022 -0.4021
 6448SOL    HW130806   2.078   0.643  11.370  1.7088 -0.4835 -0.0356
 6448SOL    HW230807   2.068   0.650  11.520 -1.7965  0.9870  0.0592
 6449SOL     OW30808   4.675   0.215  15.575  0.3756  0.0677 -0.5602
 6449SOL    HW130809   0.043   0.239  15.578  0.6889 -1.0152 -1.8799
 6449SOL    HW230810   4.656   0.204  15.668  0.7341  1.2976 -0.3365
 6450SOL     OW30811   4.600   1.579  15.848  0.1105 -0.3838 -0.1559
 6450SOL    HW130812   4.642   1.624  15.921 -1.1932 -0.0939  0.4295
 6450SOL    HW230813   4.677   1.547  15.802  1.3712  2.5738 -0.0938
 6451SOL     OW30814   0.694   4.488   0.933  0.4033  0.2701  0.6810
 6451SOL    HW130815   0.699   4.527   0.845 -0.2255 -2.6094 -0.6262
 6451SOL    HW230816   0.600   4.482   0.950  0.5526  0.3997  1.5432
 6452SOL     OW30817   4.130   2.158   8.529 -0.3626 -0.1550 -0.0342
 6452SOL    HW130818   4.215   2.119   8.510  0.1657 -0.3510  2.6632
 6452SOL    HW230819   4.162   2.232   8.581  4.1297 -1.7280 -0.6465
 6453SOL     OW30820   1.361   1.016   9.980 -0.8117  0.5199  0.0544
 6453SOL    HW130821   1.403   0.955   9.919 -0.8316  0.7798 -0.2191
 6453SOL    HW230822   1.344   1.082   9.914  0.7095 -0.7413 -1.6074
 6454SOL     OW30823   4.553   2.098   0.026 -0.4232  0.2567 -0.3133
 6454SOL    HW130824   4.573   2.131   0.114  2.2562 -0.0810 -0.7837
 6454SOL    HW230825   4.613   2.155  17.680  0.1919  0.0881  0.2481
 6455SOL     OW30826   2.560   0.723   0.546 -0.4976 -0.0690  0.1963
 6455SOL    HW130827   2.543   0.710   0.639  0.0920  1.7202  0.5622
 6455SOL    HW230828   2.656   0.726   0.554 -0.7002 -2.7134  3.3454
 6456SOL     OW30829   3.998   0.357  13.097  0.1863 -0.1826  0.6458
 6456SOL    HW130830   4.067   0.417  13.125  1.1855 -0.9610 -0.1769
 6456SOL    HW230831   3.969   0.389  13.012  0.7327  1.6254  1.1404
 6457SOL     OW30832   2.512   1.091   1.738 -0.7336  0.9326 -0.1476
 6457SOL    HW130833   2.433   1.121   1.783  1.7100  3.8813  2.1515
 6457SOL    HW230834   2.469   1.045   1.666  0.2196 -1.6980  0.9882
 6458SOL     OW30835   2.202   3.178   6.711  0.5514 -0.1625 -0.4513
 6458SOL    HW130836   2.229   3.243   6.777  0.6109 -0.8074  0.1622
 6458SOL    HW230837   2.224   3.217   6.627  1.8662 -0.7353 -0.3745
 6459SOL     OW30838   1.910   1.362   5.373  0.0012  0.3363  0.1198
 6459SOL    HW130839   1.845   1.294   5.358 -0.9688  1.9074 -2.9274
 6459SOL    HW230840   1.935   1.346   5.464 -0.0617  1.4927  0.3426
 6460SOL     OW30841   3.149   4.387   4.577  0.3952  0.1703 -0.6706
 6460SOL    HW130842   3.174   4.474   4.607  0.8089 -0.4775  0.8851
 6460SOL    HW230843   3.226   4.345   4.614 -0.9140 -0.5258  1.3158
 6461SOL     OW30844   0.786   0.435   6.754 -0.1543  0.3030  0.4923
 6461SOL    HW130845   0.874   0.460   6.783 -0.3398  0.9194  0.5188
 6461SOL    HW230846   0.808   0.372   6.685  1.2644  1.5267 -0.1519
 6462SOL     OW30847   2.661   3.451   3.915  0.0399  0.2170 -0.3783
 6462SOL    HW130848   2.613   3.405   3.846 -0.5138  3.7429 -2.3590
 6462SOL    HW230849   2.612   3.436   3.995 -0.1858 -1.7751 -0.8977
 6463SOL     OW30850   4.397   4.094   5.328  0.2155 -0.5800 -0.3000
 6463SOL    HW130851   4.456   4.021   5.308  0.9617 -0.4755  1.5201
 6463SOL    HW230852   4.460   4.164   5.313  0.2544 -0.3135  1.1266
 6464SOL     OW30853   3.866   1.270   9.182  0.0685  0.0931  0.0680
 6464SOL    HW130854   3.940   1.318   9.146 -0.8455  0.6458 -1.0853
 6464SOL    HW230855   3.829   1.339   9.237 -1.5410 -0.0172 -0.8636
 6465SOL     OW30856   1.725   0.765   2.164 -0.0073 -0.2138  0.6950
 6465SOL    HW130857   1.730   0.790   2.257 -1.5644 -1.1124  1.0252
 6465SOL    HW230858   1.794   0.815   2.121  1.1919 -1.4140  1.2205
 6466SOL     OW30859   2.416   1.343   3.466 -0.4459 -0.0255  0.4790
 6466SOL    HW130860   2.442   1.252   3.454 -1.1397 -0.3589  1.4511
 6466SOL    HW230861   2.338   1.345   3.411 -0.2251  2.7708  0.2634
 6467SOL     OW30862   0.682   1.787   4.602  0.2151 -0.2612  0.0317
 6467SOL    HW130863   0.712   1.739   4.679 -0.7136 -2.9879 -1.3364
 6467SOL    HW230864   0.735   1.754   4.529  1.9702  1.6573  0.4269
 6468SOL     OW30865   3.933   4.153   4.953  0.0375 -0.3038 -0.2226
 6468SOL    HW130866   3.925   4.135   5.047 -1.1965 -1.6432 -0.5789
 6468SOL    HW230867   4.002   4.219   4.962 -0.3811  0.4342 -2.3240
 6469SOL     OW30868   0.108   2.262   4.509  0.0379 -0.2479  0.1588
 6469SOL    HW130869   0.150   2.344   4.535 -0.5050 -0.2079  0.9135
 6469SOL    HW230870   0.173   2.214   4.458  0.5385  1.7592 -1.1301
 6470SOL     OW30871   2.651   1.351   2.661  0.5157  0.3592  0.1183
 6470SOL    HW130872   2.705   1.378   2.735 -1.6876  0.1367  1.7936
 6470SOL    HW230873   2.568   1.377   2.701  0.8681  0.6873  0.6410
 6471SOL     OW30874   4.597   4.154   9.746 -0.0962  0.1721 -0.0997
 6471SOL    HW130875   4.507   4.126   9.728 -0.3458  1.8691 -1.5585
 6471SOL    HW230876   4.589   4.153   9.841  1.2323 -2.6200 -0.0215
 6472SOL     OW30877   3.943   1.364   4.111 -0.4267  0.0942 -0.0393
 6472SOL    HW130878   3.921   1.399   4.198  1.7434 -0.3491  0.6892
 6472SOL    HW230879   4.008   1.299   4.139 -0.4765 -0.6157 -1.5586
 6473SOL     OW30880   1.174   4.240  10.368 -0.0663  0.1766 -0.4106
 6473SOL    HW130881   1.230   4.300  10.416  2.3004 -1.0945 -1.5707
 6473SOL    HW230882   1.230   4.189  10.309 -0.3744 -0.7106  0.0617
 6474SOL     OW30883   2.801   4.398  11.424  0.6944 -0.2466 -0.7715
 6474SOL    HW130884   2.779   4.311  11.392  1.9578 -0.8609  0.0494
 6474SOL    HW230885   2.717   4.441  11.443  2.0970  1.2712  1.9870
 6475SOL     OW30886   3.640   3.706   8.442  0.2150  0.3583 -0.0698
 6475SOL    HW130887   3.689   3.769   8.496  1.1728 -0.0237 -0.4949
 6475SOL    HW230888   3.562   3.703   8.497 -0.2015 -2.0127 -0.8133
 6476SOL     OW30889   0.936   3.099   4.820 -0.3177  0.0640 -0.5871
 6476SOL    HW130890   1.023   3.104   4.782 -0.5293 -0.6526 -1.1644
 6476SOL    HW230891   0.881   3.058   4.753 -1.7899  0.5063  0.3609
 6477SOL     OW30892   2.788   2.317   9.407 -0.1749  0.4370 -0.1649
 6477SOL    HW130893   2.736   2.256   9.354  1.1104  0.7903 -1.8285
 6477SOL    HW230894   2.739   2.397   9.386  1.1462  1.2622 -0.1128
 6478SOL     OW30895   1.114   1.074   4.333 -0.6897 -0.2013  0.1580
 6478SOL    HW130896   1.145   0.986   4.313  3.0179  1.2266 -0.2559
 6478SOL    HW230897   1.131   1.131   4.259 -2.5937 -0.2159 -0.2923
 6479SOL     OW30898   2.551   0.961   7.782 -0.2180  0.1575 -0.1974
 6479SOL    HW130899   2.593   0.924   7.704  0.8607  0.7214  0.1196
 6479SOL    HW230900   2.461   0.939   7.758  0.3258  0.9216 -2.9139
 6480SOL     OW30901   4.449   4.317   7.099 -0.7575  0.4275  0.5301
 6480SOL    HW130902   4.486   4.268   7.026  0.2987  0.9301  0.7246
 6480SOL    HW230903   4.437   4.402   7.055 -1.1799 -0.3778 -0.9275
 6481SOL     OW30904   2.237   0.485  15.139 -0.6237  0.0909 -0.3203
 6481SOL    HW130905   2.181   0.463  15.065  1.7404 -1.2374 -1.7276
 6481SOL    HW230906   2.190   0.470  15.221 -0.7591 -0.9496 -0.5904
 6482SOL     OW30907   2.935   4.450   5.036  0.0603  0.6353 -0.1965
 6482SOL    HW130908   2.984   4.419   4.960  0.8015 -0.2505  0.6501
 6482SOL    HW230909   2.885   4.372   5.061  0.3782  0.2556 -0.7370
 6483SOL     OW30910   2.812   2.697   6.078  0.2222 -0.3871 -0.3371
 6483SOL    HW130911   2.881   2.709   6.013 -1.1269  0.2309 -1.6325
 6483SOL    HW230912   2.863   2.692   6.159  0.8840 -0.4627 -0.7628
 6484SOL     OW30913   3.410   4.293   4.066 -0.6270  0.2846 -0.2272
 6484SOL    HW130914   3.476   4.349   4.026 -0.3409  1.4588  1.8878
 6484SOL    HW230915   3.440   4.206   4.042  2.8997  1.2962  0.5786
 6485SOL     OW30916   3.077   3.616  13.595  0.2862  0.1315 -0.4609
 6485SOL    HW130917   3.086   3.677  13.668  1.9490 -1.2678  0.5170
 6485SOL    HW230918   2.982   3.613  13.605  0.3042  1.3983  0.1032
 6486SOL     OW30919   0.913   0.939  10.526  0.1583  0.1949 -0.2539
 6486SOL    HW130920   0.881   1.028  10.539  2.5558  0.6840  2.3727
 6486SOL    HW230921   0.846   0.886  10.572 -1.2506  0.1128 -2.4167
 6487SOL     OW30922   0.221   1.088   1.468  0.1438  0.1504  0.2718
 6487SOL    HW130923   0.240   1.182   1.477  1.0570 -0.0159  0.0732
 6487SOL    HW230924   0.269   1.058   1.545 -1.3875 -0.0245  1.1714
 6488SOL     OW30925   4.531   0.752   2.741 -0.9019  0.0774  0.1250
 6488SOL    HW130926   4.531   0.741   2.645 -0.0046  2.5087 -0.1480
 6488SOL    HW230927   4.440   0.725   2.753 -0.0250 -2.4951  1.1171
 6489SOL     OW30928   0.213   4.434   2.436  0.5813  0.0809 -0.0026
 6489SOL    HW130929   0.277   4.505   2.425 -0.8826  1.3374 -0.3500
 6489SOL    HW230930   0.253   4.372   2.375 -2.0677 -0.1671 -1.5031
 6490SOL     OW30931   0.329   1.948   6.588 -0.0783 -0.2759 -0.0165
 6490SOL    HW130932   0.388   2.011   6.546  0.3519  0.3039  1.4588
 6490SOL    HW230933   0.247   1.993   6.607 -0.7505 -2.0008  1.0977
 6491SOL     OW30934   4.378   3.275   2.893 -0.0642  0.6675 -0.3356
 6491SOL    HW130935   4.372   3.187   2.855 -0.5229  0.9259 -0.8637
 6491SOL    HW230936   4.473   3.281   2.894 -0.1808  3.0894 -2.3380
 6492SOL     OW30937   4.356   3.481   1.122  0.7765 -0.0038 -0.1371
 6492SOL    HW130938   4.343   3.428   1.044 -0.8733 -1.1014  0.8698
 6492SOL    HW230939   4.295   3.437   1.182  1.1091  0.6796  0.6962
 6493SOL     OW30940   1.795   4.613   8.076 -0.2194  0.1527  0.0602
 6493SOL    HW130941   1.885   4.588   8.055  0.1779  0.4985  1.3382
 6493SOL    HW230942   1.743   4.540   8.043 -0.7580 -0.5033  2.3741
 6494SOL     OW30943   3.186   2.600   6.407 -0.5850 -0.4901 -0.3950
 6494SOL    HW130944   3.192   2.604   6.502  1.0825  1.1406 -0.5696
 6494SOL    HW230945   3.106   2.647   6.384 -0.8729 -1.6307 -1.7721
 6495SOL     OW30946   4.028   4.287  15.233  0.2880  0.3125  0.3684
 6495SOL    HW130947   4.052   4.317  15.146  3.6492  1.5748  1.7295
 6495SOL    HW230948   4.041   4.193  15.221 -1.5835  0.0569  0.3226
 6496SOL     OW30949   4.481   4.192   3.461 -0.1739 -0.2556 -0.0098
 6496SOL    HW130950   4.438   4.146   3.533  1.3713 -0.4945  0.7606
 6496SOL    HW230951   4.517   4.115   3.417  2.1621  0.5138  0.5845
 6497SOL     OW30952   0.880   2.583   6.243 -0.6562  0.2147  0.3329
 6497SOL    HW130953   0.819   2.560   6.313 -1.5388  1.5714  0.0098
 6497SOL    HW230954   0.934   2.650   6.285 -0.4504  0.1870  0.1188
 6498SOL     OW30955   0.242   1.418  11.660  0.1054 -0.4323 -0.7923
 6498SOL    HW130956   0.266   1.348  11.598  2.0900 -0.7338  0.3353
 6498SOL    HW230957   0.290   1.490  11.620  0.6550 -0.2119  0.2910
 6499SOL     OW30958   1.330   0.979  15.257  0.2159  0.0322 -0.2085
 6499SOL    HW130959   1.342   0.970  15.163 -1.5854  0.3988 -0.4676
 6499SOL    HW230960   1.415   0.954  15.294 -0.3128 -0.0665  0.9610
 6500SOL     OW30961   3.983   0.366   6.150  0.5868  0.0014 -0.5163
 6500SOL    HW130962   3.973   0.333   6.240 -2.3210  0.6774 -0.5954
 6500SOL    HW230963   4.050   0.429   6.176  0.7703 -0.8414  1.0373
 6501SOL     OW30964   4.683   3.970   0.766  0.0615 -0.0635 -0.3541
 6501SOL    HW130965   4.619   3.987   0.696  0.2449 -0.2601 -0.5688
 6501SOL    HW230966   4.632   3.916   0.827 -0.8477 -0.3415 -1.3543
 6502SOL     OW30967   2.138   1.024  10.369  0.9223  0.6079 -0.0413
 6502SOL    HW130968   2.216   1.075  10.391 -0.8044  3.0124  0.5761
 6502SOL    HW230969   2.070   1.087  10.393 -3.1308 -3.3038 -1.2444
 6503SOL     OW30970   3.400   1.896  14.271  0.2107 -0.0607 -0.2183
 6503SOL    HW130971   3.340   1.848  14.328  1.7967 -1.0781  0.6056
 6503SOL    HW230972   3.440   1.821  14.228  0.3939  1.0853 -2.0370
 6504SOL     OW30973   0.563   1.132   6.690 -0.1092 -0.2618  0.2991
 6504SOL    HW130974   0.552   1.160   6.599  1.0203 -0.5258  0.0916
 6504SOL    HW230975   0.625   1.062   6.670  0.9439  0.5540  0.7655
 6505SOL     OW30976   3.282   3.427   4.235 -0.3865 -0.3066  0.2402
 6505SOL    HW130977   3.336   3.506   4.231  1.3851 -1.4773  1.4217
 6505SOL    HW230978   3.345   3.366   4.271  0.7797  0.0560 -1.1797
 6506SOL     OW30979   4.331   2.894   3.151 -0.3312 -0.3954 -0.1203
 6506SOL    HW130980   4.411   2.870   3.105 -0.6605 -1.7940  0.0072
 6506SOL    HW230981   4.372   2.929   3.230  1.3100  1.8592 -1.9783
 6507SOL     OW30982   4.092   1.632   8.940 -0.0392  0.3643 -0.2949
 6507SOL    HW130983   4.168   1.682   8.969 -1.4888  2.5996 -0.2804
 6507SOL    HW230984   4.063   1.665   8.855 -1.5360  0.0061  0.0633
 6508SOL     OW30985   1.835   0.208   0.774  0.2379 -0.0015  0.4656
 6508SOL    HW130986   1.924   0.185   0.747  0.1582 -1.3178  1.3403
 6508SOL    HW230987   1.830   0.303   0.784 -0.8786  0.0746 -0.7840
 6509SOL     OW30988   2.715   3.445   8.783  0.0570  0.6600  0.8113
 6509SOL    HW130989   2.688   3.379   8.847 -0.2083  1.4608  1.5190
 6509SOL    HW230990   2.672   3.408   8.705  0.4607  0.2517  0.7837
 6510SOL     OW30991   1.241   0.003   1.929 -0.3157  0.2867  0.1961
 6510SOL    HW130992   1.172   4.662   1.927  1.9062 -2.0781  1.8147
 6510SOL    HW230993   1.192   0.063   1.873  0.6871  0.3953 -0.5515
 6511SOL     OW30994   2.895   4.512   9.941  0.6951  0.0337  0.5544
 6511SOL    HW130995   2.982   4.475   9.931  0.7687  0.1204  0.8641
 6511SOL    HW230996   2.859   4.525   9.853 -3.3258 -0.2585  2.1345
 6512SOL     OW30997   0.478   3.846  17.320  0.0255  0.6122  0.2588
 6512SOL    HW130998   0.418   3.878  17.252 -0.9235 -1.2987  0.2161
 6512SOL    HW230999   0.454   3.904  17.392 -1.5142  1.9564 -1.3486
 6513SOL     OW31000   0.840   0.207   4.971 -0.1765  0.0453  0.8007
 6513SOL    HW131001   0.829   0.176   4.881 -0.2590 -1.5295  1.3593
 6513SOL    HW231002   0.759   0.181   5.015 -0.2438 -0.3044  0.4735
 6514SOL     OW31003   3.167   2.702  12.584 -0.1230 -0.5585 -0.2089
 6514SOL    HW131004   3.093   2.714  12.643 -0.4297 -3.6554  0.0529
 6514SOL    HW231005   3.169   2.788  12.543  0.4457  0.2619  1.5690
 6515SOL     OW31006   4.710   0.121  12.325  0.0212 -0.0043  0.1827
 6515SOL    HW131007   4.652   0.045  12.318 -0.5379  0.4894 -0.6891
 6515SOL    HW231008   0.008   0.110  12.417 -0.1373 -2.1946 -0.0483
 6516SOL     OW31009   1.091   3.037   8.174  0.3433  0.1356  0.6396
 6516SOL    HW131010   1.088   3.131   8.159 -2.3033 -0.1666 -0.6678
 6516SOL    HW231011   1.081   3.041   8.269  1.7310 -0.1116  0.7903
 6517SOL     OW31012   2.974   1.265   2.271 -0.4576  0.5204 -0.2281
 6517SOL    HW131013   2.924   1.327   2.324 -0.8108  0.5307 -0.5818
 6517SOL    HW231014   3.062   1.291   2.300 -0.1637 -1.2593  0.4400
 6518SOL     OW31015   0.135   1.513   0.558  0.2611 -0.3772 -0.0213
 6518SOL    HW131016   0.220   1.470   0.564 -1.0811 -3.1413 -0.9270
 6518SOL    HW231017   0.150   1.544   0.468  0.6207  1.9017  0.8237
 6519SOL     OW31018   4.211   4.695   8.155 -0.0290  0.1320 -0.1772
 6519SOL    HW131019   4.217   4.704   8.250 -0.2743  0.7597 -0.2197
 6519SOL    HW231020   4.196   0.062   8.135  0.2069 -0.0641 -1.2452
 6520SOL     OW31021   2.621   2.277   7.652  0.1779  0.1683 -0.6936
 6520SOL    HW131022   2.572   2.240   7.579  1.3884 -1.4802 -0.6809
 6520SOL    HW231023   2.547   2.300   7.708  0.5735  0.2056 -0.1828
 6521SOL     OW31024   0.724   0.032   6.471 -0.2908  0.0428 -0.5515
 6521SOL    HW131025   0.790   0.017   6.539 -1.4580  3.5979  1.3601
 6521SOL    HW231026   0.704   0.126   6.475  1.2153  0.2642  1.9044
 6522SOL     OW31027   1.370   0.265   6.155 -0.1426 -0.5340  0.0348
 6522SOL    HW131028   1.334   0.177   6.143 -1.1526 -0.6233  3.7668
 6522SOL    HW231029   1.407   0.277   6.068 -1.0584 -1.8302 -0.5246
 6523SOL     OW31030   4.712   0.122   2.004 -0.0239  0.3121 -0.0250
 6523SOL    HW131031   4.688   0.070   1.927 -1.1089 -0.4450  0.8326
 6523SOL    HW231032   4.636   0.102   2.059  0.3953  0.5563  0.6331
 6524SOL     OW31033   0.849   0.095   4.708 -0.0786 -0.2672  0.1675
 6524SOL    HW131034   0.887   0.009   4.724 -1.1294 -0.5381  1.1586
 6524SOL    HW231035   0.756   0.075   4.698 -0.0216 -0.8938  0.9567
 6525SOL     OW31036   1.777   1.581  15.580  0.8039  0.0252 -0.5098
 6525SOL    HW131037   1.842   1.526  15.622  0.7359  0.1777 -0.2026
 6525SOL    HW231038   1.734   1.625  15.654 -0.5912 -1.2300 -0.5833
 6526SOL     OW31039   1.360   3.908   6.516  0.5711 -0.2257 -0.8530
 6526SOL    HW131040   1.275   3.888   6.556  1.5212  0.0268  1.2756
 6526SOL    HW231041   1.419   3.883   6.587 -2.0594  1.6770  1.9625
 6527SOL     OW31042   1.402   2.366   4.535  0.7755 -0.3396 -0.2449
 6527SOL    HW131043   1.433   2.376   4.445  1.7320  0.6880  0.2011
 6527SOL    HW231044   1.368   2.455   4.543 -0.7791 -1.0418  1.0090
 6528SOL     OW31045   2.397   3.652   8.069  0.8826  0.1173  0.4259
 6528SOL    HW131046   2.486   3.629   8.096  0.5418 -1.2930  0.3332
 6528SOL    HW231047   2.388   3.729   8.126  3.7050 -0.3286  1.4752
 6529SOL     OW31048   3.901   1.477  12.698  0.3363  0.0065 -0.1219
 6529SOL    HW131049   3.989   1.450  12.723  1.5624  0.9893 -3.3569
 6529SOL    HW231050   3.881   1.536  12.771 -1.2972 -0.3120 -0.3061
 6530SOL     OW31051   4.175   4.329   6.265 -0.1429 -0.2751 -0.1532
 6530SOL    HW131052   4.197   4.281   6.186 -0.0949  0.3999 -0.5506
 6530SOL    HW231053   4.260   4.328   6.310 -1.2400 -0.5589  1.9494
 6531SOL     OW31054   0.227   0.285  15.614  0.0060  0.6374  0.0042
 6531SOL    HW131055   0.245   0.296  15.521  0.3812 -2.5603 -0.3129
 6531SOL    HW231056   0.307   0.251  15.655  0.3692 -0.3308 -1.4959
 6532SOL     OW31057   1.824   0.556   3.682  0.0194  0.0676 -0.4502
 6532SOL    HW131058   1.908   0.547   3.638  0.5527 -0.3085  0.6306
 6532SOL    HW231059   1.836   0.481   3.741 -0.9303 -0.9548 -1.5683
 6533SOL     OW31060   0.393   2.862   4.450  0.4338  0.2717 -0.5729
 6533SOL    HW131061   0.328   2.884   4.383 -1.4048 -2.5079  0.3145
 6533SOL    HW231062   0.451   2.806   4.397 -1.2403 -0.3660 -1.7441
 6534SOL     OW31063   3.552   0.134   7.312  0.1542 -0.2086  0.0078
 6534SOL    HW131064   3.612   0.141   7.237 -2.5290 -1.8077 -2.2914
 6534SOL    HW231065   3.605   0.085   7.374 -1.8409 -1.5527  0.6049
 6535SOL     OW31066   1.185   2.502   0.123  0.3039 -0.6470  0.4088
 6535SOL    HW131067   1.175   2.507   0.218  0.3111  2.5328  0.2604
 6535SOL    HW231068   1.111   2.443   0.106 -0.2745  0.1298  0.2266
 6536SOL     OW31069   1.623   3.074   7.023  0.0274 -0.0379  0.6114
 6536SOL    HW131070   1.626   3.013   6.950  2.3054  0.0881  0.6064
 6536SOL    HW231071   1.562   3.034   7.085 -1.7322 -0.4353 -1.3784
 6537SOL     OW31072   2.521   4.184   2.689 -0.4387 -0.5620  0.0001
 6537SOL    HW131073   2.607   4.201   2.650 -0.0216 -1.3311  0.5734
 6537SOL    HW231074   2.499   4.115   2.627  0.7807 -0.2090 -0.8335
 6538SOL     OW31075   0.406   3.525  12.151 -0.0459  0.8664 -0.2830
 6538SOL    HW131076   0.311   3.515  12.148  0.1144 -0.5489 -0.5355
 6538SOL    HW231077   0.432   3.472  12.076  2.2698  2.6608 -0.7265
 6539SOL     OW31078   0.913   1.960   3.348  0.2684  0.6849  0.2953
 6539SOL    HW131079   0.986   1.933   3.292 -0.0535 -0.4670  0.4515
 6539SOL    HW231080   0.850   1.993   3.284  1.6290  0.4332 -1.1817
 6540SOL     OW31081   3.122   3.767   5.809 -0.1478 -0.5674 -0.2428
 6540SOL    HW131082   3.048   3.806   5.763 -0.3087  0.3168  0.7367
 6540SOL    HW231083   3.184   3.840   5.806 -0.6936 -0.1821 -1.8716
 6541SOL     OW31084   2.854   0.782   3.387 -0.4085 -0.1321  0.3432
 6541SOL    HW131085   2.940   0.824   3.391 -0.0059 -0.8426 -1.0272
 6541SOL    HW231086   2.873   0.716   3.321  1.6689  1.1721 -0.3580
 6542SOL     OW31087   0.190   1.040  13.562 -0.0383 -0.6787  0.5365
 6542SOL    HW131088   0.223   1.060  13.649 -2.9636  0.3485  1.4121
 6542SOL    HW231089   0.096   1.054  13.573 -0.3459 -1.3076 -1.1789
 6543SOL     OW31090   0.106   2.072   6.214  0.3368 -0.4022  0.1186
 6543SOL    HW131091   0.066   2.049   6.130 -0.1991 -1.0267  0.5474
 6543SOL    HW231092   0.023   2.092   6.257 -0.4948 -1.3207 -1.0579
 6544SOL     OW31093   4.068   4.388  12.452  0.1345  0.1363  0.9747
 6544SOL    HW131094   4.001   4.325  12.424 -0.3802  1.0226  0.1864
 6544SOL    HW231095   4.066   4.445  12.375  2.5372  0.7773  1.3930
 6545SOL     OW31096   3.843   1.900  10.054  0.1878  0.6763 -0.3465
 6545SOL    HW131097   3.865   1.870  10.142  0.2701 -1.1200 -0.9772
 6545SOL    HW231098   3.913   1.859  10.004 -2.2882 -4.0405  0.0433
 6546SOL     OW31099   2.863   3.305   2.131  0.0635  0.2072  0.3958
 6546SOL    HW131100   2.768   3.315   2.137  0.0741  1.1948 -0.9339
 6546SOL    HW231101   2.871   3.226   2.077 -1.5595 -1.1078  2.1025
 6547SOL     OW31102   2.366   1.593  16.751 -0.3355 -0.3115  0.5759
 6547SOL    HW131103   2.432   1.540  16.706  1.2674  1.1946  1.1145
 6547SOL    HW231104   2.394   1.683  16.737 -0.4500 -0.5646 -1.3169
 6548SOL     OW31105   3.665   1.084   6.175  0.2555 -0.2801 -0.3926
 6548SOL    HW131106   3.642   1.175   6.192  0.6966 -0.2422 -0.0125
 6548SOL    HW231107   3.723   1.066   6.249  1.8604  1.7992 -1.1773
 6549SOL     OW31108   3.456   3.325   3.994 -0.0285  0.3442  0.3977
 6549SOL    HW131109   3.387   3.372   4.040  0.8787  3.4977 -1.4897
 6549SOL    HW231110   3.425   3.234   4.003 -2.9648  1.1451 -1.5334
 6550SOL     OW31111   1.147   0.338   1.130 -0.3607  0.5377 -0.0674
 6550SOL    HW131112   1.114   0.369   1.045 -0.8911 -2.0523 -0.8178
 6550SOL    HW231113   1.207   0.272   1.094  0.3826  0.1550  1.8750
 6551SOL     OW31114   1.324   1.663   8.765 -0.3006 -0.2373 -0.3504
 6551SOL    HW131115   1.257   1.661   8.833  0.3646 -0.9177  0.2946
 6551SOL    HW231116   1.351   1.753   8.782 -0.3868  0.4260 -3.7335
 6552SOL     OW31117   2.263   3.669  16.375 -0.2687  0.3127  0.1918
 6552SOL    HW131118   2.341   3.651  16.323 -0.6846 -0.8761 -0.0249
 6552SOL    HW231119   2.296   3.664  16.465 -0.7360 -0.5087  0.3217
 6553SOL     OW31120   4.002   0.310  11.020  0.4957 -0.1758  0.1008
 6553SOL    HW131121   3.923   0.355  11.050  1.2674  1.8226 -0.8839
 6553SOL    HW231122   4.067   0.380  11.013 -0.0757  0.2532 -0.8897
 6554SOL     OW31123   4.063   3.914   8.328  0.1016  0.1460  0.1619
 6554SOL    HW131124   4.119   3.957   8.264 -1.6347  1.9725 -0.1176
 6554SOL    HW231125   4.014   3.859   8.267 -0.3104  0.4317  0.2344
 6555SOL     OW31126   3.399   2.326   4.594 -0.3122  0.4910  0.5264
 6555SOL    HW131127   3.492   2.309   4.607 -0.5184 -0.5646  0.6547
 6555SOL    HW231128   3.405   2.351   4.502 -0.6893 -2.4991 -0.3187
 6556SOL     OW31129   3.559   1.935   3.346  0.3458 -0.4867 -0.1660
 6556SOL    HW131130   3.601   1.858   3.386  2.2395 -0.7713 -2.7055
 6556SOL    HW231131   3.495   1.899   3.285  0.0493  2.2237 -1.4240
 6557SOL     OW31132   3.728   4.094  12.618 -0.6989 -0.0587 -0.1019
 6557SOL    HW131133   3.710   4.024  12.681  3.6668 -1.3342 -0.2484
 6557SOL    HW231134   3.823   4.084  12.614 -0.9976 -1.6109 -3.2035
 6558SOL     OW31135   2.551   0.160   3.073 -0.6886  0.2848 -0.1130
 6558SOL    HW131136   2.475   0.104   3.055 -0.6912  0.0017  0.8167
 6558SOL    HW231137   2.518   0.219   3.140 -0.1074 -0.0124  0.4243
 6559SOL     OW31138   4.309   1.895   7.037  0.2679 -0.0902  0.0166
 6559SOL    HW131139   4.294   1.838   7.112 -1.2534  0.8624  0.4312
 6559SOL    HW231140   4.290   1.981   7.074  2.0042  0.3249 -0.0293
 6560SOL     OW31141   2.458   1.108   6.255  0.1225 -0.1578 -0.1335
 6560SOL    HW131142   2.443   1.045   6.185  0.9597  2.2656 -2.5344
 6560SOL    HW231143   2.372   1.108   6.298 -0.5989  1.2831 -1.5486
 6561SOL     OW31144   0.278   3.779   8.490 -0.0697  0.0084  0.1747
 6561SOL    HW131145   0.198   3.831   8.486 -0.7918 -1.0339  1.0500
 6561SOL    HW231146   0.299   3.766   8.582 -1.3085 -4.0063 -0.1047
 6562SOL     OW31147   3.290   0.198  11.353 -0.0506 -0.2240  0.2144
 6562SOL    HW131148   3.368   0.155  11.386  0.5257  0.8912  0.2994
 6562SOL    HW231149   3.228   0.156  11.413 -1.4682  0.4583 -0.7552
 6563SOL     OW31150   3.264   4.059   4.815  0.0314 -0.1812 -0.2347
 6563SOL    HW131151   3.210   4.025   4.745 -0.8514 -1.8116  1.2398
 6563SOL    HW231152   3.318   4.122   4.767 -1.3100  0.4262 -0.9111
 6564SOL     OW31153   1.806   4.179   6.267 -0.2656 -0.5737  0.4423
 6564SOL    HW131154   1.796   4.247   6.333  1.8895  0.0055  0.1878
 6564SOL    HW231155   1.744   4.203   6.199  0.3944  0.0350  0.0548
 6565SOL     OW31156   0.632   4.701   4.673  0.8145 -0.3754  0.2709
 6565SOL    HW131157   0.588   4.652   4.603  0.3982 -0.4717  0.5982
 6565SOL    HW231158   0.632   4.634   4.742  1.1148 -0.2064  0.4355
 6566SOL     OW31159   2.154   2.561   8.627 -0.2933 -0.2723  0.6733
 6566SOL    HW131160   2.137   2.528   8.716  1.5588  1.3484  1.6303
 6566SOL    HW231161   2.230   2.511   8.597  0.5187  0.6233  1.2288
 6567SOL     OW31162   1.067   0.241   4.552  0.2348 -0.1210  0.0048
 6567SOL    HW131163   1.149   0.238   4.503 -0.9681 -2.6986 -1.8403
 6567SOL    HW231164   1.048   0.151   4.580 -1.8349  0.3172 -0.0192
 6568SOL     OW31165   3.089   4.164   8.759  0.6627  0.0013  0.0935
 6568SOL    HW131166   3.162   4.210   8.799  0.9618  0.0663 -0.5154
 6568SOL    HW231167   3.030   4.237   8.739  1.3351  1.2497  2.7539
 6569SOL     OW31168   2.767   2.155   8.468 -0.4116  0.0951 -0.5005
 6569SOL    HW131169   2.789   2.095   8.396 -1.4651 -1.8895  0.8517
 6569SOL    HW231170   2.697   2.203   8.425  0.4767 -1.1737 -3.4052
 6570SOL     OW31171   3.385   2.078   7.543 -0.2643 -0.6532  0.6714
 6570SOL    HW131172   3.412   2.166   7.515 -4.0978  0.5388  0.7700
 6570SOL    HW231173   3.315   2.094   7.605 -2.0094 -0.2340 -1.3965
 6571SOL     OW31174   2.450   0.374  15.045 -0.3543  0.1555  0.4976
 6571SOL    HW131175   2.371   0.420  15.075 -1.7717 -0.8648 -1.7131
 6571SOL    HW231176   2.411   0.296  15.006  0.7559 -0.3619  0.4407
 6572SOL     OW31177   1.045   1.276   2.330 -0.4902  0.2700 -0.1935
 6572SOL    HW131178   0.991   1.208   2.371 -0.1322 -1.0116 -1.8469
 6572SOL    HW231179   1.008   1.352   2.373 -3.2181 -2.2686  1.9424
 6573SOL     OW31180   0.839   0.956   7.701  0.8014  0.6131 -0.0860
 6573SOL    HW131181   0.794   0.872   7.708 -2.5531  2.4693  0.8511
 6573SOL    HW231182   0.908   0.937   7.764 -1.2650  2.1084  2.6398
 6574SOL     OW31183   1.599   0.321   3.812  0.5167  0.4950  0.2066
 6574SOL    HW131184   1.605   0.375   3.891 -0.2044  1.9047 -0.7095
 6574SOL    HW231185   1.683   0.338   3.771  0.2533 -2.5610 -1.6178
 6575SOL     OW31186   2.569   3.944  14.993 -0.1889  0.4741 -0.0777
 6575SOL    HW131187   2.628   3.944  14.918 -0.3660  0.7081 -0.2194
 6575SOL    HW231188   2.512   4.013  14.957  0.0370  0.8760  0.3292
 6576SOL     OW31189   3.758   3.992   1.138  0.2075 -0.0240  0.2299
 6576SOL    HW131190   3.801   3.953   1.063 -0.2817  2.1411 -1.1570
 6576SOL    HW231191   3.828   4.046   1.175  0.5421 -1.3261  1.4833
 6577SOL     OW31192   0.901   2.537   5.526 -0.6801 -0.4426  0.8653
 6577SOL    HW131193   0.885   2.518   5.619 -0.3998 -1.2222  0.7522
 6577SOL    HW231194   0.906   2.448   5.491  0.5430 -1.1118  2.7513
 6578SOL     OW31195   2.557   2.988   9.236  0.5432  0.1890  0.4221
 6578SOL    HW131196   2.589   3.066   9.281 -0.4156  1.7416 -1.5481
 6578SOL    HW231197   2.468   2.993   9.270  0.4364 -2.9416  0.5381
 6579SOL     OW31198   3.148   3.430   3.867 -0.2775  0.1397  0.6517
 6579SOL    HW131199   3.166   3.519   3.897  0.1176  0.2151  0.1991
 6579SOL    HW231200   3.056   3.439   3.840  0.4043  0.5697 -1.5250
 6580SOL     OW31201   1.330   2.476   9.041 -0.1712 -0.2584 -0.2824
 6580SOL    HW131202   1.252   2.519   9.006  0.6133  1.7259  0.4070
 6580SOL    HW231203   1.304   2.461   9.132 -0.0831 -0.1835 -0.2455
 6581SOL     OW31204   0.016   0.748   5.972  0.0194 -0.2082  0.1022
 6581SOL    HW131205   4.694   0.754   5.889  1.6171  0.8765 -0.7226
 6581SOL    HW231206   4.724   0.834   6.012  1.9240  1.0135 -1.7285
 6582SOL     OW31207   1.799   1.247   1.145 -0.0102  0.3678  0.3507
 6582SOL    HW131208   1.797   1.239   1.050  0.9858  2.7792  0.1375
 6582SOL    HW231209   1.750   1.172   1.179  0.6945 -0.1152  0.2874
 6583SOL     OW31210   1.743   1.612   1.279 -0.7016 -0.3453  0.4637
 6583SOL    HW131211   1.753   1.619   1.374 -1.0589 -0.5956  0.5200
 6583SOL    HW231212   1.828   1.575   1.254  0.8365  2.6691  1.3415
 6584SOL     OW31213   1.924   0.899   2.397 -0.5680  0.1851  0.2316
 6584SOL    HW131214   1.875   0.970   2.357 -0.0568  1.2295  1.4605
 6584SOL    HW231215   1.990   0.894   2.328  0.0869  0.5664  0.8301
 6585SOL     OW31216   4.696   3.048   7.202 -0.3644 -0.1705  0.0192
 6585SOL    HW131217   4.718   2.955   7.201 -2.4909 -0.6929  2.6564
 6585SOL    HW231218   4.607   3.046   7.237 -0.4566  0.5641 -0.1630
 6586SOL     OW31219   3.349   4.156   6.598 -0.5146  0.3809 -0.1697
 6586SOL    HW131220   3.365   4.195   6.684  1.1880  0.5630 -0.5654
 6586SOL    HW231221   3.260   4.123   6.605  0.0497 -1.0951  0.0024
 6587SOL     OW31222   1.477   1.254   6.595  0.4722  0.1020  0.5499
 6587SOL    HW131223   1.477   1.187   6.527 -1.3588 -1.1143  1.7213
 6587SOL    HW231224   1.555   1.224   6.642  0.8207 -1.3986 -0.9896
 6588SOL     OW31225   4.025   1.899   8.517 -0.5884  0.5010  0.6079
 6588SOL    HW131226   4.118   1.877   8.525 -0.8620 -0.6525  0.6296
 6588SOL    HW231227   4.026   1.992   8.539  0.1725  0.3301  1.2842
 6589SOL     OW31228   3.918   3.883   0.925  0.6842  0.6408  0.4223
 6589SOL    HW131229   3.925   3.877   0.830 -0.9012  0.2403  0.3312
 6589SOL    HW231230   3.973   3.961   0.930 -0.0580  1.1954  0.0756
 6590SOL     OW31231   3.264   0.707   8.985 -0.3762 -0.7495 -0.5387
 6590SOL    HW131232   3.189   0.664   8.945  0.1704 -1.6105 -0.6318
 6590SOL    HW231233   3.336   0.721   8.924 -0.5883 -0.0637 -0.6324
 6591SOL     OW31234   0.820   4.353  14.115 -0.6938 -0.1822  0.0187
 6591SOL    HW131235   0.797   4.326  14.026 -1.0477  4.3845 -1.2300
 6591SOL    HW231236   0.737   4.395  14.138 -2.5279 -3.1707 -1.1390
 6592SOL     OW31237   4.442   4.015  13.800 -0.1179 -0.1911 -0.6156
 6592SOL    HW131238   4.354   4.008  13.836 -0.1664  0.1707 -0.6708
 6592SOL    HW231239   4.477   4.080  13.860 -1.1891 -1.5867  1.5273
 6593SOL     OW31240   4.604   1.550   4.850 -0.4117  0.4265  0.8685
 6593SOL    HW131241   4.606   1.458   4.878 -0.1868 -0.0525 -0.6818
 6593SOL    HW231242   4.671   1.555   4.781 -0.6668  2.0697  0.7474
 6594SOL     OW31243   4.207   1.917   9.536 -0.0905 -0.7856  0.1822
 6594SOL    HW131244   4.221   2.003   9.577  1.7743 -0.1608 -1.7896
 6594SOL    HW231245   4.123   1.893   9.575 -0.1641  0.7386  0.9716
 6595SOL     OW31246   4.307   1.988   0.581 -0.0200  0.2617 -0.1815
 6595SOL    HW131247   4.367   1.938   0.526  0.2894  1.2323 -0.7151
 6595SOL    HW231248   4.364   2.050   0.625 -1.9931  2.8339 -1.2697
 6596SOL     OW31249   4.641   1.606   5.816 -0.4136  0.4939 -0.1259
 6596SOL    HW131250   4.604   1.615   5.728  0.4723 -0.4783 -0.5963
 6596SOL    HW231251   4.721   1.660   5.815  0.0442 -0.2030 -1.5895
 6597SOL     OW31252   2.114   2.662   6.526 -0.5441  0.2240  0.1990
 6597SOL    HW131253   2.182   2.712   6.480 -1.8168  0.5888 -1.2868
 6597SOL    HW231254   2.076   2.726   6.585 -2.6816  0.9798 -1.9904
 6598SOL     OW31255   4.723   4.561   8.191  0.0900  0.4825  0.1084
 6598SOL    HW131256   0.092   4.541   8.196 -1.2118 -5.5073  0.7483
 6598SOL    HW231257   4.683   4.475   8.185 -0.1007  0.8003 -3.2531
 6599SOL     OW31258   2.909   3.543   6.856 -0.6173  0.0471 -0.7204
 6599SOL    HW131259   2.937   3.546   6.764 -0.4849  0.0883 -0.6783
 6599SOL    HW231260   2.831   3.598   6.845 -0.7514 -0.4940 -2.4927
 6600SOL     OW31261   1.079   1.785   6.561 -0.2753 -0.2447  0.7764
 6600SOL    HW131262   1.013   1.732   6.605 -2.0648  1.8704  0.6814
 6600SOL    HW231263   1.144   1.716   6.549 -1.2009 -0.7709 -1.2543
 6601SOL     OW31264   0.176   1.197   6.655  0.5632 -0.0104  0.4430
 6601SOL    HW131265   0.089   1.219   6.689 -0.5778 -0.7527 -1.9511
 6601SOL    HW231266   0.218   1.283   6.652 -0.6664  0.6230  1.2492
 6602SOL     OW31267   0.447   1.883   4.478  1.2048  0.5652 -0.0851
 6602SOL    HW131268   0.534   1.888   4.518  1.9020 -3.1214 -1.2174
 6602SOL    HW231269   0.405   1.840   4.552  1.0508  1.7739  0.5303
 6603SOL     OW31270   2.947   3.693   2.197  0.4114  1.1174  0.1673
 6603SOL    HW131271   2.859   3.697   2.159  0.6646 -1.4418 -0.7443
 6603SOL    HW231272   3.009   3.748   2.150  0.5915  1.0875  0.3707
 6604SOL     OW31273   2.347   1.239   4.943  0.0905  0.0154 -0.5025
 6604SOL    HW131274   2.413   1.190   4.895 -1.7795 -0.8122 -2.2360
 6604SOL    HW231275   2.413   1.305   4.965 -1.9934  2.0246 -0.3038
 6605SOL     OW31276   4.674   4.266  16.586 -0.0690  0.0774  0.0082
 6605SOL    HW131277   4.694   4.353  16.551  2.2458 -0.9413 -1.1796
 6605SOL    HW231278   4.714   4.211  16.519  2.7257  2.2738 -0.1563
 6606SOL     OW31279   4.460   3.512   4.909 -0.6967  0.1264  0.1202
 6606SOL    HW131280   4.456   3.430   4.860 -1.4107 -0.1002  0.5467
 6606SOL    HW231281   4.416   3.567   4.844 -1.8556  1.1380  1.7638
 6607SOL     OW31282   0.540   4.275   7.492  0.2179 -0.0935 -0.5303
 6607SOL    HW131283   0.594   4.258   7.570 -0.9433 -0.9040  0.0958
 6607SOL    HW231284   0.481   4.339   7.532 -0.8981 -1.1203 -0.5261
 6608SOL     OW31285   1.830   4.313   4.806  0.3670 -0.4878 -0.1768
 6608SOL    HW131286   1.780   4.254   4.862  0.1131 -0.7217 -0.6480
 6608SOL    HW231287   1.773   4.328   4.731 -3.0526  0.3720  2.5778
 6609SOL     OW31288   3.490   3.853   6.669  0.1307  0.2404 -0.0464
 6609SOL    HW131289   3.424   3.869   6.736 -1.6335  0.3973 -1.8382
 6609SOL    HW231290   3.436   3.805   6.606 -0.9241  0.5005  0.6714
 6610SOL     OW31291   1.181   4.519   7.860 -0.2965  0.7771  0.1879
 6610SOL    HW131292   1.235   4.595   7.838 -0.7308  0.6706 -1.2902
 6610SOL    HW231293   1.240   4.463   7.810 -3.7052 -1.6161 -1.1455
 6611SOL     OW31294   2.910   3.918   0.774  0.4992 -0.0637 -0.3157
 6611SOL    HW131295   2.815   3.925   0.763  0.9187  0.0276 -3.9733
 6611SOL    HW231296   2.921   3.912   0.869 -0.8419  0.5308 -0.1167
 6612SOL     OW31297   3.781   2.614   7.784  0.2344 -0.2711 -0.6416
 6612SOL    HW131298   3.774   2.519   7.797  1.7656 -0.7798 -3.5798
 6612SOL    HW231299   3.712   2.638   7.722 -1.0414 -3.0630 -0.3333
 6613SOL     OW31300   2.958   4.068   3.201  0.8077 -0.1115 -0.1888
 6613SOL    HW131301   2.882   4.018   3.234 -0.4379  2.7525  1.3003
 6613SOL    HW231302   2.922   4.105   3.121  0.0126  0.6838  0.5334
 6614SOL     OW31303   3.067   1.620   5.174  0.2903 -0.4511 -0.6356
 6614SOL    HW131304   3.044   1.528   5.166  2.5573 -1.0633 -0.1950
 6614SOL    HW231305   3.056   1.656   5.086 -0.0685  0.2491 -0.3088
 6615SOL     OW31306   4.007   2.738   6.978  0.3983 -0.5048 -0.6709
 6615SOL    HW131307   3.926   2.696   7.007 -1.1349  1.1122 -2.6165
 6615SOL    HW231308   3.996   2.815   7.035  1.2677 -3.3500  3.3634
 6616SOL     OW31309   0.341   4.178   4.069 -0.6113  0.0748  0.0816
 6616SOL    HW131310   0.373   4.114   4.134  3.5755  3.2456  1.1709
 6616SOL    HW231311   0.418   4.192   4.014 -1.4802  0.2550 -1.0827
 6617SOL     OW31312   2.243   4.649   1.485  0.1684 -0.6190  0.2554
 6617SOL    HW131313   2.236   4.647   1.581 -0.8095 -3.5112  0.1225
 6617SOL    HW231314   2.178   4.582   1.463  0.3502 -0.5909 -0.3681
 6618SOL     OW31315   2.221   0.110   9.966  0.1754 -0.0597 -0.2574
 6618SOL    HW131316   2.306   0.097  10.009 -0.0266 -0.6370 -0.0311
 6618SOL    HW231317   2.230   0.057   9.887 -2.5651 -3.2662  1.5729
 6619SOL     OW31318   3.860   0.169   7.394  0.1133  0.2429  0.2923
 6619SOL    HW131319   3.826   0.100   7.450  0.3182 -0.5265 -0.5213
 6619SOL    HW231320   3.908   0.121   7.326 -1.7479 -0.3101 -0.6327
 6620SOL     OW31321   2.681   1.548  10.332 -0.0743 -0.0759 -0.1728
 6620SOL    HW131322   2.722   1.474  10.286 -0.4972  0.0563 -0.7514
 6620SOL    HW231323   2.740   1.613  10.294 -0.3128  0.1983 -0.0718
 6621SOL     OW31324   1.920   1.912  12.195 -0.2902  0.5934 -0.3297
 6621SOL    HW131325   1.900   2.000  12.228  0.9733  0.3122  1.1945
 6621SOL    HW231326   1.918   1.919  12.100  1.8651  3.7289 -0.1496
 6622SOL     OW31327   3.430   0.875   7.858  0.7053  0.1249  0.5605
 6622SOL    HW131328   3.499   0.916   7.910  2.2756  1.1983 -2.3722
 6622SOL    HW231329   3.352   0.875   7.913  1.5799  0.3554  1.8129
 6623SOL     OW31330   2.983   4.115   5.904  0.6342 -0.0387  0.0090
 6623SOL    HW131331   2.970   4.196   5.954  0.3670 -1.5060  2.3073
 6623SOL    HW231332   3.074   4.138   5.887  0.2589  0.9478 -0.7355
 6624SOL     OW31333   0.286   0.877  10.520  0.3390  0.0807 -0.1016
 6624SOL    HW131334   0.208   0.902  10.569 -0.0032  0.6486 -0.9336
 6624SOL    HW231335   0.289   0.787  10.551  2.0230 -0.4245 -1.7808
 6625SOL     OW31336   3.489   0.021  11.447 -0.3940  0.0311 -0.3398
 6625SOL    HW131337   3.572   4.715  11.411 -0.8481 -2.3429  0.7255
 6625SOL    HW231338   3.438   4.666  11.436 -0.2411 -0.0013 -0.8094
 6626SOL     OW31339   1.279   3.439   3.275  0.5455 -0.6483 -0.2032
 6626SOL    HW131340   1.326   3.523   3.272 -0.2489 -0.2299 -0.7115
 6626SOL    HW231341   1.240   3.434   3.188  0.8519  1.7124 -0.4882
 6627SOL     OW31342   4.025   0.871   3.376 -0.6351  0.2221  0.3368
 6627SOL    HW131343   4.068   0.947   3.417  0.3191 -0.4936  0.6546
 6627SOL    HW231344   4.000   0.830   3.459  0.1438 -1.5625 -0.3240
 6628SOL     OW31345   3.320   4.252   8.900 -0.3161  0.3200  0.2948
 6628SOL    HW131346   3.382   4.193   8.857 -0.1725  0.5789  0.1444
 6628SOL    HW231347   3.382   4.312   8.942 -0.7747 -0.2270  1.7437
 6629SOL     OW31348   2.152   4.341   8.175  0.2705  0.7574 -0.7820
 6629SOL    HW131349   2.131   4.431   8.152 -0.8564  0.5417 -0.6293
 6629SOL    HW231350   2.237   4.337   8.219 -0.6359  1.0932  1.0042
 6630SOL     OW31351   1.847   3.880   9.522  0.6897  0.2082  0.1760
 6630SOL    HW131352   1.839   3.941   9.595  1.4525 -0.7558  1.0702
 6630SOL    HW231353   1.859   3.798   9.570  1.3239  0.3997  0.3405
 6631SOL     OW31354   1.548   3.152   2.081 -0.5169 -0.0545  0.3864
 6631SOL    HW131355   1.642   3.156   2.063 -0.8131  2.5908 -0.4861
 6631SOL    HW231356   1.521   3.086   2.018  0.0418  1.0858 -1.0502
 6632SOL     OW31357   4.042   3.776   1.309  0.5699  0.0878 -0.3525
 6632SOL    HW131358   4.039   3.824   1.392 -0.3901 -0.1263 -0.2624
 6632SOL    HW231359   4.054   3.855   1.256  0.3117  1.4470  1.6108
 6633SOL     OW31360   3.205   4.511   5.789 -0.5400  0.1783 -0.2574
 6633SOL    HW131361   3.202   4.604   5.811 -2.2684  0.3060 -1.0958
 6633SOL    HW231362   3.148   4.498   5.714 -0.0125 -5.4977  0.3442
 6634SOL     OW31363   0.692   2.971   3.284 -0.1371  0.2095  0.2384
 6634SOL    HW131364   0.672   2.896   3.340  1.1562 -0.3167 -0.0086
 6634SOL    HW231365   0.679   2.934   3.196 -1.3139  1.4874 -0.1321
 6635SOL     OW31366   4.386   2.027   5.852 -0.7176  0.0272  0.2791
 6635SOL    HW131367   4.453   1.985   5.798  0.7651  0.7207  1.5991
 6635SOL    HW231368   4.359   2.096   5.792 -0.1000  1.5833  1.8087
 6636SOL     OW31369   3.104   3.813  16.996 -0.3003 -0.0213  0.1086
 6636SOL    HW131370   3.039   3.748  16.970 -0.1513 -1.2518  2.7591
 6636SOL    HW231371   3.076   3.813  17.088 -2.2546  0.7177 -0.4889
 6637SOL     OW31372   1.191   2.090   9.398 -0.2036 -0.0453 -1.0116
 6637SOL    HW131373   1.150   2.004   9.407 -0.3082  0.0801 -0.2908
 6637SOL    HW231374   1.256   2.093   9.469 -1.2391  0.2442 -0.0890
 6638SOL     OW31375   4.253   1.291   5.359  0.0910 -0.3881 -0.2433
 6638SOL    HW131376   4.165   1.262   5.381 -0.7122  2.0249 -0.2568
 6638SOL    HW231377   4.256   1.305   5.265  2.2669  1.1997  0.0699
 6639SOL     OW31378   0.406   1.836   4.999  0.0427 -0.4696 -0.0284
 6639SOL    HW131379   0.465   1.791   5.059  0.2411  0.6022  0.5950
 6639SOL    HW231380   0.370   1.761   4.952 -1.6348  1.2025 -1.4319
 6640SOL     OW31381   2.127   1.189  10.654  0.1466  0.1159 -0.6195
 6640SOL    HW131382   2.074   1.194  10.734 -1.8425 -1.1311 -1.8754
 6640SOL    HW231383   2.194   1.258  10.657  0.1233  0.0497  1.5561
 6641SOL     OW31384   3.615   2.948   2.255  0.3763  0.4438 -0.2227
 6641SOL    HW131385   3.534   2.902   2.279  0.9687  0.0374  1.0009
 6641SOL    HW231386   3.636   2.904   2.173  0.6164  1.0343 -0.4787
 6642SOL     OW31387   4.306   4.557   3.580  0.6666 -0.4076  0.1611
 6642SOL    HW131388   4.401   4.564   3.578  0.7155 -1.0672  0.3417
 6642SOL    HW231389   4.279   4.639   3.622  0.0919 -0.8785  0.6972
 6643SOL     OW31390   1.304   2.524   4.016 -0.4347  0.1092 -0.4896
 6643SOL    HW131391   1.265   2.468   4.083 -0.1954  1.1012  0.4742
 6643SOL    HW231392   1.254   2.486   3.944  0.3284 -0.4975 -0.6931
 6644SOL     OW31393   4.431   0.253  14.861 -0.3130 -0.3232 -0.5841
 6644SOL    HW131394   4.389   0.322  14.810  2.3915  0.8077 -1.2641
 6644SOL    HW231395   4.371   0.240  14.934  0.5457 -1.4052 -0.0748
 6645SOL     OW31396   0.662   0.535   7.981 -0.6169  0.1931  0.5207
 6645SOL    HW131397   0.662   0.524   7.886  1.3277 -1.6587  0.7236
 6645SOL    HW231398   0.593   0.474   8.005  0.7230 -1.8695 -0.8905
 6646SOL     OW31399   1.874   0.724  16.368 -0.3616 -0.2318 -0.8783
 6646SOL    HW131400   1.800   0.692  16.315 -0.1126 -1.7655 -0.3005
 6646SOL    HW231401   1.914   0.640  16.391  0.3778  0.4081  0.1656
 6647SOL     OW31402   3.882   3.433   2.045 -0.0119  0.2468 -0.3139
 6647SOL    HW131403   3.942   3.507   2.050 -0.9186  1.1558 -2.5592
 6647SOL    HW231404   3.801   3.478   2.020  1.5665  2.5919 -1.2290
 6648SOL     OW31405   3.528   1.115  12.444  0.4754 -0.6722 -0.0941
 6648SOL    HW131406   3.565   1.188  12.494  1.1983 -0.0644 -1.5273
 6648SOL    HW231407   3.433   1.106  12.447  0.2963  1.1915 -0.4125
 6649SOL     OW31408   2.587   3.790  12.027  0.1609  0.1808 -0.1708
 6649SOL    HW131409   2.659   3.729  12.042  0.2733  0.6906  1.3116
 6649SOL    HW231410   2.610   3.866  12.080 -2.5840  0.3306  0.8360
 6650SOL     OW31411   1.024   1.989   5.383 -0.5239 -0.2357 -0.1585
 6650SOL    HW131412   1.119   1.999   5.385 -0.8995  3.1733  0.8064
 6650SOL    HW231413   1.002   1.939   5.462 -0.8255 -0.1535 -0.1907
 6651SOL     OW31414   1.726   0.113   6.714  0.0805 -0.6186 -0.0422
 6651SOL    HW131415   1.821   0.105   6.699  0.2337 -0.5361  0.9132
 6651SOL    HW231416   1.699   0.129   6.623 -1.9028 -0.7103  0.5321
 6652SOL     OW31417   2.637   1.735  14.285 -0.3058  0.4626 -0.1124
 6652SOL    HW131418   2.624   1.641  14.290 -0.6369  0.4274 -1.8699
 6652SOL    HW231419   2.690   1.746  14.206 -1.3028 -2.5026 -1.1818
 6653SOL     OW31420   0.864   1.509   9.727  0.5152  0.4541  0.1666
 6653SOL    HW131421   0.886   1.594   9.688  0.8617  0.9502  1.4401
 6653SOL    HW231422   0.772   1.520   9.749  0.4416 -0.4682  0.2944
 6654SOL     OW31423   3.624   3.938  13.508 -0.2878 -0.1831  0.5606
 6654SOL    HW131424   3.713   3.927  13.540  0.4313  1.0891 -1.0467
 6654SOL    HW231425   3.579   3.863  13.548  1.7194 -1.7773 -0.1500
 6655SOL     OW31426   3.057   2.857   5.200  0.4986 -0.2449 -0.2465
 6655SOL    HW131427   3.142   2.868   5.156  0.3329 -0.1310 -0.5392
 6655SOL    HW231428   3.080   2.789   5.263 -3.5881 -1.8412 -0.4641
 6656SOL     OW31429   0.229   1.516   8.414 -0.3742 -0.4900  0.5510
 6656SOL    HW131430   0.320   1.486   8.401 -0.6960 -1.0104 -0.5108
 6656SOL    HW231431   0.221   1.525   8.508  1.4436 -0.0602  0.6767
 6657SOL     OW31432   2.428   3.730   5.548  0.2676 -0.0442  0.2327
 6657SOL    HW131433   2.343   3.724   5.592 -0.7937 -0.1339 -1.8288
 6657SOL    HW231434   2.413   3.695   5.460 -0.6852 -1.1767  0.8525
 6658SOL     OW31435   2.257   2.691   6.214 -0.0217 -0.1475 -0.3666
 6658SOL    HW131436   2.339   2.717   6.173  1.3319 -3.6555  0.0992
 6658SOL    HW231437   2.207   2.675   6.133 -1.2876 -2.3543  0.8464
 6659SOL     OW31438   2.665   3.700  13.263  0.1367 -0.0464  0.6251
 6659SOL    HW131439   2.654   3.766  13.195  0.0265  0.3707  1.0459
 6659SOL    HW231440   2.572   3.681  13.270  0.2196 -0.7459 -0.1511
 6660SOL     OW31441   3.911   0.079   5.970  0.4690 -0.1385 -0.4476
 6660SOL    HW131442   3.821   0.049   5.978  0.4045  0.3839  0.8502
 6660SOL    HW231443   3.912   0.154   6.029 -0.0549 -0.7174  0.3101
 6661SOL     OW31444   1.984   0.392   1.033 -0.0021 -0.3165 -0.1651
 6661SOL    HW131445   1.976   0.427   1.122  0.2707 -1.1356  0.1831
 6661SOL    HW231446   1.972   0.298   1.050 -1.5274 -0.7242 -3.5308
 6662SOL     OW31447   4.551   0.153   6.042  0.4034 -0.2582  0.3126
 6662SOL    HW131448   4.611   0.133   6.114 -0.2210 -1.1338  0.5836
 6662SOL    HW231449   4.580   0.244   6.043  1.9535 -0.7434  0.1601
 6663SOL     OW31450   0.317   2.195  13.572  0.5544 -0.3864  0.5683
 6663SOL    HW131451   0.225   2.168  13.573  1.5744 -3.7990 -1.0391
 6663SOL    HW231452   0.354   2.116  13.534  1.0381  0.2388 -0.2641
 6664SOL     OW31453   3.538   3.062   7.405 -0.0715  0.3682 -0.1885
 6664SOL    HW131454   3.556   3.136   7.462  2.2603  0.1073 -0.5927
 6664SOL    HW231455   3.510   3.098   7.321 -2.7773  0.4689  0.7546
 6665SOL     OW31456   3.693   0.898   2.856  0.4790 -0.5949  0.2860
 6665SOL    HW131457   3.759   0.829   2.858  0.9778 -0.1199  0.4243
 6665SOL    HW231458   3.653   0.870   2.938 -1.9260 -0.7125 -0.9368
 6666SOL     OW31459   3.747   0.285   5.395 -0.5340 -0.2047 -0.0928
 6666SOL    HW131460   3.818   0.221   5.389  0.2566  0.6652 -0.0870
 6666SOL    HW231461   3.716   0.292   5.305 -0.6394 -1.2652 -0.1328
 6667SOL     OW31462   3.310   3.473   9.593 -0.0990 -0.3691  0.2135
 6667SOL    HW131463   3.288   3.418   9.518 -0.0171 -2.8830  2.0296
 6667SOL    HW231464   3.255   3.546   9.567 -0.1177 -1.2426 -2.2191
 6668SOL     OW31465   3.380   3.846   9.121  0.9056 -0.0081  0.1371
 6668SOL    HW131466   3.426   3.900   9.186 -1.0280  0.0142  1.4739
 6668SOL    HW231467   3.293   3.844   9.160  1.3596 -1.4685  1.0769
 6669SOL     OW31468   3.210   1.800   9.933  0.0753  0.3834 -0.4662
 6669SOL    HW131469   3.305   1.814   9.934 -0.0807  1.4896 -0.5941
 6669SOL    HW231470   3.191   1.882   9.887  0.0109  1.3646  1.3177
 6670SOL     OW31471   2.333   4.583   3.615 -0.4238 -0.1830 -0.5049
 6670SOL    HW131472   2.421   4.555   3.641 -0.4663 -0.3265 -0.5130
 6670SOL    HW231473   2.329   4.665   3.663 -0.1251 -0.1329 -0.5666
 6671SOL     OW31474   3.365   4.185   1.300  0.2413  0.4476  0.2652
 6671SOL    HW131475   3.411   4.243   1.361 -0.5830  0.6016  0.7353
 6671SOL    HW231476   3.310   4.127   1.352  0.5229  0.7698  0.9192
 6672SOL     OW31477   3.716   1.327   2.552  0.2080 -0.3828  0.1705
 6672SOL    HW131478   3.741   1.416   2.578 -1.2096  0.2153 -0.5119
 6672SOL    HW231479   3.713   1.284   2.637 -0.6206 -1.0837 -0.2188
 6673SOL     OW31480   4.416   4.104  11.104 -0.0775  0.8183 -0.2146
 6673SOL    HW131481   4.468   4.176  11.140 -0.7775  1.2876 -0.1555
 6673SOL    HW231482   4.358   4.106  11.181  0.1806 -1.3945  0.0220
 6674SOL     OW31483   1.502   3.016   1.856 -0.1652 -0.7878 -0.1106
 6674SOL    HW131484   1.516   2.939   1.912  2.1479 -0.9069 -0.8697
 6674SOL    HW231485   1.457   2.964   1.789  2.9883 -2.3836 -1.0100
 6675SOL     OW31486   0.839   1.520   7.012  0.3892  0.0198  0.0864
 6675SOL    HW131487   0.860   1.501   7.103 -2.0591  1.8107  1.0234
 6675SOL    HW231488   0.745   1.533   7.010  0.3374 -0.1776  1.6099
 6676SOL     OW31489   2.799   3.038   7.709 -0.3244  0.2685  0.1651
 6676SOL    HW131490   2.716   3.082   7.691 -0.6386 -0.7390 -0.8992
 6676SOL    HW231491   2.850   3.089   7.646  0.0652  1.0059  1.0893
 6677SOL     OW31492   3.625   2.844   9.511 -0.2078 -0.1688  0.3436
 6677SOL    HW131493   3.533   2.833   9.487 -0.0855 -1.0423  0.2760
 6677SOL    HW231494   3.628   2.901   9.588 -0.6848 -0.2481  0.4204
 6678SOL     OW31495   1.982   2.658  16.305  0.2131 -0.3526  0.5757
 6678SOL    HW131496   1.948   2.674  16.217  0.4249  3.5910  1.1942
 6678SOL    HW231497   1.903   2.639  16.357  0.3614 -1.7044  0.3002
 6679SOL     OW31498   0.068   3.469  13.475 -0.2814 -0.5000 -0.1246
 6679SOL    HW131499   0.008   3.409  13.519 -1.9215  1.2572  0.0339
 6679SOL    HW231500   0.110   3.524  13.541  1.6775  0.3362 -2.0310
 6680SOL     OW31501   2.298   3.750  15.254 -0.3238  0.3313 -0.0115
 6680SOL    HW131502   2.306   3.695  15.332  0.3629 -2.0603 -1.7406
 6680SOL    HW231503   2.386   3.784  15.241  0.1562 -1.1343 -0.5685
 6681SOL     OW31504   3.589   2.528   1.667 -0.1172 -0.4387  0.0389
 6681SOL    HW131505   3.609   2.449   1.615  0.9243 -0.3681  0.3315
 6681SOL    HW231506   3.664   2.585   1.649  0.5146 -1.4461 -0.5431
 6682SOL     OW31507   2.166   3.782   2.452 -0.2118  0.4336  0.9197
 6682SOL    HW131508   2.167   3.698   2.407  0.3484  0.9804 -0.0726
 6682SOL    HW231509   2.189   3.753   2.541 -1.4562  1.1729  1.4799
 6683SOL     OW31510   2.761   1.031  13.805  0.0275  0.0891 -0.8983
 6683SOL    HW131511   2.685   1.015  13.749 -0.5634  1.4153 -0.4599
 6683SOL    HW231512   2.823   1.064  13.740  1.9989  1.3685  1.6457
 6684SOL     OW31513   2.302   0.542   2.182  0.3664  0.0224  0.1571
 6684SOL    HW131514   2.209   0.523   2.194  0.3530 -1.0843 -1.7193
 6684SOL    HW231515   2.321   0.580   2.268 -2.0917 -1.5885  1.4240
 6685SOL     OW31516   0.995   1.204   6.604  0.1960 -0.0495  0.7223
 6685SOL    HW131517   1.059   1.138   6.631 -0.5419 -1.9581 -2.2246
 6685SOL    HW231518   1.055   1.271   6.571  1.0656 -1.1932 -0.0460
 6686SOL     OW31519   2.049   4.182  12.116 -0.0534 -0.1696  0.0962
 6686SOL    HW131520   2.068   4.088  12.116 -0.8811 -0.3335  1.4964
 6686SOL    HW231521   2.132   4.225  12.135 -0.3518  0.9693 -1.1545
 6687SOL     OW31522   3.803   0.517   8.665  0.3271  0.2786 -0.5961
 6687SOL    HW131523   3.760   0.603   8.669 -0.3819 -0.1167  0.1127
 6687SOL    HW231524   3.889   0.543   8.699 -0.8871  1.3357  1.7171
 6688SOL     OW31525   3.615   4.258   4.463 -0.4331 -0.6789  0.5544
 6688SOL    HW131526   3.570   4.329   4.417  1.4778 -0.4227 -0.9627
 6688SOL    HW231527   3.601   4.277   4.556  1.5219  2.1663  0.2777
 6689SOL     OW31528   0.239   4.155   1.904 -1.0160  0.6287 -0.4551
 6689SOL    HW131529   0.182   4.095   1.952 -1.5336  2.7945  1.6568
 6689SOL    HW231530   0.178   4.206   1.853 -1.1072  0.8120 -0.1611
 6690SOL     OW31531   2.497   3.359  13.188 -0.6293 -0.3500  0.0489
 6690SOL    HW131532   2.416   3.308  13.192 -0.8566 -0.0484 -0.6602
 6690SOL    HW231533   2.478   3.431  13.248 -2.7963 -1.5324  0.7986
 6691SOL     OW31534   4.558   3.270   0.953  0.5104 -0.6836  0.4875
 6691SOL    HW131535   4.477   3.315   0.932  0.1826 -1.9808 -1.0995
 6691SOL    HW231536   4.534   3.179   0.934 -1.7266 -0.2911  1.4268
 6692SOL     OW31537   1.406   0.717   9.568 -0.1218 -0.2646  0.2358
 6692SOL    HW131538   1.478   0.740   9.627  1.7894 -2.3145 -1.3049
 6692SOL    HW231539   1.332   0.737   9.625 -0.9160 -1.6028 -0.3345
 6693SOL     OW31540   4.399   4.307  12.387 -0.3659 -0.8209  0.2687
 6693SOL    HW131541   4.305   4.298  12.403 -0.7720  1.1464 -0.8872
 6693SOL    HW231542   4.427   4.365  12.459 -0.2363 -2.3130  1.4111
 6694SOL     OW31543   2.295   1.704   6.030  0.4246  0.3749  0.0565
 6694SOL    HW131544   2.281   1.693   6.124  1.1502 -2.4959 -0.1716
 6694SOL    HW231545   2.237   1.779   6.021 -0.2021 -0.1863 -0.6456
 6695SOL     OW31546   2.651   2.663   7.340 -0.0229  0.0515  0.1879
 6695SOL    HW131547   2.705   2.626   7.410 -0.2368  0.0420  0.3497
 6695SOL    HW231548   2.685   2.626   7.259  0.6859 -0.0659  0.5411
 6696SOL     OW31549   2.786   3.136   4.517 -0.8802 -0.1310 -0.2983
 6696SOL    HW131550   2.874   3.176   4.515 -0.5528 -0.9938 -2.2999
 6696SOL    HW231551   2.798   3.092   4.601 -0.0631  2.8378  1.1615
 6697SOL     OW31552   0.013   1.641   7.985  0.7863 -0.2149 -0.1205
 6697SOL    HW131553   0.027   1.657   8.079 -0.0049 -0.4448  0.0381
 6697SOL    HW231554   4.664   1.698   7.962 -0.2102 -1.4515 -0.0212
 6698SOL     OW31555   2.552   2.483  10.123  0.3122 -0.0994 -0.1621
 6698SOL    HW131556   2.485   2.432  10.169 -0.2826  2.4018  1.6977
 6698SOL    HW231557   2.507   2.563  10.097  0.0428  0.2311  1.3235
 6699SOL     OW31558   0.636   4.283   9.177 -0.1537 -0.1197  0.1990
 6699SOL    HW131559   0.552   4.327   9.168 -0.1159  0.0554  0.7487
 6699SOL    HW231560   0.696   4.343   9.221 -0.0944  0.2848 -0.4296
 6700SOL     OW31561   2.416   1.622   7.773  0.1083 -0.2239  0.7008
 6700SOL    HW131562   2.388   1.592   7.860  2.2753  0.6321  1.6803
 6700SOL    HW231563   2.441   1.539   7.732 -3.0934 -0.1692 -1.4157
 6701SOL     OW31564   1.619   1.009   5.156  0.5830  0.0684  0.7003
 6701SOL    HW131565   1.539   1.025   5.106  0.8790 -0.1559  0.1564
 6701SOL    HW231566   1.598   0.928   5.202  1.0874 -0.0054  0.7937
 6702SOL     OW31567   1.998   0.682  10.589 -0.4496  0.4700 -0.0818
 6702SOL    HW131568   2.045   0.760  10.618  1.2294  0.5699 -3.0487
 6702SOL    HW231569   1.979   0.639  10.672  0.4998 -0.3434 -0.2803
 6703SOL     OW31570   0.793   0.985   3.656  0.1212 -0.0413  0.0481
 6703SOL    HW131571   0.712   0.934   3.652  0.4102 -0.4071 -1.0489
 6703SOL    HW231572   0.842   0.903   3.660  1.5010  0.8120  0.9819
 6704SOL     OW31573   2.747   3.544  15.379 -0.2410 -0.1674 -0.4083
 6704SOL    HW131574   2.831   3.518  15.416  1.1573  1.1964 -2.6510
 6704SOL    HW231575   2.719   3.598  15.453  3.0402  0.7259  0.1663
 6705SOL     OW31576   3.883   2.387   4.926 -0.3835  0.2919 -0.5800
 6705SOL    HW131577   3.900   2.392   4.832  0.4368 -1.4727 -0.5272
 6705SOL    HW231578   3.971   2.388   4.963 -0.4354 -0.7522 -0.4308
 6706SOL     OW31579   0.569   1.791   3.234 -0.1320  0.2203  0.0360
 6706SOL    HW131580   0.570   1.777   3.139  0.1797 -2.0035  0.3822
 6706SOL    HW231581   0.480   1.814   3.261  0.3768  0.5400  1.4093
 6707SOL     OW31582   0.968   0.812   8.630 -0.6411 -0.2309  0.1481
 6707SOL    HW131583   0.889   0.789   8.580 -0.9526  0.8554  0.1546
 6707SOL    HW231584   1.010   0.727   8.645 -0.6769 -0.5403 -1.4410
 6708SOL     OW31585   1.351   1.912   3.187 -0.5636  0.5140 -0.0719
 6708SOL    HW131586   1.373   1.925   3.279  1.2136  1.1158 -0.5873
 6708SOL    HW231587   1.419   1.848   3.168 -1.7058 -0.4654 -0.8566
 6709SOL     OW31588   4.579   0.317   2.641 -0.0455 -0.2299  0.2885
 6709SOL    HW131589   4.550   0.226   2.644 -0.1537 -0.1928  0.3716
 6709SOL    HW231590   4.622   0.313   2.556 -1.2462 -1.2493 -0.2758
 6710SOL     OW31591   2.469   1.636   5.291 -0.2772 -0.1339 -0.1761
 6710SOL    HW131592   2.415   1.671   5.220 -1.3253  2.2824  1.7977
 6710SOL    HW231593   2.405   1.575   5.327 -0.8110  0.4149 -0.1966
 6711SOL     OW31594   3.764   4.395   1.172 -0.3333 -0.6019  0.1621
 6711SOL    HW131595   3.843   4.351   1.138 -1.0490 -1.0702 -0.8918
 6711SOL    HW231596   3.702   4.325   1.152 -0.2170 -0.5266 -0.4767
 6712SOL     OW31597   1.166   2.098   1.797  0.1493 -0.0872 -0.2492
 6712SOL    HW131598   1.226   2.044   1.849  0.6567 -1.6683 -2.5119
 6712SOL    HW231599   1.206   2.100   1.710  0.3406  0.3410 -0.1517
 6713SOL     OW31600   0.814   4.113   1.337 -0.3011 -0.6928  0.3113
 6713SOL    HW131601   0.754   4.121   1.263  2.6033  0.4205 -1.9310
 6713SOL    HW231602   0.858   4.198   1.331  0.5327 -1.2110 -0.9839
 6714SOL     OW31603   1.943   3.165   6.916 -0.1925 -0.5489 -0.1775
 6714SOL    HW131604   1.970   3.078   6.944  2.6249  0.5081  0.3110
 6714SOL    HW231605   1.899   3.193   6.997  0.7080 -2.0866  0.8462
 6715SOL     OW31606   0.509   1.763   5.719  0.5890 -0.0481  0.3937
 6715SOL    HW131607   0.495   1.856   5.736 -0.1881 -0.3152  1.1617
 6715SOL    HW231608   0.574   1.774   5.649 -0.1505 -0.4279 -0.3663
 6716SOL     OW31609   1.196   2.369   3.799 -0.0063  0.2194  0.0813
 6716SOL    HW131610   1.259   2.355   3.728 -1.0145 -1.0002 -0.5943
 6716SOL    HW231611   1.132   2.429   3.761 -1.6302 -1.3684  0.2864
 6717SOL     OW31612   2.960   0.263   6.575  0.1914  0.1140  0.1901
 6717SOL    HW131613   2.944   0.169   6.574  0.5473  0.0413  1.0361
 6717SOL    HW231614   3.054   0.274   6.560  0.0768 -0.4735 -0.9469
 6718SOL     OW31615   2.014   2.915   8.173  0.4748  0.0140  0.5008
 6718SOL    HW131616   2.081   2.983   8.168  0.9617 -0.6097 -1.4032
 6718SOL    HW231617   2.041   2.867   8.251  1.9505  0.9178  0.5527
 6719SOL     OW31618   2.881   2.797   7.092  0.5641 -0.2441  0.3225
 6719SOL    HW131619   2.855   2.730   7.029  1.8451 -1.5979  1.2305
 6719SOL    HW231620   2.904   2.735   7.161 -2.1534 -1.1392  0.4350
 6720SOL     OW31621   4.404   3.633  11.018  0.1935  0.3598 -0.3540
 6720SOL    HW131622   4.476   3.686  11.052  0.2935  1.2772 -1.9962
 6720SOL    HW231623   4.460   3.576  10.965  1.3349 -0.5438  1.8159
 6721SOL     OW31624   3.236   3.396  14.711 -0.4518  0.4093  0.2279
 6721SOL    HW131625   3.189   3.359  14.637  1.1119  1.0091 -1.0579
 6721SOL    HW231626   3.292   3.459  14.666 -1.5932  0.1748 -1.5297
 6722SOL     OW31627   2.060   0.722   0.366 -0.2860 -0.3178  0.3117
 6722SOL    HW131628   2.105   0.791   0.317 -0.2232  0.1577  1.0488
 6722SOL    HW231629   2.040   0.667   0.291  5.1758 -0.2214 -1.2258
 6723SOL     OW31630   4.345   1.412   7.809 -0.4285  0.0754  0.1075
 6723SOL    HW131631   4.287   1.360   7.865 -0.8110 -0.2019 -0.5533
 6723SOL    HW231632   4.407   1.345   7.780  0.5843  1.4611 -0.9482
 6724SOL     OW31633   3.234   1.921   2.302  0.4957 -0.2069 -0.3441
 6724SOL    HW131634   3.272   1.973   2.374 -1.2326 -1.2115  1.2933
 6724SOL    HW231635   3.321   1.894   2.273 -0.0095 -0.5653 -1.5263
 6725SOL     OW31636   4.387   0.443  16.286  0.0742 -0.0375  0.1360
 6725SOL    HW131637   4.480   0.457  16.269 -0.1895  0.8468 -0.5843
 6725SOL    HW231638   4.384   0.384  16.361  0.7702  0.1849  0.3395
 6726SOL     OW31639   0.830   1.463   7.269 -0.1736  0.0152  0.5056
 6726SOL    HW131640   0.754   1.494   7.319 -3.2738 -2.9238 -2.3089
 6726SOL    HW231641   0.820   1.368   7.274 -0.4044  0.0446  0.6063
 6727SOL     OW31642   2.936   1.304  10.992  0.8149  0.1063  0.4511
 6727SOL    HW131643   2.979   1.272  11.071 -0.5547 -1.8140  0.4156
 6727SOL    HW231644   2.937   1.222  10.944 -2.4377  0.1961  0.2165
 6728SOL     OW31645   3.577   2.216   9.513 -0.1708 -0.0136 -0.0342
 6728SOL    HW131646   3.612   2.142   9.562 -1.6774 -0.3153  0.6031
 6728SOL    HW231647   3.491   2.184   9.485  1.5880 -4.3033 -0.4292
 6729SOL     OW31648   3.048   2.181  12.533 -0.0807 -1.1112 -0.2093
 6729SOL    HW131649   3.132   2.177  12.487  0.1557 -0.0107  0.1048
 6729SOL    HW231650   2.995   2.203  12.456  0.9660 -0.1155 -0.6473
 6730SOL     OW31651   3.510   2.718   6.927 -0.1143 -0.7392  0.0862
 6730SOL    HW131652   3.424   2.755   6.947 -1.5059 -2.3633 -2.8716
 6730SOL    HW231653   3.496   2.696   6.835 -1.4798 -2.4405  0.7122
 6731SOL     OW31654   2.008   3.377   2.499 -0.7981 -0.1271 -0.0290
 6731SOL    HW131655   2.040   3.404   2.413 -0.8131  0.4281  0.1412
 6731SOL    HW231656   1.932   3.324   2.473 -0.2164 -0.8112 -0.3612
 6732SOL     OW31657   0.893   2.389   8.364  0.3035 -0.2228  0.5431
 6732SOL    HW131658   0.822   2.447   8.339 -0.7796 -2.2857 -1.2190
 6732SOL    HW231659   0.880   2.316   8.303 -2.1527  0.5070  0.2073
 6733SOL     OW31660   4.373   1.473   4.705  0.2641 -0.3540 -0.3856
 6733SOL    HW131661   4.354   1.526   4.782  1.4579 -2.0599  1.0859
 6733SOL    HW231662   4.462   1.500   4.683 -0.4936  0.9359 -1.8073
 6734SOL     OW31663   0.837   2.493   8.031  0.4514  0.8057 -0.3449
 6734SOL    HW131664   0.869   2.438   7.959  1.9069  2.2748 -0.8294
 6734SOL    HW231665   0.742   2.499   8.018  0.4003  0.4741 -0.1135
 6735SOL     OW31666   2.537   4.294   9.018  0.5399 -0.3858 -0.1500
 6735SOL    HW131667   2.607   4.356   9.037  0.5613  0.0269 -1.5467
 6735SOL    HW231668   2.466   4.344   9.059  2.1914 -0.7407  3.1537
 6736SOL     OW31669   4.242   1.723  14.438 -0.1641 -0.1261 -0.3676
 6736SOL    HW131670   4.296   1.788  14.394 -1.7351  0.8131 -0.9136
 6736SOL    HW231671   4.159   1.767  14.455 -0.3083 -0.9525  1.0373
 6737SOL     OW31672   4.306   1.713  16.067 -0.1775 -0.0557 -0.1848
 6737SOL    HW131673   4.262   1.770  16.004 -0.1906  0.6218  0.4478
 6737SOL    HW231674   4.230   1.667  16.101 -0.2328 -0.0022 -0.2354
 6738SOL     OW31675   0.618   4.223   4.933  0.5918  0.0838  0.8912
 6738SOL    HW131676   0.663   4.205   5.015  0.8350 -0.8457  0.5487
 6738SOL    HW231677   0.665   4.172   4.867 -3.1220 -0.9948 -0.9625
 6739SOL     OW31678   0.529   4.445  16.532  0.1064 -0.2367  0.1832
 6739SOL    HW131679   0.577   4.385  16.590  3.1982  2.2823  0.2086
 6739SOL    HW231680   0.444   4.412  16.561 -0.6228  1.4373 -0.0348
 6740SOL     OW31681   4.563   3.478   5.464  0.4293 -0.0245 -0.1363
 6740SOL    HW131682   4.491   3.417   5.446  0.2407 -0.0244  0.6141
 6740SOL    HW231683   4.590   3.492   5.374 -1.9421  1.0078 -0.6830
 6741SOL     OW31684   4.578   3.977   2.504 -0.1210  0.4551  0.0659
 6741SOL    HW131685   4.569   3.906   2.440 -0.9183  0.1307  0.5224
 6741SOL    HW231686   4.651   4.024   2.465 -0.1487  1.5270  1.3270
 6742SOL     OW31687   0.596   4.597   6.300  0.1988 -0.2692  0.1090
 6742SOL    HW131688   0.630   4.664   6.359  0.2746  0.7396 -1.0774
 6742SOL    HW231689   0.668   4.534   6.301  0.1495 -0.3679 -1.4898
 6743SOL     OW31690   3.478   3.616   4.185  0.7345 -0.7157 -0.4203
 6743SOL    HW131691   3.570   3.594   4.200  1.2952 -0.6573 -3.8537
 6743SOL    HW231692   3.477   3.660   4.100 -0.0553  0.8845  0.4161
 6744SOL     OW31693   3.964   4.023   5.716 -0.3785 -0.5258 -0.5278
 6744SOL    HW131694   4.050   4.025   5.674 -0.4297  1.0082 -0.5889
 6744SOL    HW231695   3.987   4.052   5.804 -1.3674  0.3481 -0.5537
 6745SOL     OW31696   2.987   3.555   6.598 -0.3323  0.3554  0.6692
 6745SOL    HW131697   2.910   3.549   6.542 -1.0046 -1.7423  1.7912
 6745SOL    HW231698   3.047   3.577   6.527  0.0574  2.0812  1.5316
 6746SOL     OW31699   3.809   3.570   5.100  0.1064  0.8156 -0.2044
 6746SOL    HW131700   3.733   3.533   5.055 -0.3086 -0.6922  1.7327
 6746SOL    HW231701   3.759   3.631   5.154 -1.5399 -0.1671 -0.6204
 6747SOL     OW31702   0.408   2.605   2.054 -0.0539  0.1514  0.3252
 6747SOL    HW131703   0.382   2.514   2.043  2.1471 -0.4018 -0.2731
 6747SOL    HW231704   0.333   2.631   2.107  1.2746  1.7920  1.3819
 6748SOL     OW31705   3.866   1.793  11.007 -0.6080 -0.1856  0.3042
 6748SOL    HW131706   3.795   1.815  10.947  0.1352 -1.2562 -0.9722
 6748SOL    HW231707   3.933   1.753  10.951 -2.5424 -0.5184 -1.7325
 6749SOL     OW31708   2.018   3.241   8.920 -0.3624  0.5110  1.0977
 6749SOL    HW131709   2.108   3.208   8.922 -0.6240 -0.1933  1.2730
 6749SOL    HW231710   2.003   3.253   9.013 -0.4145  0.9849  1.0264
 6750SOL     OW31711   2.645   0.223   4.858  0.2343  0.0330  0.0172
 6750SOL    HW131712   2.620   0.279   4.931  0.6178  3.1059 -2.1836
 6750SOL    HW231713   2.585   0.148   4.863  0.1038  0.0774 -0.7449
 6751SOL     OW31714   1.169   2.548   2.347 -0.3224  0.4115 -0.1631
 6751SOL    HW131715   1.168   2.490   2.270 -0.2706 -0.3342  0.3925
 6751SOL    HW231716   1.257   2.535   2.381  0.6405  1.6811 -2.1663
 6752SOL     OW31717   4.628   1.204  16.472 -0.1593  0.5149  0.5333
 6752SOL    HW131718   4.610   1.168  16.559  0.0067  2.3981  1.3444
 6752SOL    HW231719   4.683   1.278  16.496 -0.0528  0.3636  0.7568
 6753SOL     OW31720   2.052   0.536   8.964  0.2130 -0.1386  0.5227
 6753SOL    HW131721   2.046   0.536   9.060 -0.3921  0.8644  0.4816
 6753SOL    HW231722   2.109   0.460   8.950  2.2624  1.9232 -2.3470
 6754SOL     OW31723   2.629   3.874   4.225  0.1829 -0.3705 -0.2016
 6754SOL    HW131724   2.705   3.925   4.254 -0.5785  0.6268  0.0560
 6754SOL    HW231725   2.653   3.828   4.145  0.3957 -0.4587 -0.0869
 6755SOL     OW31726   2.839   4.182   2.996 -0.2706 -0.0896  0.1523
 6755SOL    HW131727   2.758   4.141   2.964 -0.5551  0.2554  0.4235
 6755SOL    HW231728   2.893   4.167   2.918  0.2870  0.4930  0.4389
 6756SOL     OW31729   1.271   2.366   1.928  0.3929  0.2373  0.0527
 6756SOL    HW131730   1.320   2.321   1.996 -0.1138 -1.3439 -0.6334
 6756SOL    HW231731   1.234   2.291   1.882 -0.0917  1.0483 -0.9009
 6757SOL     OW31732   0.532   3.965   7.357  0.7743  0.0590  0.0823
 6757SOL    HW131733   0.572   3.994   7.275 -0.7098 -0.8365 -0.9653
 6757SOL    HW231734   0.483   4.045   7.374 -0.1871 -0.3178 -0.9236
 6758SOL     OW31735   1.549   1.818   4.632 -0.1136  0.3193  0.4804
 6758SOL    HW131736   1.608   1.822   4.707 -0.2068  0.5063  0.5436
 6758SOL    HW231737   1.571   1.740   4.581 -3.9411  0.4219 -1.3613
 6759SOL     OW31738   2.892   2.156   6.722 -0.2390 -0.0480 -0.3312
 6759SOL    HW131739   2.970   2.200   6.690  0.5187 -1.0763  0.1170
 6759SOL    HW231740   2.813   2.196   6.686 -1.1426 -1.4266  0.1093
 6760SOL     OW31741   2.910   0.670   5.030  0.1545  0.5502  0.6987
 6760SOL    HW131742   2.928   0.725   5.106  0.3139  0.9609  0.3656
 6760SOL    HW231743   2.972   0.598   5.038  0.3159  0.6633  0.4835
 6761SOL     OW31744   1.140   2.805  11.512  0.2731  0.2170 -0.1867
 6761SOL    HW131745   1.118   2.889  11.474  0.1900 -0.1298 -0.9033
 6761SOL    HW231746   1.158   2.831  11.603  0.8539  2.2535 -0.8925
 6762SOL     OW31747   4.312   4.155   6.088  0.1371 -0.6590 -0.0437
 6762SOL    HW131748   4.394   4.107   6.079 -0.3582 -1.2922 -1.1927
 6762SOL    HW231749   4.253   4.085   6.057  0.6781 -0.4682 -1.5211
 6763SOL     OW31750   2.457   0.976   4.243 -0.0648  0.1600 -0.5063
 6763SOL    HW131751   2.525   0.993   4.177 -0.8154  0.2306 -1.2575
 6763SOL    HW231752   2.503   1.002   4.323 -0.0929  2.7935 -1.3706
 6764SOL     OW31753   2.390   2.713  17.251 -0.3374  0.2669  0.2078
 6764SOL    HW131754   2.329   2.703  17.177 -0.2090 -1.0666  0.2801
 6764SOL    HW231755   2.468   2.730  17.198  0.0815 -1.4249  0.2625
 6765SOL     OW31756   3.620   0.860   3.920 -0.1330 -0.1955 -0.4691
 6765SOL    HW131757   3.680   0.866   3.994  1.1282 -3.0018 -1.2928
 6765SOL    HW231758   3.584   0.772   3.928 -1.0704  0.2098 -0.2123
 6766SOL     OW31759   2.678   1.736   6.267  0.3694 -0.1025  0.2111
 6766SOL    HW131760   2.622   1.774   6.200  0.4989 -1.1081 -0.4647
 6766SOL    HW231761   2.610   1.688   6.315  0.0772 -0.6376 -0.7394
 6767SOL     OW31762   3.507   3.598   9.724 -0.0415  0.1301 -0.0006
 6767SOL    HW131763   3.434   3.568   9.669 -0.0077 -1.4882  0.8506
 6767SOL    HW231764   3.547   3.516   9.754 -0.0554  0.3440  0.5889
 6768SOL     OW31765   1.132   3.252  13.118  0.4625  0.0639 -0.4238
 6768SOL    HW131766   1.134   3.321  13.051 -0.4690 -0.6916 -1.2406
 6768SOL    HW231767   1.182   3.182  13.076  0.4753  0.9683 -1.9188
 6769SOL     OW31768   3.548   0.059   6.490 -0.1064  0.2003  0.1801
 6769SOL    HW131769   3.594   0.124   6.543 -1.1404  0.5508  0.6389
 6769SOL    HW231770   3.626   0.005   6.479  0.7547  1.9386 -2.2102
 6770SOL     OW31771   1.810   4.680  15.192  0.7108  0.2646 -0.0593
 6770SOL    HW131772   1.869   4.608  15.210 -1.6659 -1.4355  0.9609
 6770SOL    HW231773   1.842   0.026  15.248 -0.1107  0.2160  0.4723
 6771SOL     OW31774   0.602   1.496   5.432  0.0302 -0.6907 -0.2087
 6771SOL    HW131775   0.592   1.457   5.519 -0.1231 -1.1539 -0.4395
 6771SOL    HW231776   0.685   1.460   5.402  0.9591  0.9261  0.3798
 6772SOL     OW31777   0.034   3.328   6.815  0.1176 -0.0971  0.4080
 6772SOL    HW131778   4.696   3.390   6.779  0.4208  0.6842  1.2333
 6772SOL    HW231779   0.087   3.386   6.870  2.2485 -1.2135 -0.4735
 6773SOL     OW31780   1.491   1.571   5.962  0.1204 -0.1145  0.5316
 6773SOL    HW131781   1.525   1.522   6.036  0.1745  1.4426  1.5381
 6773SOL    HW231782   1.395   1.576   5.966  0.0856  0.8135 -1.0272
 6774SOL     OW31783   3.342   0.244   4.191  0.1608  0.2601 -0.1541
 6774SOL    HW131784   3.305   0.164   4.154 -2.3541  2.0753 -1.5719
 6774SOL    HW231785   3.273   0.309   4.176  0.3397 -0.3328 -3.6196
 6775SOL     OW31786   2.838   0.532   4.356 -0.3157  0.3837 -0.2589
 6775SOL    HW131787   2.848   0.438   4.339 -1.7569  0.4295 -1.3237
 6775SOL    HW231788   2.844   0.535   4.451 -0.2974  2.2648 -0.3192
 6776SOL     OW31789   3.663   4.010   4.309 -0.0445  0.3159 -0.5984
 6776SOL    HW131790   3.614   4.019   4.227 -3.2009  0.4073  1.3134
 6776SOL    HW231791   3.624   4.078   4.364  2.4701  0.0358  1.5249
 6777SOL     OW31792   1.876   3.262   5.573 -0.4552  0.0889 -0.6913
 6777SOL    HW131793   1.875   3.167   5.589 -1.3806  0.2105 -0.0318
 6777SOL    HW231794   1.882   3.298   5.661 -1.0606 -0.2872 -0.5004
 6778SOL     OW31795   3.668   3.581   1.054  0.0722  0.1599 -0.0189
 6778SOL    HW131796   3.649   3.638   0.979 -0.7795 -1.8690 -1.3246
 6778SOL    HW231797   3.659   3.645   1.126 -1.4579  0.5725 -0.5741
 6779SOL     OW31798   0.319   3.539   2.166 -0.3698 -0.0007 -0.4931
 6779SOL    HW131799   0.276   3.568   2.247 -3.3579  0.9172 -2.4173
 6779SOL    HW231800   0.291   3.607   2.105 -0.3240 -0.5668 -1.1348
 6780SOL     OW31801   3.242   3.544   8.049 -0.2167 -0.0794  0.4321
 6780SOL    HW131802   3.251   3.599   7.970  0.8132 -0.5352  0.2428
 6780SOL    HW231803   3.153   3.574   8.071  0.6058  2.0966  0.8213
 6781SOL     OW31804   0.038   0.081   6.762 -0.0386  0.0590 -0.2541
 6781SOL    HW131805   4.695   0.105   6.699  1.5898 -0.3390 -2.1783
 6781SOL    HW231806   0.025   0.142   6.835 -2.4781  0.0281 -0.6522
 6782SOL     OW31807   1.766   1.997   2.870 -0.3368 -0.7932 -0.7970
 6782SOL    HW131808   1.777   2.008   2.964 -1.9468  0.4809 -0.7712
 6782SOL    HW231809   1.672   2.016   2.862 -0.5592 -1.5427  0.0262
 6783SOL     OW31810   3.208   0.111   0.986 -0.3534 -0.8781 -0.0021
 6783SOL    HW131811   3.246   0.180   1.040 -2.7960  0.7012 -0.2658
 6783SOL    HW231812   3.167   0.160   0.914  1.1313  0.4010  0.0338
 6784SOL     OW31813   3.628   4.125   3.194  0.3896  0.7291  0.6037
 6784SOL    HW131814   3.552   4.122   3.136  0.1936  1.1603  0.8388
 6784SOL    HW231815   3.628   4.214   3.228 -1.9183  1.9230 -2.5790
 6785SOL     OW31816   0.035   0.204   9.984 -0.1069 -0.2728 -0.6956
 6785SOL    HW131817   0.003   0.182   9.896 -0.2132 -2.8981  0.0061
 6785SOL    HW231818   4.681   0.244  10.020  1.7274  2.7768 -0.0448
 6786SOL     OW31819   2.329   2.258   4.300  0.0973  0.0575 -0.1334
 6786SOL    HW131820   2.272   2.193   4.341  0.3062  0.9035  1.5388
 6786SOL    HW231821   2.380   2.284   4.378 -1.2475  0.4391  0.6180
 6787SOL     OW31822   0.117   0.300   5.044 -0.4931  0.3269 -0.2138
 6787SOL    HW131823   0.169   0.228   5.079 -1.9133 -0.3756  0.4278
 6787SOL    HW231824   0.159   0.362   5.103  1.3021 -0.6430 -0.4638
 6788SOL     OW31825   0.152   1.954   7.188  0.0362  0.6109 -0.0166
 6788SOL    HW131826   0.246   1.961   7.171  0.3419 -1.3382  0.8396
 6788SOL    HW231827   0.133   2.025   7.250 -1.3570  0.2794 -0.0555
 6789SOL     OW31828   2.425   3.260  13.542 -0.0715 -0.1570 -0.0698
 6789SOL    HW131829   2.352   3.207  13.509 -1.6425  2.0845 -0.1746
 6789SOL    HW231830   2.417   3.256  13.637  0.6999  0.7431  0.0301
 6790SOL     OW31831   1.777   2.372   9.372 -0.2795 -0.0290 -0.1023
 6790SOL    HW131832   1.763   2.424   9.451  2.0796  1.3182 -0.5696
 6790SOL    HW231833   1.820   2.297   9.413  1.4886  1.1288  0.1369
 6791SOL     OW31834   1.687   3.036   3.695  0.0741  0.1615  0.4155
 6791SOL    HW131835   1.632   2.982   3.639  0.5656 -2.5963  2.6007
 6791SOL    HW231836   1.621   3.079   3.749  0.5414  0.4112  0.7873
 6792SOL     OW31837   0.104   0.511   7.895  0.0317  0.1508 -0.1054
 6792SOL    HW131838   0.135   0.576   7.957  0.1119  1.2159 -1.2643
 6792SOL    HW231839   0.105   0.565   7.816 -2.1928  1.8915  1.0606
 6793SOL     OW31840   3.988   3.885   3.431 -0.1291 -0.0523 -0.0491
 6793SOL    HW131841   4.063   3.920   3.478  0.0198 -0.6634  0.1605
 6793SOL    HW231842   3.970   3.965   3.380  1.4078  0.5234  0.3189
 6794SOL     OW31843   0.636   1.369   8.742  0.2692 -0.0467  0.2522
 6794SOL    HW131844   0.676   1.388   8.657 -0.8180 -0.3916 -0.3443
 6794SOL    HW231845   0.694   1.415   8.802  2.3832 -1.8813 -0.3511
 6795SOL     OW31846   1.729   2.372   6.414  0.0301  0.5179  0.7055
 6795SOL    HW131847   1.756   2.395   6.503  0.4599  2.2584  0.1306
 6795SOL    HW231848   1.654   2.315   6.429  1.7009 -1.1149  2.7774
 6796SOL     OW31849   0.333   2.793   1.073 -0.5124  0.9477  0.6087
 6796SOL    HW131850   0.334   2.733   0.998  0.2497 -1.5989  2.6780
 6796SOL    HW231851   0.384   2.753   1.143 -0.1710  0.9957  0.3865
 6797SOL     OW31852   3.822   0.718   4.086  0.1909 -0.5666 -0.0473
 6797SOL    HW131853   3.896   0.659   4.103  0.2599 -0.1698  1.0872
 6797SOL    HW231854   3.764   0.685   4.154  0.4796  1.1328  1.0442
 6798SOL     OW31855   3.866   3.105   7.636  0.0372  0.0665 -0.0788
 6798SOL    HW131856   3.819   3.105   7.552  0.2599  2.1155 -0.1976
 6798SOL    HW231857   3.800   3.081   7.700  0.3642 -0.7389 -0.0393
 6799SOL     OW31858   1.555   1.559  12.515  0.3013  0.1126 -0.0373
 6799SOL    HW131859   1.580   1.480  12.468 -0.4284 -0.5928  0.7463
 6799SOL    HW231860   1.552   1.628  12.449  0.8989 -0.2646 -0.4602
 6800SOL     OW31861   0.057   1.042   2.585  0.0615 -0.1235 -0.2923
 6800SOL    HW131862   4.690   1.026   2.603  0.4261 -2.2369 -0.3034
 6800SOL    HW231863   0.059   1.052   2.490  1.4209 -1.7690 -0.4439
 6801SOL     OW31864   2.579   0.290   8.798 -0.5065 -0.1352 -0.3751
 6801SOL    HW131865   2.598   0.272   8.706  0.4200  0.6605 -0.3420
 6801SOL    HW231866   2.573   0.204   8.838 -2.6982  0.6144  0.8704
 6802SOL     OW31867   4.645   2.992   2.543 -0.1248 -0.3638  0.4888
 6802SOL    HW131868   4.589   2.915   2.537 -0.0675 -0.2557 -1.4084
 6802SOL    HW231869   4.639   3.017   2.636 -1.2335  0.0603  0.2986
 6803SOL     OW31870   3.066   1.330  12.697 -0.0801 -0.1259  0.5805
 6803SOL    HW131871   3.147   1.380  12.691 -1.1762  1.6912  0.8946
 6803SOL    HW231872   3.077   1.313  12.791 -1.4510  1.5732  1.0532
 6804SOL     OW31873   0.285   1.903   8.074 -0.2557  0.5654 -1.1222
 6804SOL    HW131874   0.343   1.827   8.082  0.1963  1.1763  1.3055
 6804SOL    HW231875   0.216   1.892   8.139  0.3935 -3.8856 -1.1633
 6805SOL     OW31876   2.301   0.458   0.421 -0.1888  0.2631  0.3114
 6805SOL    HW131877   2.377   0.452   0.362 -1.8416 -3.1954 -1.5176
 6805SOL    HW231878   2.243   0.523   0.381 -0.1755  0.3903  0.4989
 6806SOL     OW31879   4.342   1.426  15.641  0.1249  0.4543 -0.5092
 6806SOL    HW131880   4.350   1.383  15.726 -1.0008  1.4651  0.0958
 6806SOL    HW231881   4.283   1.499  15.657  1.2009  0.9426  1.2288
 6807SOL     OW31882   2.611   0.408   5.717  0.4925 -0.1031 -0.0920
 6807SOL    HW131883   2.540   0.354   5.752  0.0612  2.4639  2.9009
 6807SOL    HW231884   2.673   0.406   5.790 -1.0237  0.1291  1.1939
 6808SOL     OW31885   0.105   2.414   0.538 -0.5524 -0.1861 -0.2613
 6808SOL    HW131886   0.196   2.421   0.507 -0.5983  0.6251 -0.2221
 6808SOL    HW231887   0.092   2.320   0.549 -0.0992 -0.0203  1.6862
 6809SOL     OW31888   3.696   4.481   1.970  0.4704 -0.0643  0.3582
 6809SOL    HW131889   3.772   4.465   1.914  0.0394 -2.7990  0.5740
 6809SOL    HW231890   3.637   4.522   1.907  0.6991  0.4707  0.4884
 6810SOL     OW31891   4.549   4.097  12.363 -0.8893 -0.1578  0.3545
 6810SOL    HW131892   4.614   4.156  12.401 -0.2019 -1.3112  0.9475
 6810SOL    HW231893   4.480   4.162  12.355 -1.6171 -1.2029 -1.7982
 6811SOL     OW31894   3.829   0.455   6.793  0.0661 -0.3750 -0.1418
 6811SOL    HW131895   3.827   0.550   6.783 -1.3863 -0.8615 -4.6625
 6811SOL    HW231896   3.796   0.454   6.883 -1.7878 -2.2277 -0.8349
 6812SOL     OW31897   1.211   0.115   2.653  0.1488 -0.6469 -0.2295
 6812SOL    HW131898   1.151   0.161   2.712  1.1113 -0.3533  0.5033
 6812SOL    HW231899   1.289   0.169   2.657 -0.0880 -0.5176  2.8052
 6813SOL     OW31900   2.327   3.635   9.215 -0.7229 -0.5472  0.4667
 6813SOL    HW131901   2.261   3.705   9.212 -1.3649 -1.1210  1.0813
 6813SOL    HW231902   2.386   3.662   9.285 -0.7556 -4.9532  2.2449
 6814SOL     OW31903   2.336   3.057   3.918 -0.5539 -0.0914 -0.2584
 6814SOL    HW131904   2.419   3.047   3.963 -0.3468 -0.6572 -0.7653
 6814SOL    HW231905   2.361   3.047   3.826  3.8251 -0.2000  0.9346
 6815SOL     OW31906   2.210   3.371   0.840 -0.1586  0.1687 -0.1196
 6815SOL    HW131907   2.125   3.398   0.804 -1.2897 -0.4686  2.0658
 6815SOL    HW231908   2.260   3.348   0.762  1.7973 -1.6080  1.6667
 6816SOL     OW31909   1.317   4.681  14.396 -0.2806  0.2428  0.2504
 6816SOL    HW131910   1.386   4.619  14.420  0.2089 -0.3518 -2.6771
 6816SOL    HW231911   1.322   0.006  14.477  0.0306  1.2090 -0.3718
 6817SOL     OW31912   4.290   0.222   7.634 -0.1828 -0.0540  0.2267
 6817SOL    HW131913   4.230   0.296   7.635 -0.0789  0.0367 -0.2365
 6817SOL    HW231914   4.233   0.146   7.649 -0.7106  0.6006  1.5072
 6818SOL     OW31915   4.646   4.106   7.178  0.0461  0.2132 -0.5305
 6818SOL    HW131916   4.567   4.159   7.189 -0.1035 -0.3513  1.0826
 6818SOL    HW231917   4.615   4.015   7.180 -0.9387  0.5591 -0.1798
 6819SOL     OW31918   2.392   3.678  16.921 -0.4583 -0.5545  0.3102
 6819SOL    HW131919   2.447   3.601  16.909  0.7273  0.0636  1.7818
 6819SOL    HW231920   2.305   3.640  16.909  0.2578 -1.1358 -2.9973
 6820SOL     OW31921   4.333   0.742  12.260  0.0081 -0.4527 -0.0923
 6820SOL    HW131922   4.391   0.667  12.242 -0.7040 -0.7994 -0.9432
 6820SOL    HW231923   4.394   0.815  12.247 -1.2254  0.2541 -1.7651
 6821SOL     OW31924   4.358   3.959   7.931 -0.5409 -0.4664 -0.0121
 6821SOL    HW131925   4.434   4.006   7.965 -1.4006 -0.6387  2.2114
 6821SOL    HW231926   4.379   3.959   7.838  0.6912  2.9735  0.2816
 6822SOL     OW31927   2.757   1.980   2.946  0.0251  0.4458 -0.0663
 6822SOL    HW131928   2.798   1.967   2.860  1.1548  2.5752  0.1411
 6822SOL    HW231929   2.679   1.925   2.943 -0.0202  0.4474  1.1568
 6823SOL     OW31930   0.635   2.074   4.054  0.1884 -0.4352 -1.1243
 6823SOL    HW131931   0.571   2.012   4.090 -1.1302 -0.2330 -3.1436
 6823SOL    HW231932   0.711   2.071   4.112  0.0131 -0.7678 -0.9057
 6824SOL     OW31933   1.072   3.301  10.841  0.1891  0.2725  0.4622
 6824SOL    HW131934   1.155   3.265  10.873  0.9053 -0.1904 -1.9615
 6824SOL    HW231935   1.076   3.325  10.749  0.1217 -1.7625 -0.0650
 6825SOL     OW31936   3.327   1.149  14.763  0.1091 -0.0638  0.3974
 6825SOL    HW131937   3.267   1.188  14.699 -2.9917 -2.5210  1.7875
 6825SOL    HW231938   3.416   1.176  14.741 -0.3757  1.9461  0.8848
 6826SOL     OW31939   4.508   0.829   4.510  0.0166 -0.0618 -0.6819
 6826SOL    HW131940   4.527   0.779   4.590 -0.4729  0.3323 -0.3264
 6826SOL    HW231941   4.414   0.816   4.499 -0.0122 -0.1535 -0.3144
 6827SOL     OW31942   3.567   1.114   3.243 -0.2155  0.4080 -0.3605
 6827SOL    HW131943   3.595   1.103   3.334  1.8506  2.7778 -0.6778
 6827SOL    HW231944   3.642   1.088   3.188  0.5304 -1.8357  1.7545
 6828SOL     OW31945   2.692   4.701  11.716 -0.2974 -0.4621  0.1896
 6828SOL    HW131946   2.667   0.054  11.665  0.7021 -1.0352 -1.1686
 6828SOL    HW231947   2.616   4.645  11.727 -3.3134  3.6290  0.3910
 6829SOL     OW31948   3.468   3.553  14.870  0.7290 -0.6033  0.2856
 6829SOL    HW131949   3.423   3.580  14.790 -1.3596 -0.2428  1.5690
 6829SOL    HW231950   3.557   3.543  14.839  1.0513 -0.2584  1.0958
 6830SOL     OW31951   3.800   0.607   1.015 -0.3957 -0.1565 -0.4437
 6830SOL    HW131952   3.884   0.585   1.054 -0.1914  2.3098  0.5156
 6830SOL    HW231953   3.745   0.565   1.082  0.1316  0.6384  0.4867
 6831SOL     OW31954   2.485   0.702   8.620  0.2871 -0.1665 -0.1191
 6831SOL    HW131955   2.394   0.680   8.641 -0.3061  1.1048 -1.3374
 6831SOL    HW231956   2.528   0.716   8.705 -0.4384 -1.5067  0.4704
 6832SOL     OW31957   3.005   1.317   5.166  0.4224 -0.1147 -0.3915
 6832SOL    HW131958   2.933   1.259   5.190  0.6446 -0.0095  0.5309
 6832SOL    HW231959   3.083   1.287   5.214 -0.0915 -0.1366  0.4247
 6833SOL     OW31960   2.488   0.015   4.861 -0.2777 -0.0134  0.6739
 6833SOL    HW131961   2.422   0.013   4.790 -0.5247  0.6151  0.8900
 6833SOL    HW231962   2.556   4.686   4.821 -0.4166  0.2594  0.0587
 6834SOL     OW31963   1.194   2.656   4.830 -0.5263 -0.7332 -0.0461
 6834SOL    HW131964   1.247   2.661   4.750 -0.3106  0.5021  0.1840
 6834SOL    HW231965   1.127   2.592   4.805 -1.8433  0.0751  1.4540
 6835SOL     OW31966   0.062   2.401   5.742  0.2776  0.5501  0.7726
 6835SOL    HW131967   0.016   2.352   5.811  0.4603 -0.8428 -0.0947
 6835SOL    HW231968   0.013   2.373   5.665 -0.3022  2.3067  0.5003
 6836SOL     OW31969   1.835   1.667   3.029  0.5823  0.2807 -0.2857
 6836SOL    HW131970   1.904   1.645   3.091  1.8277  1.2972 -1.3139
 6836SOL    HW231971   1.828   1.761   3.043  1.7410  0.2626  0.3824
 6837SOL     OW31972   4.517   0.062   6.485  0.3618  0.0868 -0.5673
 6837SOL    HW131973   4.579   0.084   6.415  1.0602 -0.1178 -0.0081
 6837SOL    HW231974   4.534   4.694   6.499  0.7965  0.2816  0.2047
 6838SOL     OW31975   3.939   3.342   3.468  0.1957  0.5541 -0.3535
 6838SOL    HW131976   3.958   3.428   3.433  0.5227  0.3984 -0.5564
 6838SOL    HW231977   3.926   3.305   3.381  2.0255  0.1241 -0.4368
 6839SOL     OW31978   3.199   4.643  17.402 -0.1726 -0.4293  0.1314
 6839SOL    HW131979   3.239   4.656  17.488 -2.3772  2.3649  0.7274
 6839SOL    HW231980   3.255   4.706  17.356 -0.6509 -0.5169 -0.5769
 6840SOL     OW31981   2.028   3.669   0.788  0.4064 -0.4525 -0.0705
 6840SOL    HW131982   1.981   3.737   0.836 -1.5826 -2.4405  0.7798
 6840SOL    HW231983   2.120   3.697   0.782  0.4116 -0.5515 -0.4376
 6841SOL     OW31984   3.570   0.196   8.800 -0.1143 -0.3458  0.6099
 6841SOL    HW131985   3.606   0.132   8.861 -0.7624 -1.1996  0.1026
 6841SOL    HW231986   3.642   0.200   8.738 -0.4326 -0.9708  0.1953
 6842SOL     OW31987   4.170   3.469  14.688 -0.1668 -0.5541 -0.0349
 6842SOL    HW131988   4.111   3.398  14.660 -0.2454 -0.8242  0.8121
 6842SOL    HW231989   4.103   3.528  14.722 -1.2851 -2.1575  0.5373
 6843SOL     OW31990   1.292   2.194   3.157  0.2331  0.3232  0.0513
 6843SOL    HW131991   1.325   2.104   3.168 -2.0624 -0.1357  3.1005
 6843SOL    HW231992   1.366   2.244   3.122  0.5687  0.3765  0.8306
 6844SOL     OW31993   4.341   3.737   1.394 -0.3863 -0.4034 -0.6326
 6844SOL    HW131994   4.292   3.762   1.316  1.9071  0.5502 -1.7448
 6844SOL    HW231995   4.421   3.718   1.346  1.4166  0.8395  1.8718
 6845SOL     OW31996   0.558   4.717   3.919 -0.2514  0.1720  0.3630
 6845SOL    HW131997   0.499   4.693   3.848  0.5620 -0.3328 -0.1513
 6845SOL    HW231998   0.537   4.648   3.982 -1.7321  1.9237  1.7989
 6846SOL     OW31999   3.171   3.598  12.170  0.0544  0.5449 -0.1753
 6846SOL    HW132000   3.136   3.679  12.133 -0.5183  0.6965  0.7094
 6846SOL    HW232001   3.256   3.591  12.125  1.5397  1.7805  2.4433
 6847SOL     OW32002   3.664   0.874   1.053 -0.9209  0.3899 -0.1172
 6847SOL    HW132003   3.672   0.782   1.026 -1.9221 -0.7274  3.3523
 6847SOL    HW232004   3.708   0.870   1.138  0.2879  0.1684 -0.7504
 6848SOL     OW32005   3.433   3.487   7.593  0.1277 -0.0888  0.7475
 6848SOL    HW132006   3.420   3.432   7.670 -2.7172  1.2227  1.1996
 6848SOL    HW232007   3.368   3.444   7.538  1.5279 -1.5345  0.2067
 6849SOL     OW32008   0.471   0.353   8.108 -0.4422  0.4246  0.2815
 6849SOL    HW132009   0.382   0.318   8.105 -0.6250  0.7841  1.2936
 6849SOL    HW232010   0.489   0.355   8.202 -0.0357  0.6714  0.1996
 6850SOL     OW32011   1.956   3.141   9.197 -0.1418 -0.6649  0.5112
 6850SOL    HW132012   1.861   3.147   9.185 -0.4211 -1.5968  2.4132
 6850SOL    HW232013   1.971   3.048   9.183 -1.2320 -0.3289 -3.1619
 6851SOL     OW32014   0.183   2.221  11.109  0.3737  0.1378 -0.3147
 6851SOL    HW132015   0.139   2.206  11.192 -0.8686 -1.4373 -1.2566
 6851SOL    HW232016   0.110   2.248  11.053  1.1610 -1.8392 -2.3346
 6852SOL     OW32017   4.553   2.957   0.321 -0.5633  0.2118  0.0601
 6852SOL    HW132018   4.612   2.952   0.246 -0.6513  1.3226 -0.0815
 6852SOL    HW232019   4.516   2.870   0.331  1.1823 -0.8703 -2.8320
 6853SOL     OW32020   1.089   4.370  13.013 -0.0603  0.2763 -0.4003
 6853SOL    HW132021   1.049   4.294  12.970  0.1826 -0.4751  0.6956
 6853SOL    HW232022   1.031   4.370  13.090  0.8010  0.1535  0.2439
 6854SOL     OW32023   1.092   3.358   7.037 -0.1803  0.4505  0.2472
 6854SOL    HW132024   1.149   3.317   6.972  0.2312  1.3105  0.0616
 6854SOL    HW232025   1.013   3.305   7.025  1.7770 -2.2449 -0.7061
 6855SOL     OW32026   3.749   3.894   2.760  0.1799 -0.7203  0.0685
 6855SOL    HW132027   3.771   3.930   2.675 -0.8351 -0.0397  0.0987
 6855SOL    HW232028   3.663   3.856   2.744  0.6681 -1.9813  0.4310
 6856SOL     OW32029   1.204   2.688  16.681  0.2044 -0.3238 -0.3172
 6856SOL    HW132030   1.147   2.757  16.718  0.4763 -0.2361 -0.0637
 6856SOL    HW232031   1.285   2.735  16.660 -0.5037  1.4920  0.9743
 6857SOL     OW32032   4.618   3.622   5.678  0.2437  0.1897 -0.2684
 6857SOL    HW132033   4.682   3.554   5.703  1.1187  1.0367 -0.2124
 6857SOL    HW232034   4.601   3.585   5.591 -2.0923 -0.1525  0.3423
 6858SOL     OW32035   3.851   0.672   3.800  0.5169 -0.3365 -0.4242
 6858SOL    HW132036   3.774   0.614   3.801 -0.0502  0.3729 -1.8680
 6858SOL    HW232037   3.822   0.751   3.844  0.1223  0.3228 -1.8656
 6859SOL     OW32038   2.467   2.583   9.042  0.0752  0.1300 -0.4311
 6859SOL    HW132039   2.467   2.639   9.119 -0.0921 -2.0646  1.1469
 6859SOL    HW232040   2.437   2.498   9.073  0.4461  0.4801  0.8885
 6860SOL     OW32041   3.128   1.500   3.708 -0.0513  0.4532 -0.2187
 6860SOL    HW132042   3.119   1.466   3.797 -0.0913  0.9216 -0.0416
 6860SOL    HW232043   3.038   1.496   3.675  0.9597  1.7533 -3.0881
 6861SOL     OW32044   3.761   1.233   8.368 -0.1953 -0.4531 -0.0167
 6861SOL    HW132045   3.855   1.245   8.383 -0.0216  0.0576 -1.4337
 6861SOL    HW232046   3.764   1.193   8.280  1.5701 -0.0812 -0.1178
 6862SOL     OW32047   2.728   2.199   6.054 -0.4333  0.5960 -0.0783
 6862SOL    HW132048   2.693   2.266   6.112 -0.9699  0.0326  0.2430
 6862SOL    HW232049   2.822   2.220   6.053 -0.5365  1.1519  2.2273
 6863SOL     OW32050   2.042   1.210   8.038 -0.7267 -0.0341 -0.0959
 6863SOL    HW132051   1.976   1.215   8.107 -0.2699  0.8074  0.2772
 6863SOL    HW232052   1.992   1.259   7.972 -0.2302  0.5679 -0.0234
 6864SOL     OW32053   3.904   3.605  14.403  0.0038 -0.4272  0.1834
 6864SOL    HW132054   3.891   3.528  14.348 -1.2041 -0.7288  0.9028
 6864SOL    HW232055   3.999   3.595  14.414  0.2918  1.4783 -0.4814
 6865SOL     OW32056   1.848   4.433  13.763 -0.4037  0.2403  0.6391
 6865SOL    HW132057   1.940   4.416  13.782 -0.5213  0.2407  1.2341
 6865SOL    HW232058   1.816   4.506  13.817 -0.6154 -0.3457  1.3118
 6866SOL     OW32059   2.317   1.356   8.908  0.1123 -0.5445 -0.2712
 6866SOL    HW132060   2.226   1.385   8.896 -1.1200 -3.6912  1.4478
 6866SOL    HW232061   2.320   1.406   8.990  0.3414 -1.6081  0.3817
 6867SOL     OW32062   0.229   1.194   8.362  0.3182  0.4893 -0.1201
 6867SOL    HW132063   0.138   1.168   8.344 -0.4140  3.1850 -0.2266
 6867SOL    HW232064   0.257   1.208   8.272 -2.6214  0.0542 -1.1020
 6868SOL     OW32065   3.819   1.346   4.391  0.2052  0.2672  0.1810
 6868SOL    HW132066   3.828   1.254   4.414 -1.3645  0.0608 -0.0330
 6868SOL    HW232067   3.828   1.384   4.478  1.2718 -0.0599  0.2156
 6869SOL     OW32068   3.029   2.160  15.805  0.1852  0.2325 -0.0504
 6869SOL    HW132069   3.084   2.229  15.769  0.5975  1.4886  2.9736
 6869SOL    HW232070   3.081   2.140  15.883 -0.1735 -0.2045  0.0795
 6870SOL     OW32071   2.988   1.824   5.368  0.1636 -0.0908 -0.1961
 6870SOL    HW132072   2.935   1.801   5.444  0.3631  0.3365  0.0721
 6870SOL    HW232073   3.062   1.764   5.377 -1.1978 -1.5298  1.4052
 6871SOL     OW32074   2.471   1.746   4.762  0.0120 -0.2413 -0.2969
 6871SOL    HW132075   2.525   1.755   4.841  0.9106 -1.7406 -0.7442
 6871SOL    HW232076   2.528   1.764   4.688 -0.6865  1.2775 -0.4725
 6872SOL     OW32077   2.717   1.234   8.651  0.4323  0.0856 -0.2641
 6872SOL    HW132078   2.754   1.287   8.721  0.9258 -0.4203 -0.1423
 6872SOL    HW232079   2.632   1.273   8.629 -0.1406 -2.2828 -2.2820
 6873SOL     OW32080   2.388   3.870   3.261 -0.1488  0.4685 -0.0913
 6873SOL    HW132081   2.467   3.891   3.211 -0.4950 -0.4304 -1.0256
 6873SOL    HW232082   2.339   3.939   3.215 -1.6298  0.2799  1.1974
 6874SOL     OW32083   1.117   2.618  16.325 -0.6918 -0.5133  0.1343
 6874SOL    HW132084   1.077   2.627  16.411 -1.6927 -1.3617 -0.2311
 6874SOL    HW232085   1.040   2.644  16.274  0.2169  0.3635 -0.7828
 6875SOL     OW32086   1.601   1.336   1.738  0.7463 -0.0279  0.0133
 6875SOL    HW132087   1.671   1.297   1.687  0.3364  1.2508 -1.5066
 6875SOL    HW232088   1.590   1.262   1.798 -0.1712 -0.5199 -0.7538
 6876SOL     OW32089   2.788   4.162   3.660  0.1295 -0.5874 -0.4055
 6876SOL    HW132090   2.872   4.158   3.706  0.1414 -0.7811 -0.4443
 6876SOL    HW232091   2.827   4.194   3.579  0.3494 -1.8499 -0.7970
 6877SOL     OW32092   3.343   2.340  13.048 -0.0928  0.3836 -0.1522
 6877SOL    HW132093   3.258   2.323  13.090 -0.5122  0.0725 -1.1295
 6877SOL    HW232094   3.362   2.247  13.033  3.2865  1.0735  0.0575
 6878SOL     OW32095   1.485   0.606   8.839 -0.0467 -1.0446  0.3965
 6878SOL    HW132096   1.451   0.660   8.768  1.4133  0.6731  0.9779
 6878SOL    HW232097   1.408   0.550   8.833 -2.1939  2.0684 -1.1026
 6879SOL     OW32098   2.373   3.835   0.587  0.3771 -0.1770  0.1709
 6879SOL    HW132099   2.295   3.882   0.557  1.5785  0.1325 -2.4155
 6879SOL    HW232100   2.330   3.798   0.665 -2.1062 -1.3954 -1.7646
 6880SOL     OW32101   4.710   3.229  12.473 -0.0362  0.0046 -0.1839
 6880SOL    HW132102   4.653   3.224  12.396  0.2896 -2.0904 -0.2973
 6880SOL    HW232103   0.002   3.323  12.471  0.4454 -0.0715  0.3312
 6881SOL     OW32104   2.211   1.015  15.234  0.4883 -0.2822  0.1189
 6881SOL    HW132105   2.153   1.007  15.310  0.7313 -0.1848  0.3143
 6881SOL    HW232106   2.169   0.961  15.168 -2.5423  2.2328 -0.0326
 6882SOL     OW32107   2.014   1.795   4.673  0.0144  0.1007  0.0450
 6882SOL    HW132108   1.958   1.843   4.734  1.1062  0.3794  0.8323
 6882SOL    HW232109   1.998   1.702   4.691  1.8667 -0.0045  1.1735
 6883SOL     OW32110   4.497   0.260  17.612  0.6705 -0.1673  0.0596
 6883SOL    HW132111   4.452   0.317  17.550  1.0828 -0.3876 -0.4467
 6883SOL    HW232112   4.442   0.259  17.690  0.9318  0.4076  0.2458
 6884SOL     OW32113   2.763   3.065   2.812 -0.4061  0.1143 -0.7509
 6884SOL    HW132114   2.808   3.111   2.741 -0.6386 -0.9762 -1.6161
 6884SOL    HW232115   2.769   2.972   2.787  1.8516  0.3332 -1.0321
 6885SOL     OW32116   0.242   3.322   5.117  0.1927  0.3847  0.6126
 6885SOL    HW132117   0.321   3.366   5.086  0.9704 -2.4664 -1.4272
 6885SOL    HW232118   0.272   3.232   5.125  1.0450  0.5539 -0.7336
 6886SOL     OW32119   2.812   2.374   3.250  0.4933  0.4170 -0.5119
 6886SOL    HW132120   2.749   2.305   3.272  0.3651  1.0352  1.0578
 6886SOL    HW232121   2.769   2.447   3.294  0.5241  1.0189 -1.4675
 6887SOL     OW32122   3.460   2.166  16.692  0.0172  0.1362 -0.0447
 6887SOL    HW132123   3.414   2.140  16.612  0.0980 -0.4759  0.1084
 6887SOL    HW232124   3.400   2.207  16.755 -0.6179 -2.3250  0.9652
 6888SOL     OW32125   1.368   1.586  10.146 -0.3375  0.5692  0.0859
 6888SOL    HW132126   1.288   1.538  10.164  0.4293 -1.1712 -1.1512
 6888SOL    HW232127   1.412   1.516  10.098 -2.1187 -0.4640 -0.0090
 6889SOL     OW32128   3.117   1.201  17.066 -0.2937  0.2962 -0.2769
 6889SOL    HW132129   3.128   1.161  17.153  1.2649  0.0663 -0.5789
 6889SOL    HW232130   3.137   1.293  17.081  1.5598 -0.1978  0.2771
 6890SOL     OW32131   0.036   4.271   6.720  0.2537 -0.0429 -0.0557
 6890SOL    HW132132   0.031   4.366   6.731 -2.0378 -0.1476 -0.0945
 6890SOL    HW232133   0.029   4.268   6.625 -1.0216  2.5716 -0.0213
 6891SOL     OW32134   3.556   3.784   5.847  0.1452  0.2163 -0.5358
 6891SOL    HW132135   3.608   3.751   5.774  0.7832  0.5119 -0.2162
 6891SOL    HW232136   3.613   3.761   5.921 -0.7746  2.0466  0.7301
 6892SOL     OW32137   4.132   2.611  11.614  0.7161  0.1676 -0.2706
 6892SOL    HW132138   4.097   2.603  11.702 -1.1304  0.9458 -0.9431
 6892SOL    HW232139   4.104   2.697  11.583  3.6058  0.8535 -1.0704
 6893SOL     OW32140   0.098   2.241   4.821 -0.0892  0.5155  0.2484
 6893SOL    HW132141   0.131   2.177   4.884 -1.7307  0.8097  1.3999
 6893SOL    HW232142   0.142   2.214   4.740  2.9986  1.4688  1.5980
 6894SOL     OW32143   3.263   1.066   7.051  0.0454  0.4790  0.2764
 6894SOL    HW132144   3.251   1.015   6.971  0.9473 -0.4502  0.7415
 6894SOL    HW232145   3.207   1.142   7.035  1.3999  1.5834  0.6864
 6895SOL     OW32146   2.683   2.428  13.355  0.0743 -0.0734 -0.0274
 6895SOL    HW132147   2.627   2.402  13.428 -0.0147 -0.2521 -0.1597
 6895SOL    HW232148   2.761   2.462  13.398 -0.7826  1.5105  0.2852
 6896SOL     OW32149   4.108   1.949   6.693 -0.1167 -0.4522  0.2934
 6896SOL    HW132150   4.106   1.934   6.599 -0.6525 -3.8187  0.8347
 6896SOL    HW232151   4.203   1.946   6.706 -0.1160  0.8224  0.6395
 6897SOL     OW32152   2.048   3.243   5.181 -0.5673 -0.6481 -0.5657
 6897SOL    HW132153   2.100   3.213   5.106  0.4204 -2.2721  0.7682
 6897SOL    HW232154   2.101   3.320   5.202 -0.8933 -0.6771  0.3590
 6898SOL     OW32155   0.712   2.534   9.750  0.0809  0.7061 -0.2406
 6898SOL    HW132156   0.763   2.554   9.829 -1.8842 -2.6430  1.8519
 6898SOL    HW232157   0.692   2.443   9.770 -0.9130  0.3070 -3.0211
 6899SOL     OW32158   2.748   2.157  13.374  0.1397 -0.0750  0.2363
 6899SOL    HW132159   2.701   2.228  13.331  2.1408  0.9394 -0.2256
 6899SOL    HW232160   2.801   2.203  13.439  0.2561  1.2489 -0.8008
 6900SOL     OW32161   4.276   4.171   9.384  0.0137 -0.1435  0.1226
 6900SOL    HW132162   4.245   4.113   9.315 -3.7427 -0.2158  1.8676
 6900SOL    HW232163   4.254   4.257   9.348 -3.3571 -1.3487 -0.7070
 6901SOL     OW32164   1.627   2.207   9.597  0.0516 -0.6190 -0.4930
 6901SOL    HW132165   1.696   2.260   9.638 -0.2580  0.6717 -1.6320
 6901SOL    HW232166   1.555   2.233   9.654  1.0023  0.1309  0.3678
 6902SOL     OW32167   2.646   2.283   0.169 -0.3656  0.5096  0.1804
 6902SOL    HW132168   2.565   2.251   0.208  0.9508  0.6986  3.0864
 6902SOL    HW232169   2.657   2.215   0.103  0.7784  0.7297  0.1562
 6903SOL     OW32170   3.725   1.110   1.412  0.4386  0.0805  0.3187
 6903SOL    HW132171   3.636   1.144   1.405  0.6516  0.6058  0.2041
 6903SOL    HW232172   3.708   1.025   1.371  0.2960  0.7998 -1.0969
 6904SOL     OW32173   3.501   0.466   0.573 -0.1304 -0.2887 -0.1757
 6904SOL    HW132174   3.591   0.467   0.603  0.7987 -2.8726 -2.8987
 6904SOL    HW232175   3.470   0.381   0.604 -2.6839 -0.1030 -2.2012
 6905SOL     OW32176   2.636   2.920  13.546  0.3879  0.2760 -0.4830
 6905SOL    HW132177   2.683   2.999  13.519 -2.4398  2.4000  0.8199
 6905SOL    HW232178   2.618   2.938  13.638 -1.4933  0.6095 -0.9138
 6906SOL     OW32179   2.831   4.058   7.447  1.0079 -0.5446 -0.4238
 6906SOL    HW132180   2.899   4.030   7.507 -0.2131  0.3269  1.3632
 6906SOL    HW232181   2.756   4.018   7.491 -1.2772  0.7416 -3.0900
 6907SOL     OW32182   4.101   2.522   0.244  0.0270 -0.1286  0.2158
 6907SOL    HW132183   4.010   2.520   0.274  0.4500  0.9476  1.5391
 6907SOL    HW232184   4.088   2.548   0.152 -2.1013 -0.0697  0.5324
 6908SOL     OW32185   0.298   4.554   7.328  0.4304  0.1268 -0.6347
 6908SOL    HW132186   0.212   4.585   7.357 -0.9428 -2.1503 -2.3103
 6908SOL    HW232187   0.336   4.511   7.405 -2.6956 -0.3258  0.6677
 6909SOL     OW32188   3.046   0.851  16.510  0.2846 -0.3836 -0.0338
 6909SOL    HW132189   2.979   0.913  16.483  1.2573  1.1922  1.1463
 6909SOL    HW232190   3.131   0.869  16.468  0.2435 -0.6585 -0.2355
 6910SOL     OW32191   4.185   2.917  11.058 -0.3904 -0.6959  0.0443
 6910SOL    HW132192   4.224   2.854  11.118 -0.2128 -1.3873 -0.8050
 6910SOL    HW232193   4.099   2.929  11.098  0.1404 -1.7046  1.4805
 6911SOL     OW32194   4.100   2.654   5.681 -0.5049 -0.1536  0.4603
 6911SOL    HW132195   4.151   2.730   5.654  1.8150 -1.9133 -0.1467
 6911SOL    HW232196   4.010   2.684   5.697 -0.1168  1.8520 -1.1414
 6912SOL     OW32197   4.094   2.442  16.990  0.7423  0.5455  0.3170
 6912SOL    HW132198   4.094   2.358  16.944  0.7572  0.4814  0.4341
 6912SOL    HW232199   4.055   2.416  17.074  1.6172 -0.3665  0.4444
 6913SOL     OW32200   2.409   0.739   2.842  0.8225  0.2205 -0.2690
 6913SOL    HW132201   2.366   0.819   2.812 -2.9087 -1.2269  1.2405
 6913SOL    HW232202   2.386   0.672   2.778  1.9046 -2.3593  2.0152
 6914SOL     OW32203   3.739   4.569  16.819  0.1514  0.0617 -0.0195
 6914SOL    HW132204   3.746   4.474  16.825 -0.2049  0.0564  0.3625
 6914SOL    HW232205   3.731   4.595  16.911 -0.4738 -1.8862  0.4806
 6915SOL     OW32206   2.156   4.058   9.057  0.0673  0.0011  0.3345
 6915SOL    HW132207   2.249   4.046   9.074 -0.0348  0.4591  1.2220
 6915SOL    HW232208   2.152   4.149   9.026  0.2399 -0.0763  0.0890
 6916SOL     OW32209   1.513   1.677  11.500  0.7263  0.2354 -0.6782
 6916SOL    HW132210   1.506   1.698  11.407 -0.6025 -1.1930 -0.9058
 6916SOL    HW232211   1.522   1.582  11.501  1.1174  0.3065  2.7643
 6917SOL     OW32212   2.283   0.638   8.773  0.3059  0.0690 -0.0510
 6917SOL    HW132213   2.356   0.605   8.825 -0.9894  0.0064  1.7190
 6917SOL    HW232214   2.214   0.645   8.839 -2.0129  4.7682 -2.9203
 6918SOL     OW32215   3.147   3.944   0.580  0.1464  0.4808  0.0896
 6918SOL    HW132216   3.196   3.865   0.602 -1.6059 -0.3642  0.9419
 6918SOL    HW232217   3.069   3.937   0.634  1.0651  0.1893  1.3630
 6919SOL     OW32218   2.002   1.052   5.534  0.5034 -0.2198 -0.2393
 6919SOL    HW132219   2.061   1.058   5.459 -0.3405 -0.7548 -0.9488
 6919SOL    HW232220   1.917   1.068   5.494  0.7548  0.2518 -0.5794
 6920SOL     OW32221   3.868   2.128   0.953  0.2485 -0.3875  0.7517
 6920SOL    HW132222   3.943   2.187   0.955  1.2652 -1.7422  1.7899
 6920SOL    HW232223   3.902   2.039   0.953 -0.4061 -0.6395  1.3591
 6921SOL     OW32224   1.577   4.674   4.300  0.0664 -0.2290 -0.0470
 6921SOL    HW132225   1.509   0.008   4.334 -1.3334 -2.0433  0.3125
 6921SOL    HW232226   1.585   4.714   4.213  2.7812  1.9583  1.2144
 6922SOL     OW32227   2.095   2.197  17.296  0.3864  0.0643  0.0609
 6922SOL    HW132228   2.179   2.243  17.298  1.0992 -1.2658  0.7994
 6922SOL    HW232229   2.115   2.133  17.364  1.3932  0.5329  0.2166
 6923SOL     OW32230   3.968   4.488   6.720  0.1460  0.0718 -1.3476
 6923SOL    HW132231   4.059   4.502   6.694  0.6078 -1.7224 -0.6291
 6923SOL    HW232232   3.955   4.394   6.718 -0.4740  0.1169  1.8561
 6924SOL     OW32233   4.408   4.090  13.023 -0.6375  0.3197  0.2197
 6924SOL    HW132234   4.445   4.154  12.962  1.2571  1.1492  2.2472
 6924SOL    HW232235   4.486   4.072  13.075 -0.3790  1.3624  0.2022
 6925SOL     OW32236   0.053   1.680  17.147 -0.0945  0.4481  0.1208
 6925SOL    HW132237   0.080   1.740  17.217  1.2544 -1.2995  1.1138
 6925SOL    HW232238   0.001   1.740  17.094 -2.1368 -1.3672  0.1064
 6926SOL     OW32239   0.558   3.769  12.229 -0.1927  0.7170 -0.7504
 6926SOL    HW132240   0.524   3.846  12.274  0.9740  0.8178 -0.0503
 6926SOL    HW232241   0.498   3.700  12.259  0.8121  0.5961  0.9973
 6927SOL     OW32242   1.026   3.880   3.986 -0.0363 -0.1119  0.5618
 6927SOL    HW132243   0.985   3.954   3.941 -0.2536 -1.5343 -1.5413
 6927SOL    HW232244   1.104   3.868   3.933 -1.9682 -1.1455 -2.0637
 6928SOL     OW32245   4.386   1.192  14.178  0.1582  0.1274 -0.3611
 6928SOL    HW132246   4.367   1.106  14.216  0.4783 -0.0850 -0.6811
 6928SOL    HW232247   4.478   1.212  14.194  0.1416 -0.3770  0.3218
 6929SOL     OW32248   2.742   2.205  14.196  0.2063  0.4923  0.1039
 6929SOL    HW132249   2.822   2.154  14.184 -0.9398 -0.7478 -2.3875
 6929SOL    HW232250   2.784   2.289  14.177  1.6996 -0.2705  0.0246
 6930SOL     OW32251   2.920   0.681  12.421 -0.5715  0.1011 -0.4339
 6930SOL    HW132252   2.994   0.686  12.481  0.0837 -2.0380 -1.0656
 6930SOL    HW232253   2.952   0.608  12.368 -2.2437 -1.3529  0.5162
 6931SOL     OW32254   2.047   3.844   4.403  0.3139  0.5248 -0.5490
 6931SOL    HW132255   1.953   3.865   4.405  0.3490  0.9081 -2.7021
 6931SOL    HW232256   2.064   3.915   4.465  0.5192 -1.2211  1.3567
 6932SOL     OW32257   1.485   4.435   3.860  0.8460 -0.3164 -0.1966
 6932SOL    HW132258   1.400   4.393   3.870 -0.2586  1.8763 -0.3174
 6932SOL    HW232259   1.478   4.468   3.771  1.7891 -0.0617 -0.1821
 6933SOL     OW32260   3.219   3.242   8.554 -0.1024  0.1546 -0.7434
 6933SOL    HW132261   3.139   3.230   8.606  0.4143 -2.3535 -0.5585
 6933SOL    HW232262   3.237   3.152   8.527  2.3262  0.6164 -0.6813
 6934SOL     OW32263   0.463   0.131   8.653 -0.4804  0.0137  0.8678
 6934SOL    HW132264   0.490   0.221   8.637  0.8732 -0.2632  1.5677
 6934SOL    HW232265   0.493   0.106   8.741  0.7674  2.3238  1.0959
 6935SOL     OW32266   4.234   2.189   5.680 -0.5355  0.1021 -0.3293
 6935SOL    HW132267   4.279   2.143   5.609  0.5169 -0.2423  0.5545
 6935SOL    HW232268   4.224   2.277   5.645  0.5629 -0.0627 -1.0624
 6936SOL     OW32269   1.699   0.846   8.282  0.0380 -0.0969 -0.0502
 6936SOL    HW132270   1.614   0.807   8.300 -0.7388  1.2890 -0.7041
 6936SOL    HW232271   1.739   0.878   8.363  0.3266 -0.6863  0.0360
 6937SOL     OW32272   3.642   1.048   4.210 -0.1983  0.3095  0.4800
 6937SOL    HW132273   3.593   1.129   4.227  0.4044  0.2933  2.3354
 6937SOL    HW232274   3.699   1.062   4.134 -0.1045  1.8404  0.8217
 6938SOL     OW32275   3.653   3.159   6.206  0.0363 -0.1772 -0.1559
 6938SOL    HW132276   3.646   3.151   6.301  0.6276 -2.0463 -0.2720
 6938SOL    HW232277   3.584   3.100   6.177 -2.7073  3.3205 -0.7675
 6939SOL     OW32278   3.682   2.187  13.118  0.1199  0.2430  0.4222
 6939SOL    HW132279   3.740   2.217  13.048  0.5003  1.6793  1.3627
 6939SOL    HW232280   3.602   2.168  13.068  0.9349  2.1800 -1.6426
 6940SOL     OW32281   3.544   4.539   0.751 -0.6706  0.1014 -0.0334
 6940SOL    HW132282   3.571   4.568   0.838 -1.2200  0.8848 -0.1200
 6940SOL    HW232283   3.507   4.620   0.716 -2.7749 -0.4396  0.9107
 6941SOL     OW32284   4.240   3.740   1.086  0.0450  0.2131 -0.1627
 6941SOL    HW132285   4.154   3.698   1.089  0.1996 -0.1518 -1.0012
 6941SOL    HW232286   4.284   3.656   1.090 -1.8057 -0.7364  0.4495
 6942SOL     OW32287   1.902   4.378   0.646 -0.0942 -0.2382 -0.0131
 6942SOL    HW132288   1.891   4.468   0.676  0.3055 -0.0476 -0.4270
 6942SOL    HW232289   1.817   4.345   0.676 -0.4269  0.3885 -0.2451
 6943SOL     OW32290   2.685   3.476   6.319  0.3783 -0.3833 -0.1390
 6943SOL    HW132291   2.679   3.394   6.368  1.8727 -0.5759 -0.2976
 6943SOL    HW232292   2.713   3.535   6.389  0.7942 -1.0184  0.2279
 6944SOL     OW32293   2.189   2.798   4.725 -0.0390  0.6069 -0.4437
 6944SOL    HW132294   2.143   2.780   4.806  0.9545  1.2562  0.2689
 6944SOL    HW232295   2.128   2.774   4.656 -0.2334  0.7472 -0.3179
 6945SOL     OW32296   3.176   1.786   2.604  0.9495  0.2498 -0.2526
 6945SOL    HW132297   3.142   1.697   2.613  0.1311  0.4626 -1.3504
 6945SOL    HW232298   3.189   1.795   2.510  2.9554  0.8829  0.0670
 6946SOL     OW32299   1.981   4.623  13.990 -0.5940 -0.0456 -0.7304
 6946SOL    HW132300   2.031   4.605  13.910 -0.0319 -1.2759 -0.0959
 6946SOL    HW232301   1.898   4.647  13.949 -0.3388 -0.1229 -1.2922
 6947SOL     OW32302   2.474   0.798  12.169 -0.3682  0.5755 -0.3143
 6947SOL    HW132303   2.473   0.751  12.253  0.7895 -0.8067 -1.0595
 6947SOL    HW232304   2.556   0.848  12.170  0.7126 -1.1449 -1.5270
 6948SOL     OW32305   3.496   1.409  14.257 -0.7312 -0.1032  0.5681
 6948SOL    HW132306   3.470   1.353  14.331 -1.0826  0.9874  1.2721
 6948SOL    HW232307   3.580   1.367  14.241 -0.2453  2.0905 -2.5134
 6949SOL     OW32308   3.935   2.455   3.567  0.6208  0.4991  0.3121
 6949SOL    HW132309   4.019   2.491   3.593  1.3484  0.2186 -1.6696
 6949SOL    HW232310   3.900   2.527   3.514  0.6198 -1.5911 -2.5035
 6950SOL     OW32311   1.874   0.331   3.807  0.0547 -0.2442 -0.0816
 6950SOL    HW132312   1.879   0.314   3.901  0.5035 -2.2233 -0.4685
 6950SOL    HW232313   1.937   0.268   3.774 -0.2376 -0.3597 -0.4208
 6951SOL     OW32314   4.222   1.980  11.535 -0.1545 -0.4630 -0.0119
 6951SOL    HW132315   4.135   1.942  11.551 -1.2287  2.8730  2.1418
 6951SOL    HW232316   4.277   1.902  11.528 -0.3364 -0.2434 -4.0042
 6952SOL     OW32317   2.644   3.444   5.253  0.6331  0.0245  0.6495
 6952SOL    HW132318   2.663   3.507   5.183 -0.1095  0.1984  0.6013
 6952SOL    HW232319   2.659   3.360   5.210 -2.2999 -0.2981  0.2330
 6953SOL     OW32320   4.603   2.740  16.200 -0.2313  0.0140  0.0004
 6953SOL    HW132321   4.545   2.680  16.247  0.9302 -0.5565  0.6889
 6953SOL    HW232322   4.657   2.786  16.264 -1.6465  4.0773 -1.6745
 6954SOL     OW32323   0.230   1.570  10.724 -0.4365 -0.3720 -0.4424
 6954SOL    HW132324   0.309   1.556  10.776 -1.6341  0.2258  1.5313
 6954SOL    HW232325   0.199   1.650  10.767  0.7882  1.0123 -2.1122
 6955SOL     OW32326   1.677   4.056   5.345 -0.5399  0.0411  0.1785
 6955SOL    HW132327   1.760   4.081   5.387 -0.3590  0.2300 -0.2957
 6955SOL    HW232328   1.602   4.097   5.389  1.2749  1.9620  1.5009
 6956SOL     OW32329   1.596   2.120   4.405  0.2818 -0.2014 -0.7931
 6956SOL    HW132330   1.546   2.188   4.448  1.2772 -1.1176  1.8018
 6956SOL    HW232331   1.532   2.062   4.364  1.0054 -1.4070 -0.2171
 6957SOL     OW32332   2.205   2.849   4.079  0.8029  0.4172  0.0481
 6957SOL    HW132333   2.244   2.869   4.164 -2.0563  0.5996  1.3220
 6957SOL    HW232334   2.281   2.806   4.041  2.1513  0.8296  2.2736
 6958SOL     OW32335   1.966   1.470   1.166 -0.2416  0.4686 -0.5001
 6958SOL    HW132336   1.898   1.404   1.148 -2.2107  2.4880 -0.4466
 6958SOL    HW232337   2.019   1.466   1.086  1.8815  1.5291  0.8712
 6959SOL     OW32338   0.042   0.850  10.850 -0.0536  0.1227  0.3473
 6959SOL    HW132339   0.048   0.933  10.897 -1.0395  1.0675 -1.2024
 6959SOL    HW232340   0.036   0.883  10.761 -1.5818 -1.5739 -0.1605
 6960SOL     OW32341   2.175   2.448  15.163 -0.1697 -0.2403  0.6095
 6960SOL    HW132342   2.145   2.501  15.090  1.4014 -1.6859 -1.0660
 6960SOL    HW232343   2.260   2.483  15.189  0.7433 -0.6791 -1.8493
 6961SOL     OW32344   0.565   0.957   3.183  0.6234 -0.0171  0.1696
 6961SOL    HW132345   0.531   0.876   3.221  0.3246 -0.0612 -0.1836
 6961SOL    HW232346   0.538   0.947   3.091 -0.1603  2.6162  0.1297
 6962SOL     OW32347   0.576   0.402   4.922 -0.4852 -0.0128  0.1050
 6962SOL    HW132348   0.629   0.405   4.842  0.8161 -1.3853  0.9210
 6962SOL    HW232349   0.524   0.321   4.922 -0.7553  0.1601  0.4341
 6963SOL     OW32350   2.925   4.713   6.470  0.4732 -0.2250 -0.4157
 6963SOL    HW132351   2.958   0.019   6.386 -0.0810  2.6629  0.4542
 6963SOL    HW232352   2.846   4.666   6.442 -1.2586  1.9191  0.8447
 6964SOL     OW32353   0.244   3.882  10.000 -0.0872 -0.1752 -0.3590
 6964SOL    HW132354   0.264   3.794  10.032  0.4517 -0.2725 -0.9662
 6964SOL    HW232355   0.188   3.855   9.927  0.2237  0.0983 -0.6959
 6965SOL     OW32356   1.899   1.800   7.144 -0.6077  0.0302 -0.5053
 6965SOL    HW132357   1.992   1.782   7.156 -0.3629  1.9263  0.5381
 6965SOL    HW232358   1.860   1.736   7.204  0.6076  1.5289  1.8816
 6966SOL     OW32359   2.912   3.865   3.474  0.3842 -0.1127  0.5083
 6966SOL    HW132360   2.967   3.877   3.551 -0.8352  0.5147  1.2809
 6966SOL    HW232361   2.835   3.822   3.512 -1.4759  1.5968 -1.3730
 6967SOL     OW32362   1.385   1.239   5.403 -0.1265 -0.2211  0.5076
 6967SOL    HW132363   1.427   1.307   5.349 -1.5762 -1.7085 -2.4584
 6967SOL    HW232364   1.342   1.286   5.474 -0.4703  1.6035 -0.8988
 6968SOL     OW32365   0.938   3.271   2.157  0.1545  0.4274 -0.2703
 6968SOL    HW132366   0.977   3.205   2.099 -0.1277  0.2359 -0.2428
 6968SOL    HW232367   0.848   3.240   2.159  0.1330  0.5517  0.5512
 6969SOL     OW32368   2.920   4.312   8.999  0.2747  0.3367  0.1072
 6969SOL    HW132369   2.936   4.364   8.921 -0.9260  1.2562  0.4763
 6969SOL    HW232370   2.940   4.361   9.078  1.4409 -0.8902  0.5700
 6970SOL     OW32371   0.770   1.587   8.188  0.7609 -0.4896  0.1455
 6970SOL    HW132372   0.824   1.529   8.242 -1.4436 -1.6947  1.0632
 6970SOL    HW232373   0.727   1.517   8.139  3.4199  0.4718 -3.5214
 6971SOL     OW32374   1.293   1.820  10.965  0.1426 -0.2431 -0.0447
 6971SOL    HW132375   1.229   1.830  10.894  1.9797 -2.0415 -1.9469
 6971SOL    HW232376   1.228   1.788  11.028 -1.1562  0.6281 -0.9525
 6972SOL     OW32377   1.102   4.489   9.316  0.2915  0.2309 -0.3639
 6972SOL    HW132378   1.048   4.558   9.355  0.9886 -0.9955  2.7888
 6972SOL    HW232379   1.190   4.528   9.310  0.9743 -1.4469 -1.1998
 6973SOL     OW32380   1.757   4.626  11.196  0.3683  0.3631  1.0390
 6973SOL    HW132381   1.727   4.645  11.285 -0.7256  0.0076  0.7454
 6973SOL    HW232382   1.757   4.531  11.207  2.9168  0.0626 -1.7656
 6974SOL     OW32383   4.668   2.156  13.512  0.1152 -0.4125 -0.0563
 6974SOL    HW132384   0.024   2.127  13.554  0.8225  0.6870 -0.6481
 6974SOL    HW232385   4.626   2.219  13.569  1.2400  0.1091  0.1976
 6975SOL     OW32386   4.602   3.804   3.918  1.1438  0.5191 -0.1081
 6975SOL    HW132387   4.520   3.813   3.868 -1.5936 -4.7829  3.4158
 6975SOL    HW232388   4.649   3.730   3.880 -0.6624  0.4439 -2.2438
 6976SOL     OW32389   0.055   2.646   4.201 -1.0312 -0.1707  0.2718
 6976SOL    HW132390   0.049   2.714   4.133  0.4642  0.3786  0.6919
 6976SOL    HW232391   0.095   2.577   4.148 -0.2526 -0.1581  0.8410
 6977SOL     OW32392   3.192   3.579   3.088 -0.3287 -0.5769 -0.4113
 6977SOL    HW132393   3.197   3.607   2.997 -0.1780 -1.1138 -0.5694
 6977SOL    HW232394   3.181   3.666   3.126  2.0378 -0.3385 -0.2790
 6978SOL     OW32395   2.709   1.017  15.703  0.3521  0.0049  0.3965
 6978SOL    HW132396   2.656   1.096  15.714 -0.6822 -0.5621 -0.4933
 6978SOL    HW232397   2.770   1.033  15.775 -0.9026  1.3213  1.1696
 6979SOL     OW32398   0.119   2.989  10.580 -0.1149 -0.2312 -0.3256
 6979SOL    HW132399   0.160   2.944  10.653 -2.5452 -1.4627  0.2701
 6979SOL    HW232400   0.194   2.998  10.521 -0.8880 -0.5901 -1.3694
 6980SOL     OW32401   1.700   2.369   1.865  0.2639  0.1876 -0.2131
 6980SOL    HW132402   1.763   2.307   1.904 -0.4165  0.9362  2.0796
 6980SOL    HW232403   1.641   2.318   1.810  0.9329 -1.5247  0.6337
 6981SOL     OW32404   0.015   0.961   7.462  0.0165  0.0872 -0.2648
 6981SOL    HW132405   4.658   0.913   7.448 -0.0718  0.3431 -0.6088
 6981SOL    HW232406   0.078   0.919   7.404 -1.4117 -1.4010 -0.7682
 6982SOL     OW32407   0.437   1.548   1.791 -0.4048 -0.1210  0.1933
 6982SOL    HW132408   0.363   1.489   1.811 -0.4942  0.6325  2.0632
 6982SOL    HW232409   0.501   1.480   1.813 -0.3879 -0.0158  0.4701
 6983SOL     OW32410   3.097   2.592   2.573  0.2014 -0.2925 -0.0806
 6983SOL    HW132411   3.006   2.589   2.604  0.1176  1.6162 -0.1411
 6983SOL    HW232412   3.146   2.634   2.644 -1.4598  3.7048 -1.2867
 6984SOL     OW32413   0.726   4.710   6.083 -0.3663 -0.2829 -0.3974
 6984SOL    HW132414   0.764   4.649   6.019  2.9886 -0.1401  1.4859
 6984SOL    HW232415   0.669   4.663   6.144 -0.4992 -1.6881 -1.5951
 6985SOL     OW32416   2.374   3.317   2.698 -0.1589 -0.3293  0.8495
 6985SOL    HW132417   2.289   3.287   2.668 -1.0004  1.6632  1.2480
 6985SOL    HW232418   2.351   3.383   2.763  0.6479  0.1209  0.6851
 6986SOL     OW32419   1.978   2.875   9.156  0.8381 -0.0932 -0.0615
 6986SOL    HW132420   1.985   2.815   9.230  0.6287  0.3495  0.3223
 6986SOL    HW232421   2.059   2.851   9.112 -0.3019  1.1535 -2.8254
 6987SOL     OW32422   0.519   0.600  16.865 -0.5440  0.3489  0.6198
 6987SOL    HW132423   0.513   0.691  16.835  2.2495 -0.3364 -2.0858
 6987SOL    HW232424   0.450   0.601  16.931  0.6611  0.1572  1.8749
 6988SOL     OW32425   2.672   4.546   4.733 -0.2920  0.0922  0.3242
 6988SOL    HW132426   2.697   4.464   4.775  1.6820 -0.6340 -2.2559
 6988SOL    HW232427   2.596   4.501   4.698 -0.6629  1.0300 -0.0707
 6989SOL     OW32428   1.946   4.322   2.474 -0.0330 -0.0940  0.2512
 6989SOL    HW132429   1.926   4.236   2.512 -0.3389 -0.3181 -0.4163
 6989SOL    HW232430   2.009   4.300   2.405 -0.9457 -0.0067 -0.6174
 6990SOL     OW32431   3.427   2.609   5.844 -0.7930 -0.0336  0.5452
 6990SOL    HW132432   3.505   2.659   5.868 -0.3397 -0.7365  0.5178
 6990SOL    HW232433   3.394   2.685   5.795 -2.2534 -1.6046 -0.9156
 6991SOL     OW32434   4.325   1.693  11.513  0.0065 -0.3578 -0.4764
 6991SOL    HW132435   4.348   1.609  11.554 -2.0833 -0.5267  0.3205
 6991SOL    HW232436   4.255   1.675  11.450 -0.8612 -0.1643  0.4458
 6992SOL     OW32437   0.634   2.005   6.902 -0.0414 -0.0364 -0.0667
 6992SOL    HW132438   0.666   2.067   6.967 -0.6581  0.3419 -0.1277
 6992SOL    HW232439   0.706   1.976   6.846  0.7355  0.6783  0.5555
 6993SOL     OW32440   1.002   2.308   4.530 -0.1467  0.2120  0.2453
 6993SOL    HW132441   0.925   2.251   4.532 -0.2688  0.4147  1.2804
 6993SOL    HW232442   1.066   2.259   4.478  1.0557  0.1316  1.8165
 6994SOL     OW32443   0.964   3.421  11.082 -0.4434 -0.4329  0.3350
 6994SOL    HW132444   1.055   3.425  11.113 -0.1443 -0.8790 -0.4848
 6994SOL    HW232445   0.982   3.452  10.993  0.9437  0.1896  0.8271
 6995SOL     OW32446   0.423   1.341   7.292 -0.4788 -0.1442 -0.4836
 6995SOL    HW132447   0.397   1.275   7.227 -0.9536 -0.6683  0.2343
 6995SOL    HW232448   0.364   1.315   7.363  1.8808  0.2015  1.5754
 6996SOL     OW32449   1.869   0.308   5.453  0.3660  0.4492 -0.0717
 6996SOL    HW132450   1.914   0.325   5.370  0.6111 -0.1624 -0.0566
 6996SOL    HW232451   1.826   0.394   5.454  0.0382  0.2890 -0.1991
 6997SOL     OW32452   4.495   0.291   3.445 -0.1016 -0.7533  0.5587
 6997SOL    HW132453   4.582   0.279   3.406 -0.2861  1.8241 -0.6127
 6997SOL    HW232454   4.517   0.347   3.519 -0.3758  0.5178 -0.3198
 6998SOL     OW32455   1.425   1.667   7.463  0.6377 -0.6399  0.2401
 6998SOL    HW132456   1.434   1.723   7.386  0.7124  0.3118  0.9325
 6998SOL    HW232457   1.346   1.700   7.506 -0.8445  0.2224 -3.1806
 6999SOL     OW32458   4.237   1.420  16.482  0.3919 -0.6078  0.2073
 6999SOL    HW132459   4.327   1.452  16.473  0.1653  0.3614  1.4643
 6999SOL    HW232460   4.225   1.440  16.575 -1.6577 -0.3949 -0.0899
 7000SOL     OW32461   1.405   0.687   3.854 -0.1173  0.1464 -0.2933
 7000SOL    HW132462   1.371   0.774   3.876 -1.1740 -0.6017  1.0334
 7000SOL    HW232463   1.470   0.687   3.924  1.3829  1.2047 -1.6967
 7001SOL     OW32464   2.133   3.588   5.431  0.0646 -0.0969 -0.3625
 7001SOL    HW132465   2.088   3.606   5.349 -1.9807 -0.8977  0.5832
 7001SOL    HW232466   2.226   3.591   5.407  0.7148 -0.9404  2.0479
 7002SOL     OW32467   1.789   1.579   5.269  0.3476  0.3691  0.1684
 7002SOL    HW132468   1.823   1.657   5.313 -0.5363  0.7764  0.1416
 7002SOL    HW232469   1.833   1.501   5.302  1.1779  0.8918  0.2802
 7003SOL     OW32470   3.211   0.331  16.009 -0.5525  0.1992 -0.5707
 7003SOL    HW132471   3.299   0.308  15.979  0.3928  1.1679  1.4772
 7003SOL    HW232472   3.179   0.247  16.041 -0.0729 -0.3702 -1.6059
 7004SOL     OW32473   2.844   0.225   8.959  1.3069  0.2767  0.0481
 7004SOL    HW132474   2.811   0.136   8.951  0.7485  0.3978  1.0132
 7004SOL    HW232475   2.781   0.260   9.022  0.1472  2.9414 -2.5732
 7005SOL     OW32476   4.166   4.309   5.555 -1.2104 -0.0744  0.7054
 7005SOL    HW132477   4.174   4.377   5.488  0.9696 -1.3339 -0.3070
 7005SOL    HW232478   4.099   4.343   5.614 -1.9863  0.0519 -0.2409
 7006SOL     OW32479   1.319   3.645   2.064 -0.5369 -0.1617 -0.1139
 7006SOL    HW132480   1.391   3.643   2.127  0.6390  1.0790 -1.3903
 7006SOL    HW232481   1.276   3.564   2.090  0.4103 -1.8197 -3.5648
 7007SOL     OW32482   3.539   2.546   6.118 -0.3158 -0.1785 -0.5077
 7007SOL    HW132483   3.592   2.552   6.198 -1.8084 -1.3768  0.5689
 7007SOL    HW232484   3.557   2.630   6.076 -0.6273 -0.3476 -0.9722
 7008SOL     OW32485   3.290   4.523  11.425  0.3378  0.1599  0.7650
 7008SOL    HW132486   3.224   4.455  11.411 -0.0172  0.3589  1.4521
 7008SOL    HW232487   3.365   4.464  11.425  1.0340  1.0628  1.3075
 7009SOL     OW32488   4.703   2.141   1.556  0.2799 -0.8353 -0.1026
 7009SOL    HW132489   0.044   2.078   1.586 -0.5586 -0.6099  2.2818
 7009SOL    HW232490   4.694   2.135   1.461  0.1065 -1.9495 -0.0144
 7010SOL     OW32491   3.705   0.835   4.363  0.2854 -0.8654  0.0008
 7010SOL    HW132492   3.674   0.898   4.297 -1.2374  0.0191  1.5695
 7010SOL    HW232493   3.772   0.887   4.407 -0.7904 -0.8969  1.6607
 7011SOL     OW32494   2.431   3.087   2.106  0.7813 -0.3852 -0.2480
 7011SOL    HW132495   2.474   3.171   2.089 -2.0613  1.1616  0.2149
 7011SOL    HW232496   2.501   3.022   2.096 -0.9429 -2.1312 -0.7952
 7012SOL     OW32497   0.212   4.657   4.911 -0.1585 -0.5814  0.0494
 7012SOL    HW132498   0.256   4.617   4.836  2.8127  0.1221  1.4061
 7012SOL    HW232499   0.165   4.583   4.949 -1.1195 -1.0277 -2.0035
 7013SOL     OW32500   3.223   0.310   6.576  0.5538  0.4193  0.3759
 7013SOL    HW132501   3.214   0.216   6.592  3.3391  0.0275 -0.4105
 7013SOL    HW232502   3.301   0.335   6.627  0.4781 -0.0049  0.7056
 7014SOL     OW32503   4.456   1.499   3.455 -0.5375  0.3478  0.4400
 7014SOL    HW132504   4.526   1.538   3.507 -0.3010  1.1922 -0.5000
 7014SOL    HW232505   4.495   1.495   3.367  0.2075 -2.4625  0.8885
 7015SOL     OW32506   1.939   1.728   2.326  0.2320  0.3260  0.2454
 7015SOL    HW132507   2.012   1.765   2.276 -0.5572  0.8614 -0.5259
 7015SOL    HW232508   1.974   1.707   2.412  1.0445  1.8853  0.3063
 7016SOL     OW32509   3.389   3.389  16.190 -0.5907 -0.3087  0.1026
 7016SOL    HW132510   3.356   3.479  16.187  0.9100  0.2463  0.2343
 7016SOL    HW232511   3.462   3.412  16.247  0.0355  0.7225 -1.1159
 7017SOL     OW32512   1.947   3.853   3.123 -0.0522  0.2944  0.3271
 7017SOL    HW132513   1.937   3.829   3.215 -0.4402 -2.5424 -0.4680
 7017SOL    HW232514   2.030   3.811   3.103 -1.3417 -1.2480 -1.7046
 7018SOL     OW32515   0.468   0.831   8.650 -0.2798  0.5155  0.0362
 7018SOL    HW132516   0.457   0.788   8.735 -1.3219  2.7653  1.0245
 7018SOL    HW232517   0.538   0.894   8.666  0.4850 -0.1160 -0.7528
 7019SOL     OW32518   0.570   4.480   7.084  0.1537 -0.8788 -0.3364
 7019SOL    HW132519   0.510   4.406   7.087 -1.4134  0.2952 -2.4113
 7019SOL    HW232520   0.646   4.438   7.124 -0.6161 -1.1261  0.8665
 7020SOL     OW32521   4.478   2.089   9.670 -0.7445 -0.1542  0.1164
 7020SOL    HW132522   4.428   2.170   9.670  2.5494  1.8440  1.2158
 7020SOL    HW232523   4.508   2.095   9.579 -1.1160 -0.6306 -0.0386
 7021SOL     OW32524   2.302   2.479   6.602  0.0872 -0.1344 -0.1398
 7021SOL    HW132525   2.305   2.443   6.691 -0.2472  1.7133  0.6194
 7021SOL    HW232526   2.303   2.574   6.611 -1.1781 -0.2100  0.7968
 7022SOL     OW32527   2.136   4.241   0.713 -0.5042 -1.1907 -0.3310
 7022SOL    HW132528   2.047   4.268   0.690 -0.2194 -0.8083 -0.9653
 7022SOL    HW232529   2.165   4.218   0.625  1.3703  0.5916 -0.1692
 7023SOL     OW32530   0.967   0.102   7.957  0.1955  0.2184  0.4109
 7023SOL    HW132531   0.909   0.163   8.002 -1.0690  0.3700 -1.3995
 7023SOL    HW232532   1.026   0.065   8.022 -0.0377 -2.0211 -0.6528
 7024SOL     OW32533   3.545   3.592   5.023 -0.0722 -0.5916  0.6851
 7024SOL    HW132534   3.524   3.617   4.933 -1.2023  0.6128  1.2787
 7024SOL    HW232535   3.464   3.608   5.071  0.5940 -0.2584  1.6999
 7025SOL     OW32536   2.759   3.480  16.681  0.2938  0.0609  0.1078
 7025SOL    HW132537   2.815   3.424  16.626  0.3706  1.0676 -0.8307
 7025SOL    HW232538   2.762   3.555  16.622  1.7764  0.9318  1.2970
 7026SOL     OW32539   2.707   4.139   9.386 -0.0745 -0.1981 -0.7720
 7026SOL    HW132540   2.656   4.133   9.305 -0.8423 -1.9334 -0.1658
 7026SOL    HW232541   2.727   4.048   9.408 -1.0380 -0.1994  0.1280
 7027SOL     OW32542   2.274   3.886   4.294 -0.4809 -0.1811  0.2736
 7027SOL    HW132543   2.339   3.839   4.345 -1.0952  1.0730  2.2106
 7027SOL    HW232544   2.191   3.862   4.336 -0.5960  0.5833  0.4804
 7028SOL     OW32545   0.293   0.333   0.858  0.6116 -0.2670  0.1780
 7028SOL    HW132546   0.202   0.322   0.884  0.0565  0.2904 -1.5034
 7028SOL    HW232547   0.281   0.286   0.775 -0.3042 -1.5531  1.0502
 7029SOL     OW32548   0.420   1.100   5.566 -0.0681  0.2544  0.0747
 7029SOL    HW132549   0.350   1.127   5.507  0.8140 -0.1576 -1.1662
 7029SOL    HW232550   0.440   1.010   5.540 -1.2116 -0.5039  1.7789
 7030SOL     OW32551   3.714   3.776   5.302  0.0260 -0.1359 -0.3303
 7030SOL    HW132552   3.664   3.706   5.345  0.9027  0.8703  2.3333
 7030SOL    HW232553   3.645   3.811   5.246 -1.5114 -0.8298  1.1221
 7031SOL     OW32554   1.689   4.113  11.274 -0.3520 -0.2422  0.0662
 7031SOL    HW132555   1.639   4.101  11.193  0.8160  2.0501 -0.9971
 7031SOL    HW232556   1.625   4.086  11.341  0.5902 -2.2211  0.1604
 7032SOL     OW32557   3.811   3.786   8.198 -0.1723  0.2334 -0.1390
 7032SOL    HW132558   3.742   3.749   8.254  1.6942 -0.5560  1.6634
 7032SOL    HW232559   3.868   3.711   8.180  1.0976  0.7756  1.5792
 7033SOL     OW32560   0.615   1.606  11.712 -0.4542 -0.1234  0.0060
 7033SOL    HW132561   0.681   1.620  11.645  0.2502  1.3092  0.9815
 7033SOL    HW232562   0.544   1.574  11.657  0.3001 -1.1213 -0.3791
 7034SOL     OW32563   0.103   4.536   7.891  0.0297 -0.4109  0.4460
 7034SOL    HW132564   0.076   4.516   7.980 -2.0058  0.3122 -0.0167
 7034SOL    HW232565   0.104   4.448   7.853 -0.6721 -0.0561 -0.4145
 7035SOL     OW32566   3.248   2.350   0.690 -0.2718 -0.2891 -0.6199
 7035SOL    HW132567   3.327   2.318   0.733 -0.7738  0.2986  0.7538
 7035SOL    HW232568   3.242   2.442   0.714 -0.0564 -0.1940 -0.9313
 7036SOL     OW32569   2.568   1.597   2.511 -0.3323  0.6073  0.3365
 7036SOL    HW132570   2.636   1.530   2.506 -1.4493 -0.5193  0.2330
 7036SOL    HW232571   2.611   1.676   2.544 -1.5109  1.8483 -1.0835
 7037SOL     OW32572   0.281   4.153  14.873 -0.4390 -0.3494  0.7813
 7037SOL    HW132573   0.371   4.177  14.893 -0.5253  0.5294  0.1497
 7037SOL    HW232574   0.252   4.229  14.923 -0.8746  1.1881 -1.7784
 7038SOL     OW32575   1.371   0.577  12.389 -0.1301  0.0162  0.3773
 7038SOL    HW132576   1.356   0.556  12.297  0.6152  1.7281 -0.1421
 7038SOL    HW232577   1.446   0.636  12.379 -0.3057  0.3426  0.9749
 7039SOL     OW32578   1.370   0.504   3.663 -0.0934  0.3221  0.5600
 7039SOL    HW132579   1.433   0.522   3.594 -2.3304  0.0100 -1.5859
 7039SOL    HW232580   1.381   0.573   3.727  1.5911  1.7268 -1.2368
 7040SOL     OW32581   2.134   0.472   3.058  0.2687  0.4326  0.2037
 7040SOL    HW132582   2.220   0.514   3.053  0.1720  0.3261 -2.5800
 7040SOL    HW232583   2.091   0.521   3.128  0.7223  1.5021 -0.2688
 7041SOL     OW32584   2.125   1.036   6.583  0.0410 -0.6433 -0.0424
 7041SOL    HW132585   2.162   1.114   6.541  0.2445 -1.3354 -1.1352
 7041SOL    HW232586   2.128   1.056   6.677  0.2299 -0.3316 -0.1133
 7042SOL     OW32587   3.495   0.049   7.597 -0.1025  0.2956  0.8538
 7042SOL    HW132588   3.437   4.698   7.596 -0.1481  0.3467 -0.7483
 7042SOL    HW232589   3.576   0.013   7.560 -1.6958 -2.4645  0.0724
 7043SOL     OW32590   2.842   3.477   2.364  0.0945 -0.0952  0.3395
 7043SOL    HW132591   2.854   3.403   2.304  1.2737 -0.0551  0.5450
 7043SOL    HW232592   2.878   3.546   2.309 -1.3946 -0.0886 -0.6331
 7044SOL     OW32593   0.803   2.647   5.109  0.0424 -0.1114 -0.3808
 7044SOL    HW132594   0.860   2.706   5.160  1.1063 -1.0251 -0.4985
 7044SOL    HW232595   0.805   2.568   5.163 -0.9167 -1.4194 -2.2607
 7045SOL     OW32596   1.597   1.003   1.470  0.1587  1.1621  0.1501
 7045SOL    HW132597   1.646   1.025   1.390  2.2189  1.4770  1.5062
 7045SOL    HW232598   1.610   0.909   1.478 -1.2633  0.8845 -0.8015
 7046SOL     OW32599   2.780   3.696  16.215 -0.0738  0.3506 -0.2358
 7046SOL    HW132600   2.743   3.676  16.301  0.9165  1.9927  0.5622
 7046SOL    HW232601   2.713   3.757  16.186  0.2558  0.7455 -0.1673
 7047SOL     OW32602   3.515   2.190   4.054 -0.7988  0.2259  0.1882
 7047SOL    HW132603   3.498   2.284   4.045 -0.7366  0.0916 -1.3162
 7047SOL    HW232604   3.503   2.165   3.962 -0.9807  0.2222  0.2122
 7048SOL     OW32605   2.192   2.198  11.343  0.2302 -0.6375  0.3017
 7048SOL    HW132606   2.230   2.151  11.418  1.2113 -1.3115 -0.6134
 7048SOL    HW232607   2.275   2.224  11.303 -0.2022  2.1039  1.1838
 7049SOL     OW32608   3.487   0.356   6.691 -0.2588  0.1914 -0.6372
 7049SOL    HW132609   3.559   0.295   6.680 -0.3934 -0.2759  1.0155
 7049SOL    HW232610   3.521   0.433   6.645 -1.2672  0.2414 -1.3126
 7050SOL     OW32611   3.179   1.912   9.072 -0.5416 -0.0174 -0.0896
 7050SOL    HW132612   3.129   1.840   9.032 -0.0834 -0.7848  0.7150
 7050SOL    HW232613   3.193   1.971   8.998 -2.4025 -1.9207 -1.9818
 7051SOL     OW32614   2.719   1.017   3.296 -0.1478 -0.0819  0.4955
 7051SOL    HW132615   2.784   0.968   3.347  0.2636 -1.2794 -1.1825
 7051SOL    HW232616   2.639   1.019   3.348  0.8624 -1.6486  2.1097
 7052SOL     OW32617   4.089   1.679   6.999  0.3964 -0.7526  0.3859
 7052SOL    HW132618   4.081   1.774   6.984 -0.6355 -0.8261  0.4613
 7052SOL    HW232619   4.161   1.662   6.939 -1.2992  1.8031 -2.4306
 7053SOL     OW32620   1.399   0.852   7.364  0.1884  0.2982 -0.0564
 7053SOL    HW132621   1.315   0.841   7.409  0.4149  0.4104  0.3948
 7053SOL    HW232622   1.406   0.766   7.322  1.5580  0.2397  0.3122
 7054SOL     OW32623   4.488   1.096   0.173  0.7333  0.1830 -0.3470
 7054SOL    HW132624   4.563   1.125   0.225 -0.3370  1.4319  0.5229
 7054SOL    HW232625   4.426   1.149   0.224  1.6559 -0.9452  1.9525
 7055SOL     OW32626   1.884   1.752  13.098 -0.0996 -0.2726  0.0533
 7055SOL    HW132627   1.790   1.771  13.099 -0.0376  0.2152 -2.2332
 7055SOL    HW232628   1.922   1.831  13.136 -0.0705  0.5820 -1.7808
 7056SOL     OW32629   3.525   4.164  15.323 -0.1094  0.0007 -0.0735
 7056SOL    HW132630   3.477   4.240  15.355  0.8787  0.5549  0.0991
 7056SOL    HW232631   3.556   4.117  15.400 -1.7125 -0.6340  0.1753
 7057SOL     OW32632   1.774   0.220  15.466  0.0186  0.4600  0.3766
 7057SOL    HW132633   1.854   0.175  15.440 -0.2988 -0.6746  1.3961
 7057SOL    HW232634   1.776   0.299  15.412 -0.6798 -0.9968 -1.7979
 7058SOL     OW32635   3.411   3.180  15.307  0.1937  0.3489 -0.3795
 7058SOL    HW132636   3.444   3.252  15.254 -0.7968 -0.7338 -2.4440
 7058SOL    HW232637   3.440   3.108  15.251  0.1184  0.5573 -0.6820
 7059SOL     OW32638   4.512   3.627   9.613 -0.6848  0.3169  0.3312
 7059SOL    HW132639   4.473   3.686   9.549  0.6600 -0.5825 -1.3216
 7059SOL    HW232640   4.427   3.600   9.646  0.2615  0.3049  2.7635
 7060SOL     OW32641   0.033   3.415  17.241  0.5340  0.0096  0.2662
 7060SOL    HW132642   4.673   3.414  17.286 -0.3875  0.1198 -1.4758
 7060SOL    HW232643   0.048   3.320  17.244 -0.2390 -0.1415 -0.5573
 7061SOL     OW32644   3.828   3.102  17.182  0.3499 -0.2087  0.2645
 7061SOL    HW132645   3.829   3.193  17.211  1.2191 -0.3320  0.6414
 7061SOL    HW232646   3.887   3.099  17.106  0.7667 -1.7067  0.6521
 7062SOL     OW32647   4.534   1.807   7.992  0.1419  0.0298  0.2479
 7062SOL    HW132648   4.466   1.740   7.985 -0.1597  0.2665  0.8197
 7062SOL    HW232649   4.470   1.879   7.989  1.4258  1.0799 -1.5886
 7063SOL     OW32650   1.496   1.809  10.260 -0.3602 -0.0578  0.0302
 7063SOL    HW132651   1.431   1.750  10.221 -1.0159  0.9896 -0.4539
 7063SOL    HW232652   1.574   1.755  10.248 -0.0714  0.5638 -0.9032
 7064SOL     OW32653   3.281   1.727   3.676  0.1681 -0.6490 -0.4704
 7064SOL    HW132654   3.225   1.768   3.610 -0.1101 -1.3297 -0.6597
 7064SOL    HW232655   3.229   1.647   3.684  0.5690 -0.9469 -0.8928
 7065SOL     OW32656   3.325   2.861  17.133  0.1172  0.1285 -0.0714
 7065SOL    HW132657   3.240   2.839  17.096  0.7046  0.3437 -1.5532
 7065SOL    HW232658   3.360   2.941  17.094  1.2130 -1.1615 -1.7813
 7066SOL     OW32659   0.740   1.870   3.804  0.3369  0.2949 -0.0152
 7066SOL    HW132660   0.771   1.835   3.887  0.2448  0.8975  0.2742
 7066SOL    HW232661   0.763   1.811   3.732  1.6102  0.0552  0.6069
 7067SOL     OW32662   4.120   0.390  17.598 -0.6104  0.3100  0.6626
 7067SOL    HW132663   4.161   0.304  17.594 -2.8910 -0.7259 -0.1249
 7067SOL    HW232664   4.030   0.357  17.592 -1.2292  2.4876 -2.1610
 7068SOL     OW32665   1.382   0.340  10.676  0.1726 -0.2630 -0.0006
 7068SOL    HW132666   1.395   0.353  10.770  2.9137 -2.1335 -0.1220
 7068SOL    HW232667   1.386   0.432  10.650  0.9886 -0.6897 -1.3674
 7069SOL     OW32668   0.575   4.275   3.958 -0.1407  0.6222 -0.3374
 7069SOL    HW132669   0.653   4.307   3.914 -0.2964 -0.4764 -1.4267
 7069SOL    HW232670   0.583   4.335   4.033 -0.0499 -0.4028  0.4692
 7070SOL     OW32671   0.929   3.572  15.855 -0.2013 -0.0853  0.2615
 7070SOL    HW132672   0.857   3.512  15.870 -0.7391  0.2435 -1.0207
 7070SOL    HW232673   0.971   3.554  15.939 -1.7986 -0.2967  1.0196
 7071SOL     OW32674   1.721   3.329   3.838  0.8886  0.2411  0.0393
 7071SOL    HW132675   1.769   3.326   3.921  2.8494  0.0040 -1.0852
 7071SOL    HW232676   1.644   3.274   3.851  1.7066 -0.8871  0.1649
 7072SOL     OW32677   2.264   0.794   3.083  0.3223  0.0249  0.2785
 7072SOL    HW132678   2.342   0.786   3.028 -1.8221 -0.7559 -2.7166
 7072SOL    HW232679   2.260   0.888   3.097  1.6297 -0.0250  0.9623
 7073SOL     OW32680   1.972   3.188   8.486  0.2178 -0.3291  0.1634
 7073SOL    HW132681   1.968   3.104   8.531  0.8176  0.3333  1.4587
 7073SOL    HW232682   1.904   3.182   8.419  0.5190  0.5344 -0.2291
 7074SOL     OW32683   3.757   0.641   5.174  0.5714  0.0448  0.4645
 7074SOL    HW132684   3.816   0.568   5.188 -0.7362 -0.6071  2.6226
 7074SOL    HW232685   3.674   0.607   5.140  0.3432  1.7244 -0.7030
 7075SOL     OW32686   2.553   2.148   4.568  0.5602 -0.2148 -0.0735
 7075SOL    HW132687   2.593   2.151   4.655 -0.4422 -1.3901  0.4187
 7075SOL    HW232688   2.467   2.186   4.584  1.1298  1.7539 -1.6304
 7076SOL     OW32689   2.954   4.691  10.617  0.0827  0.6109 -0.0502
 7076SOL    HW132690   2.865   4.658  10.625  0.0859  0.4711 -0.5485
 7076SOL    HW232691   2.984   4.643  10.694 -0.7974 -1.1785 -0.8254
 7077SOL     OW32692   1.737   0.487   4.988 -0.5572  0.0916  0.0378
 7077SOL    HW132693   1.811   0.534   4.949 -1.1716 -0.2902 -1.5593
 7077SOL    HW232694   1.741   0.521   5.078  1.5892 -3.0575  1.1297
 7078SOL     OW32695   1.674   2.928   8.763 -0.1217  0.4979  0.1796
 7078SOL    HW132696   1.632   2.859   8.813  0.9792  1.0174  1.8208
 7078SOL    HW232697   1.748   2.951   8.819  1.5698 -1.1776 -1.3272
 7079SOL     OW32698   2.452   3.430   2.384 -0.6064  0.2398 -0.0554
 7079SOL    HW132699   2.446   3.512   2.335 -0.3314  0.0874 -0.3401
 7079SOL    HW232700   2.484   3.464   2.468  1.1184  2.7229 -1.7021
 7080SOL     OW32701   3.840   2.645   0.198 -0.1200  0.5025 -0.2579
 7080SOL    HW132702   3.836   2.731   0.156 -0.8585  0.6455  0.1065
 7080SOL    HW232703   3.807   2.587   0.130  0.6625  0.6564 -0.7766
 7081SOL     OW32704   0.675   4.073  10.422 -0.4612  0.3177  0.3088
 7081SOL    HW132705   0.661   4.094  10.514  1.1076  0.0447  0.6076
 7081SOL    HW232706   0.761   4.111  10.407 -0.5960  0.6613  0.4213
 7082SOL     OW32707   1.212   3.132   4.741 -0.3907 -0.2054 -0.1157
 7082SOL    HW132708   1.263   3.061   4.702 -0.5569 -0.9244  0.9834
 7082SOL    HW232709   1.210   3.199   4.673  2.9986  1.1924  1.1886
 7083SOL     OW32710   1.787   4.567   4.442 -0.5841  0.3980  0.9407
 7083SOL    HW132711   1.828   4.494   4.396  1.3851  1.4555  1.0138
 7083SOL    HW232712   1.717   4.587   4.380  1.1104  0.0824 -1.0535
 7084SOL     OW32713   0.894   4.127   8.758  0.0062  0.0474 -0.2310
 7084SOL    HW132714   0.849   4.100   8.678 -1.0121  0.7647  0.1072
 7084SOL    HW232715   0.829   4.182   8.800  1.0464  0.7886  0.4256
 7085SOL     OW32716   2.126   1.921   0.488 -0.2445  0.2835 -0.1374
 7085SOL    HW132717   2.127   1.987   0.419 -1.8794  0.9994  0.5417
 7085SOL    HW232718   2.084   1.845   0.447  0.5797 -0.3216  0.1448
 7086SOL     OW32719   3.760   2.036   5.683 -0.3811  0.4960  0.2783
 7086SOL    HW132720   3.788   2.049   5.774  0.0798 -0.1801  0.2337
 7086SOL    HW232721   3.665   2.030   5.697 -0.6208  0.0736 -1.5787
 7087SOL     OW32722   3.554   2.729   2.066  0.0108  0.0868  0.1041
 7087SOL    HW132723   3.640   2.764   2.041  0.4011 -0.6812  0.3834
 7087SOL    HW232724   3.495   2.791   2.022 -0.2202  1.6311  2.6376
 7088SOL     OW32725   1.906   2.654   5.279 -0.2305 -0.5595 -0.2899
 7088SOL    HW132726   1.953   2.695   5.351  0.8583 -0.8480 -0.8344
 7088SOL    HW232727   1.872   2.729   5.230  1.1817  1.0249  1.1753
 7089SOL     OW32728   3.232   3.704  13.355 -0.1209 -0.3710 -0.0878
 7089SOL    HW132729   3.151   3.662  13.326  0.6755 -0.0653 -2.7800
 7089SOL    HW232730   3.231   3.689  13.450  1.3417 -0.8129 -0.1355
 7090SOL     OW32731   4.556   2.187   5.086  0.8746  0.1623  0.0020
 7090SOL    HW132732   4.606   2.255   5.041 -1.2704  2.1242  0.5469
 7090SOL    HW232733   4.625   2.124   5.106  0.5236 -0.2007  0.0677
 7091SOL     OW32734   2.268   4.378  12.177 -0.5138 -0.2009  0.1495
 7091SOL    HW132735   2.289   4.447  12.239 -0.4902  0.6699 -0.8292
 7091SOL    HW232736   2.188   4.416  12.140  0.1399 -0.0418 -1.0943
 7092SOL     OW32737   1.600   2.484   5.082  0.0916  0.2734 -0.1854
 7092SOL    HW132738   1.689   2.499   5.051  0.7295 -0.9549  1.0553
 7092SOL    HW232739   1.553   2.561   5.050 -0.8056  0.0124  0.5182
 7093SOL     OW32740   1.831   2.396   8.789 -0.5220 -0.5932  0.0628
 7093SOL    HW132741   1.866   2.321   8.837 -1.3963 -0.1515  1.4237
 7093SOL    HW232742   1.736   2.391   8.801 -0.5997 -0.9797 -0.7373
 7094SOL     OW32743   1.417   1.343   1.550  0.3080 -0.3380 -0.1414
 7094SOL    HW132744   1.466   1.362   1.630  0.2878 -1.5617  0.1519
 7094SOL    HW232745   1.325   1.336   1.576  0.9879  0.5540  2.4838
 7095SOL     OW32746   1.888   1.810   6.151  0.0829  0.1315 -0.0331
 7095SOL    HW132747   1.818   1.774   6.206  0.7888 -0.0881  0.7287
 7095SOL    HW232748   1.894   1.895   6.196  2.8138  0.5828 -1.2696
 7096SOL     OW32749   2.590   0.531   3.300  0.2550 -0.1146 -0.0126
 7096SOL    HW132750   2.511   0.582   3.318  0.7437  0.4810  0.4779
 7096SOL    HW232751   2.628   0.552   3.386  0.6060  0.5571 -0.3355
 7097SOL     OW32752   0.787   3.465  10.332  0.3509  0.2265  0.3141
 7097SOL    HW132753   0.782   3.547  10.381 -2.6264  0.3734 -0.2288
 7097SOL    HW232754   0.765   3.506  10.248  0.7439 -0.5211 -0.1554
 7098SOL     OW32755   4.273   0.201   6.359  0.1250  0.0605  0.6694
 7098SOL    HW132756   4.276   0.150   6.277 -1.5363 -1.8653  1.8106
 7098SOL    HW232757   4.342   0.155   6.406 -0.6918 -0.8121  1.0245
 7099SOL     OW32758   3.940   3.151   6.674 -0.2097  0.2617 -0.0062
 7099SOL    HW132759   4.006   3.141   6.742 -0.1162 -1.6050 -0.3802
 7099SOL    HW232760   3.997   3.133   6.600  2.3541  0.5333  1.8976
 7100SOL     OW32761   2.344   1.085  13.673 -0.1684  0.2620  0.3526
 7100SOL    HW132762   2.346   1.039  13.757  0.8293 -0.7005 -0.2031
 7100SOL    HW232763   2.419   1.048  13.626  0.7066  0.3525  1.6976
 7101SOL     OW32764   4.259   3.407  14.119 -0.0355  0.2701  0.1479
 7101SOL    HW132765   4.322   3.473  14.146  0.2536 -0.4769  1.3445
 7101SOL    HW232766   4.321   3.334  14.114 -1.5909 -0.9015 -2.1479
 7102SOL     OW32767   3.289   4.301   7.177 -0.3353  0.0455 -0.2439
 7102SOL    HW132768   3.264   4.273   7.089 -0.4020  0.5851 -0.3962
 7102SOL    HW232769   3.242   4.384   7.184  0.2823  0.3664  0.0845
 7103SOL     OW32770   2.865   2.510  14.823 -0.0421  0.1049  0.1118
 7103SOL    HW132771   2.932   2.516  14.891  0.1377  1.2898 -0.1624
 7103SOL    HW232772   2.907   2.561  14.753 -1.8637 -1.9342 -2.4795
 7104SOL     OW32773   2.955   3.043   1.193 -0.3858 -0.2892 -0.0512
 7104SOL    HW132774   2.864   3.073   1.189 -0.6033 -0.7777  1.2837
 7104SOL    HW232775   2.995   3.115   1.144 -0.6679  0.7256  1.2279
 7105SOL     OW32776   3.571   1.602   2.383  0.8814  0.1410 -0.0917
 7105SOL    HW132777   3.662   1.626   2.402  0.1245  1.2102  2.0308
 7105SOL    HW232778   3.545   1.685   2.345  0.4507  0.2709  0.5040
 7106SOL     OW32779   4.660   3.879  14.632 -0.5615 -0.4547  0.0635
 7106SOL    HW132780   4.696   3.924  14.709 -0.0797  0.4276 -0.6829
 7106SOL    HW232781   0.006   3.899  14.571  1.8664 -0.5130  2.8512
 7107SOL     OW32782   3.401   4.342   4.779  0.5317 -0.6234  0.2062
 7107SOL    HW132783   3.461   4.313   4.847  0.7099  0.2612  0.4325
 7107SOL    HW232784   3.447   4.415   4.738  1.0038  0.0708  1.9877
 7108SOL     OW32785   4.495   0.530  12.224  0.3699 -0.0208 -0.0084
 7108SOL    HW132786   4.562   0.462  12.221  1.7823  1.2605  2.2503
 7108SOL    HW232787   4.509   0.576  12.142  1.3570  1.4381  0.9633
 7109SOL     OW32788   1.325   0.416  17.196  0.3233 -0.6386  0.3842
 7109SOL    HW132789   1.264   0.433  17.124  0.2210 -0.0199  0.6188
 7109SOL    HW232790   1.298   0.327  17.222 -0.1521 -1.1254 -1.7487
 7110SOL     OW32791   3.708   3.055   9.349  0.1645 -0.4071  0.1178
 7110SOL    HW132792   3.655   3.108   9.409  1.9196 -0.4716  1.7296
 7110SOL    HW232793   3.698   2.976   9.401 -1.4769 -0.3287 -0.0718
 7111SOL     OW32794   2.595   3.432   0.047  0.2883 -0.0148 -0.4889
 7111SOL    HW132795   2.671   3.387   0.084 -0.1492 -0.3009  0.0676
 7111SOL    HW232796   2.609   3.519   0.084 -0.3062 -0.0778 -0.1196
 7112SOL     OW32797   0.558   3.500   8.434 -0.3751 -0.0996 -0.1995
 7112SOL    HW132798   0.558   3.555   8.513 -1.4709 -2.2015  1.2701
 7112SOL    HW232799   0.558   3.413   8.475 -0.3522 -0.4843 -1.0249
 7113SOL     OW32800   4.543   0.734   4.763 -0.4381  0.4777  0.3368
 7113SOL    HW132801   4.539   0.674   4.837  0.1125 -0.3472 -0.3139
 7113SOL    HW232802   4.537   0.814   4.816 -0.1144  0.7748 -0.0731
 7114SOL     OW32803   2.945   0.855   3.016  0.5504 -0.2420 -0.4424
 7114SOL    HW132804   2.941   0.765   3.049  0.2741 -0.0747 -0.0266
 7114SOL    HW232805   3.001   0.852   2.939  0.9335  1.3168 -0.2379
 7115SOL     OW32806   2.622   0.310   7.560  0.2031 -0.3300  0.1180
 7115SOL    HW132807   2.651   0.223   7.534  0.1282 -0.1076 -0.6983
 7115SOL    HW232808   2.684   0.334   7.629  1.6646  0.4462 -1.4759
 7116SOL     OW32809   1.169   4.323   3.412  0.2789 -0.3520  0.2612
 7116SOL    HW132810   1.100   4.348   3.351  0.8486  0.2198 -0.1504
 7116SOL    HW232811   1.150   4.230   3.425  2.1972 -0.5508  1.6547
 7117SOL     OW32812   2.919   0.799  10.327  0.4534 -0.4512  0.1033
 7117SOL    HW132813   2.879   0.766  10.408  2.1523 -1.9045  0.3686
 7117SOL    HW232814   2.988   0.733  10.321  0.4484 -0.4883  0.4445
 7118SOL     OW32815   2.741   0.236   8.484 -0.5578  0.2494  0.3981
 7118SOL    HW132816   2.717   0.144   8.494  0.3155  0.0389  0.5996
 7118SOL    HW232817   2.789   0.250   8.566  3.5760  0.0331 -2.0055
 7119SOL     OW32818   0.175   1.193   2.797 -0.8529  0.5514  0.2507
 7119SOL    HW132819   0.173   1.130   2.724  0.5028  1.4347 -0.5593
 7119SOL    HW232820   0.142   1.133   2.863  0.3520  1.9146  2.0766
 7120SOL     OW32821   4.013   4.592  16.721 -0.3733 -0.2513 -0.0171
 7120SOL    HW132822   3.919   4.574  16.718 -0.6060  1.1147 -0.8142
 7120SOL    HW232823   4.022   4.668  16.663  2.0076  2.7791  4.2443
 7121SOL     OW32824   0.342   0.350  13.367  0.5089  0.0906 -0.1773
 7121SOL    HW132825   0.385   0.266  13.380 -1.2842 -1.1019 -1.9842
 7121SOL    HW232826   0.411   0.407  13.333 -0.4365  1.0995 -0.4183
 7122SOL     OW32827   2.457   0.548  12.280  0.5320 -0.0950 -0.3299
 7122SOL    HW132828   2.390   0.508  12.335  1.2156 -0.0818  0.4924
 7122SOL    HW232829   2.525   0.486  12.303 -0.9484 -2.0203 -1.1076
 7123SOL     OW32830   3.273   1.137   4.428 -0.0020  0.1360 -0.7418
 7123SOL    HW132831   3.218   1.204   4.468 -0.0785  0.1880 -0.9323
 7123SOL    HW232832   3.218   1.062   4.407 -0.0783 -0.4649  1.5963
 7124SOL     OW32833   3.591   4.631   3.788  0.7256  0.2285  0.0211
 7124SOL    HW132834   3.562   4.710   3.742 -0.5584 -0.8235 -0.9748
 7124SOL    HW232835   3.675   4.620   3.743 -0.0264 -1.0688 -1.0585
 7125SOL     OW32836   0.415   2.604   3.354  0.3510  0.1164  0.6870
 7125SOL    HW132837   0.418   2.509   3.366 -0.3446  0.1509  1.1603
 7125SOL    HW232838   0.329   2.626   3.391  0.2554 -0.5305  0.8593
 7126SOL     OW32839   1.600   4.600   5.874  0.0068 -0.1557  0.1039
 7126SOL    HW132840   1.646   4.540   5.933 -2.0464  0.6758  2.5610
 7126SOL    HW232841   1.669   4.611   5.809 -1.8980 -0.5764 -1.9841
 7127SOL     OW32842   0.397   4.467   6.709  0.5780  0.5871  0.3909
 7127SOL    HW132843   0.353   4.549   6.683 -0.5811  0.3107  1.4839
 7127SOL    HW232844   0.443   4.499   6.786 -1.0146  1.5125  0.9554
 7128SOL     OW32845   1.518   1.059   5.550  0.0440 -0.3771  0.0880
 7128SOL    HW132846   1.471   1.122   5.496  1.0358  0.6365  0.4043
 7128SOL    HW232847   1.475   0.974   5.545 -0.1777 -0.3426  1.4002
 7129SOL     OW32848   3.527   3.367   7.818 -0.3068  0.4786  0.1668
 7129SOL    HW132849   3.570   3.425   7.881  0.0933 -0.3627  0.6715
 7129SOL    HW232850   3.488   3.303   7.878  1.3505 -1.9811 -1.3628
 7130SOL     OW32851   1.146   4.632  10.530  0.0292 -0.0712 -0.2332
 7130SOL    HW132852   1.116   4.706  10.581 -2.0840 -1.1120  0.0386
 7130SOL    HW232853   1.155   4.556  10.588 -2.2990  0.9687  1.4676
 7131SOL     OW32854   3.263   0.841   0.329  0.4603  0.0930  0.3425
 7131SOL    HW132855   3.270   0.751   0.294 -0.3214 -0.9861  2.9891
 7131SOL    HW232856   3.328   0.817   0.395 -0.4143  0.4811  1.3470
 7132SOL     OW32857   2.661   2.180   4.839 -0.4901  0.2394  0.5016
 7132SOL    HW132858   2.606   2.190   4.917 -3.1904  0.5593 -1.4443
 7132SOL    HW232859   2.740   2.154   4.887 -1.0282  1.1292  1.8625
 7133SOL     OW32860   1.637   3.498  11.758 -0.4133 -0.7126 -0.1191
 7133SOL    HW132861   1.723   3.481  11.795 -0.4536 -0.9972 -0.1576
 7133SOL    HW232862   1.635   3.589  11.728 -0.0423 -0.3550  0.9558
 7134SOL     OW32863   0.068   4.144   2.113 -0.2847 -0.6058 -0.2584
 7134SOL    HW132864   0.051   4.145   2.207  0.5372 -1.8994 -0.1017
 7134SOL    HW232865   0.035   4.231   2.090  0.4971 -0.2345  0.0286
 7135SOL     OW32866   2.373   4.276   6.872  0.4097  0.1983 -0.0390
 7135SOL    HW132867   2.452   4.283   6.819  0.1448  1.0423 -0.3121
 7135SOL    HW232868   2.363   4.363   6.910  0.0062 -0.5212  1.4935
 7136SOL     OW32869   2.898   4.447  16.736  0.3689 -0.2628  0.4636
 7136SOL    HW132870   2.916   4.424  16.827 -0.5027 -1.4909  0.3233
 7136SOL    HW232871   2.979   4.492  16.714 -1.5477  1.7866 -2.5603
 7137SOL     OW32872   1.694   0.137   0.992 -0.0831 -0.7272  0.2423
 7137SOL    HW132873   1.734   0.157   0.907 -0.5578  1.3297  0.5057
 7137SOL    HW232874   1.772   0.136   1.048 -0.1488 -0.5938  0.3367
 7138SOL     OW32875   4.166   2.633   7.788  0.4323 -0.6181 -0.0201
 7138SOL    HW132876   4.129   2.545   7.791  2.2881 -1.3740  0.2585
 7138SOL    HW232877   4.101   2.676   7.732 -0.7195 -3.4066 -0.8333
 7139SOL     OW32878   0.254   2.911   5.373 -0.2044 -0.3012  0.4254
 7139SOL    HW132879   0.208   2.834   5.406 -0.4912 -0.1397  0.4017
 7139SOL    HW232880   0.334   2.901   5.425  0.0406 -0.2254  0.0653
 7140SOL     OW32881   2.132   1.285  11.946  0.0817 -0.7930  0.0442
 7140SOL    HW132882   2.084   1.260  11.867  0.9186  0.8784 -1.0091
 7140SOL    HW232883   2.089   1.220  12.002 -2.7850 -0.2215 -1.5604
 7141SOL     OW32884   1.629   1.137   2.134 -0.3659 -0.9101 -0.2925
 7141SOL    HW132885   1.597   1.120   2.046 -0.4431 -0.9505 -0.2562
 7141SOL    HW232886   1.553   1.128   2.191  0.3888 -1.3614  0.6427
 7142SOL     OW32887   3.470   0.721  13.938 -0.7905  0.2817 -0.2241
 7142SOL    HW132888   3.525   0.782  13.890 -0.2532 -0.3559 -0.4199
 7142SOL    HW232889   3.517   0.718  14.022  0.8096 -1.5859 -1.2031
 7143SOL     OW32890   1.976   3.971   6.220  0.6458  0.0025 -0.6754
 7143SOL    HW132891   1.999   4.050   6.173  0.5181 -0.9559 -2.3553
 7143SOL    HW232892   1.913   4.016   6.277  2.7669 -1.1307  2.5551
 7144SOL     OW32893   2.986   2.978  15.428  0.3488  0.2211 -0.4576
 7144SOL    HW132894   3.040   2.987  15.349 -1.2377  1.4846 -1.3952
 7144SOL    HW232895   2.959   2.886  15.419 -0.2938  0.3600  0.0353
 7145SOL     OW32896   2.783   2.652   2.085 -0.3042  0.2310 -0.3740
 7145SOL    HW132897   2.765   2.575   2.138  1.5340 -0.7336 -1.1481
 7145SOL    HW232898   2.769   2.609   2.000 -3.5703 -0.6263  0.6095
 7146SOL     OW32899   0.535   0.696   3.081  0.1300 -0.2854 -0.6261
 7146SOL    HW132900   0.473   0.703   3.009  0.0072  1.6221 -0.3122
 7146SOL    HW232901   0.615   0.661   3.042  0.4445 -0.9283  0.6028
 7147SOL     OW32902   0.743   0.885   5.823 -0.0058 -0.5308 -0.4731
 7147SOL    HW132903   0.820   0.908   5.771 -0.4616  1.3321 -0.3193
 7147SOL    HW232904   0.781   0.820   5.882 -0.7945 -2.4226 -2.0473
 7148SOL     OW32905   4.469   4.138   1.083  0.3480 -0.4885 -0.1008
 7148SOL    HW132906   4.394   4.080   1.082  0.0700 -0.1719  1.9750
 7148SOL    HW232907   4.503   4.121   1.171 -0.8226  1.4420  0.7432
 7149SOL     OW32908   4.500   2.815   4.597  0.1087 -0.1782  0.3700
 7149SOL    HW132909   4.565   2.856   4.653  0.1392  0.7431 -0.3362
 7149SOL    HW232910   4.555   2.747   4.558  0.5984  0.8449 -0.7472
 7150SOL     OW32911   3.705   1.867  12.241 -0.6273  0.6970 -0.5190
 7150SOL    HW132912   3.759   1.791  12.265 -2.2198 -0.7507 -1.5948
 7150SOL    HW232913   3.688   1.854  12.148 -0.0305  3.2126 -0.9655
 7151SOL     OW32914   2.274   1.890   5.360  0.0343  0.5086 -0.2275
 7151SOL    HW132915   2.267   1.950   5.434 -0.3304  1.3672 -0.9596
 7151SOL    HW232916   2.367   1.898   5.337  0.1642  1.3309  0.5732
 7152SOL     OW32917   4.622   1.173   6.727 -0.1029 -0.2861 -0.2177
 7152SOL    HW132918   4.557   1.121   6.679  0.0229  1.2482 -2.0070
 7152SOL    HW232919   4.606   1.138   6.815  1.0169 -1.6109 -0.5506
 7153SOL     OW32920   1.436   4.105   4.020 -0.5069  0.2277 -0.5314
 7153SOL    HW132921   1.457   4.094   3.927 -1.7261 -1.7186 -0.5879
 7153SOL    HW232922   1.510   4.061   4.062 -1.3052 -1.9155 -1.3836
 7154SOL     OW32923   2.743   0.641  17.094  0.5037  0.1989  0.7871
 7154SOL    HW132924   2.699   0.606  17.170  0.9452  0.0640  0.9813
 7154SOL    HW232925   2.667   0.674  17.045 -0.2302  0.7287  2.2971
 7155SOL     OW32926   2.686   3.523   1.251 -0.0867  0.4258  0.0206
 7155SOL    HW132927   2.713   3.587   1.317  2.5346 -2.3577  1.6292
 7155SOL    HW232928   2.594   3.522   1.277 -0.2679  1.6041 -0.5934
 7156SOL     OW32929   1.857   2.004   5.207 -0.3753  0.3760  0.5545
 7156SOL    HW132930   1.811   2.034   5.285 -2.2397  1.6025 -1.0088
 7156SOL    HW232931   1.792   1.948   5.167  0.4743 -0.1119 -0.1504
 7157SOL     OW32932   0.162   4.605   2.029  0.1788 -0.3430 -0.4242
 7157SOL    HW132933   0.097   4.674   2.016 -0.7507 -1.0273  0.5858
 7157SOL    HW232934   0.114   4.548   2.089 -1.9955  1.0271 -0.8854
 7158SOL     OW32935   2.427   0.290   4.075 -0.0754 -0.0281 -0.1532
 7158SOL    HW132936   2.340   0.312   4.043 -0.0467  0.9518  0.4305
 7158SOL    HW232937   2.453   0.381   4.088  0.0109  0.0698 -0.9912
 7159SOL     OW32938   2.919   4.713   0.284  0.7982  0.2075  0.2982
 7159SOL    HW132939   2.900   4.619   0.285  2.6933 -0.1789  1.1724
 7159SOL    HW232940   3.015   4.713   0.288  0.8279 -3.6086 -0.4467
 7160SOL     OW32941   0.172   4.340   2.685  0.3334 -0.4131  0.1390
 7160SOL    HW132942   0.265   4.343   2.707  0.6748  1.4957 -1.5595
 7160SOL    HW232943   0.179   4.386   2.602 -1.4292 -1.0459 -0.3742
 7161SOL     OW32944   4.181   2.602   6.371  0.1936 -0.0341 -0.1668
 7161SOL    HW132945   4.202   2.676   6.427 -0.4711 -0.4776  0.6541
 7161SOL    HW232946   4.243   2.617   6.299  1.2426  4.1518  1.6224
 7162SOL     OW32947   3.413   2.430  11.655 -0.3926 -0.2334 -0.1871
 7162SOL    HW132948   3.393   2.354  11.710  1.2498  0.8373  1.8665
 7162SOL    HW232949   3.360   2.421  11.576 -1.2293 -1.4680  0.5121
 7163SOL     OW32950   2.659   1.002   4.649 -0.2892 -0.1751  0.0410
 7163SOL    HW132951   2.636   0.911   4.629 -0.0555 -0.0697 -0.6982
 7163SOL    HW232952   2.640   1.007   4.743  1.1746  1.4254  0.2452
 7164SOL     OW32953   2.276   3.117   8.942 -0.1109  0.2060 -0.0067
 7164SOL    HW132954   2.311   3.196   8.984  0.5296  0.5302 -1.1210
 7164SOL    HW232955   2.356   3.091   8.896 -0.2274  1.7375 -1.0746
 7165SOL     OW32956   2.232   0.472   5.507  0.9405  0.3132 -0.3359
 7165SOL    HW132957   2.201   0.549   5.459 -1.0151 -1.7930 -2.3686
 7165SOL    HW232958   2.172   0.467   5.582 -0.0064  1.6232 -1.0027
 7166SOL     OW32959   0.792   4.610   0.719 -0.1910  0.1809  0.2266
 7166SOL    HW132960   0.855   4.539   0.715  0.1879  0.5366 -0.1783
 7166SOL    HW232961   0.751   4.606   0.633  0.5572  1.2356 -0.1863
 7167SOL     OW32962   3.491   4.503   7.654  0.1871 -0.4510 -0.2596
 7167SOL    HW132963   3.509   4.519   7.747  0.7946 -1.8596 -0.1454
 7167SOL    HW232964   3.455   4.415   7.649  2.4261 -1.3223 -0.8757
 7168SOL     OW32965   3.362   0.870  17.670 -0.4690 -0.1755  0.2545
 7168SOL    HW132966   3.372   0.948  17.615 -0.3576 -0.0451  0.4623
 7168SOL    HW232967   3.333   0.922   0.043  0.7720 -0.8604  1.2099
 7169SOL     OW32968   2.284   0.957   7.739  0.1434 -0.0014  0.0888
 7169SOL    HW132969   2.208   0.941   7.683 -0.3822  3.1726 -0.1352
 7169SOL    HW232970   2.247   0.947   7.826  0.2705  0.4105  0.1906
 7170SOL     OW32971   2.931   3.345  14.337 -0.3588  0.2340 -0.3098
 7170SOL    HW132972   2.842   3.324  14.311 -0.3993 -1.5010  1.1906
 7170SOL    HW232973   2.936   3.408  14.266  0.9633  1.7292  1.1056
 7171SOL     OW32974   3.185   4.439   6.727 -0.0803  0.0580 -0.3339
 7171SOL    HW132975   3.155   4.490   6.802 -1.4913  1.0744 -1.5952
 7171SOL    HW232976   3.203   4.355   6.770 -0.6327  0.4605  0.6937
 7172SOL     OW32977   1.863   4.703  12.155  0.1255 -0.3603 -0.6397
 7172SOL    HW132978   1.817   0.040  12.097  0.6891  1.5881  0.9985
 7172SOL    HW232979   1.790   4.648  12.181 -0.4267  0.3524 -0.6648
 7173SOL     OW32980   3.446   2.492   9.475  0.2901  1.1449 -0.3300
 7173SOL    HW132981   3.361   2.451   9.491  0.3357  2.1319  2.3847
 7173SOL    HW232982   3.488   2.414   9.440  1.2934  0.6195  2.0808
 7174SOL     OW32983   4.160   3.513   1.408 -0.2158  0.0075 -0.2924
 7174SOL    HW132984   4.086   3.573   1.405 -0.4463 -0.2644 -0.0390
 7174SOL    HW232985   4.239   3.568   1.413  0.5247 -1.2640  2.0330
 7175SOL     OW32986   0.948   2.961   6.492 -0.0137  0.3601  0.1917
 7175SOL    HW132987   0.990   3.029   6.547 -0.4136  0.0417  0.8947
 7175SOL    HW232988   0.952   3.006   6.408  1.4188 -0.9038 -0.3907
 7176SOL     OW32989   2.366   2.892   7.334 -0.4659 -0.0199  0.6089
 7176SOL    HW132990   2.385   2.799   7.324  1.3199  0.2883  1.1817
 7176SOL    HW232991   2.295   2.914   7.274  0.0710 -0.6947 -0.2872
 7177SOL     OW32992   1.921   2.183  11.649 -0.0838  0.1973  0.2750
 7177SOL    HW132993   1.835   2.161  11.685 -0.5527  1.3942 -0.1194
 7177SOL    HW232994   1.969   2.101  11.662 -1.4535 -0.7952 -0.9439
 7178SOL     OW32995   3.629   4.359  11.472 -0.2183 -0.0951 -0.1747
 7178SOL    HW132996   3.644   4.337  11.564  2.1346 -0.8342 -0.7404
 7178SOL    HW232997   3.546   4.316  11.451 -1.8615  2.4465  1.0789
 7179SOL     OW32998   2.177   1.691   7.671  0.1042  0.6606 -0.8451
 7179SOL    HW132999   2.269   1.676   7.692 -0.1119  3.8020  2.2699
 7179SOL    HW233000   2.155   1.623   7.607 -0.1151 -1.5598  1.6113
 7180SOL     OW33001   2.250   0.362   3.581  0.0747  0.4608 -0.0117
 7180SOL    HW133002   2.170   0.403   3.549 -0.8093 -0.8704  0.4817
 7180SOL    HW233003   2.264   0.384   3.673 -3.2269  1.4266  0.2477
 7181SOL     OW33004   2.058   2.300   2.191 -0.0462  0.1325 -0.0602
 7181SOL    HW133005   1.991   2.330   2.253 -2.0808  1.9720 -3.1370
 7181SOL    HW233006   2.099   2.381   2.162  0.1736 -0.9149 -2.6371
 7182SOL     OW33007   4.346   0.576   7.443 -0.1323  0.5255 -0.3599
 7182SOL    HW133008   4.280   0.610   7.504 -0.2451  0.9774 -0.7432
 7182SOL    HW233009   4.287   0.540   7.377  0.6739  0.3412 -0.9781
 7183SOL     OW33010   1.809   4.172  14.528 -0.9110  0.6999  0.1889
 7183SOL    HW133011   1.784   4.201  14.441  1.6990  1.3277 -0.3527
 7183SOL    HW233012   1.846   4.086  14.509  3.3874  2.1059  2.1808
 7184SOL     OW33013   3.917   0.288   8.133 -0.4832  0.5960 -0.8618
 7184SOL    HW133014   3.849   0.282   8.066  1.1383 -1.9010 -2.2753
 7184SOL    HW233015   3.959   0.368   8.103 -0.8653  0.2070 -2.4249
 7185SOL     OW33016   0.506   2.294  12.052  0.2700 -0.3359 -0.4937
 7185SOL    HW133017   0.571   2.308  12.120  0.4365  0.1109 -0.7419
 7185SOL    HW233018   0.478   2.385  12.041  0.8080 -0.0145  0.8242
 7186SOL     OW33019   1.363   3.056  13.004 -0.4268  0.4481 -1.2805
 7186SOL    HW133020   1.412   3.137  13.006 -0.2817  0.3081  0.4592
 7186SOL    HW233021   1.366   3.031  13.096  1.5560  2.5516 -0.8149
 7187SOL     OW33022   3.894   3.353  17.230 -0.5747 -0.0919 -0.0940
 7187SOL    HW133023   3.854   3.437  17.253  2.6837  2.1767 -2.6101
 7187SOL    HW233024   3.902   3.362  17.135 -0.1501  0.5564  0.0009
 7188SOL     OW33025   3.136   0.780   0.683  0.1560 -0.0646 -0.4540
 7188SOL    HW133026   3.126   0.846   0.615 -1.4258 -0.5087 -0.6422
 7188SOL    HW233027   3.180   0.710   0.635  2.3600 -1.2169  3.2490
 7189SOL     OW33028   2.241   2.726   8.237 -0.1945  0.2397  0.3343
 7189SOL    HW133029   2.333   2.738   8.260 -0.0969 -1.1289  0.6452
 7189SOL    HW233030   2.240   2.736   8.142  2.1407  0.1953  0.2975
 7190SOL     OW33031   3.469   0.738   7.618  0.0271  0.2516  0.0349
 7190SOL    HW133032   3.411   0.666   7.642  1.1238 -0.5405  0.3268
 7190SOL    HW233033   3.447   0.801   7.687  1.0237 -0.3665  0.9148
 7191SOL     OW33034   2.592   4.390   1.263 -0.2308 -0.5497  0.2694
 7191SOL    HW133035   2.685   4.412   1.261 -0.1667 -1.0043 -2.5608
 7191SOL    HW233036   2.568   4.431   1.180  1.7325 -0.2740 -0.1674
 7192SOL     OW33037   1.948   0.562   7.934  0.1918  0.0147 -0.2715
 7192SOL    HW133038   1.986   0.636   7.981 -2.4101 -1.3694  3.9862
 7192SOL    HW233039   1.895   0.605   7.867  1.2873 -0.5633 -1.5235
 7193SOL     OW33040   2.641   4.514  16.815  0.1696 -0.4003  0.1975
 7193SOL    HW133041   2.716   4.495  16.759 -1.9322 -0.9206 -2.4775
 7193SOL    HW233042   2.575   4.463  16.768 -0.3671  1.1529 -0.7480
 7194SOL     OW33043   2.879   4.315   4.552  0.3870 -0.0400 -0.2434
 7194SOL    HW133044   2.967   4.353   4.546  0.7788 -0.9662 -0.4075
 7194SOL    HW233045   2.851   4.348   4.466 -0.7424  0.3385  0.2714
 7195SOL     OW33046   4.419   1.878  11.958  0.4543  0.0708  0.0439
 7195SOL    HW133047   4.488   1.925  12.006 -0.8125  1.5994  0.3707
 7195SOL    HW233048   4.434   1.879  11.863 -1.5827 -1.7301 -0.2898
 7196SOL     OW33049   3.007   1.234   2.634 -0.5484 -0.2312 -0.1361
 7196SOL    HW133050   3.070   1.164   2.617  1.2214  0.2237  4.4903
 7196SOL    HW233051   3.000   1.282   2.551 -2.1369  1.6537  1.0805
 7197SOL     OW33052   3.044   3.085   0.481  0.1762  0.3333  0.3485
 7197SOL    HW133053   2.965   3.084   0.427  0.0287  0.1367  0.5685
 7197SOL    HW233054   3.078   3.175   0.478  0.1664  0.2298 -3.2677
 7198SOL     OW33055   2.871   1.354   6.102 -0.3695 -0.7498 -0.4099
 7198SOL    HW133056   2.925   1.284   6.138  0.3338  0.3563  0.7202
 7198SOL    HW233057   2.795   1.301   6.081  0.7508 -2.3481 -0.4282
 7199SOL     OW33058   0.764   2.540   1.726 -0.1480  0.5216 -0.0322
 7199SOL    HW133059   0.770   2.582   1.811  1.6432  2.9843 -1.3786
 7199SOL    HW233060   0.773   2.611   1.663 -1.2791  1.4952  0.9393
 7200SOL     OW33061   4.177   4.529   8.693  0.4264  0.2985  0.1336
 7200SOL    HW133062   4.186   4.499   8.783 -2.7211  0.3843  0.4709
 7200SOL    HW233063   4.226   4.454   8.661 -1.3066  0.4973 -2.9446
 7201SOL     OW33064   1.444   1.120  16.691 -0.0140  0.2236 -0.3211
 7201SOL    HW133065   1.370   1.173  16.662 -0.1859 -0.5747 -1.3101
 7201SOL    HW233066   1.391   1.047  16.723  1.1120 -0.1140  0.7880
 7202SOL     OW33067   1.534   4.724   7.305 -0.4935 -0.0847  0.0537
 7202SOL    HW133068   1.551   4.630   7.305  0.9384  0.1703 -0.2129
 7202SOL    HW233069   1.441   4.718   7.327 -0.3992  2.4176  1.2518
 7203SOL     OW33070   0.743   0.784   5.449 -0.3932  0.2785  0.3262
 7203SOL    HW133071   0.676   0.727   5.486 -0.6927  2.5911  3.3472
 7203SOL    HW233072   0.704   0.814   5.367 -0.2175  1.1736  0.5676
 7204SOL     OW33073   0.615   3.109   9.445  0.1375 -0.3076 -0.1051
 7204SOL    HW133074   0.628   3.120   9.539 -1.9227  1.8094 -0.0808
 7204SOL    HW233075   0.643   3.017   9.439  0.9542 -0.0053 -0.7603
 7205SOL     OW33076   1.088   2.025  17.208 -0.2358 -0.2494  0.1258
 7205SOL    HW133077   1.041   1.994  17.285  0.4569 -0.5535  0.4250
 7205SOL    HW233078   1.157   2.076  17.252  0.6261 -0.1947 -1.2687
 7206SOL     OW33079   2.437   4.580   9.715  0.2571  0.3103 -0.0710
 7206SOL    HW133080   2.390   4.579   9.798  1.5198 -0.2557  0.6502
 7206SOL    HW233081   2.473   4.491   9.709 -1.0625 -0.1983 -0.4644
 7207SOL     OW33082   1.477   1.346   1.267  0.5765 -0.4672 -0.4115
 7207SOL    HW133083   1.447   1.415   1.326  0.3076 -0.3276 -0.7120
 7207SOL    HW233084   1.438   1.266   1.301 -2.8571  0.2558 -2.6326
 7208SOL     OW33085   3.396   1.221   1.915  0.3657 -0.2271 -0.1425
 7208SOL    HW133086   3.320   1.274   1.937 -0.5544 -1.8227  0.4862
 7208SOL    HW233087   3.346   1.141   1.899  0.8586 -0.2315 -1.6725
 7209SOL     OW33088   0.125   3.576   1.539 -0.2026 -0.0771 -0.0640
 7209SOL    HW133089   0.084   3.588   1.625  0.9602  1.4934  0.2814
 7209SOL    HW233090   0.158   3.487   1.546  0.2167 -0.1753 -3.3105
 7210SOL     OW33091   3.408   2.600  15.235 -0.1186  0.0748 -0.2306
 7210SOL    HW133092   3.322   2.593  15.193  1.4471 -2.9371 -2.9309
 7210SOL    HW233093   3.402   2.659  15.310 -0.3076 -2.2198  1.5260
 7211SOL     OW33094   3.857   0.013   6.829 -0.7487  0.2509 -0.3021
 7211SOL    HW133095   3.908   4.719   6.750 -0.9039 -1.3131 -0.0262
 7211SOL    HW233096   3.850   4.647   6.858  1.9778  0.2445  0.3351
 7212SOL     OW33097   3.345   2.775   1.394 -0.3481  0.5846 -0.1249
 7212SOL    HW133098   3.255   2.746   1.406  0.5524 -1.7714  0.7909
 7212SOL    HW233099   3.336   2.789   1.299 -1.8390 -0.2036 -0.0967
 7213SOL     OW33100   0.228   0.720   7.759  0.4064  0.3420 -0.6921
 7213SOL    HW133101   0.218   0.722   7.663 -2.5660 -0.3611 -0.3869
 7213SOL    HW233102   0.280   0.800   7.768 -0.0071  0.5906 -0.5455
 7214SOL     OW33103   0.575   1.078   5.932 -0.0230 -0.4898 -0.3896
 7214SOL    HW133104   0.605   1.119   5.851 -0.4568 -0.1945 -0.4007
 7214SOL    HW233105   0.618   0.993   5.927  1.1319  0.1840 -2.0432
 7215SOL     OW33106   4.416   1.194  13.902  0.0717 -0.4301  0.4359
 7215SOL    HW133107   4.375   1.125  13.850  0.8203  0.4686 -1.3479
 7215SOL    HW233108   4.385   1.166  13.989 -3.2969 -0.8602 -0.8890
 7216SOL     OW33109   2.857   4.384   4.297 -0.2900  1.0084  0.5847
 7216SOL    HW133110   2.944   4.410   4.267  0.4357 -1.4953  0.5078
 7216SOL    HW233111   2.826   4.314   4.240  0.2044 -1.0898  2.8423
 7217SOL     OW33112   2.506   2.722  12.303 -0.0041  0.7372  0.4638
 7217SOL    HW133113   2.501   2.651  12.239  1.4494  2.9726 -2.1255
 7217SOL    HW233114   2.430   2.698  12.355 -0.3793  1.2394  0.1543
 7218SOL     OW33115   0.442   0.694   8.884 -0.2044 -0.4168 -0.5286
 7218SOL    HW133116   0.385   0.758   8.926  1.3198 -0.8373  2.2395
 7218SOL    HW233117   0.454   0.637   8.960 -1.6046  0.5243  0.3912
 7219SOL     OW33118   2.462   1.618   8.672  0.4680  0.4436  0.2379
 7219SOL    HW133119   2.536   1.654   8.623  1.4794 -0.3769  1.1894
 7219SOL    HW233120   2.454   1.526   8.649  1.7557  0.6433 -1.0447
 7220SOL     OW33121   3.348   4.207  13.809  0.0788 -0.2594 -0.2721
 7220SOL    HW133122   3.268   4.240  13.768 -0.4355  0.2317  1.1378
 7220SOL    HW233123   3.381   4.293  13.836 -1.4427 -1.2541  4.6669
 7221SOL     OW33124   1.987   2.970   5.492 -0.0032  0.1215  0.3006
 7221SOL    HW133125   1.951   3.046   5.446  0.0526  0.2999  0.5515
 7221SOL    HW233126   2.023   3.015   5.569  0.5327  2.7437 -1.4803
 7222SOL     OW33127   1.611   1.145  14.201  0.1915  0.0119 -0.6764
 7222SOL    HW133128   1.539   1.101  14.247  0.0438 -0.2706 -1.1758
 7222SOL    HW233129   1.556   1.216  14.170  0.8467 -0.0489 -1.9626
 7223SOL     OW33130   0.867   3.651   5.937  0.3967  0.2220  0.2576
 7223SOL    HW133131   0.948   3.632   5.890 -1.5413 -2.3488 -2.0052
 7223SOL    HW233132   0.866   3.575   5.996  0.3214 -2.2049 -2.8945
 7224SOL     OW33133   4.620   3.814   1.715 -0.3435 -0.0304 -0.2903
 7224SOL    HW133134   4.634   3.735   1.767  0.2313  0.2744  0.0093
 7224SOL    HW233135   4.617   3.886   1.778 -2.0673  0.4711 -0.9520
 7225SOL     OW33136   3.701   0.975   6.867 -0.5320 -0.3486 -0.8589
 7225SOL    HW133137   3.692   1.003   6.958  2.3731 -2.8859  0.2088
 7225SOL    HW233138   3.725   1.065   6.845 -0.7479 -0.0089  0.3110
 7226SOL     OW33139   3.138   3.302   8.096 -0.4282 -0.1267 -0.0508
 7226SOL    HW133140   3.190   3.382   8.101 -0.1563 -0.3466  0.7172
 7226SOL    HW233141   3.197   3.231   8.074 -1.5296 -0.8940 -0.5005
 7227SOL     OW33142   1.350   4.379  10.557 -0.0250  0.0301 -0.0012
 7227SOL    HW133143   1.297   4.381  10.637 -1.6405 -0.6456 -1.0278
 7227SOL    HW233144   1.401   4.300  10.574  0.2831  0.1999 -0.1428
 7228SOL     OW33145   4.128   0.414  16.652 -0.1941 -0.1969 -0.2556
 7228SOL    HW133146   4.160   0.360  16.724 -1.9592 -2.5237 -1.1695
 7228SOL    HW233147   4.041   0.373  16.645  0.4510 -1.9538  1.9842
 7229SOL     OW33148   1.721   2.571  10.650  0.2598 -0.2343  0.2897
 7229SOL    HW133149   1.718   2.555  10.744  1.2947  0.2203  0.4047
 7229SOL    HW233150   1.629   2.593  10.635  0.6322  0.1330 -1.4095
 7230SOL     OW33151   1.673   4.395   6.096  0.1526 -0.6024  0.1393
 7230SOL    HW133152   1.681   4.416   6.189  0.2610 -1.7526  0.3889
 7230SOL    HW233153   1.578   4.401   6.096  0.0584 -1.9578  2.2725
 7231SOL     OW33154   0.061   4.186   2.417 -0.4492  0.4747  0.3922
 7231SOL    HW133155   0.002   4.255   2.447 -1.1464  0.0578 -0.0431
 7231SOL    HW233156   0.146   4.210   2.454 -1.4927  1.3786  2.2189
 7232SOL     OW33157   2.828   3.879   7.723 -0.0351  0.5583 -0.3660
 7232SOL    HW133158   2.829   3.787   7.697 -0.1096  1.0601 -2.1349
 7232SOL    HW233159   2.905   3.909   7.676 -0.2788 -1.1565 -1.8596
 7233SOL     OW33160   3.396   1.809   6.043 -0.4020  0.3776 -0.2613
 7233SOL    HW133161   3.439   1.841   6.123 -0.2410  1.3060 -0.7180
 7233SOL    HW233162   3.381   1.892   5.998  1.6009 -0.6529 -2.8283
 7234SOL     OW33163   1.862   2.770   5.927  0.2293 -0.0264 -0.1646
 7234SOL    HW133164   1.820   2.687   5.951 -2.1423  0.6849 -1.9033
 7234SOL    HW233165   1.847   2.767   5.833 -0.5633 -1.3013 -0.0030
 7235SOL     OW33166   3.351   2.677  16.850 -0.2991  0.5093  0.0172
 7235SOL    HW133167   3.327   2.613  16.917  0.5142 -0.4980 -0.6580
 7235SOL    HW233168   3.447   2.681  16.858 -0.3643 -1.1618  1.6614
 7236SOL     OW33169   4.588   3.832   8.251 -0.6743  0.1998 -0.5730
 7236SOL    HW133170   4.537   3.913   8.250 -0.4129  0.3726  0.2907
 7236SOL    HW233171   4.662   3.854   8.195 -0.9666  0.5489 -0.8251
 7237SOL     OW33172   3.787   1.195  10.540  0.3203 -0.4330  0.0941
 7237SOL    HW133173   3.817   1.118  10.588  0.7404 -1.4026 -1.7302
 7237SOL    HW233174   3.820   1.269  10.591  2.0819 -0.8945 -0.3806
 7238SOL     OW33175   2.921   1.358   7.883  0.3353  0.3708 -0.4913
 7238SOL    HW133176   2.868   1.420   7.832 -0.8235 -0.6674 -0.5474
 7238SOL    HW233177   2.905   1.274   7.840 -0.5295 -0.0113  0.5854
 7239SOL     OW33178   4.308   2.329   0.570  0.7582  0.5342 -0.1964
 7239SOL    HW133179   4.232   2.305   0.622  1.4116  0.4019  0.6886
 7239SOL    HW233180   4.379   2.294   0.624 -0.6600 -1.5430  0.3038
 7240SOL     OW33181   3.269   4.229   0.511  0.0971  0.2068  0.1913
 7240SOL    HW133182   3.298   4.138   0.501 -0.1255  0.0979  0.5403
 7240SOL    HW233183   3.258   4.223   0.605  0.5877 -1.7612  0.1268
 7241SOL     OW33184   1.502   1.938  15.880  0.3445  0.3666  0.0321
 7241SOL    HW133185   1.496   2.025  15.841  0.9679  0.6205  0.4885
 7241SOL    HW233186   1.491   1.946  15.975  0.1887  0.4729  0.0048
 7242SOL     OW33187   0.372   0.095   2.977  0.2837  0.3309  0.3454
 7242SOL    HW133188   0.330   0.119   2.894 -0.7631 -1.0584  0.4740
 7242SOL    HW233189   0.396   0.174   3.026 -1.8579  1.0333  0.2545
 7243SOL     OW33190   3.269   2.843   6.953  0.1661 -0.0737  0.0169
 7243SOL    HW133191   3.281   2.919   7.011  0.0170 -0.8883  1.1192
 7243SOL    HW233192   3.183   2.869   6.919  0.8460 -1.5959 -2.7986
 7244SOL     OW33193   1.475   1.511   7.828 -0.2668 -0.1699  0.2589
 7244SOL    HW133194   1.477   1.464   7.745  1.5392 -2.4523  1.5957
 7244SOL    HW233195   1.559   1.556   7.814 -0.5008  0.6562  1.5907
 7245SOL     OW33196   4.534   0.123   5.539 -0.2034  0.5271  0.2791
 7245SOL    HW133197   4.554   0.054   5.603  2.0786 -0.4523 -1.5124
 7245SOL    HW233198   4.623   0.135   5.507 -0.6567  1.4491 -0.6077
 7246SOL     OW33199   4.617   2.375   2.666  0.1277 -0.0753  0.1499
 7246SOL    HW133200   4.578   2.367   2.579  0.9065  2.6034 -0.4574
 7246SOL    HW233201   4.653   2.287   2.675  1.8442  0.8419  2.1838
 7247SOL     OW33202   3.994   2.062   7.830 -0.1858 -0.1045 -0.0246
 7247SOL    HW133203   3.971   2.030   7.743  0.1641  0.2338 -0.2382
 7247SOL    HW233204   4.021   2.152   7.815  1.3986 -0.9882 -2.4923
 7248SOL     OW33205   2.848   4.425  15.378 -0.1657  0.2153  0.2614
 7248SOL    HW133206   2.867   4.515  15.404  1.8336  0.2841 -1.4553
 7248SOL    HW233207   2.934   4.385  15.373 -0.2247  0.1519 -0.2235
 7249SOL     OW33208   0.856   4.576   4.979 -0.2625 -0.0267  0.0754
 7249SOL    HW133209   0.882   4.632   4.906 -0.0475 -0.6821 -0.3511
 7249SOL    HW233210   0.946   4.550   4.999 -0.4463  0.0350  0.9884
 7250SOL     OW33211   1.524   1.225  11.939 -0.1402 -0.0873 -0.2545
 7250SOL    HW133212   1.545   1.188  12.025  0.3346  0.7204 -0.0303
 7250SOL    HW233213   1.428   1.225  11.935 -0.1540 -1.6642 -0.1626
 7251SOL     OW33214   0.433   3.594   3.460 -0.1570 -0.6272  0.1334
 7251SOL    HW133215   0.342   3.620   3.453 -0.4621 -2.2939 -2.0727
 7251SOL    HW233216   0.419   3.503   3.487 -3.3938 -0.7646 -2.0559
 7252SOL     OW33217   2.348   2.236  15.283 -0.2905 -0.7849  0.0475
 7252SOL    HW133218   2.310   2.315  15.243  3.8798  1.1010 -0.1860
 7252SOL    HW233219   2.286   2.191  15.340 -0.3096  0.5850  1.1019
 7253SOL     OW33220   0.252   2.939   1.905 -0.6040  0.5324  0.3276
 7253SOL    HW133221   0.255   3.019   1.957  3.8083 -0.4680  1.6123
 7253SOL    HW233222   0.269   2.870   1.969 -1.2601  1.2985  1.3224
 7254SOL     OW33223   1.888   3.390   1.105  0.4457  0.6206  0.2332
 7254SOL    HW133224   1.794   3.374   1.115  0.5600  0.0777  0.4330
 7254SOL    HW233225   1.888   3.485   1.120  1.4221  0.5952  0.3812
 7255SOL     OW33226   0.461   3.768   4.156 -0.5040  0.4123 -0.1978
 7255SOL    HW133227   0.375   3.800   4.131 -0.3561  0.9066 -0.0915
 7255SOL    HW233228   0.502   3.724   4.082  0.7474 -0.0461  0.7506
 7256SOL     OW33229   4.567   4.463   8.782  0.0583 -0.1679  0.2185
 7256SOL    HW133230   4.526   4.545   8.755  2.6353  0.9583 -0.2272
 7256SOL    HW233231   4.597   4.430   8.698 -0.9623  1.4314 -0.7546
 7257SOL     OW33232   2.317   0.157   1.692  0.2421 -0.2204 -0.2322
 7257SOL    HW133233   2.342   0.193   1.777 -0.3384 -0.6928  0.1384
 7257SOL    HW233234   2.303   0.066   1.719 -1.3110  0.5331  1.4702
 7258SOL     OW33235   3.766   2.629   8.395  0.0715  0.0962  0.1863
 7258SOL    HW133236   3.682   2.671   8.415 -0.7557 -1.5496  0.1623
 7258SOL    HW233237   3.826   2.696   8.427 -0.1503  0.3412  0.0940
 7259SOL     OW33238   0.489   3.885   0.417  0.2854  0.1381 -0.1264
 7259SOL    HW133239   0.463   3.795   0.436 -1.4521  0.5500 -0.6176
 7259SOL    HW233240   0.444   3.933   0.485  0.1810  0.9866 -0.7999
 7260SOL     OW33241   2.900   3.727  15.138  0.4235 -0.7846  0.3174
 7260SOL    HW133242   2.862   3.744  15.052  2.0727  1.9588  0.1419
 7260SOL    HW233243   2.891   3.808  15.188 -1.3211 -0.3999 -0.6313
 7261SOL     OW33244   3.968   3.085  11.131 -0.0335  0.2903  0.3135
 7261SOL    HW133245   3.902   3.122  11.189 -2.6521 -0.4167 -2.2603
 7261SOL    HW233246   3.974   3.156  11.068  0.4387  1.0849  1.2451
 7262SOL     OW33247   3.021   1.770   8.882 -0.7339  0.2871 -0.0392
 7262SOL    HW133248   2.976   1.708   8.825  0.8482  0.1059 -1.1148
 7262SOL    HW233249   2.955   1.839   8.894 -0.0815  0.9246 -0.0977
 7263SOL     OW33250   0.156   1.390   2.979  0.1045  0.3897 -0.4869
 7263SOL    HW133251   0.150   1.338   2.899  1.5699  0.3641 -0.5932
 7263SOL    HW233252   0.082   1.450   2.967 -1.1889 -0.6232  2.4934
 7264SOL     OW33253   0.740   2.480   2.811 -0.2128 -0.4533 -0.5546
 7264SOL    HW133254   0.711   2.396   2.776  0.2844 -0.3215 -1.2907
 7264SOL    HW233255   0.824   2.454   2.849  0.5553  0.9217 -1.3093
 7265SOL     OW33256   2.619   0.859  10.056 -0.2904  0.1009 -0.2283
 7265SOL    HW133257   2.614   0.765  10.040  0.3480 -0.0060  0.2144
 7265SOL    HW233258   2.713   0.870  10.070 -0.3218 -0.1446  0.1739
 7266SOL     OW33259   3.697   1.746  11.651  0.9012  0.8407 -0.2920
 7266SOL    HW133260   3.621   1.803  11.657  0.7566  0.6258 -0.0658
 7266SOL    HW233261   3.674   1.703  11.569  0.3902  2.2064 -0.8545
 7267SOL     OW33262   2.749   1.565   2.843 -0.4023  0.8304  0.4165
 7267SOL    HW133263   2.802   1.488   2.865 -1.1755 -0.0066 -0.6534
 7267SOL    HW233264   2.803   1.596   2.771 -1.8138  0.2354 -0.8916
 7268SOL     OW33265   3.583   0.798   5.880  0.1366  0.2213  0.2074
 7268SOL    HW133266   3.528   0.825   5.953 -0.5873  2.1839 -1.0657
 7268SOL    HW233267   3.656   0.859   5.887 -0.2273  0.9005 -1.7800
 7269SOL     OW33268   2.717   1.489   7.267 -0.2845 -0.6137 -0.0449
 7269SOL    HW133269   2.710   1.506   7.173  1.8554 -3.1638 -0.6643
 7269SOL    HW233270   2.771   1.411   7.260  2.5777  1.2743  0.8153
 7270SOL     OW33271   4.546   1.190   8.039  0.0844  0.2250  0.4688
 7270SOL    HW133272   4.629   1.216   7.999  0.0657  2.4472  1.8977
 7270SOL    HW233273   4.566   1.194   8.133 -0.9992 -0.8263  0.7474
 7271SOL     OW33274   0.932   1.736   6.193 -0.2722  0.4545 -0.1107
 7271SOL    HW133275   0.877   1.709   6.266 -0.3701  0.6259 -0.1217
 7271SOL    HW233276   1.017   1.733   6.237  0.1321 -0.4635 -0.9616
 7272SOL     OW33277   1.049   0.810   7.178  0.2289  0.3810 -0.3804
 7272SOL    HW133278   1.048   0.785   7.086 -2.0091 -1.3968  0.1118
 7272SOL    HW233279   1.104   0.888   7.172  1.2813 -0.4771 -1.6228
 7273SOL     OW33280   4.060   4.056   1.784  0.2812 -0.3230 -0.0413
 7273SOL    HW133281   4.049   4.083   1.693 -1.5091  0.7014  0.4684
 7273SOL    HW233282   4.071   3.961   1.780  1.6391 -0.2081  0.9056
 7274SOL     OW33283   4.141   3.109   0.810 -0.4413 -0.1500  0.4163
 7274SOL    HW133284   4.202   3.132   0.740 -2.1859  0.8487 -0.8031
 7274SOL    HW233285   4.168   3.017   0.808 -2.1974 -0.6440 -0.4669
 7275SOL     OW33286   3.491   1.384  12.669 -0.1178  0.1815 -0.3026
 7275SOL    HW133287   3.562   1.320  12.673  1.0755  1.2657 -4.1360
 7275SOL    HW233288   3.427   1.332  12.719 -1.3098  1.8071 -0.1457
 7276SOL     OW33289   3.318   2.135  12.429  0.3232 -0.0670  0.1610
 7276SOL    HW133290   3.307   2.040  12.439 -2.8710  0.3326  0.5114
 7276SOL    HW233291   3.381   2.141  12.357  1.6748 -0.7419  1.3040
 7277SOL     OW33292   0.621   4.520   2.207  0.0023 -0.5416  0.0720
 7277SOL    HW133293   0.621   4.610   2.240  1.6586  0.1586 -1.7997
 7277SOL    HW233294   0.535   4.478   2.213 -0.3553  0.1646 -0.1262
 7278SOL     OW33295   0.820   1.626  13.883  0.5021 -0.0286  0.3878
 7278SOL    HW133296   0.914   1.612  13.899  0.3274 -2.7818 -1.0936
 7278SOL    HW233297   0.802   1.719  13.900 -0.4313 -0.1671  0.1311
 7279SOL     OW33298   2.675   1.747  12.721  0.0640  0.2812 -0.3336
 7279SOL    HW133299   2.706   1.681  12.658  2.3309  0.3837  0.6645
 7279SOL    HW233300   2.704   1.818  12.664 -0.1618  1.2505  0.7745
 7280SOL     OW33301   0.724   1.041   3.994 -0.0023 -0.1697  0.5282
 7280SOL    HW133302   0.784   1.087   3.936 -2.3768 -0.8140 -2.4213
 7280SOL    HW233303   0.761   0.953   3.994 -0.7034 -0.4432 -1.4850
 7281SOL     OW33304   2.955   4.160  16.960 -0.1857 -0.0456 -0.1393
 7281SOL    HW133305   2.960   4.255  16.970 -3.2005  0.0375  0.4449
 7281SOL    HW233306   3.044   4.125  16.948  0.3797  0.8706  1.4152
 7282SOL     OW33307   0.132   2.141  14.597 -0.8025 -0.0235  0.3808
 7282SOL    HW133308   0.162   2.174  14.682 -0.6318 -0.8881  0.6583
 7282SOL    HW233309   0.048   2.097  14.609 -2.1420  2.2277 -0.8911
 7283SOL     OW33310   3.205   0.417   6.315  0.0461 -0.4951 -0.0954
 7283SOL    HW133311   3.200   0.400   6.409 -0.4232  1.0642  0.1657
 7283SOL    HW233312   3.221   0.327   6.289  1.0750 -0.3988  0.2013
 7284SOL     OW33313   3.756   0.825   8.829 -0.2502 -0.2763  0.2032
 7284SOL    HW133314   3.808   0.903   8.812  1.5525 -2.1029 -2.6549
 7284SOL    HW233315   3.792   0.794   8.912  2.0014 -0.4860 -0.8588
 7285SOL     OW33316   0.542   2.069  13.740 -0.1737  0.3797  0.2201
 7285SOL    HW133317   0.633   2.095  13.731 -0.4464  1.1297 -0.3916
 7285SOL    HW233318   0.536   2.029  13.653 -1.5484  0.1667  0.4002
 7286SOL     OW33319   1.967   1.415   8.381 -0.0127  0.1382  0.1891
 7286SOL    HW133320   2.037   1.473   8.410 -0.1428  0.4236 -0.0604
 7286SOL    HW233321   1.972   1.438   8.288  0.6332 -0.6414  0.0291
 7287SOL     OW33322   2.604   1.713   5.019 -0.0422 -0.3075  0.0700
 7287SOL    HW133323   2.517   1.753   5.026 -0.3888 -0.3503 -3.6670
 7287SOL    HW233324   2.656   1.763   5.082 -0.3938 -0.3847  0.4180
 7288SOL     OW33325   0.119   2.400   4.111 -0.1184 -0.2453  0.6969
 7288SOL    HW133326   0.064   2.369   4.039 -0.1156  0.4091  0.4174
 7288SOL    HW233327   0.164   2.318   4.131  0.2056 -0.3160 -0.3525
 7289SOL     OW33328   2.486   2.717   8.360 -0.3646  0.6267  0.3085
 7289SOL    HW133329   2.435   2.722   8.440 -1.4823  1.7758 -0.4667
 7289SOL    HW233330   2.548   2.789   8.366 -2.5911  2.5423  0.1443
 7290SOL     OW33331   2.496   3.685  10.509 -0.1157 -1.0108  0.1503
 7290SOL    HW133332   2.535   3.729  10.584 -1.4062 -2.3846  1.6267
 7290SOL    HW233333   2.463   3.762  10.464  1.5175  0.6137  1.7595
 7291SOL     OW33334   3.297   2.273   6.391 -0.1567 -0.5704  0.0018
 7291SOL    HW133335   3.279   2.337   6.322  1.1442  1.2353  1.3476
 7291SOL    HW233336   3.364   2.310   6.448  0.7108  3.0586 -3.3633
 7292SOL     OW33337   1.396   1.110   2.268  0.1881 -0.1788  0.2210
 7292SOL    HW133338   1.341   1.032   2.255  0.2647 -0.3769  1.0449
 7292SOL    HW233339   1.337   1.155   2.329 -0.8065 -2.1677  0.7357
 7293SOL     OW33340   0.384   3.965   6.329 -0.4185 -0.2201 -0.1589
 7293SOL    HW133341   0.434   4.007   6.259  0.2109  0.2462  0.5717
 7293SOL    HW233342   0.304   3.956   6.277 -1.1236 -0.1600  0.9160
 7294SOL     OW33343   4.458   2.239   0.900  0.0661  0.1676  0.1545
 7294SOL    HW133344   4.451   2.328   0.866  1.4887 -0.0073 -0.6220
 7294SOL    HW233345   4.453   2.190   0.818  2.1939 -0.3374  0.3141
 7295SOL     OW33346   3.197   3.328   9.377  0.3934  0.1707 -0.0464
 7295SOL    HW133347   3.273   3.297   9.329 -0.9354 -0.3065 -1.8104
 7295SOL    HW233348   3.154   3.384   9.313  0.5718 -0.8158 -1.0196
 7296SOL     OW33349   2.400   4.709   1.955  0.2986  0.6349  0.0869
 7296SOL    HW133350   2.487   4.688   1.990 -0.4755 -2.0409  0.3906
 7296SOL    HW233351   2.362   0.024   2.034  1.2105  2.6824 -0.4985
 7297SOL     OW33352   1.731   1.191   6.255 -0.0588  0.1291  0.7717
 7297SOL    HW133353   1.720   1.197   6.160  0.2640 -0.7911  0.6851
 7297SOL    HW233354   1.826   1.189   6.265  0.1703  1.8097 -1.0088
 7298SOL     OW33355   4.441   1.003   2.814 -0.0291  0.7462  0.3595
 7298SOL    HW133356   4.491   0.930   2.778  0.8724  1.8321 -0.6409
 7298SOL    HW233357   4.385   1.027   2.740  0.4344  1.8087  0.3404
 7299SOL     OW33358   3.751   2.323  17.345  0.0431 -0.2289  0.1607
 7299SOL    HW133359   3.685   2.388  17.373  0.0039  1.2302 -3.2628
 7299SOL    HW233360   3.797   2.312  17.428 -0.2575  0.2631  0.3946
 7300SOL     OW33361   1.947   0.719  17.373 -0.1981 -0.3897  0.1244
 7300SOL    HW133362   1.866   0.744  17.417 -1.7360 -1.8541 -1.8880
 7300SOL    HW233363   1.923   0.657  17.304  2.4545 -0.6204 -0.6006
 7301SOL     OW33364   0.713   2.958   0.495 -0.5766 -0.0449 -0.1401
 7301SOL    HW133365   0.699   3.038   0.547 -2.6362 -0.4480 -0.1101
 7301SOL    HW233366   0.694   2.991   0.408  1.4942 -0.5841 -0.8073
 7302SOL     OW33367   2.044   4.466  14.203  0.0335 -0.2179  0.3223
 7302SOL    HW133368   1.999   4.532  14.151 -2.9553 -2.3557  0.1755
 7302SOL    HW233369   2.103   4.424  14.140  0.5381  0.8429  0.0841
 7303SOL     OW33370   1.200   4.183   6.648 -0.1022 -0.3673 -0.1559
 7303SOL    HW133371   1.204   4.088   6.659  0.4399 -0.0650  2.2250
 7303SOL    HW233372   1.188   4.227   6.732 -1.1372  0.0786 -0.5379
 7304SOL     OW33373   3.644   3.568   1.969 -0.1440  0.0119  0.5174
 7304SOL    HW133374   3.563   3.519   1.956  0.4419 -0.8228 -0.0196
 7304SOL    HW233375   3.625   3.656   2.003 -0.8183  0.9651 -2.3661
 7305SOL     OW33376   4.214   1.465  16.769 -0.2160 -0.1059  0.7329
 7305SOL    HW133377   4.273   1.390  16.769  0.3006  0.3023  0.4609
 7305SOL    HW233378   4.226   1.526  16.842  2.7205 -0.4501  0.5082
 7306SOL     OW33379   0.329   0.692   2.159 -0.1212  0.1311 -0.6613
 7306SOL    HW133380   0.315   0.727   2.071  0.7990 -1.9888 -1.6442
 7306SOL    HW233381   0.265   0.741   2.211 -0.6155 -0.7996 -0.3961
 7307SOL     OW33382   2.072   4.631   2.718  0.0592  0.2693 -0.3786
 7307SOL    HW133383   1.999   4.627   2.657 -1.0985  1.8902  0.8985
 7307SOL    HW233384   2.068   4.719   2.757  0.4221 -0.2452  0.8041
 7308SOL     OW33385   3.604   2.803   4.243  0.3145  0.7045 -0.1597
 7308SOL    HW133386   3.622   2.810   4.149 -0.8773  0.2303 -0.4186
 7308SOL    HW233387   3.689   2.811   4.286 -1.6972  0.9470  3.7601
 7309SOL     OW33388   1.773   3.531   2.209  0.0910 -0.2352 -0.0809
 7309SOL    HW133389   1.742   3.441   2.221 -2.4500  0.6387  0.0459
 7309SOL    HW233390   1.709   3.571   2.150  0.7547  0.9020 -0.0384
 7310SOL     OW33391   0.025   0.608  14.276  0.2403  0.2222 -0.1730
 7310SOL    HW133392   0.104   0.593  14.327 -1.1771  1.2606  2.3048
 7310SOL    HW233393   0.069   0.603  14.191 -3.3200 -1.6384 -1.9254
 7311SOL     OW33394   3.014   3.019   6.931 -0.7700  0.0958 -0.3126
 7311SOL    HW133395   2.957   2.962   6.984 -1.5330 -0.2629 -1.5201
 7311SOL    HW233396   2.945   3.083   6.915 -0.5971  0.2205 -0.5503
 7312SOL     OW33397   3.455   4.563  16.127  0.0533 -0.0031 -0.3374
 7312SOL    HW133398   3.399   4.498  16.084 -1.5108  0.7867  0.4957
 7312SOL    HW233399   3.541   4.525  16.110  1.8748  3.0106  2.1051
 7313SOL     OW33400   4.163   1.365   6.060 -0.1595 -0.2844 -0.2556
 7313SOL    HW133401   4.071   1.341   6.073 -0.0371 -0.9476 -0.6342
 7313SOL    HW233402   4.146   1.442   6.006 -0.7539 -1.4770 -1.7537
 7314SOL     OW33403   3.048   2.786   9.190  0.0168 -0.3309 -0.2388
 7314SOL    HW133404   3.124   2.755   9.141 -0.8474  0.6243 -2.1715
 7314SOL    HW233405   3.076   2.763   9.279 -1.4275  1.8058  0.7777
 7315SOL     OW33406   0.517   0.831   4.458 -0.0318  0.7826 -0.5959
 7315SOL    HW133407   0.534   0.821   4.364  1.3505  0.2161 -0.2820
 7315SOL    HW233408   0.426   0.861   4.461  0.2047  1.3952  0.6910
 7316SOL     OW33409   4.240   3.883  11.750 -0.5559 -0.1406 -0.2243
 7316SOL    HW133410   4.273   3.813  11.694  1.5943  1.6093 -1.0894
 7316SOL    HW233411   4.290   3.856  11.827  1.1936  1.8575 -0.6898
 7317SOL     OW33412   4.060   1.333   5.678 -0.0830  0.2058  0.2443
 7317SOL    HW133413   4.034   1.253   5.724  3.1054 -1.1674 -0.3327
 7317SOL    HW233414   4.155   1.340   5.684 -0.3346  1.1071  2.9973
 7318SOL     OW33415   1.873   2.089   3.534 -0.6155  0.3273 -0.1084
 7318SOL    HW133416   1.781   2.116   3.532 -0.5538  0.8233  4.5412
 7318SOL    HW233417   1.882   2.044   3.618  2.9328  2.8946  0.8735
 7319SOL     OW33418   1.961   3.312  15.219  0.4547 -0.2847  0.0272
 7319SOL    HW133419   2.045   3.279  15.252  0.7555 -0.4130 -0.8691
 7319SOL    HW233420   1.980   3.406  15.218 -0.1620 -0.1459  0.9299
 7320SOL     OW33421   3.393   1.258   7.744 -0.0638  0.1357  0.1040
 7320SOL    HW133422   3.375   1.303   7.826 -1.5265  0.7458 -0.5565
 7320SOL    HW233423   3.333   1.302   7.684  0.3887 -1.0724 -1.2168
 7321SOL     OW33424   4.260   2.254  16.654 -0.1836 -0.2700 -0.0187
 7321SOL    HW133425   4.231   2.214  16.736  0.3727 -0.1359  0.2418
 7321SOL    HW233426   4.173   2.256  16.614 -0.3847 -0.8728  0.3732
 7322SOL     OW33427   2.196   2.711   3.149 -0.4614  0.5185  0.1499
 7322SOL    HW133428   2.120   2.683   3.097 -0.7899  1.0996  0.3083
 7322SOL    HW233429   2.253   2.757   3.087  0.0032  0.1787  0.3272
 7323SOL     OW33430   4.139   4.009  13.627  0.3966 -0.2526 -0.1313
 7323SOL    HW133431   4.170   3.997  13.717  0.3823  1.5543  0.1106
 7323SOL    HW233432   4.219   4.029  13.578  0.8591 -0.9205  0.3552
 7324SOL     OW33433   1.776   1.646   3.326  0.5746  0.7103 -0.1186
 7324SOL    HW133434   1.832   1.589   3.274  0.4994  2.1164 -1.7511
 7324SOL    HW233435   1.704   1.663   3.265 -0.3015 -1.7932  0.2106
 7325SOL     OW33436   2.177   4.641  14.497 -0.5282 -0.3619 -0.9343
 7325SOL    HW133437   2.140   4.626  14.410  0.1374 -1.3238 -1.0536
 7325SOL    HW233438   2.258   4.680  14.464  0.8457 -0.9518  1.7151
 7326SOL     OW33439   0.731   0.811   2.719  1.0128 -0.4217 -0.3333
 7326SOL    HW133440   0.681   0.729   2.714 -1.5527  1.2848 -2.5731
 7326SOL    HW233441   0.797   0.776   2.780 -1.0315 -0.4794  1.8320
 7327SOL     OW33442   3.060   0.227   7.118  0.5066 -0.5228  0.0648
 7327SOL    HW133443   3.138   0.199   7.070  0.0181 -1.3467 -0.2412
 7327SOL    HW233444   3.113   0.244   7.196  0.0600 -2.5374  0.7898
 7328SOL     OW33445   0.841   1.479  16.529 -0.2111 -0.0241 -0.2671
 7328SOL    HW133446   0.867   1.555  16.478 -0.1413  1.0578  1.3904
 7328SOL    HW233447   0.896   1.485  16.607 -0.5082 -2.7665  0.1641
 7329SOL     OW33448   4.181   2.216   9.497 -0.1938 -0.0796 -0.8467
 7329SOL    HW133449   4.181   2.303   9.458  0.6099  0.1941 -0.2477
 7329SOL    HW233450   4.215   2.241   9.583 -0.7196  0.3330 -0.7603
 7330SOL     OW33451   2.617   2.481   6.151  0.1464 -0.1458  0.1667
 7330SOL    HW133452   2.544   2.472   6.089  1.4115 -1.6281 -1.1178
 7330SOL    HW233453   2.648   2.569   6.132 -1.5289  0.5478  0.6897
 7331SOL     OW33454   4.447   3.965   1.577  0.1003 -0.4559  0.1816
 7331SOL    HW133455   4.518   3.919   1.623 -0.4140 -1.3094  0.1142
 7331SOL    HW233456   4.396   3.890   1.547  0.6973 -0.6893 -0.2682
 7332SOL     OW33457   2.193   2.048   4.394 -0.1873 -0.0326 -0.0512
 7332SOL    HW133458   2.230   1.961   4.410 -0.5302  0.1401  1.6527
 7332SOL    HW233459   2.120   2.044   4.455 -0.6003 -1.5087 -0.6522
 7333SOL     OW33460   4.281   2.475   9.389 -0.1014 -0.4516  0.2774
 7333SOL    HW133461   4.267   2.481   9.483  2.0224 -0.3342  0.5660
 7333SOL    HW233462   4.356   2.534   9.386  0.6541 -1.5084 -1.5803
 7334SOL     OW33463   4.625   4.034   7.961 -0.1816  0.4518  0.0318
 7334SOL    HW133464   4.679   4.014   8.038 -0.2859 -0.2891 -0.0897
 7334SOL    HW233465   4.665   3.983   7.891  0.2612 -1.9066  2.0043
 7335SOL     OW33466   1.798   4.213   8.861  0.1786 -0.1331 -0.0324
 7335SOL    HW133467   1.711   4.183   8.833  0.3394  0.8609 -1.5755
 7335SOL    HW233468   1.773   4.219   8.953 -3.0172  0.8768 -0.9461
 7336SOL     OW33469   1.622   4.208   0.207 -0.0406  0.8352  0.4000
 7336SOL    HW133470   1.540   4.235   0.166 -0.1028  0.1377  0.0772
 7336SOL    HW233471   1.667   4.159   0.138  0.9204 -1.0843  2.4070
 7337SOL     OW33472   0.988   4.089   5.815  0.3267  0.4454 -0.2008
 7337SOL    HW133473   0.936   4.129   5.745 -0.4012 -2.7575 -1.5092
 7337SOL    HW233474   0.949   4.132   5.891  0.3053 -1.3650  0.8011
 7338SOL     OW33475   0.821   1.848   9.028 -0.3561  0.1460  0.3899
 7338SOL    HW133476   0.849   1.889   9.109  1.7575  0.5928 -0.5581
 7338SOL    HW233477   0.906   1.846   8.983 -0.6680  1.0564 -0.2316
 7339SOL     OW33478   1.303   2.699   2.586 -0.3652  0.4078 -0.2305
 7339SOL    HW133479   1.365   2.637   2.549 -0.1751  0.9126 -0.7666
 7339SOL    HW233480   1.292   2.763   2.515 -1.0965  2.5900  1.8563
 7340SOL     OW33481   2.875   0.033   7.145  0.0770  0.4302 -0.1860
 7340SOL    HW133482   2.938   0.105   7.141 -0.4483  0.9789  1.1300
 7340SOL    HW233483   2.795   0.082   7.166  0.0055 -0.0256  0.5924
 7341SOL     OW33484   1.236   0.563  10.652  0.6336  0.2639  0.0051
 7341SOL    HW133485   1.202   0.651  10.667 -0.7859 -0.3418  0.3795
 7341SOL    HW233486   1.326   0.593  10.639  0.8138 -0.1376  0.3126
 7342SOL     OW33487   2.747   4.573   9.150  0.0479  0.4389  0.2051
 7342SOL    HW133488   2.756   4.485   9.186  1.4514  0.5897  0.2391
 7342SOL    HW233489   2.837   4.605   9.163  0.1953  0.4083 -0.7651
 7343SOL     OW33490   1.758   2.166   8.556  0.2354  0.0501  0.4316
 7343SOL    HW133491   1.696   2.184   8.626  0.2871 -0.5354  0.6270
 7343SOL    HW233492   1.769   2.071   8.567  2.8109  0.5619  2.5187
 7344SOL     OW33493   3.103   1.220   6.222  0.3258 -0.3457  0.4139
 7344SOL    HW133494   3.143   1.294   6.268  1.4201 -0.1392 -0.8861
 7344SOL    HW233495   3.094   1.158   6.295 -0.8242  0.6708  1.1307
 7345SOL     OW33496   2.562   2.321   8.395 -0.1619  0.0424  0.7238
 7345SOL    HW133497   2.571   2.372   8.314 -0.0378  0.5092  1.0331
 7345SOL    HW233498   2.472   2.289   8.390  0.8450 -2.4557 -1.2637
 7346SOL     OW33499   1.094   1.853  12.478 -0.4978  0.1596 -0.3466
 7346SOL    HW133500   1.113   1.906  12.401  0.5691 -0.3281 -0.4135
 7346SOL    HW233501   1.021   1.902  12.517  1.3459  2.0700  0.6580
 7347SOL     OW33502   1.830   4.579   5.348  0.5219  0.4990  0.1325
 7347SOL    HW133503   1.856   4.564   5.257 -1.2898 -0.8812 -0.1612
 7347SOL    HW233504   1.783   4.662   5.353  0.0065  0.1051  1.7215
 7348SOL     OW33505   2.617   2.748  17.102 -0.3541  0.2923 -0.3463
 7348SOL    HW133506   2.645   2.757  17.012 -1.1848 -2.4903 -0.8945
 7348SOL    HW233507   2.701   2.772  17.142  0.0202 -0.8963 -0.4169
 7349SOL     OW33508   3.733   2.028   2.469  0.1631  0.1283 -0.4992
 7349SOL    HW133509   3.822   2.020   2.435  0.7152  1.8988  0.5750
 7349SOL    HW233510   3.710   2.118   2.446  3.1791  0.9635 -0.2626
 7350SOL     OW33511   1.262   1.564   7.981 -0.4171 -0.0811  0.2429
 7350SOL    HW133512   1.278   1.508   8.057  2.0904  1.4836  0.8491
 7350SOL    HW233513   1.337   1.550   7.923 -0.6742  0.7018 -0.2692
 7351SOL     OW33514   3.906   3.874   1.971 -0.2472  0.4716 -0.7246
 7351SOL    HW133515   3.890   3.820   1.893  2.5389 -0.3458 -0.7427
 7351SOL    HW233516   3.830   3.932   1.967  0.6255  1.7162  0.9574
 7352SOL     OW33517   0.778   0.286  10.146  0.0640 -0.3231  0.2059
 7352SOL    HW133518   0.736   0.206  10.114  0.7801 -1.3570  1.8479
 7352SOL    HW233519   0.816   0.249  10.226  1.3858  2.7883  1.0305
 7353SOL     OW33520   1.508   0.685  17.561  0.2901  0.6676 -0.3095
 7353SOL    HW133521   1.558   0.733  17.494 -0.1894  0.7660 -0.6015
 7353SOL    HW233522   1.437   0.651  17.505 -1.2489  1.4593  1.1593
 7354SOL     OW33523   3.311   1.358  17.362  0.1456 -0.1608  0.3471
 7354SOL    HW133524   3.377   1.427  17.372  3.4122 -3.4938  1.6627
 7354SOL    HW233525   3.274   1.376  17.275  0.7204 -1.2093 -0.1122
 7355SOL     OW33526   2.668   4.600   7.781  0.5945  0.0899 -0.3908
 7355SOL    HW133527   2.590   4.634   7.736  0.3098  0.5360  0.4459
 7355SOL    HW233528   2.727   4.593   7.706 -0.3197 -2.7346 -0.8564
 7356SOL     OW33529   4.718   2.836   3.742  0.0014  0.0012 -0.4188
 7356SOL    HW133530   4.624   2.854   3.740  0.2391  1.2629  0.0244
 7356SOL    HW233531   0.013   2.791   3.660  0.2262 -2.5153  0.9925
 7357SOL     OW33532   2.202   2.863   4.356 -0.2160 -0.2730 -0.4128
 7357SOL    HW133533   2.237   2.812   4.429  0.4360  0.4257 -0.2282
 7357SOL    HW233534   2.108   2.853   4.369  0.1784 -2.3915  0.6999
 7358SOL     OW33535   1.658   3.506   0.812  0.0386  0.7719  0.8750
 7358SOL    HW133536   1.694   3.436   0.866 -0.2983 -1.0735 -1.2839
 7358SOL    HW233537   1.728   3.571   0.816  0.0295  0.9547 -1.6404
 7359SOL     OW33538   4.632   3.993   4.090  0.2411  0.2027  0.7507
 7359SOL    HW133539   4.613   3.919   4.032  1.8838 -0.2015  0.7300
 7359SOL    HW233540   4.629   3.952   4.176 -0.1141 -2.9377 -0.7536
 7360SOL     OW33541   0.666   4.673   9.143  0.4079 -0.3824  0.2810
 7360SOL    HW133542   0.608   0.004   9.193 -1.3115 -2.3092  0.4549
 7360SOL    HW233543   0.752   4.708   9.169  0.2912 -0.1977  0.4172
 7361SOL     OW33544   1.502   1.591   0.487 -0.5924  0.0505  0.0719
 7361SOL    HW133545   1.568   1.659   0.497  0.0796 -0.5452 -0.3797
 7361SOL    HW233546   1.478   1.588   0.394 -1.3887  1.2342  0.2325
 7362SOL     OW33547   0.371   3.060   1.098  0.2686 -0.2844  0.1573
 7362SOL    HW133548   0.353   2.967   1.086 -1.7834 -0.0798  1.8140
 7362SOL    HW233549   0.355   3.097   1.011 -2.0411 -2.4509 -0.3309
 7363SOL     OW33550   1.115   3.020   8.464 -0.7284 -0.0799 -0.0811
 7363SOL    HW133551   1.068   2.985   8.540 -0.3033 -0.3974  0.0394
 7363SOL    HW233552   1.188   3.044   8.522  0.1858  0.9460 -1.6902
 7364SOL     OW33553   3.934   3.871   3.004 -0.6255 -0.5869 -0.0090
 7364SOL    HW133554   3.899   3.873   2.915 -1.6961  1.0264  0.4693
 7364SOL    HW233555   3.882   3.800   3.042  2.4006 -2.8904 -0.1084
 7365SOL     OW33556   0.134   0.090   2.479 -0.2963  0.0231 -0.4395
 7365SOL    HW133557   0.201   0.090   2.411 -1.6468 -0.5760 -1.7764
 7365SOL    HW233558   0.093   0.176   2.466  0.2165  0.7227  2.7241
 7366SOL     OW33559   3.799   2.665   9.370  0.2403 -0.5986  0.5756
 7366SOL    HW133560   3.864   2.652   9.439  0.4126 -0.1378  0.5005
 7366SOL    HW233561   3.731   2.724   9.403 -0.3151 -0.2826 -1.1152
 7367SOL     OW33562   0.082   0.506   4.871 -0.0628  0.6797 -0.3570
 7367SOL    HW133563   0.096   0.421   4.913 -1.0253  0.0198 -1.3445
 7367SOL    HW233564   0.010   0.549   4.916  0.9037  0.6207  1.2211
 7368SOL     OW33565   0.644   4.301   3.293  0.0379  0.3332 -0.4540
 7368SOL    HW133566   0.560   4.335   3.264  1.5378  2.1986 -2.5966
 7368SOL    HW233567   0.632   4.207   3.278 -1.0688  0.6544 -1.4713
 7369SOL     OW33568   2.670   0.583  14.677  0.0283  0.0473  0.6589
 7369SOL    HW133569   2.665   0.581  14.773  2.6747  2.0963  0.8469
 7369SOL    HW233570   2.739   0.517  14.668 -0.0277  0.1822 -0.6547
 7370SOL     OW33571   1.957   2.817   4.889 -0.2081  0.1930  0.7269
 7370SOL    HW133572   1.924   2.906   4.878  0.9006  0.4740 -0.3834
 7370SOL    HW233573   2.034   2.829   4.945 -0.4119  1.1548  0.7939
 7371SOL     OW33574   1.306   3.412   8.696  0.3380 -0.1789 -0.1663
 7371SOL    HW133575   1.269   3.471   8.631 -0.2256 -0.2280  0.1136
 7371SOL    HW233576   1.230   3.368   8.734  1.3908 -1.9354 -0.0972
 7372SOL     OW33577   0.257   2.153   4.120 -0.2493 -0.2349 -0.4751
 7372SOL    HW133578   0.333   2.199   4.083 -0.1624 -0.4130 -0.5189
 7372SOL    HW233579   0.251   2.074   4.066 -0.3540  0.8308 -2.0244
 7373SOL     OW33580   4.628   0.755   9.412  0.1551 -0.0391 -0.1614
 7373SOL    HW133581   4.684   0.730   9.338  0.0867 -0.6754  0.0054
 7373SOL    HW233582   4.608   0.844   9.382 -1.1330  0.4611  2.1891
 7374SOL     OW33583   0.319   1.415  13.543 -0.2692 -0.5926  0.4451
 7374SOL    HW133584   0.340   1.328  13.508  0.2976  0.5113 -1.9283
 7374SOL    HW233585   0.225   1.411  13.529  0.1814 -1.3250 -2.3904
 7375SOL     OW33586   3.365   1.560   8.489 -0.5836 -0.1620  0.0671
 7375SOL    HW133587   3.438   1.609   8.451  0.0715  0.3147  1.9273
 7375SOL    HW233588   3.405   1.478   8.518 -0.3620 -0.8841 -2.3479
 7376SOL     OW33589   2.679   0.598   6.237 -0.2496 -1.0059  0.3790
 7376SOL    HW133590   2.720   0.527   6.286  0.5862 -0.0393  1.0745
 7376SOL    HW233591   2.732   0.678   6.234 -0.7027 -0.7890 -1.7931
 7377SOL     OW33592   4.290   2.133   3.128  0.4872 -0.0219  0.7501
 7377SOL    HW133593   4.282   2.177   3.043  1.0099  0.5417  0.9889
 7377SOL    HW233594   4.242   2.054   3.102 -1.4472  1.2651  0.4122
 7378SOL     OW33595   2.340   1.295   2.984 -0.3669  0.4116  0.2576
 7378SOL    HW133596   2.355   1.372   2.930  0.0665  1.8921  2.4694
 7378SOL    HW233597   2.300   1.240   2.917  0.7294  0.8513 -0.7432
 7379SOL     OW33598   1.270   0.735  10.336 -0.1170  0.3387 -0.0839
 7379SOL    HW133599   1.274   0.789  10.415  2.4055 -1.5715  1.1034
 7379SOL    HW233600   1.274   0.648  10.375  0.0470 -0.2351 -1.3831
 7380SOL     OW33601   4.681   3.228  15.901 -0.5695  0.3230  0.2629
 7380SOL    HW133602   4.625   3.185  15.837 -0.0892 -0.4151  0.3424
 7380SOL    HW233603   0.026   3.264  15.846 -0.1438 -0.4304  0.3228
 7381SOL     OW33604   2.983   2.567   8.762 -0.6434  0.1765  0.5952
 7381SOL    HW133605   2.919   2.513   8.808 -0.1346  0.4167  1.5748
 7381SOL    HW233606   3.057   2.506   8.763 -1.4095 -0.7894 -0.9038
 7382SOL     OW33607   0.807   2.446  14.322  0.5644 -0.4293  0.0343
 7382SOL    HW133608   0.885   2.486  14.285  1.1495 -1.1653  0.4552
 7382SOL    HW233609   0.853   2.392  14.387  2.7187  1.1619 -0.1723
 7383SOL     OW33610   2.280   4.307   5.274  0.5126  0.1657  0.1312
 7383SOL    HW133611   2.300   4.217   5.250 -1.2066  0.2328 -1.5187
 7383SOL    HW233612   2.371   4.330   5.292  0.7171 -0.0395 -0.6227
 7384SOL     OW33613   3.341   2.343   5.234  0.2590 -0.2337  0.2943
 7384SOL    HW133614   3.307   2.413   5.290 -0.2905  0.5126 -1.0002
 7384SOL    HW233615   3.365   2.286   5.308 -0.5593  1.8108  2.1453
 7385SOL     OW33616   3.390   1.817   0.532  0.0488  0.1788  0.8120
 7385SOL    HW133617   3.362   1.905   0.505  0.6868 -0.2887 -1.4345
 7385SOL    HW233618   3.481   1.822   0.562  0.2101  0.4333  0.2834
 7386SOL     OW33619   0.063   4.365   5.230 -0.0324  0.4137 -0.7860
 7386SOL    HW133620   0.012   4.291   5.196 -1.1101  0.6438  0.3374
 7386SOL    HW233621   0.049   4.372   5.324  1.2006  2.5722 -0.7720
 7387SOL     OW33622   2.756   0.221   2.295  0.5512  0.2009  0.1986
 7387SOL    HW133623   2.847   0.220   2.326  0.1061  0.3279  1.5316
 7387SOL    HW233624   2.724   0.292   2.351 -0.3662 -0.3768  0.4024
 7388SOL     OW33625   0.559   2.016   5.961  0.2497 -1.0705  0.3838
 7388SOL    HW133626   0.598   1.939   6.002 -3.4192 -2.5435  1.1645
 7388SOL    HW233627   0.535   2.069   6.037 -3.3683  0.3851 -1.7698
 7389SOL     OW33628   1.149   0.394   6.249  0.2792  0.3807  0.5907
 7389SOL    HW133629   1.071   0.386   6.195  0.6021  0.1831  0.1568
 7389SOL    HW233630   1.224   0.396   6.190  0.2524 -0.0879  0.5431
 7390SOL     OW33631   1.168   2.582   5.413  0.0819 -0.4528 -0.1103
 7390SOL    HW133632   1.155   2.628   5.330 -2.3568  2.4083  1.8344
 7390SOL    HW233633   1.077   2.572   5.443  0.5175 -2.4347  0.5018
 7391SOL     OW33634   4.170   4.514   6.499 -0.3009 -0.1625  0.5897
 7391SOL    HW133635   4.250   4.476   6.537  0.0211 -0.1799 -0.1113
 7391SOL    HW233636   4.147   4.447   6.435  2.6240 -0.5349 -0.0555
 7392SOL     OW33637   3.987   3.452   4.026 -0.3392 -0.0319  0.1324
 7392SOL    HW133638   3.899   3.491   4.024  0.6894  2.3333  0.6363
 7392SOL    HW233639   4.013   3.460   3.934 -1.1328  2.6631  0.1427
 7393SOL     OW33640   4.090   0.781   7.017 -0.4400  0.0656 -0.2307
 7393SOL    HW133641   4.119   0.871   7.032 -0.4133  0.4221 -2.4237
 7393SOL    HW233642   4.076   0.775   6.923  0.6212  1.7716 -0.4928
 7394SOL     OW33643   3.013   2.690   3.761  0.3677 -0.1182 -0.4900
 7394SOL    HW133644   3.039   2.611   3.808 -1.3873  0.0880  0.8498
 7394SOL    HW233645   2.933   2.661   3.719 -0.5459  1.9243 -0.1562
 7395SOL     OW33646   1.639   2.973   5.512  0.5474  0.0727 -0.0377
 7395SOL    HW133647   1.560   2.923   5.494  0.5501  0.4090 -1.0168
 7395SOL    HW233648   1.674   2.999   5.426  1.5435  0.8898  0.5973
 7396SOL     OW33649   3.314   0.558   3.510  0.0906 -0.0769 -0.3034
 7396SOL    HW133650   3.276   0.506   3.440  0.3370 -0.6489 -0.0148
 7396SOL    HW233651   3.335   0.630   3.451  2.0015 -0.3413  0.0581
 7397SOL     OW33652   0.622   3.107   8.867 -0.9101 -0.2631  0.2873
 7397SOL    HW133653   0.540   3.156   8.863  0.1819  1.6007  0.7210
 7397SOL    HW233654   0.663   3.148   8.943 -2.5026  1.8954 -0.0262
 7398SOL     OW33655   4.497   2.200   7.217  0.1082 -0.5081  0.3122
 7398SOL    HW133656   4.511   2.291   7.191  0.5604 -0.0708  2.0800
 7398SOL    HW233657   4.533   2.160   7.138  0.4282  0.3302  0.0357
 7399SOL     OW33658   0.539   4.430   8.424  0.5341 -0.6762  0.0342
 7399SOL    HW133659   0.623   4.419   8.381 -0.0710 -0.8859 -1.0857
 7399SOL    HW233660   0.533   4.525   8.435 -1.4171 -0.8590  0.5984
 7400SOL     OW33661   1.278   0.176  10.478  0.6482 -0.6285 -0.3173
 7400SOL    HW133662   1.348   0.217  10.427  0.5339  2.2737  1.8045
 7400SOL    HW233663   1.305   0.230  10.553 -1.0637 -0.7732  0.3901
 7401SOL     OW33664   4.263   0.035   0.340  0.0508  0.1317 -0.6273
 7401SOL    HW133665   4.270   0.055   0.433 -0.6748  0.8823 -0.7279
 7401SOL    HW233666   4.167   0.027   0.332  0.0515 -1.1394  0.7806
 7402SOL     OW33667   4.497   2.734   0.457 -1.2173  0.1321  0.3835
 7402SOL    HW133668   4.558   2.668   0.426 -0.0574  1.3465  0.0776
 7402SOL    HW233669   4.412   2.691   0.443 -0.5691 -0.1879 -2.4466
 7403SOL     OW33670   0.402   4.266   7.090  0.4893 -0.0459 -1.0236
 7403SOL    HW133671   0.435   4.177   7.074  2.3488  0.0918  2.2081
 7403SOL    HW233672   0.315   4.246   7.124 -0.1997  1.0971 -2.1116
 7404SOL     OW33673   3.716   2.744  15.030  0.3982  0.6832  0.1478
 7404SOL    HW133674   3.807   2.756  15.054  0.2685  1.5991  0.2137
 7404SOL    HW233675   3.711   2.783  14.943 -0.0318 -1.8598 -0.9587
 7405SOL     OW33676   3.651   1.173   1.121 -0.3974  0.1067 -0.1700
 7405SOL    HW133677   3.586   1.109   1.092  2.1520 -1.7853 -1.7066
 7405SOL    HW233678   3.711   1.114   1.168  0.2081  3.1176  2.8732
 7406SOL     OW33679   2.743   3.674   6.515  0.1610 -0.6288 -0.6656
 7406SOL    HW133680   2.694   3.748   6.482  0.3872 -0.8722 -1.5397
 7406SOL    HW233681   2.720   3.667   6.608  1.2680  0.8018 -0.2946
 7407SOL     OW33682   3.778   2.764   3.202 -0.2223 -0.0572  0.9924
 7407SOL    HW133683   3.852   2.723   3.246  2.6995  1.9090 -2.0701
 7407SOL    HW233684   3.805   2.755   3.111 -0.5598  0.5471  0.8366
 7408SOL     OW33685   2.601   4.038   3.511 -0.0388 -0.6248  0.0873
 7408SOL    HW133686   2.514   4.041   3.551  0.1120  0.1151  0.3601
 7408SOL    HW233687   2.652   4.096   3.568 -1.9185 -0.8468  1.9890
 7409SOL     OW33688   1.307   1.904   2.195 -0.3482 -0.7941  0.2336
 7409SOL    HW133689   1.361   1.827   2.179  1.2133  0.0418  1.5300
 7409SOL    HW233690   1.326   1.919   2.288  3.3726 -3.1655 -0.1734
 7410SOL     OW33691   2.493   2.798   6.145 -0.1207  0.5963  0.2507
 7410SOL    HW133692   2.560   2.836   6.202  0.9321  0.3862 -0.8614
 7410SOL    HW233693   2.523   2.829   6.060 -3.0738  0.2453 -0.8891
 7411SOL     OW33694   0.218   1.556  11.980  0.2256 -0.0068  0.2301
 7411SOL    HW133695   0.275   1.518  12.047  2.3070  4.0492  0.7513
 7411SOL    HW233696   0.272   1.625  11.942 -1.3715  0.5776 -0.9660
 7412SOL     OW33697   1.136   4.605   4.520 -0.1276  0.0897  0.3934
 7412SOL    HW133698   1.053   4.558   4.518  0.3138 -0.6029 -1.3320
 7412SOL    HW233699   1.129   4.661   4.443 -0.4267 -1.4298 -0.6908
 7413SOL     OW33700   2.194   3.612   1.253  0.3967  0.0470 -0.0870
 7413SOL    HW133701   2.173   3.533   1.303  1.6992 -0.3890 -0.2276
 7413SOL    HW233702   2.251   3.587   1.180  0.3692 -1.3084  0.3588
 7414SOL     OW33703   1.223   1.375   6.556 -0.3300  0.0764  0.1178
 7414SOL    HW133704   1.259   1.450   6.603 -2.2853  1.0701  0.0577
 7414SOL    HW233705   1.305   1.326   6.550 -0.6869 -0.2977 -1.7617
 7415SOL     OW33706   3.863   0.709   6.112  0.4212 -0.1251  0.2262
 7415SOL    HW133707   3.936   0.686   6.053 -0.9409  0.0420 -1.5230
 7415SOL    HW233708   3.794   0.651   6.081  0.8113 -0.9466  0.8807
 7416SOL     OW33709   4.294   2.861   5.290 -0.5948 -0.0357 -0.3257
 7416SOL    HW133710   4.337   2.790   5.242  2.0953  1.1906  0.2510
 7416SOL    HW233711   4.285   2.918   5.214  0.7586 -2.8664 -2.6043
 7417SOL     OW33712   3.812   3.995   9.395 -0.0897  0.9274  0.0548
 7417SOL    HW133713   3.791   3.947   9.315  1.6179  0.5077 -0.1592
 7417SOL    HW233714   3.766   3.947   9.464  0.7837  1.1119  0.7740
 7418SOL     OW33715   2.560   2.212  10.643 -0.3939 -0.2027  0.0249
 7418SOL    HW133716   2.579   2.236  10.552  0.2489  1.2848  0.5511
 7418SOL    HW233717   2.470   2.244  10.638  0.0099  1.0279  0.6054
 7419SOL     OW33718   3.684   2.084   7.098  0.4436  0.6400 -0.0278
 7419SOL    HW133719   3.657   2.135   7.175 -0.8892 -0.3249  0.1497
 7419SOL    HW233720   3.731   2.012   7.140  1.5155  1.3359 -0.0414
 7420SOL     OW33721   1.621   2.757  15.897 -0.2032  0.9677  0.3636
 7420SOL    HW133722   1.547   2.766  15.957 -0.2611  1.4622  0.2120
 7420SOL    HW233723   1.690   2.793  15.954  0.1423 -0.4478  0.8569
 7421SOL     OW33724   1.394   0.322   2.516  0.2450 -0.2810  0.2883
 7421SOL    HW133725   1.466   0.267   2.548  0.6283  0.9412  1.5553
 7421SOL    HW233726   1.454   0.391   2.486  1.1391 -2.1354 -2.1276
 7422SOL     OW33727   3.225   0.785   3.833  0.2369  0.1612 -0.3211
 7422SOL    HW133728   3.285   0.858   3.845 -0.7910  0.9552  0.0423
 7422SOL    HW233729   3.216   0.767   3.926  0.4111  0.1343 -0.3097
 7423SOL     OW33730   1.690   1.887   5.694 -0.4974 -0.1640 -0.6355
 7423SOL    HW133731   1.636   1.916   5.768 -3.5211 -0.2363 -2.8459
 7423SOL    HW233732   1.754   1.826   5.731  1.0885  1.5525 -0.5987
 7424SOL     OW33733   4.634   1.370   3.928 -0.2756 -0.5545  0.3582
 7424SOL    HW133734   4.582   1.340   3.853 -1.1892 -0.4519  0.9547
 7424SOL    HW233735   4.661   1.292   3.977 -3.3298 -1.0287  1.2958
 7425SOL     OW33736   3.473   1.897  14.613 -0.5725 -0.2717  0.2373
 7425SOL    HW133737   3.422   1.836  14.561 -1.4768  1.1055 -0.5008
 7425SOL    HW233738   3.485   1.838  14.687  0.5398 -0.7459 -0.3247
 7426SOL     OW33739   1.855   1.155   2.316  0.2869 -0.2517 -0.3024
 7426SOL    HW133740   1.767   1.177   2.346  0.2179 -0.6223 -0.2316
 7426SOL    HW233741   1.904   1.237   2.330  2.4863 -1.5194 -0.6276
 7427SOL     OW33742   4.200   3.668   6.787 -0.2565  0.1932 -0.1059
 7427SOL    HW133743   4.185   3.636   6.698  1.1179  2.0486 -1.0079
 7427SOL    HW233744   4.113   3.697   6.817 -1.2075  0.8690 -3.5111
 7428SOL     OW33745   0.084   1.329  10.692  0.0563 -0.5117 -0.0173
 7428SOL    HW133746   0.079   1.365  10.603 -0.2726 -0.7426 -0.0917
 7428SOL    HW233747   0.125   1.399  10.742  0.5119 -0.9049  0.1562
 7429SOL     OW33748   0.390   4.136   4.774 -0.1333  0.4245  0.0073
 7429SOL    HW133749   0.347   4.055   4.745  1.0342 -0.3447  0.4108
 7429SOL    HW233750   0.379   4.129   4.869 -0.1872  1.9065  0.0991
 7430SOL     OW33751   3.040   1.086   6.476 -0.2174 -0.2052 -0.1909
 7430SOL    HW133752   2.954   1.047   6.487 -0.5181 -0.3138 -3.1047
 7430SOL    HW233753   3.040   1.162   6.535  1.0243 -0.5678  0.2703
 7431SOL     OW33754   0.384   3.853  11.082  0.3660  0.3431 -0.3028
 7431SOL    HW133755   0.403   3.947  11.076  0.0995  0.3514 -0.9665
 7431SOL    HW233756   0.472   3.820  11.062 -0.3828 -3.4808  2.7420
 7432SOL     OW33757   1.109   1.411   6.076 -0.1844  0.3008  0.3252
 7432SOL    HW133758   1.193   1.392   6.118  2.1490  2.6443 -3.2322
 7432SOL    HW233759   1.144   1.467   6.007  0.0850 -0.5732 -0.2425
 7433SOL     OW33760   1.734   2.335   2.784 -0.1962 -0.3820 -0.1727
 7433SOL    HW133761   1.796   2.298   2.846  0.2865 -0.5698 -0.7631
 7433SOL    HW233762   1.790   2.378   2.719  0.5975  1.0875  1.4617
 7434SOL     OW33763   3.795   1.464   9.607  0.4815  0.1101  0.6710
 7434SOL    HW133764   3.734   1.464   9.681 -0.6524  2.0505 -0.2783
 7434SOL    HW233765   3.873   1.429   9.651 -1.4408 -0.2439  3.8322
 7435SOL     OW33766   2.978   3.381   0.697 -0.2364 -0.1963  0.4790
 7435SOL    HW133767   3.003   3.472   0.712 -2.9759  0.3628  1.5047
 7435SOL    HW233768   3.016   3.360   0.612 -0.3973 -1.7223  0.7834
 7436SOL     OW33769   4.229   1.535  12.591 -0.0083 -0.2139  0.4574
 7436SOL    HW133770   4.258   1.506  12.505  1.3992 -0.2971  0.9594
 7436SOL    HW233771   4.241   1.450  12.633  2.4984  1.0799  2.3860
 7437SOL     OW33772   4.301   0.719   5.157 -0.1735 -0.6106 -0.1301
 7437SOL    HW133773   4.297   0.626   5.135 -0.7539 -0.4679 -0.6255
 7437SOL    HW233774   4.237   0.747   5.093 -0.5208  1.5831  1.1752
 7438SOL     OW33775   4.271   4.332   4.166  0.1979 -0.0658  0.6120
 7438SOL    HW133776   4.184   4.355   4.198 -0.9277 -1.5617 -1.3315
 7438SOL    HW233777   4.314   4.418   4.169 -0.7611  0.4887 -1.2506
 7439SOL     OW33778   0.355   2.621   8.253  0.5231 -0.5065  0.2926
 7439SOL    HW133779   0.328   2.576   8.173 -1.6094  2.1873 -0.5235
 7439SOL    HW233780   0.325   2.553   8.313  0.2574 -0.0467  0.6839
 7440SOL     OW33781   2.217   3.596   6.510  0.3904 -0.7538  0.6158
 7440SOL    HW133782   2.266   3.546   6.575 -0.0907 -1.5302  0.3846
 7440SOL    HW233783   2.162   3.525   6.476 -1.3248  0.5872  0.6208
 7441SOL     OW33784   0.218   1.952   2.782  0.8135  0.2850 -0.0191
 7441SOL    HW133785   0.312   1.943   2.792  0.6255  0.2163  1.7042
 7441SOL    HW233786   0.193   1.860   2.789 -0.7923  0.7691  0.7544
 7442SOL     OW33787   4.530   2.728   5.415 -0.2050  0.1048 -0.7141
 7442SOL    HW133788   4.475   2.681   5.352  0.4361 -0.2785 -0.9852
 7442SOL    HW233789   4.487   2.813   5.421 -1.7867 -0.6128 -1.9405
 7443SOL     OW33790   2.893   4.458  12.625  0.0352  0.0712  0.3605
 7443SOL    HW133791   2.968   4.399  12.615  0.4907  0.6788  0.1715
 7443SOL    HW233792   2.900   4.512  12.546  0.7896  0.4736  0.6976
 7444SOL     OW33793   3.631   1.896  10.937 -0.4467  0.4552  0.7344
 7444SOL    HW133794   3.541   1.908  10.969 -0.4757  0.8622  0.4942
 7444SOL    HW233795   3.674   1.978  10.963  2.2571 -0.8066  0.2237
 7445SOL     OW33796   2.577   0.308   1.145 -0.5457  0.2179  0.7643
 7445SOL    HW133797   2.592   0.261   1.063  1.0924  2.3270 -0.1598
 7445SOL    HW233798   2.637   0.262   1.203  0.2626 -0.4277 -0.5856
 7446SOL     OW33799   1.934   3.907   2.342  0.1481 -0.1552  0.2858
 7446SOL    HW133800   1.979   3.923   2.258 -0.7148 -2.0278 -0.5285
 7446SOL    HW233801   2.009   3.881   2.396  1.8801  0.4658 -1.8112
 7447SOL     OW33802   3.934   2.253   7.083  0.0288  0.4555  0.2127
 7447SOL    HW133803   3.939   2.237   7.178 -2.1242  3.4821  0.8549
 7447SOL    HW233804   3.849   2.215   7.061 -0.0734  0.3089  0.8678
 7448SOL     OW33805   1.871   2.674  16.043  0.5280 -0.3932  0.0955
 7448SOL    HW133806   1.832   2.594  16.008 -1.2952  1.3107 -1.8136
 7448SOL    HW233807   1.958   2.670  16.005  0.3015 -0.4224 -0.4177
 7449SOL     OW33808   0.329   1.265  15.497  0.1514  0.1462  0.0190
 7449SOL    HW133809   0.296   1.292  15.411 -0.0229  0.3127  0.1369
 7449SOL    HW233810   0.307   1.336  15.557 -1.2648 -0.9356  0.7819
 7450SOL     OW33811   3.174   2.198   8.243  0.0024  0.3627  0.0380
 7450SOL    HW133812   3.227   2.264   8.199 -1.4692  1.3535 -0.2588
 7450SOL    HW233813   3.116   2.165   8.175 -1.6904  2.4084  0.4988
 7451SOL     OW33814   4.159   3.749   9.243 -0.4866  0.3546 -0.2195
 7451SOL    HW133815   4.202   3.811   9.183  0.0931  0.6298  0.4827
 7451SOL    HW233816   4.171   3.667   9.195  1.0259  1.9588 -2.6521
 7452SOL     OW33817   4.457   2.202   1.997 -0.6217 -0.1820 -0.1683
 7452SOL    HW133818   4.469   2.280   1.944 -1.4826 -1.3563 -2.1011
 7452SOL    HW233819   4.505   2.129   1.957  0.9889 -0.2839  1.9119
 7453SOL     OW33820   2.309   0.169   6.550  0.3853 -0.2408  0.3966
 7453SOL    HW133821   2.226   0.142   6.509  0.4801  0.7653 -0.4486
 7453SOL    HW233822   2.323   0.249   6.500  1.2540 -0.5376  0.1686
 7454SOL     OW33823   0.856   3.964   9.000  0.5266 -0.1199  0.0340
 7454SOL    HW133824   0.855   4.011   8.917  0.0228  0.4144  0.3460
 7454SOL    HW233825   0.793   4.012   9.054 -1.5786 -1.0140 -1.6519
 7455SOL     OW33826   1.574   4.600   2.535  0.0321 -0.5321 -0.3691
 7455SOL    HW133827   1.503   4.626   2.593 -0.4483  0.2786 -1.3207
 7455SOL    HW233828   1.551   4.642   2.452  3.0760  2.3791  0.2818
 7456SOL     OW33829   2.272   4.644   0.187 -0.6247  0.5502  0.4105
 7456SOL    HW133830   2.306   4.708   0.250  0.7841  0.7863 -0.5841
 7456SOL    HW233831   2.195   4.616   0.236 -0.0489 -2.2755 -0.3119
 7457SOL     OW33832   2.567   2.679  11.859  0.3929  0.0308 -0.9406
 7457SOL    HW133833   2.569   2.759  11.911  1.4773  0.4137 -1.5747
 7457SOL    HW233834   2.473   2.676  11.841  0.1108 -1.9333  0.8100
 7458SOL     OW33835   3.379   1.789  12.078  0.0840  0.4761 -0.1017
 7458SOL    HW133836   3.301   1.741  12.049 -0.0788  0.1081  0.9529
 7458SOL    HW233837   3.346   1.873  12.045  1.0952  0.6929 -0.5562
 7459SOL     OW33838   1.698   0.825   3.716 -0.0499 -0.2270 -0.4555
 7459SOL    HW133839   1.689   0.817   3.811  2.8848  0.1429 -0.1559
 7459SOL    HW233840   1.735   0.740   3.694  2.3313  0.7277 -0.1484
 7460SOL     OW33841   2.825   3.077  12.076  0.9125  0.2242  0.1440
 7460SOL    HW133842   2.836   3.046  11.986 -2.2475  0.7914 -0.4474
 7460SOL    HW233843   2.864   3.012  12.134 -0.4371  0.3241  1.1807
 7461SOL     OW33844   2.062   2.236   1.790  0.5335 -0.1817 -0.0454
 7461SOL    HW133845   2.052   2.178   1.714  0.8778 -2.0277  1.3345
 7461SOL    HW233846   2.156   2.231   1.805  0.3827  3.7558  2.1445
 7462SOL     OW33847   4.176   1.534   0.765  0.2251  0.5794  0.5923
 7462SOL    HW133848   4.195   1.597   0.834  0.4311  0.1135  0.9605
 7462SOL    HW233849   4.119   1.473   0.813 -4.1000  3.6746 -0.5176
 7463SOL     OW33850   0.244   2.121   5.308 -0.0703  0.3100 -0.3878
 7463SOL    HW133851   0.261   2.175   5.386 -0.8364  1.0035 -0.7152
 7463SOL    HW233852   0.271   2.039   5.349  0.5948 -0.7328 -2.9183
 7464SOL     OW33853   4.547   1.179   5.527  0.6112 -0.3378 -0.5201
 7464SOL    HW133854   4.498   1.258   5.549  1.2416 -0.4311  1.2299
 7464SOL    HW233855   4.620   1.192   5.587  0.4364  1.2929 -0.6749
 7465SOL     OW33856   2.719   1.292   5.640 -0.1827  0.6044 -0.6592
 7465SOL    HW133857   2.640   1.338   5.609 -1.4422 -0.0575  1.5279
 7465SOL    HW233858   2.763   1.354   5.699 -0.5481 -0.2919  0.5484
 7466SOL     OW33859   1.308   2.927   6.490 -0.1122 -0.1070  0.1181
 7466SOL    HW133860   1.350   3.010   6.468 -1.1838 -0.0496 -1.6647
 7466SOL    HW233861   1.294   2.906   6.398 -0.1130  0.0502  0.0831
 7467SOL     OW33862   1.140   3.788   5.433 -0.1649 -0.0937 -0.1416
 7467SOL    HW133863   1.082   3.724   5.474 -0.7701  0.5654  0.0337
 7467SOL    HW233864   1.225   3.753   5.458 -1.4198 -1.7743  1.8175
 7468SOL     OW33865   3.678   4.672   8.932 -0.4228 -0.3850  0.1812
 7468SOL    HW133866   3.734   4.671   9.010  0.5469  0.1632 -0.5127
 7468SOL    HW233867   3.740   4.640   8.867 -0.9409  0.6130 -0.8089
 7469SOL     OW33868   2.832   2.583  13.022  0.1473  0.0380 -0.1003
 7469SOL    HW133869   2.856   2.510  12.965  0.2889  2.0125 -2.5403
 7469SOL    HW233870   2.808   2.646  12.954 -1.0708  2.4770  2.5933
 7470SOL     OW33871   0.280   3.736   1.796  0.2925  0.0900 -0.6760
 7470SOL    HW133872   0.198   3.688   1.791  0.2597  0.0220  0.4344
 7470SOL    HW233873   0.272   3.763   1.888 -0.4958  1.2850 -1.1079
 7471SOL     OW33874   3.847   4.101   4.644 -0.3963  0.1331  0.0302
 7471SOL    HW133875   3.770   4.068   4.690 -0.6921  0.7561 -0.0220
 7471SOL    HW233876   3.891   4.147   4.716  1.3200  0.2620 -1.0891
 7472SOL     OW33877   0.353   1.798   6.827  0.1589 -0.5130  0.2875
 7472SOL    HW133878   0.373   1.838   6.742  2.8288  3.2233  2.6725
 7472SOL    HW233879   0.289   1.866   6.849 -0.9817 -1.3131 -0.5275
 7473SOL     OW33880   1.799   2.846  12.421 -0.4149 -0.0490 -0.8024
 7473SOL    HW133881   1.749   2.770  12.450  1.0855 -0.7259  0.0413
 7473SOL    HW233882   1.796   2.888  12.507 -2.4029  0.9695 -1.3813
 7474SOL     OW33883   3.509   1.678   8.016  1.1925  0.1988  0.5381
 7474SOL    HW133884   3.415   1.682   8.035  0.7081 -0.6124 -1.7016
 7474SOL    HW233885   3.522   1.599   7.963  3.7059 -0.1364  1.6442
 7475SOL     OW33886   0.528   2.692   6.422  0.1345  0.8860 -0.3546
 7475SOL    HW133887   0.562   2.773   6.461  3.5839 -0.6176 -0.2565
 7475SOL    HW233888   0.572   2.627   6.476 -0.8451 -0.8477 -1.6297
 7476SOL     OW33889   3.117   4.540  10.318 -0.2921  0.2780  0.2409
 7476SOL    HW133890   3.117   4.562  10.411  1.9597 -0.3661  0.4066
 7476SOL    HW233891   3.206   4.556  10.287  0.3691  0.5597  2.3150
 7477SOL     OW33892   2.189   4.188   4.202  0.0968 -0.0542  0.3895
 7477SOL    HW133893   2.212   4.223   4.288  1.6910  0.1488 -0.1245
 7477SOL    HW233894   2.254   4.118   4.201 -1.3090 -1.3211 -1.8429
 7478SOL     OW33895   0.967   1.681   9.519 -0.8461  0.0694 -0.2368
 7478SOL    HW133896   0.993   1.708   9.431  1.4535  1.2230  0.7972
 7478SOL    HW233897   0.997   1.760   9.565 -2.2145  0.9532 -0.8630
 7479SOL     OW33898   4.620   1.837  16.984 -0.1615  0.3097  0.1951
 7479SOL    HW133899   4.599   1.923  16.949 -2.7799 -0.5063 -0.3001
 7479SOL    HW233900   4.577   1.782  16.919 -0.8860  0.9791  0.1121
 7480SOL     OW33901   1.065   4.647  12.172  0.2825  0.4257  0.1649
 7480SOL    HW133902   1.115   4.628  12.093  2.8796 -1.0085  2.1343
 7480SOL    HW233903   1.121   4.709  12.221  1.2043 -1.1354  1.0831
 7481SOL     OW33904   4.292   1.746  13.318 -0.1546  0.2760 -0.3235
 7481SOL    HW133905   4.314   1.676  13.379 -0.7636  1.2785  1.0544
 7481SOL    HW233906   4.241   1.800  13.378 -0.2007  0.5471 -0.6071
 7482SOL     OW33907   1.603   0.302   3.316  0.0265  0.4681 -0.0039
 7482SOL    HW133908   1.691   0.295   3.279  0.8802  0.6055  1.9814
 7482SOL    HW233909   1.624   0.330   3.405 -0.3640 -0.3812  0.3573
 7483SOL     OW33910   1.099   2.390  12.167 -0.4635 -0.0837 -0.1071
 7483SOL    HW133911   1.179   2.377  12.218  0.0322  2.4811 -0.2080
 7483SOL    HW233912   1.099   2.486  12.168  0.4662 -0.0878  0.5189
 7484SOL     OW33913   1.262   3.203  11.026 -0.4333 -0.9524  0.4368
 7484SOL    HW133914   1.227   3.159  11.103 -2.2937 -1.0941 -0.5051
 7484SOL    HW233915   1.247   3.294  11.052 -1.0019 -0.5255 -1.3864
 7485SOL     OW33916   0.487   3.392   2.515 -0.0903  0.4343  0.1511
 7485SOL    HW133917   0.524   3.460   2.458  0.0860 -0.1709 -0.4513
 7485SOL    HW233918   0.399   3.424   2.532 -0.0664  0.3264  0.4699
 7486SOL     OW33919   2.375   2.114  14.519 -0.8481  0.0855 -0.5255
 7486SOL    HW133920   2.341   2.095  14.607 -0.1026 -0.7313 -0.4158
 7486SOL    HW233921   2.321   2.182  14.479  0.2713 -0.7098 -3.3543
 7487SOL     OW33922   1.518   2.412   7.969  0.6038 -0.1708  0.5845
 7487SOL    HW133923   1.455   2.379   8.034 -1.2262 -1.5115 -1.8989
 7487SOL    HW233924   1.601   2.429   8.014  0.3810  1.4943  0.3728
 7488SOL     OW33925   2.101   2.938  16.687 -0.0632  0.1557 -0.0762
 7488SOL    HW133926   2.054   2.855  16.701 -1.6866  1.4858  2.3024
 7488SOL    HW233927   2.174   2.922  16.746 -0.4788 -0.2529  0.3315
 7489SOL     OW33928   1.697   0.035   3.370 -0.3403 -0.2623 -0.2379
 7489SOL    HW133929   1.678   4.674   3.331  1.7157 -1.5822  1.7089
 7489SOL    HW233930   1.622   0.047   3.428  0.8510 -3.9071  2.0600
 7490SOL     OW33931   4.683   1.988  14.754 -0.0506  0.4040 -0.0902
 7490SOL    HW133932   0.041   1.977  14.800  0.2581  0.5008 -0.6270
 7490SOL    HW233933   4.648   1.900  14.759 -0.1791  0.4514 -0.1521
 7491SOL     OW33934   3.582   2.935  16.142  0.2218 -0.1190 -0.3551
 7491SOL    HW133935   3.636   2.858  16.160  0.4893 -0.0071 -0.6728
 7491SOL    HW233936   3.652   3.000  16.139  0.7420 -0.7168 -1.0257
 7492SOL     OW33937   0.702   2.173   8.130  0.0983  0.0474 -0.4575
 7492SOL    HW133938   0.619   2.136   8.158  0.9991 -1.6422 -0.0368
 7492SOL    HW233939   0.692   2.257   8.085 -0.1255  1.0214  1.3983
 7493SOL     OW33940   0.655   3.238  11.946 -0.6997  0.0699 -0.0606
 7493SOL    HW133941   0.688   3.152  11.920  1.6956  0.1331  2.6810
 7493SOL    HW233942   0.658   3.240  12.042 -0.0048  0.2700 -0.0849
 7494SOL     OW33943   3.288   3.049   8.335  0.2377 -0.8043 -0.4304
 7494SOL    HW133944   3.200   3.024   8.307  0.5534 -2.0472 -0.3120
 7494SOL    HW233945   3.339   2.969   8.326  0.7353 -0.0705 -4.3537
 7495SOL     OW33946   4.383   1.775  15.710 -0.5454 -0.0063  0.0267
 7495SOL    HW133947   4.301   1.730  15.692 -1.0821 -0.0329  2.5491
 7495SOL    HW233948   4.427   1.691  15.724 -2.2147 -0.6484  1.3841
 7496SOL     OW33949   1.533   0.485   9.576  0.0428 -0.4003  0.2889
 7496SOL    HW133950   1.500   0.570   9.546  3.1110  0.6085 -0.2614
 7496SOL    HW233951   1.465   0.457   9.637  0.6103  0.9792  1.5745
 7497SOL     OW33952   3.448   1.054  17.255  0.4976 -0.2960  0.1295
 7497SOL    HW133953   3.449   1.063  17.351  0.2513 -2.0096  0.2950
 7497SOL    HW233954   3.477   0.964  17.238 -1.1203 -0.5962 -1.1166
 7498SOL     OW33955   0.387   0.491   2.844 -0.2165 -0.1234 -0.2662
 7498SOL    HW133956   0.311   0.433   2.833 -0.1042 -0.0570 -1.3943
 7498SOL    HW233957   0.347   0.576   2.865  3.6860  1.9015 -1.0945
 7499SOL     OW33958   4.241   3.984   0.453 -0.1443 -0.0528 -0.2066
 7499SOL    HW133959   4.218   4.075   0.475  1.7715  0.6265 -1.0332
 7499SOL    HW233960   4.214   3.979   0.361 -4.8499  1.0594  1.1282
 7500SOL     OW33961   3.130   4.624   1.964 -0.4557  0.3365 -0.1130
 7500SOL    HW133962   3.219   4.634   1.930 -0.7916  1.4566 -0.6762
 7500SOL    HW233963   3.142   4.669   2.047 -0.0605  1.3773 -0.7310
 7501SOL     OW33964   3.151   2.166   2.182 -0.4501  0.0122  0.4379
 7501SOL    HW133965   3.235   2.209   2.198 -0.4947 -1.0477  3.4680
 7501SOL    HW233966   3.145   2.086   2.234 -0.6298 -0.5516 -0.4334
 7502SOL     OW33967   2.394   4.189   9.982 -0.1238 -0.3077 -0.4700
 7502SOL    HW133968   2.364   4.160   9.895  1.8618 -1.0106 -0.9124
 7502SOL    HW233969   2.367   4.280   9.970  1.5818  0.4774  1.8539
 7503SOL     OW33970   1.862   0.237  11.296  0.1452  0.1980 -0.1041
 7503SOL    HW133971   1.812   0.205  11.371  0.8937  2.2910  1.2817
 7503SOL    HW233972   1.955   0.233  11.319  0.1637  1.2883  0.0037
 7504SOL     OW33973   0.579   0.135   8.893 -0.1328  0.2157 -0.1101
 7504SOL    HW133974   0.623   0.089   8.964  2.0928  1.5079 -0.6561
 7504SOL    HW233975   0.653   0.194   8.878  1.7996 -1.9343  0.9861
 7505SOL     OW33976   4.641   3.480  12.927  0.3391 -0.5137  0.6254
 7505SOL    HW133977   4.693   3.538  12.872  2.2824 -3.6052 -0.8213
 7505SOL    HW233978   4.658   3.514  13.016  0.0050  2.5125 -0.4679
 7506SOL     OW33979   3.046   2.780   4.832  0.0866 -0.1321  0.3867
 7506SOL    HW133980   3.067   2.694   4.794 -2.9291 -1.2953  1.3425
 7506SOL    HW233981   3.072   2.772   4.924 -0.2308 -0.8600  0.4167
 7507SOL     OW33982   1.873   2.995   8.916  0.1845  0.1759  0.1074
 7507SOL    HW133983   1.940   3.062   8.900 -1.6664  2.0339  0.0655
 7507SOL    HW233984   1.916   2.937   8.979  0.9902  0.4796 -0.1649
 7508SOL     OW33985   2.414   0.919   8.459 -0.2990  0.1810  0.0265
 7508SOL    HW133986   2.438   0.836   8.501 -0.8915 -1.3960 -2.7197
 7508SOL    HW233987   2.447   0.906   8.370 -0.1503 -0.0909  0.1197
 7509SOL     OW33988   0.800   0.049  15.671 -0.4059 -0.0972 -0.7998
 7509SOL    HW133989   0.784   4.685  15.703  1.4928  0.1115  0.7100
 7509SOL    HW233990   0.894   0.055  15.653 -0.4202 -1.7277 -1.3885
 7510SOL     OW33991   0.937   2.279   5.420  0.0394 -0.1948 -0.5144
 7510SOL    HW133992   1.018   2.290   5.470  0.0164  2.0343 -0.9238
 7510SOL    HW233993   0.963   2.193   5.389  2.2342  0.7571 -1.3247
 7511SOL     OW33994   4.001   2.354  17.244 -0.1311 -0.1043  0.3767
 7511SOL    HW133995   4.059   2.308  17.305  2.7023  0.9866 -1.4621
 7511SOL    HW233996   3.916   2.351  17.288  0.0816  1.1143  0.8809
 7512SOL     OW33997   3.912   0.687  11.000 -0.4480  0.7807  0.0247
 7512SOL    HW133998   3.976   0.728  11.057  0.6367  0.8460 -1.2356
 7512SOL    HW233999   3.954   0.699  10.915 -1.8732  0.6827 -0.7005
 7513SOL     OW34000   2.600   4.303  13.246  0.4293  0.2914 -0.1454
 7513SOL    HW134001   2.614   4.346  13.162  0.5515  1.8452  0.6522
 7513SOL    HW234002   2.619   4.375  13.307 -2.0379  1.3580 -0.6137
 7514SOL     OW34003   4.625   1.515  16.681  0.2847  0.6775 -0.0042
 7514SOL    HW134004   4.697   1.455  16.664 -0.7002 -0.2113 -1.0233
 7514SOL    HW234005   4.575   1.506  16.600 -1.7280 -0.7460  1.4101
 7515SOL     OW34006   2.890   3.480   3.768  0.0068  0.6119 -0.5978
 7515SOL    HW134007   2.863   3.546   3.705  0.3750 -0.0529 -1.4426
 7515SOL    HW234008   2.808   3.466   3.816  0.8596  0.2570  0.7621
 7516SOL     OW34009   1.084   3.546  13.221 -0.6073 -0.2690  0.2029
 7516SOL    HW134010   1.137   3.514  13.147  0.3228  0.2464  0.6440
 7516SOL    HW234011   1.011   3.484  13.220  1.2936 -2.4986 -1.7219
 7517SOL     OW34012   1.268   1.594   4.514  0.0793 -0.0964  0.4934
 7517SOL    HW134013   1.202   1.525   4.512  1.2386 -1.1976  0.4476
 7517SOL    HW234014   1.348   1.543   4.500  0.5069  0.2849  1.5894
 7518SOL     OW34015   1.146   3.371   5.140  0.2373 -0.3104 -0.7421
 7518SOL    HW134016   1.186   3.290   5.108 -0.2278 -1.1738  0.8502
 7518SOL    HW234017   1.151   3.362   5.235 -2.9650 -3.0869 -0.8190
 7519SOL     OW34018   0.921   2.056   1.938  0.6750 -0.2543  0.6778
 7519SOL    HW134019   1.005   2.057   1.893  0.8592 -0.3885  1.0208
 7519SOL    HW234020   0.947   2.071   2.028  0.2253 -1.1176  0.9591
 7520SOL     OW34021   2.280   1.660   6.280  0.1740 -0.5810  0.1738
 7520SOL    HW134022   2.267   1.747   6.318  1.4025  1.1980 -3.4340
 7520SOL    HW234023   2.363   1.631   6.317 -1.1683 -1.5853  2.3470
 7521SOL     OW34024   1.005   1.005  15.884  0.3250  0.1919 -0.1818
 7521SOL    HW134025   1.034   1.063  15.814  2.5099  0.0503  0.5884
 7521SOL    HW234026   1.005   0.916  15.849 -0.2067 -0.3233  1.1243
 7522SOL     OW34027   2.399   0.343   0.119  0.2998  0.5162  0.4345
 7522SOL    HW134028   2.444   0.404   0.177  0.9298  1.7393 -1.3200
 7522SOL    HW234029   2.478   0.305   0.079 -0.6788 -0.0449 -0.9860
 7523SOL     OW34030   0.906   4.468   4.544 -0.5556  0.1619 -0.2420
 7523SOL    HW134031   0.842   4.408   4.506 -0.1276 -0.8383  0.6023
 7523SOL    HW234032   0.931   4.415   4.620  1.9305  3.9962  1.5697
 7524SOL     OW34033   0.424   1.596  11.524  0.0766  0.2147  0.2990
 7524SOL    HW134034   0.501   1.584  11.469 -1.2200 -1.5998 -1.1765
 7524SOL    HW234035   0.368   1.657  11.476  0.1504  0.6845  0.8104
 7525SOL     OW34036   0.479   0.610   3.358  0.3058 -0.5052 -0.1384
 7525SOL    HW134037   0.390   0.645   3.356  1.2429  1.9671  1.0246
 7525SOL    HW234038   0.518   0.645   3.278  0.3619 -2.1213 -0.8121
 7526SOL     OW34039   1.959   1.505   8.732 -0.2588 -0.1102  0.3367
 7526SOL    HW134040   1.912   1.436   8.684  1.6970 -1.5915  0.5606
 7526SOL    HW234041   1.951   1.585   8.681  1.1977 -0.9624 -1.2293
 7527SOL     OW34042   4.059   0.043  10.987  0.0175  0.0377  0.2738
 7527SOL    HW134043   4.036   0.136  10.994  2.0896  0.5896 -0.3962
 7527SOL    HW234044   3.972   0.009  10.966 -0.1212  0.3650  0.3150
 7528SOL     OW34045   1.961   2.231   8.025  0.3610  0.4419 -0.5374
 7528SOL    HW134046   1.970   2.153   8.080 -0.5915 -0.6915 -2.0280
 7528SOL    HW234047   1.939   2.199   7.938 -0.8647  1.4082 -0.5782
 7529SOL     OW34048   2.204   2.514  12.905 -0.4355 -0.3427  0.5447
 7529SOL    HW134049   2.134   2.458  12.872 -0.2888  0.0785 -0.4804
 7529SOL    HW234050   2.176   2.604  12.891 -0.4097 -0.6257 -1.3198
 7530SOL     OW34051   2.238   1.797   4.497  0.4020 -0.2188 -0.1884
 7530SOL    HW134052   2.321   1.829   4.532  1.7551 -3.0770 -0.8140
 7530SOL    HW234053   2.176   1.793   4.569  0.2134  0.3797 -0.3114
 7531SOL     OW34054   2.595   2.889   8.576  0.0850  0.1477  0.1930
 7531SOL    HW134055   2.660   2.957   8.597 -0.3550  0.7698 -0.4269
 7531SOL    HW234056   2.639   2.807   8.598 -0.8181 -0.0098  1.3817
 7532SOL     OW34057   2.979   3.529  15.524 -0.4506  0.0919  0.7067
 7532SOL    HW134058   3.066   3.493  15.544  0.1132 -0.0634 -1.9964
 7532SOL    HW234059   2.972   3.603  15.584 -1.6671 -0.5946  1.4010
 7533SOL     OW34060   2.799   1.356  14.951 -0.0412 -0.0563  0.2520
 7533SOL    HW134061   2.737   1.285  14.962  1.7922 -1.5327  1.0855
 7533SOL    HW234062   2.741   1.424  14.986 -0.2585  1.1469 -2.4923
 7534SOL     OW34063   2.463   2.640  16.437  0.4352  0.2965 -0.1942
 7534SOL    HW134064   2.506   2.557  16.417 -0.7105 -0.6615  1.2982
 7534SOL    HW234065   2.400   2.633  16.365 -0.5782 -4.3329  1.0998
 7535SOL     OW34066   0.250   2.516  15.501  0.2142 -0.0412 -0.5566
 7535SOL    HW134067   0.172   2.488  15.454 -0.1214 -2.7803  1.6673
 7535SOL    HW234068   0.227   2.566  15.579 -0.0376  0.8232 -1.1864
 7536SOL     OW34069   2.526   0.783  15.732  0.2294 -0.0991  0.2996
 7536SOL    HW134070   2.580   0.823  15.801 -0.1856 -0.2688  0.7175
 7536SOL    HW234071   2.447   0.758  15.779 -0.3807  3.7469  1.3903
 7537SOL     OW34072   3.940   0.804   8.303  0.1140 -0.1222 -0.0073
 7537SOL    HW134073   3.853   0.773   8.280 -0.8020  0.8358  2.2044
 7537SOL    HW234074   3.992   0.742   8.252 -1.4667 -0.3720 -1.3135
 7538SOL     OW34075   3.119   1.704   4.885 -0.0025  0.3405  0.0131
 7538SOL    HW134076   3.102   1.767   4.815  0.3039  0.0672 -0.3078
 7538SOL    HW234077   3.195   1.659   4.849 -0.1787  0.6903 -0.7904
 7539SOL     OW34078   3.243   2.687  13.195 -0.7014  0.1807  0.0512
 7539SOL    HW134079   3.154   2.721  13.188 -0.7437 -0.0658 -0.6095
 7539SOL    HW234080   3.230   2.595  13.220 -1.8554  0.4763  0.5293
 7540SOL     OW34081   0.331   2.348   7.349 -0.3533  0.3041 -0.1524
 7540SOL    HW134082   0.326   2.351   7.253 -2.0083  0.3365 -0.0610
 7540SOL    HW234083   0.267   2.285   7.381  0.2655 -0.6467 -0.8008
 7541SOL     OW34084   2.416   2.104   3.814  0.2352 -0.4784 -0.3562
 7541SOL    HW134085   2.425   2.049   3.892 -1.3617 -1.1121 -0.6204
 7541SOL    HW234086   2.350   2.168   3.840 -0.2379 -1.5595  1.0713
 7542SOL     OW34087   2.884   3.949  12.633 -0.1393 -0.2565 -0.2740
 7542SOL    HW134088   2.845   4.005  12.700  1.1877  1.4122 -0.9134
 7542SOL    HW234089   2.887   3.998  12.551  0.0151 -2.0372 -1.3368
 7543SOL     OW34090   1.277   3.587   6.324  0.1887  0.0928 -0.2178
 7543SOL    HW134091   1.191   3.569   6.362 -0.7390 -0.1204 -2.4181
 7543SOL    HW234092   1.262   3.652   6.255 -0.9944 -0.3681 -0.4101
 7544SOL     OW34093   4.723   0.311   5.381 -0.1006 -0.0059 -0.4084
 7544SOL    HW134094   0.055   0.350   5.447  0.0025 -0.8713  0.0235
 7544SOL    HW234095   0.058   0.271   5.318  0.1506  0.1288 -0.2533
 7545SOL     OW34096   2.153   1.043   3.209 -0.5401  0.0144 -0.0112
 7545SOL    HW134097   2.147   1.013   3.300 -0.7770 -0.6502 -0.2481
 7545SOL    HW234098   2.064   1.076   3.200 -0.8551 -0.8094  0.0846
 7546SOL     OW34099   2.318   4.207   0.444  0.2465 -0.1480  0.5563
 7546SOL    HW134100   2.362   4.270   0.501  0.7525  1.0501 -1.1486
 7546SOL    HW234101   2.343   4.230   0.354  1.6389 -2.6899  0.2884
 7547SOL     OW34102   3.564   2.058   3.617 -0.4860 -0.3224 -0.1789
 7547SOL    HW134103   3.545   2.021   3.530  0.5203 -0.3095 -0.4068
 7547SOL    HW234104   3.610   2.137   3.589  0.0518 -0.6816 -0.3107
 7548SOL     OW34105   0.645   4.066   4.700 -0.0405 -0.3065  0.2993
 7548SOL    HW134106   0.636   3.980   4.659 -2.1237  0.0810 -0.0628
 7548SOL    HW234107   0.558   4.088   4.732  0.2325  0.5429  0.4736
 7549SOL     OW34108   3.087   4.130  15.970 -0.5988 -0.2262  0.4346
 7549SOL    HW134109   3.036   4.183  16.031 -0.4085 -0.5809  0.9000
 7549SOL    HW234110   3.075   4.175  15.886  1.2817 -0.8494 -0.1628
 7550SOL     OW34111   2.192   0.203   0.464 -0.0631  0.0462 -0.0344
 7550SOL    HW134112   2.273   0.160   0.437 -2.0591 -2.1002 -2.6379
 7550SOL    HW234113   2.227   0.292   0.471  1.0478 -0.4595  0.7341
 7551SOL     OW34114   1.422   0.305   2.944  0.1054  0.0837 -0.5468
 7551SOL    HW134115   1.346   0.264   2.903  0.6218 -1.2287 -0.2287
 7551SOL    HW234116   1.419   0.390   2.902  1.4573  0.1120 -0.5947
 7552SOL     OW34117   2.924   3.962  15.292  0.0516 -0.6355 -0.5282
 7552SOL    HW134118   2.865   3.985  15.364 -1.2565 -0.7270 -1.5799
 7552SOL    HW234119   2.953   4.050  15.269  1.1721 -0.4754  1.4781
 7553SOL     OW34120   1.897   1.310   2.009  0.2204 -0.4436  0.4278
 7553SOL    HW134121   1.959   1.374   2.043 -0.0713  0.5979 -1.0088
 7553SOL    HW234122   1.844   1.375   1.962 -0.0137 -1.0154 -0.0937
 7554SOL     OW34123   0.906   1.860  11.040 -0.0551  0.2033 -0.3841
 7554SOL    HW134124   0.981   1.829  11.091 -1.6684 -3.8849 -0.5456
 7554SOL    HW234125   0.935   1.829  10.955  2.0019 -1.4429  0.9382
 7555SOL     OW34126   0.943   2.221  16.854  0.3135  0.3360  0.0264
 7555SOL    HW134127   0.889   2.205  16.931 -1.4655  3.6644 -0.5512
 7555SOL    HW234128   0.971   2.310  16.873 -0.6282  0.8863 -1.1954
 7556SOL     OW34129   4.682   4.618   3.080  0.5771 -0.0183 -0.1944
 7556SOL    HW134130   4.651   4.612   3.171  2.9870 -2.0871  0.4965
 7556SOL    HW234131   0.045   4.648   3.104  0.4655 -0.3338  0.6281
 7557SOL     OW34132   3.708   1.559   6.155 -0.3220 -0.2045  0.0820
 7557SOL    HW134133   3.647   1.507   6.103  1.1630 -2.5286  0.6847
 7557SOL    HW234134   3.654   1.597   6.224 -0.6663 -0.7369  0.1034
 7558SOL     OW34135   3.689   2.492   6.742 -0.4288 -0.1191  1.3537
 7558SOL    HW134136   3.671   2.404   6.774  0.0195  0.1213  2.2664
 7558SOL    HW234137   3.603   2.532   6.743 -0.2596  0.1968  3.3234
 7559SOL     OW34138   3.012   2.526  11.080 -0.3526  0.0092  0.0601
 7559SOL    HW134139   3.023   2.619  11.060 -3.0095  0.2258 -0.3380
 7559SOL    HW234140   2.929   2.522  11.032 -2.4731  3.0665  3.4504
 7560SOL     OW34141   2.657   3.630  16.436  0.0816 -0.2963 -0.1346
 7560SOL    HW134142   2.592   3.561  16.427 -0.7261  0.5577 -0.8783
 7560SOL    HW234143   2.618   3.687  16.502  1.9468 -1.7634  2.1997
 7561SOL     OW34144   3.070   2.770  17.025 -0.3885  0.0191  0.0888
 7561SOL    HW134145   3.073   2.814  16.940  2.6923 -2.4531 -1.0855
 7561SOL    HW234146   3.082   2.677  17.004  1.8201  0.6438 -1.3706
 7562SOL     OW34147   2.822   3.097   1.982 -0.4669  0.1282 -0.8467
 7562SOL    HW134148   2.830   3.023   1.923 -0.6954 -0.9359  0.4669
 7562SOL    HW234149   2.786   3.155   1.915 -0.1753  1.0268 -0.2381
 7563SOL     OW34150   0.168   2.950  13.010 -0.6559  0.2912 -0.1722
 7563SOL    HW134151   0.260   2.964  12.988 -0.6893  1.3592  0.3888
 7563SOL    HW234152   0.170   2.920  13.100  0.3432 -1.2773 -0.7217
 7564SOL     OW34153   2.933   1.278   4.332 -0.3488  0.0538 -0.0977
 7564SOL    HW134154   2.859   1.267   4.272 -0.1633 -0.2975 -0.2598
 7564SOL    HW234155   2.894   1.228   4.404  0.8878 -1.6519 -0.6233
 7565SOL     OW34156   1.458   0.077   7.056 -0.1746  0.8874  0.1493
 7565SOL    HW134157   1.470   0.170   7.074  0.8035  1.3135 -2.6612
 7565SOL    HW234158   1.482   0.040   7.141  0.9529 -1.1243 -1.0237
 7566SOL     OW34159   3.150   0.201  17.622 -0.3953  0.2223 -0.0917
 7566SOL    HW134160   3.179   0.110  17.624 -0.2806  0.2600 -0.0198
 7566SOL    HW234161   3.197   0.241  17.548  0.4575 -1.4656 -0.4553
 7567SOL     OW34162   2.633   4.101  15.734 -0.1210 -0.0314 -0.2251
 7567SOL    HW134163   2.541   4.082  15.713 -0.1865  0.9307 -0.7982
 7567SOL    HW234164   2.627   4.192  15.763 -0.8172  0.1933 -1.0905
 7568SOL     OW34165   0.408   2.410   1.347 -0.0808  0.5012  0.0240
 7568SOL    HW134166   0.385   2.317   1.342  0.6539  0.3220 -0.1242
 7568SOL    HW234167   0.504   2.401   1.349 -0.1696 -0.4324 -0.0246
 7569SOL     OW34168   3.135   4.314   5.229  0.4453 -0.4170  0.1211
 7569SOL    HW134169   3.151   4.302   5.135 -1.0408  0.7976 -0.3019
 7569SOL    HW234170   3.077   4.391   5.226  1.7878  0.5647 -0.2737
 7570SOL     OW34171   4.153   2.102   9.823  0.1507 -0.3871  0.4939
 7570SOL    HW134172   4.212   2.169   9.789 -0.4359  0.3066  0.8334
 7570SOL    HW234173   4.071   2.139   9.790  0.8909  2.5118  1.8317
 7571SOL     OW34174   1.139   0.969   6.188 -0.2130 -0.4530  0.3389
 7571SOL    HW134175   1.201   1.024   6.140 -2.4731  1.6002 -0.2540
 7571SOL    HW234176   1.157   1.013   6.272  0.9547  0.6546 -0.4982
 7572SOL     OW34177   4.382   0.512   8.416  0.1048  0.7233 -0.0988
 7572SOL    HW134178   4.469   0.480   8.390 -0.4783  0.1930 -1.3848
 7572SOL    HW234179   4.330   0.434   8.396  1.4108  0.3228 -1.8704
 7573SOL     OW34180   1.426   3.071   6.212 -0.2632  0.1904  0.4851
 7573SOL    HW134181   1.472   3.057   6.129 -0.1679 -1.0048  0.7375
 7573SOL    HW234182   1.357   3.136   6.198  0.4351  1.2103  1.8129
 7574SOL     OW34183   3.067   2.785   8.321 -0.1430 -0.2556  0.2717
 7574SOL    HW134184   3.043   2.692   8.330  1.2105 -0.7197 -0.8758
 7574SOL    HW234185   3.040   2.813   8.234  1.0235 -0.4408 -0.1489
 7575SOL     OW34186   4.294   4.691   8.413 -0.6394  0.1719  0.3199
 7575SOL    HW134187   4.269   4.667   8.502  2.7152 -0.3778  1.1100
 7575SOL    HW234188   4.387   4.669   8.414 -1.2223 -2.2699  0.3717
 7576SOL     OW34189   0.376   4.124   2.641 -0.5176  0.2305  0.1702
 7576SOL    HW134190   0.283   4.119   2.662 -0.8162 -0.4374 -1.2893
 7576SOL    HW234191   0.415   4.179   2.709 -0.8001 -1.4057  1.6597
 7577SOL     OW34192   3.436   3.873   2.691 -0.0279  0.2250 -0.1582
 7577SOL    HW134193   3.482   3.809   2.636 -0.8248  0.8196 -1.5077
 7577SOL    HW234194   3.434   3.945   2.629 -1.0482  0.1089 -0.2601
 7578SOL     OW34195   3.957   2.638   7.375 -0.4087  0.5487  0.0316
 7578SOL    HW134196   3.902   2.561   7.386 -0.7626  1.0124  1.5109
 7578SOL    HW234197   3.971   2.638   7.280  1.4131 -1.3825  0.3113
 7579SOL     OW34198   4.629   2.520   0.344 -0.2550  0.0171 -0.2476
 7579SOL    HW134199   4.563   2.452   0.346 -0.9712  0.7419  0.5752
 7579SOL    HW234200   4.695   2.478   0.398 -1.3313 -0.9263  0.3228
 7580SOL     OW34201   2.903   4.168  15.726 -0.2294  0.1544  0.1544
 7580SOL    HW134202   2.953   4.154  15.646  0.2523  3.3611 -0.0964
 7580SOL    HW234203   2.824   4.115  15.717  0.6367 -1.4557  2.0595
 7581SOL     OW34204   3.855   3.313   4.856 -0.3006  0.1688  0.0534
 7581SOL    HW134205   3.823   3.402   4.843 -1.6839 -0.5147 -1.2265
 7581SOL    HW234206   3.906   3.300   4.776 -0.9740 -1.0229 -0.1937
 7582SOL     OW34207   3.604   1.947   9.947 -0.2592 -0.0251  0.3240
 7582SOL    HW134208   3.688   1.950   9.993 -0.3721  0.3650  0.5034
 7582SOL    HW234209   3.545   1.973  10.018 -0.5653  0.3763 -0.0812
 7583SOL     OW34210   0.753   1.476   1.728 -0.7989 -0.3559 -0.4488
 7583SOL    HW134211   0.798   1.559   1.707  0.0495 -1.1681 -1.8417
 7583SOL    HW234212   0.832   1.423   1.743 -0.1762 -0.0370 -2.5847
 7584SOL     OW34213   3.122   3.056  15.187 -0.7052 -0.5592 -0.0400
 7584SOL    HW134214   3.198   3.105  15.218 -0.9254 -0.8172  0.9098
 7584SOL    HW234215   3.130   3.025  15.097 -0.4410 -0.0963 -0.1767
 7585SOL     OW34216   1.209   3.824   6.890 -0.4179  0.3714 -0.0475
 7585SOL    HW134217   1.174   3.876   6.817 -0.8334  1.1202  0.6826
 7585SOL    HW234218   1.295   3.800   6.853 -0.6085  0.9465 -0.8787
 7586SOL     OW34219   1.549   4.453   9.797  0.0441 -0.3368 -0.3266
 7586SOL    HW134220   1.505   4.491   9.721  4.0931  1.2497 -1.8453
 7586SOL    HW234221   1.630   4.503   9.798  1.7275 -3.0641 -0.8219
 7587SOL     OW34222   3.324   3.451   1.386 -0.1724  0.4074 -0.4960
 7587SOL    HW134223   3.400   3.407   1.425 -0.2278 -1.5103 -2.5827
 7587SOL    HW234224   3.298   3.510   1.457 -0.3678  2.9910 -2.7460
 7588SOL     OW34225   1.648   0.354   8.852  0.4970 -0.1307 -0.5663
 7588SOL    HW134226   1.602   0.419   8.799  1.7011 -0.5866 -2.1729
 7588SOL    HW234227   1.661   0.400   8.935  2.3099  2.2836 -2.1670
 7589SOL     OW34228   1.041   3.951  11.963 -0.3053  0.0924 -0.7450
 7589SOL    HW134229   1.021   3.862  11.994  2.5704 -1.1945 -2.6434
 7589SOL    HW234230   0.952   3.986  11.964 -0.8302 -1.3378  1.9089
 7590SOL     OW34231   0.958   3.260   3.049  0.3878 -0.4012 -0.4759
 7590SOL    HW134232   0.915   3.230   2.969 -1.0085  2.0102 -0.6512
 7590SOL    HW234233   1.021   3.323   3.014 -1.2334 -1.1431 -4.6702
 7591SOL     OW34234   2.192   2.032   7.243 -0.1761 -0.0969 -0.3008
 7591SOL    HW134235   2.186   1.977   7.165  1.9669 -0.1126 -0.4446
 7591SOL    HW234236   2.131   1.993   7.306 -0.5307  0.4612 -0.2964
 7592SOL     OW34237   1.329   0.278   8.323  0.4603 -0.0877 -0.1705
 7592SOL    HW134238   1.350   0.193   8.282  0.8715 -1.3074  2.5999
 7592SOL    HW234239   1.382   0.267   8.402  1.7990 -0.2213 -1.0751
 7593SOL     OW34240   2.255   4.118  17.361  0.0001 -0.4781  0.0636
 7593SOL    HW134241   2.274   4.114  17.454 -0.6996  0.9703  0.2654
 7593SOL    HW234242   2.209   4.035  17.344 -1.4634 -0.0984  2.1973
 7594SOL     OW34243   2.926   3.575   2.643  0.1569  0.1588  0.0384
 7594SOL    HW134244   2.931   3.639   2.572 -0.6640  0.6176  0.3889
 7594SOL    HW234245   3.015   3.542   2.637  0.3774  1.0283 -1.6141
 7595SOL     OW34246   1.422   2.769   5.496 -0.2399 -0.4002 -0.7438
 7595SOL    HW134247   1.471   2.697   5.536 -1.2536 -1.3557 -1.2137
 7595SOL    HW234248   1.339   2.727   5.473 -1.1570  1.9715 -1.7349
 7596SOL     OW34249   4.308   2.796   2.694 -0.7295 -0.1834  0.0672
 7596SOL    HW134250   4.353   2.717   2.724  0.3597  0.9104  1.3037
 7596SOL    HW234251   4.216   2.768   2.705 -0.6091 -1.1879 -1.5297
 7597SOL     OW34252   2.296   0.515   1.316  0.8942 -0.4923  0.2846
 7597SOL    HW134253   2.288   0.468   1.233  4.7554 -0.1795 -0.2895
 7597SOL    HW234254   2.338   0.445   1.367  1.0123 -0.4131  0.2961
 7598SOL     OW34255   2.921   3.635   0.166  0.4084  0.0889 -0.1489
 7598SOL    HW134256   2.842   3.689   0.157  1.6686  2.3537  2.4928
 7598SOL    HW234257   2.957   3.664   0.250 -0.9138 -3.5794  1.6762
 7599SOL     OW34258   0.595   2.671   2.953 -0.5662 -0.6305 -0.3391
 7599SOL    HW134259   0.638   2.623   3.023 -1.5981 -1.7433 -0.4644
 7599SOL    HW234260   0.614   2.605   2.887  2.7362  0.3958 -0.3799
 7600SOL     OW34261   0.888   0.173  16.388  0.5267 -0.4221  0.3601
 7600SOL    HW134262   0.843   0.254  16.411  0.3776  0.0467 -1.5850
 7600SOL    HW234263   0.926   0.137  16.468  0.0371  0.2919  0.9193
 7601SOL     OW34264   0.559   2.475   9.535 -0.0529 -0.5998 -0.0132
 7601SOL    HW134265   0.624   2.408   9.513 -0.3832 -1.0827  0.4836
 7601SOL    HW234266   0.605   2.521   9.606 -0.8415 -2.6082  1.7810
 7602SOL     OW34267   1.889   4.397   1.466  0.2175  0.1271 -0.1740
 7602SOL    HW134268   1.968   4.374   1.516 -0.2895  2.9503  1.9160
 7602SOL    HW234269   1.870   4.483   1.503 -1.7114 -1.1758  1.8501
 7603SOL     OW34270   0.143   3.780   7.201  0.0403  0.2039  0.0899
 7603SOL    HW134271   0.151   3.843   7.130  1.8775 -0.9842 -0.7667
 7603SOL    HW234272   0.065   3.735   7.169 -0.2052  1.3930 -0.9882
 7604SOL     OW34273   1.077   1.035   9.762  0.4736 -0.2119 -0.2629
 7604SOL    HW134274   1.137   1.108   9.776 -0.3404  0.3814  0.0987
 7604SOL    HW234275   0.995   1.080   9.741  0.4083 -1.4171 -2.5968
 7605SOL     OW34276   3.088   1.293   5.716  0.0801  0.1438 -0.6574
 7605SOL    HW134277   3.083   1.363   5.781 -1.0671 -0.8808  0.3416
 7605SOL    HW234278   3.040   1.227   5.765  1.0008 -1.4525 -1.9301
 7606SOL     OW34279   2.571   2.172   2.389 -0.6152  0.2830 -0.3034
 7606SOL    HW134280   2.489   2.149   2.346 -0.8123  1.7162 -0.7003
 7606SOL    HW234281   2.574   2.104   2.456 -1.6025  1.6927  1.1665
 7607SOL     OW34282   0.298   1.354  14.033  0.3115 -0.1644  0.2895
 7607SOL    HW134283   0.309   1.443  14.067  0.8775 -0.9941  2.2969
 7607SOL    HW234284   0.218   1.361  13.980  1.1746  2.6080 -0.6260
 7608SOL     OW34285   2.416   0.498   7.041  0.2871  0.0548 -0.1678
 7608SOL    HW134286   2.492   0.444   7.020 -0.5703 -0.9151 -0.7808
 7608SOL    HW234287   2.450   0.574   7.088 -1.7154  0.8439  0.0359
 7609SOL     OW34288   1.241   1.590   5.733 -0.0455  1.1556  0.0675
 7609SOL    HW134289   1.275   1.671   5.694 -0.0349  1.3541  0.4851
 7609SOL    HW234290   1.225   1.620   5.822 -1.1684  0.2247  0.1713
 7610SOL     OW34291   3.154   2.686  11.622 -0.6796  0.3621 -0.1376
 7610SOL    HW134292   3.132   2.669  11.713  1.0821  1.4154  0.4796
 7610SOL    HW234293   3.168   2.594  11.598 -0.6140  0.8442 -1.9273
 7611SOL     OW34294   4.057   3.030   2.095 -0.1066  0.1797  0.0326
 7611SOL    HW134295   3.984   3.092   2.086  1.4314  2.1827  1.4394
 7611SOL    HW234296   4.135   3.077   2.067  0.8155 -0.7627  1.0420
 7612SOL     OW34297   3.111   4.629   4.777  0.4113 -0.3638  0.3432
 7612SOL    HW134298   3.117   4.653   4.869  1.4294 -0.9486  0.4215
 7612SOL    HW234299   3.055   4.697   4.739  2.6005  1.1223 -0.2475
 7613SOL     OW34300   1.088   0.941  14.173 -0.6573  0.5903  0.3722
 7613SOL    HW134301   1.010   0.945  14.228 -0.5272 -0.0631  0.6153
 7613SOL    HW234302   1.162   0.988  14.210  1.0399 -0.2840 -1.8718
 7614SOL     OW34303   1.129   4.052   1.650 -0.2095  0.1910 -0.0325
 7614SOL    HW134304   1.199   4.117   1.644 -1.6667  1.7902  0.3140
 7614SOL    HW234305   1.078   4.098   1.716 -1.4549 -2.3731  0.7836
 7615SOL     OW34306   0.887   1.169   8.138 -0.4768  0.1692 -0.2811
 7615SOL    HW134307   0.843   1.137   8.217  0.6460  2.3062  1.2065
 7615SOL    HW234308   0.966   1.116   8.139 -1.0317 -0.6735 -3.1878
 7616SOL     OW34309   4.395   0.154  11.077 -0.1222 -0.2584 -0.6690
 7616SOL    HW134310   4.388   0.158  11.172  1.4757 -1.1407 -0.5188
 7616SOL    HW234311   4.465   0.218  11.063  0.4125 -0.7339 -0.1408
 7617SOL     OW34312   1.522   1.909   6.305  0.0066 -0.1558  0.4054
 7617SOL    HW134313   1.450   1.907   6.368 -0.1205  1.0765  0.2919
 7617SOL    HW234314   1.572   1.990   6.317 -1.7667  1.1005 -0.6212
 7618SOL     OW34315   0.876   1.629   4.903 -0.1904  0.1569 -0.1422
 7618SOL    HW134316   0.967   1.624   4.876 -0.4838 -0.7402 -0.9615
 7618SOL    HW234317   0.870   1.549   4.956  2.7385 -0.0141 -0.0991
 7619SOL     OW34318   2.205   4.494   7.232 -0.1442  0.5949  0.1538
 7619SOL    HW134319   2.110   4.490   7.244 -0.0017  4.3593  2.4859
 7619SOL    HW234320   2.208   4.546   7.151 -2.0721  2.2147  1.1376
 7620SOL     OW34321   2.819   1.918   7.379 -0.2233  0.4523  0.4619
 7620SOL    HW134322   2.833   1.942   7.471 -2.3930  2.9651  0.1326
 7620SOL    HW234323   2.885   1.969   7.331 -2.1847  0.2017 -2.5243
 7621SOL     OW34324   0.655   2.373   3.743  0.1368  0.0598 -0.0151
 7621SOL    HW134325   0.665   2.386   3.837  2.0127  0.9974 -0.3344
 7621SOL    HW234326   0.565   2.406   3.736 -0.8457 -2.3811  1.4268
 7622SOL     OW34327   0.613   3.990  13.926  0.0333 -0.0888  0.0871
 7622SOL    HW134328   0.682   4.019  13.986  2.8038 -2.0201 -2.2014
 7622SOL    HW234329   0.538   3.987  13.986 -1.4640 -0.3176 -1.7887
 7623SOL     OW34330   3.524   3.678   3.015  0.1091  0.4522 -0.0713
 7623SOL    HW134331   3.502   3.594   2.975 -4.1802  2.7626 -2.6147
 7623SOL    HW234332   3.449   3.732   2.987 -0.8312 -1.1292 -0.5952
 7624SOL     OW34333   4.642   1.165  11.267  0.4588  0.7186 -0.1596
 7624SOL    HW134334   4.653   1.153  11.362 -0.3591 -2.3242 -0.4424
 7624SOL    HW234335   4.565   1.115  11.241  0.9515  1.3327 -2.7136
 7625SOL     OW34336   1.133   1.451   2.884 -0.0180 -0.1667  0.2934
 7625SOL    HW134337   1.220   1.423   2.914 -0.1944 -0.9462  0.0645
 7625SOL    HW234338   1.133   1.427   2.792 -0.1812 -0.0275  0.2569
 7626SOL     OW34339   0.736   4.337   2.362  0.3736  0.5574 -0.1283
 7626SOL    HW134340   0.830   4.343   2.346  0.1486  0.9208 -1.2713
 7626SOL    HW234341   0.695   4.381   2.287 -0.3666  1.4263  0.7758
 7627SOL     OW34342   1.986   2.219   5.085 -0.4078  0.1406 -0.1374
 7627SOL    HW134343   1.963   2.133   5.121  2.5002 -0.7670 -0.4544
 7627SOL    HW234344   2.082   2.221   5.091 -0.3720 -1.3649 -0.0360
 7628SOL     OW34345   2.209   0.333   8.908  0.0979 -0.3180 -0.0065
 7628SOL    HW134346   2.269   0.337   8.833 -0.1209  0.1528 -0.1582
 7628SOL    HW234347   2.166   0.250   8.887 -0.5494 -0.7277  2.9160
 7629SOL     OW34348   3.214   2.628  12.897  0.3102  0.4885  0.0871
 7629SOL    HW134349   3.188   2.720  12.890  0.8508  0.4566 -2.5628
 7629SOL    HW234350   3.227   2.615  12.990 -2.8386 -0.2816  0.4152
 7630SOL     OW34351   4.364   2.927   2.461  0.1875  0.1574 -0.5791
 7630SOL    HW134352   4.422   2.860   2.425  1.1129  1.7071 -1.9806
 7630SOL    HW234353   4.349   2.886   2.546  2.8882  0.9357  0.3014
 7631SOL     OW34354   1.231   3.313   6.795 -0.2912 -0.0468 -0.1131
 7631SOL    HW134355   1.199   3.267   6.718 -0.8595  2.4072 -1.3506
 7631SOL    HW234356   1.324   3.328   6.779 -0.3322  1.7087  1.2727
 7632SOL     OW34357   0.736   0.678  10.543 -0.3509  0.9084  0.3134
 7632SOL    HW134358   0.652   0.649  10.506  0.7504 -0.6278 -1.0212
 7632SOL    HW234359   0.740   0.639  10.630 -3.2565 -0.6365 -0.2473
 7633SOL     OW34360   1.558   1.530  15.870 -0.2220 -0.4004  0.4847
 7633SOL    HW134361   1.643   1.573  15.861 -0.2638 -0.1099  1.4154
 7633SOL    HW234362   1.526   1.567  15.953 -0.5055 -1.9449  1.0622
 7634SOL     OW34363   4.495   1.420   6.383  0.6939  0.2414 -0.0608
 7634SOL    HW134364   4.412   1.373   6.388 -0.0800  1.6270  0.0262
 7634SOL    HW234365   4.467   1.493   6.328  0.6714  0.2928  0.0181
 7635SOL     OW34366   2.582   3.566   3.021 -0.3755  0.0033  0.2339
 7635SOL    HW134367   2.501   3.563   2.970 -0.2283  2.6490 -0.1412
 7635SOL    HW234368   2.581   3.653   3.060 -0.4173  1.0655 -2.1311
 7636SOL     OW34369   2.214   2.646  14.417  0.2197 -0.5651 -0.0710
 7636SOL    HW134370   2.279   2.674  14.352  0.6404 -0.2670  0.4738
 7636SOL    HW234371   2.152   2.609  14.355  0.0842  0.3586 -0.4873
 7637SOL     OW34372   2.917   0.068   0.918 -0.5470 -0.0413 -0.2158
 7637SOL    HW134373   2.921   0.075   1.014 -1.0821  0.5256 -0.2365
 7637SOL    HW234374   2.922   4.698   0.908  1.0371  0.2393 -2.0424
 7638SOL     OW34375   1.163   2.368   4.177  0.1123 -0.3790  0.3459
 7638SOL    HW134376   1.204   2.345   4.261  1.9158  1.6989  0.0343
 7638SOL    HW234377   1.077   2.326   4.181 -0.9180  1.7773  0.9326
 7639SOL     OW34378   1.881   1.410   6.133 -0.2877 -0.4946 -0.5365
 7639SOL    HW134379   1.886   1.479   6.068  0.4086  0.6701  0.7435
 7639SOL    HW234380   1.952   1.436   6.192 -0.5105 -1.4143  0.1525
 7640SOL     OW34381   2.266   2.682   5.743 -0.1504 -0.3111 -0.6641
 7640SOL    HW134382   2.342   2.665   5.687  0.2150 -0.9650  0.0314
 7640SOL    HW234383   2.279   2.773   5.768  1.2437 -1.0337  1.2406
 7641SOL     OW34384   1.587   0.394   0.130 -0.3825  0.2186 -0.0234
 7641SOL    HW134385   1.626   0.421   0.213  1.6649 -2.1344 -0.2212
 7641SOL    HW234386   1.611   0.470   0.076 -2.5945 -0.5613 -2.0845
 7642SOL     OW34387   4.566   3.317   3.194  0.8078  0.0521 -0.0507
 7642SOL    HW134388   4.483   3.304   3.240 -0.0740  2.6201 -0.9698
 7642SOL    HW234389   4.552   3.275   3.109 -1.2851  2.7310 -1.0091
 7643SOL     OW34390   3.071   2.213  13.060 -0.6581 -0.8058 -0.0195
 7643SOL    HW134391   3.099   2.183  12.974 -2.0674 -1.2925 -0.3051
 7643SOL    HW234392   3.015   2.144  13.097 -1.4388  1.5024  3.1202
 7644SOL     OW34393   0.017   0.417   4.102 -0.6182  0.2416  0.0172
 7644SOL    HW134394   0.097   0.466   4.123  0.1882 -1.3936  0.7595
 7644SOL    HW234395   0.050   0.361   4.031  0.3009  1.7919 -0.7811
 7645SOL     OW34396   1.021   0.595   8.266  0.3963  0.3167 -0.2354
 7645SOL    HW134397   0.939   0.625   8.306  1.5449 -0.2626  2.5321
 7645SOL    HW234398   0.992   0.514   8.225 -1.0016  0.2308  0.9041
 7646SOL     OW34399   4.085   4.051   4.187 -0.1147 -0.2478  0.3468
 7646SOL    HW134400   4.043   4.080   4.106  0.7871 -1.5825 -0.6055
 7646SOL    HW234401   4.087   4.135   4.234  0.5676  0.7601 -1.4562
 7647SOL     OW34402   3.099   0.967   8.519 -0.2917  0.4940  0.4217
 7647SOL    HW134403   3.111   1.062   8.522 -0.1859  0.4465  1.5204
 7647SOL    HW234404   3.089   0.947   8.426  3.2268 -2.7646  0.7490
 7648SOL     OW34405   1.398   1.684   2.770  0.2324 -0.3258 -0.2418
 7648SOL    HW134406   1.357   1.664   2.686 -0.7267 -1.1716  0.4368
 7648SOL    HW234407   1.486   1.706   2.739 -0.0003  0.2459 -0.4908
 7649SOL     OW34408   1.176   4.623   5.047  0.3552 -0.3006  0.5133
 7649SOL    HW134409   1.183   4.592   5.138 -1.8549  1.4532  1.2741
 7649SOL    HW234410   1.243   4.691   5.058  1.1642 -0.9260 -0.5985
 7650SOL     OW34411   0.906   1.311   3.002 -0.7745  1.3202 -0.6907
 7650SOL    HW134412   0.922   1.287   2.911 -2.7030  1.2040 -1.0063
 7650SOL    HW234413   0.871   1.398   2.987 -1.4296  1.1737 -0.0625
 7651SOL     OW34414   4.171   0.759   3.824  0.5146 -0.0733 -0.0217
 7651SOL    HW134415   4.172   0.676   3.871 -1.3544 -0.9458 -1.5307
 7651SOL    HW234416   4.128   0.820   3.884 -2.5714 -1.0342 -1.2618
 7652SOL     OW34417   3.356   3.349   6.183  0.6507 -0.6728 -0.5017
 7652SOL    HW134418   3.444   3.375   6.153 -0.6654  0.3708 -3.4753
 7652SOL    HW234419   3.292   3.407   6.143  2.1122  2.7405  2.1384
 7653SOL     OW34420   0.603   4.677   8.052 -0.5883  0.4328  0.2429
 7653SOL    HW134421   0.586   4.585   8.071  1.1433 -0.9368 -4.6971
 7653SOL    HW234422   0.550   4.680   7.972  0.2617  2.4127 -0.2352
 7654SOL     OW34423   3.422   3.086   5.917  0.2755  0.3552 -0.2447
 7654SOL    HW134424   3.428   3.065   6.011  1.5842  0.3579 -0.3288
 7654SOL    HW234425   3.395   3.177   5.928  2.3667  0.8990  0.3169
 7655SOL     OW34426   3.099   4.723   8.907 -0.0177 -0.1645  0.6475
 7655SOL    HW134427   3.074   0.090   8.915  1.9680  0.2813  1.8366
 7655SOL    HW234428   3.175   0.007   8.848 -0.0391 -0.3590  0.5913
 7656SOL     OW34429   4.448   1.270   4.893  0.2548  0.3144 -0.4417
 7656SOL    HW134430   4.398   1.195   4.926 -1.6608  1.7025 -0.1518
 7656SOL    HW234431   4.380   1.319   4.847 -0.8009 -0.6543  0.0847
 7657SOL     OW34432   2.339   4.131   0.891 -0.4576 -0.8006  0.6509
 7657SOL    HW134433   2.296   4.099   0.971 -1.1430  1.0301  1.0135
 7657SOL    HW234434   2.257   4.145   0.845 -0.0940  0.1017  0.2867
 7658SOL     OW34435   4.128   4.253   9.702 -1.1893  0.5528  0.7146
 7658SOL    HW134436   4.107   4.343   9.676 -0.8539  0.6013  0.6135
 7658SOL    HW234437   4.047   4.221   9.663 -1.3084  1.9395 -0.1848
 7659SOL     OW34438   3.780   0.964   5.465 -0.4191  0.4128  0.1820
 7659SOL    HW134439   3.695   0.921   5.456  0.3966 -0.6557 -2.5135
 7659SOL    HW234440   3.830   0.899   5.515  0.6423  0.5271 -0.7238
 7660SOL     OW34441   0.840   3.273  10.544 -0.0745 -0.5636  0.8340
 7660SOL    HW134442   0.782   3.326  10.489  0.5484 -1.4849 -0.7230
 7660SOL    HW234443   0.917   3.330  10.545  0.2708 -1.0202  0.1175
 7661SOL     OW34444   1.801   4.288   2.213 -0.0697 -0.2581  0.3097
 7661SOL    HW134445   1.843   4.309   2.129 -2.0538  0.3198 -0.5396
 7661SOL    HW234446   1.810   4.376   2.249 -2.5932  0.5357 -0.9854
 7662SOL     OW34447   0.411   3.603   7.585  0.0395 -0.5258  0.5600
 7662SOL    HW134448   0.323   3.572   7.604 -0.2973  1.1840  1.7461
 7662SOL    HW234449   0.392   3.654   7.507  0.8186 -1.0244  0.0420
 7663SOL     OW34450   0.875   0.371   7.112 -0.5369 -0.5988  0.2681
 7663SOL    HW134451   0.955   0.424   7.105 -0.7976 -0.2531 -0.1284
 7663SOL    HW234452   0.879   0.362   7.207 -1.5636  0.5784  0.4202
 7664SOL     OW34453   2.106   2.055   0.237  0.6388 -0.2391 -0.0046
 7664SOL    HW134454   2.040   2.116   0.270 -1.1458 -2.5076  0.5857
 7664SOL    HW234455   2.096   2.066   0.142  2.7345 -0.4944 -0.2642
 7665SOL     OW34456   1.475   2.656  10.611  0.1691 -0.1101  0.0597
 7665SOL    HW134457   1.421   2.650  10.690  1.2192  0.3675  0.8114
 7665SOL    HW234458   1.449   2.743  10.579 -1.1362 -0.5850 -0.2037
 7666SOL     OW34459   0.303   3.459   5.700 -0.2477  0.1263  0.4766
 7666SOL    HW134460   0.228   3.409   5.667 -0.5657 -0.3881  2.0127
 7666SOL    HW234461   0.357   3.395   5.746  1.8941  0.7700 -1.1392
 7667SOL     OW34462   0.391   3.473  12.414  0.6821 -0.8266  0.1426
 7667SOL    HW134463   0.333   3.404  12.382  2.8352 -1.0106 -3.3623
 7667SOL    HW234464   0.439   3.482  12.331 -0.6336  3.1846 -0.1724
 7668SOL     OW34465   2.512   2.388   6.442  0.3299  0.7442  0.2350
 7668SOL    HW134466   2.439   2.439   6.477 -1.4690 -0.3155 -1.9057
 7668SOL    HW234467   2.521   2.437   6.360 -1.1197  0.7950  0.0997
 7669SOL     OW34468   0.131   2.039  13.660 -0.4785 -0.4297 -0.1259
 7669SOL    HW134469   0.171   2.022  13.746 -0.7069  1.3024  0.3243
 7669SOL    HW234470   0.078   1.960  13.655 -0.2022 -0.7338  1.8140
 7670SOL     OW34471   4.496   0.722  14.300 -0.9515  0.0459  0.1214
 7670SOL    HW134472   4.579   0.676  14.293 -1.4173 -1.0537  1.9034
 7670SOL    HW234473   4.450   0.689  14.223  1.1434 -2.3509 -0.0891
 7671SOL     OW34474   4.193   4.019  17.157  0.3264  0.1003 -0.7458
 7671SOL    HW134475   4.150   4.063  17.083 -1.2631  1.8400  1.2402
 7671SOL    HW234476   4.190   4.076  17.234  1.9240  0.9643 -1.3135
 7672SOL     OW34477   2.541   1.126  14.380 -0.0457 -0.0283  0.3578
 7672SOL    HW134478   2.473   1.117  14.446  1.8699  0.0827  2.3293
 7672SOL    HW234479   2.622   1.114  14.428 -0.2377 -0.9083  0.4646
 7673SOL     OW34480   0.450   0.956  16.903  0.0798  0.4282  0.4979
 7673SOL    HW134481   0.466   1.017  16.831 -0.4471 -1.5436 -1.3082
 7673SOL    HW234482   0.355   0.964  16.914 -0.1724 -3.0483  1.0747
 7674SOL     OW34483   3.229   0.990  16.904 -0.4799 -0.1441 -0.0822
 7674SOL    HW134484   3.280   1.042  16.842 -1.7979  0.3017 -0.7830
 7674SOL    HW234485   3.199   1.059  16.962  0.2372  0.7055 -0.7190
 7675SOL     OW34486   2.181   3.249   4.025  0.4807  0.2770 -0.0844
 7675SOL    HW134487   2.229   3.171   3.995 -3.8114 -1.8729 -1.2727
 7675SOL    HW234488   2.107   3.216   4.075 -0.7386 -3.3982 -4.2930
 7676SOL     OW34489   2.786   0.406   5.932  0.0620 -0.4767 -0.4106
 7676SOL    HW134490   2.869   0.386   5.889 -0.5184 -1.1857 -1.2065
 7676SOL    HW234491   2.806   0.489   5.974 -1.3247 -0.2567 -0.1752
 7677SOL     OW34492   2.156   3.847   7.378 -0.0087  0.0962  0.0216
 7677SOL    HW134493   2.134   3.785   7.309 -1.0274 -1.0005  1.3326
 7677SOL    HW234494   2.073   3.884   7.408 -0.5858  0.1104 -1.5982
 7678SOL     OW34495   4.272   3.172   7.127  0.5645  0.6696 -0.0063
 7678SOL    HW134496   4.348   3.196   7.181  0.4070  1.2268 -0.0320
 7678SOL    HW234497   4.192   3.206   7.167  1.3253  3.4004 -0.7663
 7679SOL     OW34498   3.568   4.494   4.632 -0.2154  0.2945 -0.3744
 7679SOL    HW134499   3.517   4.572   4.610  0.7569  1.0208 -0.0400
 7679SOL    HW234500   3.657   4.512   4.603 -0.3739  3.3489  1.1379
 7680SOL     OW34501   3.996   2.201  10.588  0.1120 -0.5493  0.3501
 7680SOL    HW134502   4.001   2.200  10.684  1.3405  0.6654  0.3041
 7680SOL    HW234503   4.091   2.190  10.577  0.0826 -0.4460  0.0057
 7681SOL     OW34504   1.625   1.215   2.456 -0.4109 -0.3522  0.1584
 7681SOL    HW134505   1.529   1.218   2.453 -0.4729 -1.0896  1.7565
 7681SOL    HW234506   1.639   1.310   2.459 -3.7462  0.1552 -0.5067
 7682SOL     OW34507   1.622   1.771   1.913  0.4042 -0.5172 -0.4520
 7682SOL    HW134508   1.684   1.842   1.930 -1.5188  0.8643  0.8789
 7682SOL    HW234509   1.644   1.754   1.822 -1.1442 -0.0983 -0.8979
 7683SOL     OW34510   1.210   2.799   3.636  0.2268 -0.2109 -0.5030
 7683SOL    HW134511   1.134   2.783   3.691  2.1841 -2.3672  1.5952
 7683SOL    HW234512   1.173   2.796   3.548 -0.1311 -0.0292 -0.3563
 7684SOL     OW34513   1.181   4.549  17.304  0.1203  0.2835 -0.4446
 7684SOL    HW134514   1.272   4.519  17.302 -0.2982 -0.8941 -2.1005
 7684SOL    HW234515   1.174   4.584  17.392 -1.6630 -1.3989  0.0778
 7685SOL     OW34516   2.788   3.143   8.476  0.6231  0.6342 -0.5093
 7685SOL    HW134517   2.828   3.227   8.499  2.2990  0.3909 -2.5455
 7685SOL    HW234518   2.855   3.087   8.514  0.0326  1.4157  1.6778
 7686SOL     OW34519   4.041   3.832   6.385  0.3160 -0.4889  0.1445
 7686SOL    HW134520   4.088   3.765   6.436  2.0419 -0.4791 -1.4068
 7686SOL    HW234521   4.103   3.904   6.378  0.6385 -0.9842 -2.2449
 7687SOL     OW34522   3.691   3.557   7.991  0.0210 -0.2002  0.4351
 7687SOL    HW134523   3.767   3.544   8.047 -2.4564 -0.7210  3.7529
 7687SOL    HW234524   3.637   3.567   8.070 -1.8472 -1.0406 -0.7389
 7688SOL     OW34525   4.711   0.142   9.730 -0.6621  0.2791  0.0582
 7688SOL    HW134526   4.628   0.109   9.697  0.2899 -1.5407 -0.5217
 7688SOL    HW234527   0.044   0.066   9.733 -1.9067 -0.6149  1.7143
 7689SOL     OW34528   2.380   3.493  16.542  0.4259  0.6372 -0.0553
 7689SOL    HW134529   2.324   3.418  16.559  0.7736 -0.0166 -1.7568
 7689SOL    HW234530   2.435   3.455  16.473  1.4078  1.9458 -0.0089
 7690SOL     OW34531   4.148   1.774   1.869  0.5243  0.0355  0.2065
 7690SOL    HW134532   4.108   1.801   1.787  0.3271 -0.0151  0.2867
 7690SOL    HW234533   4.223   1.831   1.886  1.2413 -0.6084 -0.7748
 7691SOL     OW34534   2.777   0.068  13.325  0.2071 -0.5080 -0.6397
 7691SOL    HW134535   2.735   0.108  13.402 -0.6119  1.7516 -2.2537
 7691SOL    HW234536   2.709   0.007  13.297 -3.0630  2.9208 -0.2938
 7692SOL     OW34537   0.690   3.506   1.809 -0.4082 -0.1990  0.2872
 7692SOL    HW134538   0.760   3.467   1.757  1.2980  0.8964  1.7596
 7692SOL    HW234539   0.719   3.510   1.901 -0.7926  2.0182  0.3273
 7693SOL     OW34540   3.647   2.978   4.669  0.3983  0.2732  0.7410
 7693SOL    HW134541   3.554   2.998   4.668  0.4423  0.3207 -2.6290
 7693SOL    HW234542   3.695   3.038   4.611 -0.4601  0.3781  0.1370
 7694SOL     OW34543   2.545   4.455  11.485  0.3714  0.2562 -0.6950
 7694SOL    HW134544   2.512   4.367  11.469  0.2434  0.1296  0.2514
 7694SOL    HW234545   2.545   4.472  11.580  0.9149 -2.1830 -0.2703
 7695SOL     OW34546   2.321   2.218   8.368  0.1131  0.4411  0.4623
 7695SOL    HW134547   2.268   2.174   8.300  1.6777  1.3252 -1.3281
 7695SOL    HW234548   2.279   2.304   8.361 -0.4488 -0.0397 -2.2251
 7696SOL     OW34549   1.759   4.545  16.066  0.8316 -0.4391  0.1352
 7696SOL    HW134550   1.725   4.549  16.155  0.6528  1.1783  0.0041
 7696SOL    HW234551   1.728   4.630  16.036  2.0967 -1.2978 -3.6397
 7697SOL     OW34552   0.674   3.188   9.169 -0.2043 -0.2060  0.0580
 7697SOL    HW134553   0.643   3.161   9.255 -0.0908  3.0048  1.0984
 7697SOL    HW234554   0.672   3.283   9.182 -1.4026 -0.4390  1.5687
 7698SOL     OW34555   2.837   3.126   1.594 -0.0533  0.4385 -0.3134
 7698SOL    HW134556   2.885   3.053   1.553 -1.6301 -1.8497  1.8810
 7698SOL    HW234557   2.798   3.156   1.512  1.1230 -0.9034 -1.3678
 7699SOL     OW34558   4.717   3.005   7.833  0.3431 -0.0774  0.0747
 7699SOL    HW134559   0.048   2.981   7.759 -0.3505  1.0778 -0.8290
 7699SOL    HW234560   4.637   2.965   7.798  0.9553 -2.4300  1.4030
 7700SOL     OW34561   0.981   3.424   4.371  0.0425 -0.3084 -0.4350
 7700SOL    HW134562   0.929   3.491   4.328 -1.0523 -1.0233 -0.2381
 7700SOL    HW234563   0.912   3.373   4.413 -0.4985  0.7467 -0.0503
 7701SOL     OW34564   3.280   1.374   7.965  0.2909  0.4148  0.0726
 7701SOL    HW134565   3.194   1.331   7.969  0.9116 -0.8897 -0.6544
 7701SOL    HW234566   3.298   1.410   8.051 -1.7241  0.2846  0.5490
 7702SOL     OW34567   3.539   3.703   6.917  0.4704  0.0469  0.4570
 7702SOL    HW134568   3.577   3.703   6.829 -0.6952  0.5622 -0.0419
 7702SOL    HW234569   3.566   3.620   6.954  1.7930  0.0921 -0.4081
 7703SOL     OW34570   3.510   2.680   3.203  0.1730 -0.6169 -0.2455
 7703SOL    HW134571   3.601   2.709   3.200 -0.4414  1.2830 -0.4436
 7703SOL    HW234572   3.471   2.742   3.266  0.2032 -0.4742 -0.3667
 7704SOL     OW34573   4.412   2.666   6.205  0.3607 -0.2331 -0.0304
 7704SOL    HW134574   4.468   2.743   6.216 -0.8714  0.8585 -1.4410
 7704SOL    HW234575   4.435   2.638   6.116  2.8442 -0.0843  0.5551
 7705SOL     OW34576   3.200   1.416   2.816  0.6624  0.1635  0.6392
 7705SOL    HW134577   3.245   1.333   2.832 -0.8342 -0.5265  1.3027
 7705SOL    HW234578   3.119   1.379   2.780  0.4573  1.7427 -0.4994
 7706SOL     OW34579   0.748   3.127  13.971  0.3441 -0.0686  0.6185
 7706SOL    HW134580   0.786   3.210  13.941  0.2169  0.1723  1.1153
 7706SOL    HW234581   0.828   3.078  13.990 -0.2462 -1.0745  0.4972
 7707SOL     OW34582   2.964   4.375   6.337  0.8278  0.0722 -0.0955
 7707SOL    HW134583   3.044   4.379   6.389  0.5065 -1.4224  0.5168
 7707SOL    HW234584   2.896   4.414   6.392 -0.3977 -1.9837 -0.1370
 7708SOL     OW34585   0.548   0.945   4.717 -0.1882 -0.3524  0.5419
 7708SOL    HW134586   0.456   0.971   4.715 -0.4870 -1.4087  0.7053
 7708SOL    HW234587   0.538   0.879   4.649  0.8268  0.5696 -0.5128
 7709SOL     OW34588   4.157   4.203   7.010 -0.0328 -0.8472  0.6194
 7709SOL    HW134589   4.201   4.121   6.986 -0.4058 -1.2019  1.1479
 7709SOL    HW234590   4.161   4.199   7.105  1.7943  2.1110  0.6609
 7710SOL     OW34591   1.145   4.453   0.844  0.1384 -0.2036  0.3293
 7710SOL    HW134592   1.229   4.461   0.798 -0.1060 -1.3951 -0.2988
 7710SOL    HW234593   1.139   4.360   0.866 -3.6012  0.9126  3.9147
 7711SOL     OW34594   3.115   0.538   5.170 -0.5392 -0.3897 -0.6101
 7711SOL    HW134595   3.060   0.511   5.244 -2.4263  0.7435 -1.6059
 7711SOL    HW234596   3.194   0.571   5.214  0.6503 -2.3625 -1.2691
 7712SOL     OW34597   0.896   3.760  10.927 -0.6818  0.5733  0.1872
 7712SOL    HW134598   0.914   3.715  10.845 -3.3300 -0.3789  0.1110
 7712SOL    HW234599   0.982   3.771  10.968 -0.8596  0.5787  0.5587
 7713SOL     OW34600   3.886   1.930   4.469 -0.3997  0.4423  0.2519
 7713SOL    HW134601   3.863   1.920   4.377 -0.9323  0.7086  0.3552
 7713SOL    HW234602   3.944   2.006   4.462 -0.9737  0.9582  1.1609
 7714SOL     OW34603   1.402   0.650  12.639 -0.7772 -0.1089  0.4502
 7714SOL    HW134604   1.390   0.613  12.551  0.3681  0.0059  0.2447
 7714SOL    HW234605   1.360   0.734  12.627  1.0868  0.7300 -0.2268
 7715SOL     OW34606   4.676   1.060   9.363 -0.3411 -0.2342 -0.3097
 7715SOL    HW134607   4.684   1.098   9.276 -1.1037  0.6004 -0.0133
 7715SOL    HW234608   0.037   1.020   9.375 -0.2040  0.4950  1.1074
 7716SOL     OW34609   2.775   1.519   4.921 -0.1102  0.1516 -0.7847
 7716SOL    HW134610   2.773   1.503   5.015  0.8080  0.3737 -0.7273
 7716SOL    HW234611   2.715   1.593   4.914 -1.3632 -0.7200  0.6848
 7717SOL     OW34612   4.290   1.908   8.516  0.7461 -0.8685 -0.1160
 7717SOL    HW134613   4.310   1.935   8.606  1.5796 -3.1705  0.3994
 7717SOL    HW234614   4.349   1.972   8.477  0.2779  1.0490  2.3865
 7718SOL     OW34615   2.661   0.770   2.794  0.0698 -0.2808  0.2219
 7718SOL    HW134616   2.567   0.785   2.800 -0.1016 -0.5332 -1.6153
 7718SOL    HW234617   2.687   0.830   2.864  1.7414  0.0096 -0.6403
 7719SOL     OW34618   3.027   3.687  16.079  0.2409  0.0639 -0.2609
 7719SOL    HW134619   2.956   3.688  16.143  0.8326 -0.5212  0.4098
 7719SOL    HW234620   2.999   3.761  16.026  1.0450 -0.5786 -1.5895
 7720SOL     OW34621   1.921   2.814   7.315  0.1419 -0.1384 -0.2751
 7720SOL    HW134622   1.980   2.799   7.389 -0.8331 -0.4832  0.4316
 7720SOL    HW234623   1.916   2.910   7.311  3.6562 -0.1002 -3.2869
 7721SOL     OW34624   1.163   4.495   5.370 -0.1126 -0.1998 -0.3970
 7721SOL    HW134625   1.193   4.405   5.381 -0.5163 -0.3015 -0.1603
 7721SOL    HW234626   1.234   4.542   5.414 -0.6162  0.9943 -0.8314
 7722SOL     OW34627   2.562   2.101   5.826 -0.0995 -0.0443  0.1757
 7722SOL    HW134628   2.651   2.112   5.858 -0.1656 -2.4961  1.2405
 7722SOL    HW234629   2.523   2.093   5.914 -1.3159 -0.8035 -0.4277
 7723SOL     OW34630   4.481   3.599   8.233  0.2125  0.4147  0.6209
 7723SOL    HW134631   4.520   3.686   8.240  0.6220  0.0757  2.4889
 7723SOL    HW234632   4.424   3.604   8.156  0.1151  0.7875  0.7147
 7724SOL     OW34633   0.475   3.786   8.278 -0.0791  0.3357 -0.2398
 7724SOL    HW134634   0.476   3.876   8.247 -0.8876  0.2578 -0.4857
 7724SOL    HW234635   0.403   3.788   8.341 -0.0326 -2.7994 -0.0862
 7725SOL     OW34636   0.625   2.799   9.744  0.7403 -0.0558  0.2044
 7725SOL    HW134637   0.633   2.780   9.837  0.2966  2.3070  0.7277
 7725SOL    HW234638   0.668   2.718   9.716  1.7494  1.5537 -2.9780
 7726SOL     OW34639   2.591   0.400   3.805 -0.2616  0.9619 -0.2530
 7726SOL    HW134640   2.526   0.465   3.833 -0.4767  0.8481 -0.4884
 7726SOL    HW234641   2.567   0.400   3.712 -0.3595  0.9662 -0.2282
 7727SOL     OW34642   1.019   1.412   4.111  0.3241 -0.1008 -0.0206
 7727SOL    HW134643   1.029   1.505   4.087  0.7573 -0.1261  0.0587
 7727SOL    HW234644   0.984   1.425   4.199  0.0153  0.9769 -0.3001
 7728SOL     OW34645   3.390   2.232   3.133 -0.1964 -0.2609  0.2241
 7728SOL    HW134646   3.452   2.223   3.206 -0.5009 -0.4711  0.4589
 7728SOL    HW234647   3.409   2.318   3.097  1.5481 -0.9620 -0.5196
 7729SOL     OW34648   1.136   1.650  12.164 -0.0515  0.4192  0.5387
 7729SOL    HW134649   1.077   1.612  12.230 -2.0092  0.3963 -1.2167
 7729SOL    HW234650   1.137   1.739  12.200 -0.1838  0.0486  1.4596
 7730SOL     OW34651   0.649   2.933  14.193  0.4284 -0.6303 -0.2156
 7730SOL    HW134652   0.704   2.989  14.138  0.1233  0.2525  0.3901
 7730SOL    HW234653   0.561   2.965  14.175  1.2586  0.2847 -2.5804
 7731SOL     OW34654   4.495   2.439   8.744 -0.0746 -0.1538  0.0372
 7731SOL    HW134655   4.473   2.523   8.705  1.9179  0.3432  0.0060
 7731SOL    HW234656   4.472   2.463   8.834  1.4414  1.2493  0.0376
 7732SOL     OW34657   0.488   1.486   3.637  0.5211 -0.5361 -0.2716
 7732SOL    HW134658   0.556   1.474   3.703 -0.5932 -0.5010  0.8747
 7732SOL    HW234659   0.530   1.545   3.575  0.0170  0.7273  0.5908
 7733SOL     OW34660   0.310   1.867   9.475  0.3171  0.4238 -0.3564
 7733SOL    HW134661   0.219   1.841   9.456 -0.2822  2.3321 -0.1091
 7733SOL    HW234662   0.337   1.914   9.396  0.8168  1.6586  0.5524
 7734SOL     OW34663   2.436   4.140  10.247  0.1381 -0.2388  0.4280
 7734SOL    HW134664   2.360   4.188  10.282  0.3752  0.6570 -0.2873
 7734SOL    HW234665   2.436   4.162  10.153  0.5499 -1.5120  0.1376
 7735SOL     OW34666   4.297   0.137  15.207 -0.0671  0.1903  0.2214
 7735SOL    HW134667   4.330   0.225  15.190 -0.1479  0.3164  0.7006
 7735SOL    HW234668   4.354   0.114  15.281 -0.1008  0.8764  0.4619
 7736SOL     OW34669   1.218   1.130   5.230  0.1192  0.0732  0.1482
 7736SOL    HW134670   1.283   1.180   5.279 -0.5279 -0.7601  1.8529
 7736SOL    HW234671   1.207   1.059   5.293 -0.8790 -0.6822 -0.8953
 7737SOL     OW34672   3.742   2.094   8.909  0.0550 -0.9813  0.4333
 7737SOL    HW134673   3.801   2.145   8.964  1.9679 -1.1667 -1.4818
 7737SOL    HW234674   3.748   2.011   8.956 -0.2178 -0.6090  1.1203
 7738SOL     OW34675   1.880   2.560   7.226  0.1222 -0.2289  0.2174
 7738SOL    HW134676   1.801   2.563   7.171 -0.6544  2.3727  1.5098
 7738SOL    HW234677   1.874   2.645   7.269  0.8118  0.7361 -1.6575
 7739SOL     OW34678   1.730   1.538   3.911 -0.5910 -0.7109  0.2846
 7739SOL    HW134679   1.795   1.600   3.943 -1.7634  1.3353 -1.2664
 7739SOL    HW234680   1.653   1.587   3.941 -1.7208 -2.1647 -0.1957
 7740SOL     OW34681   2.929   1.381  14.712 -0.1463 -0.2412  0.4203
 7740SOL    HW134682   2.907   1.412  14.800 -2.3682  1.5485 -0.7556
 7740SOL    HW234683   2.849   1.392  14.661 -0.4904  0.9657  1.2078
 7741SOL     OW34684   3.685   0.439   7.980  0.1449 -0.4211  0.1415
 7741SOL    HW134685   3.691   0.491   7.901 -0.2124  1.0535  1.0818
 7741SOL    HW234686   3.629   0.492   8.037  1.3059  1.5981 -0.6127
 7742SOL     OW34687   2.861   3.118  13.661 -0.2677 -0.0639 -0.0901
 7742SOL    HW134688   2.817   3.160  13.587 -0.7082 -0.8783 -0.2839
 7742SOL    HW234689   2.852   3.180  13.733  1.0205 -0.5428  0.4818
 7743SOL     OW34690   1.676   0.758   6.943  0.3719 -0.6352  0.6538
 7743SOL    HW134691   1.618   0.834   6.944  2.8847  1.2956  0.5658
 7743SOL    HW234692   1.749   0.795   6.894 -1.4689  0.7757 -1.0344
 7744SOL     OW34693   1.040   3.442   0.139 -0.2614 -0.1010  0.0203
 7744SOL    HW134694   0.998   3.479   0.061  0.4951 -0.7776 -0.6995
 7744SOL    HW234695   1.090   3.365   0.114  1.3004  1.2525 -1.0244
 7745SOL     OW34696   4.015   2.768   2.114  0.0353 -0.5916  0.2239
 7745SOL    HW134697   4.028   2.857   2.147 -1.8193  0.3172 -1.4744
 7745SOL    HW234698   3.925   2.767   2.081  0.3772 -2.0130 -0.6325
 7746SOL     OW34699   0.350   2.723   2.838  0.2335  0.4147 -0.1073
 7746SOL    HW134700   0.435   2.718   2.883  0.6766  0.2456 -0.9643
 7746SOL    HW234701   0.358   2.638   2.794 -1.4187  0.2077 -0.0162
 7747SOL     OW34702   2.990   2.982  14.556 -0.4445  0.3457 -0.0212
 7747SOL    HW134703   3.042   3.057  14.586 -0.1711 -0.4560  1.5257
 7747SOL    HW234704   2.923   2.981  14.625 -1.3053 -2.0890 -0.8933
 7748SOL     OW34705   1.764   3.767  11.428  0.3839  0.1048  0.2435
 7748SOL    HW134706   1.759   3.690  11.484 -1.0244  0.1423  0.1686
 7748SOL    HW234707   1.780   3.841  11.487  3.2967  0.2315 -0.7211
 7749SOL     OW34708   0.098   0.286   6.953 -0.9521  0.1631 -0.4001
 7749SOL    HW134709   0.170   0.227   6.974 -0.6356  0.6627 -0.0824
 7749SOL    HW234710   0.128   0.327   6.872  1.1530 -2.0825 -0.7504
 7750SOL     OW34711   3.585   1.673  10.790 -0.7469  0.0120  0.0068
 7750SOL    HW134712   3.523   1.635  10.852 -0.4024 -0.1969  0.2219
 7750SOL    HW234713   3.599   1.757  10.834  0.4781  0.4055 -1.1274
 7751SOL     OW34714   4.239   0.841   4.568  0.1297  0.5420  0.2635
 7751SOL    HW134715   4.262   0.766   4.623  1.3087  1.1257  0.5708
 7751SOL    HW234716   4.223   0.900   4.642 -1.7562  0.3455  0.0116
 7752SOL     OW34717   3.317   1.029   0.995  0.2379  0.1259 -0.0256
 7752SOL    HW134718   3.223   1.018   1.004  0.3066  0.8460  1.6903
 7752SOL    HW234719   3.345   0.966   1.061 -0.5995 -0.9299 -0.6993
 7753SOL     OW34720   4.086   2.825   1.691  0.1228  0.4835  0.0537
 7753SOL    HW134721   4.016   2.879   1.655 -0.4260  0.1721  0.6603
 7753SOL    HW234722   4.140   2.898   1.720  0.0757  1.7052 -2.8733
 7754SOL     OW34723   2.789   0.544   8.159  0.2593  0.0474  0.2743
 7754SOL    HW134724   2.770   0.450   8.154 -1.8481  0.4727 -0.0227
 7754SOL    HW234725   2.816   0.559   8.249 -1.2354  0.7815  0.6048
 7755SOL     OW34726   1.491   1.778   1.276 -0.2813 -0.3798  0.2033
 7755SOL    HW134727   1.581   1.748   1.273  0.3934  1.7391 -0.4944
 7755SOL    HW234728   1.463   1.717   1.208  1.2182  0.9000 -1.5505
 7756SOL     OW34729   1.269   3.201   7.650  0.4077 -0.3100  0.1581
 7756SOL    HW134730   1.329   3.205   7.576  0.1859  1.2770  0.0756
 7756SOL    HW234731   1.276   3.108   7.674  0.0700  0.6738  4.0945
 7757SOL     OW34732   2.020   2.582   2.975 -0.1086  0.3024  0.0385
 7757SOL    HW134733   2.087   2.535   2.926 -0.2610  0.2993 -0.1693
 7757SOL    HW234734   2.022   2.659   2.918 -1.4934 -0.4219 -0.9866
 7758SOL     OW34735   3.645   2.244   7.304 -0.0283 -0.0052 -0.2357
 7758SOL    HW134736   3.708   2.315   7.308 -1.1929  0.9112  1.4684
 7758SOL    HW234737   3.566   2.291   7.329  0.8784  0.9956  0.6902
 7759SOL     OW34738   3.191   3.574   2.351  0.0465  0.3524  0.3936
 7759SOL    HW134739   3.177   3.547   2.441  1.1543 -1.5682 -0.0071
 7759SOL    HW234740   3.139   3.653   2.342  0.0670  0.2893 -0.3137
 7760SOL     OW34741   3.366   3.514   0.047 -0.6818  0.4157 -0.4975
 7760SOL    HW134742   3.387   3.606   0.068 -0.9179 -0.1112  2.0707
 7760SOL    HW234743   3.277   3.504   0.081 -0.8657 -1.0842 -1.4603
 7761SOL     OW34744   0.674   1.773   7.447 -0.2825  0.4602 -0.3822
 7761SOL    HW134745   0.657   1.680   7.432  0.8253  0.0852  0.7163
 7761SOL    HW234746   0.706   1.794   7.359 -0.9270  0.4508 -0.6170
 7762SOL     OW34747   1.022   2.858  11.836 -0.3552 -0.1000  0.0239
 7762SOL    HW134748   1.094   2.884  11.894  0.5019 -0.4703 -0.8795
 7762SOL    HW234749   0.991   2.942  11.802 -0.5162 -0.5048 -0.8067
 7763SOL     OW34750   3.926   0.581  13.886 -0.2409  0.3928  0.1473
 7763SOL    HW134751   3.901   0.671  13.865  0.1978  0.1524 -1.4077
 7763SOL    HW234752   3.899   0.541  13.803 -1.1138  2.4031 -0.5167
 7764SOL     OW34753   0.961   0.939  10.011  0.0275  0.2650  0.7224
 7764SOL    HW134754   0.895   1.008  10.003  1.6596  2.0844  3.1873
 7764SOL    HW234755   1.013   0.960   9.934  2.6068 -0.7828  2.1818
 7765SOL     OW34756   2.202   3.024   6.234 -0.7472 -0.4095  0.3711
 7765SOL    HW134757   2.163   3.023   6.146 -2.3765  0.6768  1.0745
 7765SOL    HW234758   2.207   2.932   6.257  0.0694 -0.7657 -1.2391
 7766SOL     OW34759   0.583   3.680   4.380 -0.5998 -0.0708 -0.2070
 7766SOL    HW134760   0.511   3.618   4.365 -2.0920  1.5518  0.2625
 7766SOL    HW234761   0.568   3.733   4.302 -3.2332  0.0366  0.3819
 7767SOL     OW34762   3.891   1.048   6.323 -0.0206  0.4567  0.1944
 7767SOL    HW134763   3.939   0.976   6.364 -1.7967 -1.4247 -1.0513
 7767SOL    HW234764   3.938   1.125   6.355  2.9649 -1.4286  0.3680
 7768SOL     OW34765   2.700   1.532   4.119 -0.1067  0.2186  0.0746
 7768SOL    HW134766   2.736   1.551   4.032 -2.6872 -0.5691 -1.1654
 7768SOL    HW234767   2.729   1.612   4.163  1.8248 -0.1960 -0.4762
 7769SOL     OW34768   0.528   0.121   3.591 -0.1174 -0.3325  0.3015
 7769SOL    HW134769   0.581   0.168   3.527  0.5581  1.3138  2.0779
 7769SOL    HW234770   0.546   0.030   3.568 -1.4852 -0.4555 -0.2621
 7770SOL     OW34771   3.632   0.005  10.717 -0.1460 -0.3016  0.0057
 7770SOL    HW134772   3.638   0.085  10.665 -0.1054  0.0602  0.5648
 7770SOL    HW234773   3.543   4.711  10.689  0.6559 -1.3634 -1.8443
 7771SOL     OW34774   3.968   4.626   6.268  0.0179  0.0604 -0.0182
 7771SOL    HW134775   4.041   4.687   6.263  1.1694 -1.1911  1.7987
 7771SOL    HW234776   3.939   4.629   6.177 -0.5790 -0.8469  0.1424
 7772SOL     OW34777   3.704   1.646   6.647 -0.2875  0.5976  0.0383
 7772SOL    HW134778   3.784   1.594   6.639  1.2345  2.6906  1.7479
 7772SOL    HW234779   3.714   1.700   6.568  2.5827  1.6400  1.1316
 7773SOL     OW34780   1.796   3.781  14.146 -0.9426 -0.3728 -0.2031
 7773SOL    HW134781   1.846   3.861  14.132 -0.4508 -0.1300  2.9158
 7773SOL    HW234782   1.853   3.714  14.108  0.4445  1.3906 -1.2070
 7774SOL     OW34783   2.228   2.146   6.592  0.4718 -0.2923 -0.3946
 7774SOL    HW134784   2.135   2.142   6.615  1.2367 -0.8154  2.5751
 7774SOL    HW234785   2.234   2.209   6.520  1.3118  0.7749  0.6003
 7775SOL     OW34786   1.642   2.600   8.526  0.1473  0.1204  0.0675
 7775SOL    HW134787   1.728   2.609   8.567  0.3589 -0.4554 -0.2575
 7775SOL    HW234788   1.578   2.608   8.597  1.1273 -0.7151  1.0645
 7776SOL     OW34789   1.641   3.204   8.086 -0.5831  0.1037  0.0144
 7776SOL    HW134790   1.720   3.252   8.060  1.1861 -1.4821  2.5048
 7776SOL    HW234791   1.653   3.115   8.054 -1.8420 -0.3349  0.7420
 7777SOL     OW34792   0.738   0.501   3.353  0.0952  0.2603 -0.1654
 7777SOL    HW134793   0.783   0.581   3.323 -1.1028  0.4598 -1.4414
 7777SOL    HW234794   0.650   0.534   3.371 -0.4410 -0.6498 -1.1209
 7778SOL     OW34795   0.053   3.551   1.819  0.2932  0.5739  0.1824
 7778SOL    HW134796   4.692   3.520   1.847  1.1512  0.5224  2.6865
 7778SOL    HW234797   0.115   3.495   1.867  0.2320 -0.0790 -0.4983
 7779SOL     OW34798   0.760   2.715   2.348 -0.7389 -0.6139 -0.1603
 7779SOL    HW134799   0.839   2.735   2.397 -0.2862  2.8406 -2.3447
 7779SOL    HW234800   0.705   2.741   2.421  0.8402  1.9647  0.1114
 7780SOL     OW34801   0.577   3.215   1.925 -0.0475 -0.0178 -0.4567
 7780SOL    HW134802   0.510   3.176   1.869  1.7002 -1.4862 -1.5192
 7780SOL    HW234803   0.610   3.280   1.864  1.1104  1.1800  1.4566
 7781SOL     OW34804   0.231   0.676  10.188 -0.2903  0.1004  0.4785
 7781SOL    HW134805   0.296   0.655  10.120  1.4151 -0.6294  2.3433
 7781SOL    HW234806   0.165   0.608  10.177  0.4238 -0.7829  1.6563
 7782SOL     OW34807   4.488   3.490   7.203  0.1120  0.0759 -0.0663
 7782SOL    HW134808   4.476   3.395   7.203  4.5471 -0.5019  0.7450
 7782SOL    HW234809   4.397   3.499   7.232 -0.3260 -0.6523 -1.2207
 7783SOL     OW34810   4.045   3.466   5.325  0.3290 -0.3481 -0.5341
 7783SOL    HW134811   4.062   3.537   5.264 -0.8742  2.0776  1.9586
 7783SOL    HW234812   4.019   3.398   5.262 -1.4318  1.2528 -1.5112
 7784SOL     OW34813   3.879   4.515   2.160 -0.1171  0.5501  0.8090
 7784SOL    HW134814   3.798   4.499   2.111  1.2058  2.0846 -1.8379
 7784SOL    HW234815   3.890   4.425   2.192 -2.4316  0.1201  0.3685
 7785SOL     OW34816   0.340   2.342   2.021 -0.2170  0.4581  0.2876
 7785SOL    HW134817   0.392   2.310   1.946  0.3140  0.8525  0.4872
 7785SOL    HW234818   0.372   2.283   2.089 -0.8426  0.0179  0.2004
 7786SOL     OW34819   3.377   2.363   7.486  0.7181  0.2681  0.0357
 7786SOL    HW134820   3.349   2.365   7.577 -0.6158 -2.2943 -0.3255
 7786SOL    HW234821   3.435   2.438   7.472 -0.4905  1.0637 -0.6835
 7787SOL     OW34822   0.147   2.708   2.159 -0.0178  0.0200 -0.3386
 7787SOL    HW134823   0.181   2.764   2.229  1.8419 -0.5895 -0.7514
 7787SOL    HW234824   0.058   2.742   2.146  0.5480  1.8758  0.6272
 7788SOL     OW34825   2.297   0.268  17.187 -0.2555 -0.1874 -0.4092
 7788SOL    HW134826   2.358   0.211  17.140 -1.5616 -1.2352 -0.8342
 7788SOL    HW234827   2.313   0.246  17.278  0.6330 -1.1250 -0.7928
 7789SOL     OW34828   0.392   0.888  13.438 -0.0270  0.6685  0.2642
 7789SOL    HW134829   0.374   0.804  13.480 -0.9752  0.8706  0.2633
 7789SOL    HW234830   0.327   0.928  13.496 -0.0570 -1.8149  1.9526
 7790SOL     OW34831   3.621   3.487   3.726  0.2062  0.2147 -0.2247
 7790SOL    HW134832   3.686   3.423   3.698  0.7227 -0.5308  2.7199
 7790SOL    HW234833   3.545   3.430   3.731  1.0957 -0.9406  0.1879
 7791SOL     OW34834   0.280   2.448  11.528  0.0573 -0.0342  0.2271
 7791SOL    HW134835   0.202   2.435  11.475  0.1166 -0.2066  0.1813
 7791SOL    HW234836   0.347   2.403  11.475 -1.1701 -1.8723  0.2673
 7792SOL     OW34837   3.322   1.529   2.535  0.4910  0.2898  0.2734
 7792SOL    HW134838   3.349   1.481   2.614 -1.4525  1.2243  1.5001
 7792SOL    HW234839   3.401   1.577   2.510 -0.4100  1.2413 -0.7290
 7793SOL     OW34840   2.544   0.433   8.405  0.5792 -0.0103  0.3127
 7793SOL    HW134841   2.602   0.359   8.390  0.5958  0.4940 -2.0804
 7793SOL    HW234842   2.606   0.501   8.430  0.1418  0.4432  0.1657
 7794SOL     OW34843   3.540   3.988   6.929 -0.2551 -0.4272  0.1296
 7794SOL    HW134844   3.565   3.898   6.948 -0.8715 -0.4421  0.8794
 7794SOL    HW234845   3.623   4.027   6.901  0.1841 -2.4633 -1.3883
 7795SOL     OW34846   0.241   3.412   8.668 -0.6748  0.0047 -0.2083
 7795SOL    HW134847   0.225   3.324   8.702 -2.3016  0.4324  0.1641
 7795SOL    HW234848   0.168   3.429   8.608 -0.1132  0.6781 -0.7022
 7796SOL     OW34849   0.909   3.444   7.946 -0.0583  0.3945 -0.4431
 7796SOL    HW134850   1.004   3.443   7.958 -0.3951  1.8242  2.5655
 7796SOL    HW234851   0.884   3.352   7.948 -1.5692  0.8447  1.3365
 7797SOL     OW34852   3.734   0.162   6.178 -0.3165 -0.3728 -0.1021
 7797SOL    HW134853   3.727   0.098   6.249 -2.3537 -0.5219 -0.4377
 7797SOL    HW234854   3.764   0.240   6.224  1.7307 -0.9600 -0.4469
 7798SOL     OW34855   3.521   0.591  12.347  0.2071  0.3325  0.0443
 7798SOL    HW134856   3.458   0.535  12.302 -3.0921  3.3725  0.9482
 7798SOL    HW234857   3.462   0.660  12.375  0.7579  1.5214 -1.6749
 7799SOL     OW34858   4.497   2.741  12.912 -0.0940  0.5980  0.0620
 7799SOL    HW134859   4.500   2.821  12.964 -1.4841 -1.9949  4.1622
 7799SOL    HW234860   4.494   2.672  12.979  3.3864  0.6729  0.3192
 7800SOL     OW34861   0.897   1.494  10.241  0.2896 -0.6575  0.6458
 7800SOL    HW134862   0.815   1.487  10.291  0.4244 -0.5535  0.8765
 7800SOL    HW234863   0.895   1.416  10.184  2.1460 -0.8317  0.8187
 7801SOL     OW34864   1.936   2.809   7.925  0.1551 -0.2146 -0.2550
 7801SOL    HW134865   1.960   2.882   7.868 -2.7799  0.6422 -0.4008
 7801SOL    HW234866   1.969   2.840   8.010 -0.2956  2.6811 -1.1344
 7802SOL     OW34867   3.793   1.450   3.895  0.4419  0.4503 -0.1283
 7802SOL    HW134868   3.707   1.450   3.936  0.0522 -0.6539 -0.9505
 7802SOL    HW234869   3.845   1.423   3.971  0.0813 -0.9489 -0.3822
 7803SOL     OW34870   0.757   1.850   8.736  0.0544 -0.0990 -0.4962
 7803SOL    HW134871   0.760   1.892   8.822  3.0037 -1.8859  0.2629
 7803SOL    HW234872   0.665   1.822   8.742 -0.1998  0.6102 -1.0510
 7804SOL     OW34873   4.256   1.705   0.957  0.2437 -0.5242 -0.1059
 7804SOL    HW134874   4.255   1.641   1.028 -0.1219 -1.5683 -1.0466
 7804SOL    HW234875   4.346   1.702   0.926  0.8093  0.1653  1.4495
 7805SOL     OW34876   1.952   0.095   4.313 -0.3600 -0.8441 -0.1096
 7805SOL    HW134877   2.041   0.117   4.343 -0.7943 -1.6230  1.7932
 7805SOL    HW234878   1.928   0.008   4.347  0.5109 -1.6956 -1.6551
 7806SOL     OW34879   4.106   2.712  14.203 -0.2954  0.4163  0.6107
 7806SOL    HW134880   4.042   2.729  14.273 -1.9202 -0.6515 -0.5962
 7806SOL    HW234881   4.074   2.768  14.133  0.8121 -1.5549 -1.4895
 7807SOL     OW34882   2.640   0.282   9.146 -0.0903 -0.4311 -0.6301
 7807SOL    HW134883   2.584   0.358   9.159 -0.1257 -0.4224 -0.8389
 7807SOL    HW234884   2.677   0.264   9.233 -2.8962  0.1527  0.6773
 7808SOL     OW34885   2.797   0.315  15.094  0.0724  0.6388 -0.2482
 7808SOL    HW134886   2.791   0.351  15.182 -1.4125 -0.8643  0.2646
 7808SOL    HW234887   2.816   0.223  15.108  0.0615  0.6633 -0.0785
 7809SOL     OW34888   0.792   0.278   5.561  0.5843  0.3340  0.5453
 7809SOL    HW134889   0.787   0.209   5.495  4.0423  0.0135  0.6648
 7809SOL    HW234890   0.878   0.269   5.600  1.0290 -0.4756 -0.6271
 7810SOL     OW34891   1.664   2.894  14.778 -0.3842 -0.2754  0.3440
 7810SOL    HW134892   1.627   2.921  14.694 -0.6669 -0.6604  0.3442
 7810SOL    HW234893   1.673   2.802  14.755  0.3985  0.0414 -0.5901
 7811SOL     OW34894   1.629   0.845   6.457  0.2040 -0.1263 -0.4183
 7811SOL    HW134895   1.714   0.874   6.489 -0.2843  1.9888 -0.9838
 7811SOL    HW234896   1.616   0.761   6.501  0.8596  0.6291  1.2455
 7812SOL     OW34897   0.575   0.133   2.731 -0.4107  0.2544 -0.0609
 7812SOL    HW134898   0.502   0.174   2.684  0.8331  1.1998 -1.1689
 7812SOL    HW234899   0.643   0.198   2.710 -2.1927  1.2047 -2.9172
 7813SOL     OW34900   1.345   3.359   2.176  0.2814  0.7516  0.2215
 7813SOL    HW134901   1.373   3.294   2.112 -0.0710 -0.4645  1.3038
 7813SOL    HW234902   1.395   3.327   2.251  1.9262 -0.5704 -1.4279
 7814SOL     OW34903   0.180   3.114   8.585 -0.5167 -0.0438  0.2609
 7814SOL    HW134904   0.104   3.156   8.546  0.4383  0.4304 -1.1195
 7814SOL    HW234905   0.140   3.037   8.626 -2.2926 -0.5879 -2.5226
 7815SOL     OW34906   0.892   1.264   3.903 -0.1699 -0.2381  0.2416
 7815SOL    HW134907   0.816   1.319   3.882 -0.4371 -1.0854 -0.9798
 7815SOL    HW234908   0.893   1.279   3.998  2.2914 -1.1336  0.3532
 7816SOL     OW34909   3.328   1.556   5.186 -0.0683  0.0152  0.2093
 7816SOL    HW134910   3.383   1.542   5.109  2.0873  0.1318  1.7144
 7816SOL    HW234911   3.247   1.594   5.153 -1.1826 -0.0774  2.8187
 7817SOL     OW34912   2.878   3.615   7.642 -0.5170 -0.0973 -0.1510
 7817SOL    HW134913   2.866   3.575   7.729  0.0294  0.7349  0.3089
 7817SOL    HW234914   2.961   3.576   7.615 -1.2167 -0.9448 -1.0545
 7818SOL     OW34915   3.344   1.887  10.233  1.0502  0.2370 -0.3921
 7818SOL    HW134916   3.418   1.948  10.229  0.5112  0.9492  0.5663
 7818SOL    HW234917   3.372   1.822  10.297 -0.9578  0.0919  0.3181
 7819SOL     OW34918   2.241   2.476   2.056  0.4258  0.5732 -0.0378
 7819SOL    HW134919   2.286   2.403   2.097  0.2955  1.2909  1.3917
 7819SOL    HW234920   2.304   2.527   2.005 -0.3783  3.3230  1.6799
 7820SOL     OW34921   0.354   1.500   6.904 -0.3467 -0.8264 -0.3394
 7820SOL    HW134922   0.306   1.480   6.824 -0.8503 -1.8810  0.2309
 7820SOL    HW234923   0.357   1.595   6.894  0.3946 -0.9023 -0.8461
 7821SOL     OW34924   3.054   3.166   0.861  0.1795 -0.5830 -0.2265
 7821SOL    HW134925   3.053   3.233   0.793 -0.3327 -0.9497 -0.5832
 7821SOL    HW234926   3.126   3.194   0.918 -2.0714 -1.6091  3.1039
 7822SOL     OW34927   1.478   4.345   7.082  0.8782 -0.4276  0.0525
 7822SOL    HW134928   1.459   4.263   7.036  1.1824 -0.7265  0.4648
 7822SOL    HW234929   1.391   4.379   7.098  0.6250 -0.3303 -1.4759
 7823SOL     OW34930   3.801   0.226   3.185 -0.1675  0.0628 -0.5698
 7823SOL    HW134931   3.837   0.140   3.165  0.8683 -0.2142  2.3937
 7823SOL    HW234932   3.747   0.232   3.107 -0.4189 -1.1433 -0.4784
 7824SOL     OW34933   0.066   2.817   3.996 -0.5742  0.1160  0.0872
 7824SOL    HW134934   0.062   2.794   3.903  1.7812  0.8144 -0.1746
 7824SOL    HW234935   4.725   2.886   3.986  0.6967  1.6291  2.0070
 7825SOL     OW34936   2.868   1.897   9.155  0.8197  0.2234  0.1721
 7825SOL    HW134937   2.916   1.934   9.081  0.0143 -1.8339 -1.3846
 7825SOL    HW234938   2.892   1.804   9.147 -1.1574 -0.2071 -0.6718
 7826SOL     OW34939   1.609   0.567   7.671 -0.4717 -0.3804  0.0425
 7826SOL    HW134940   1.679   0.526   7.722 -2.2879  0.0072  2.8716
 7826SOL    HW234941   1.645   0.591   7.586  0.9620  2.4598  1.4341
 7827SOL     OW34942   0.130   4.610   2.797 -0.3482 -0.8701 -0.3063
 7827SOL    HW134943   0.158   4.526   2.760  0.5528 -0.1335 -1.2955
 7827SOL    HW234944   0.036   4.599   2.812  0.0965 -1.9403  1.6597
 7828SOL     OW34945   3.738   2.037   0.341  0.2641  0.5601  0.0559
 7828SOL    HW134946   3.738   1.996   0.427 -0.1043 -1.1588 -0.7645
 7828SOL    HW234947   3.832   2.054   0.342  0.6200 -1.2585 -2.7432
 7829SOL     OW34948   1.088   2.597   8.900  0.3060  0.1395  0.2244
 7829SOL    HW134949   0.994   2.584   8.915  0.6067 -0.6379  1.4773
 7829SOL    HW234950   1.078   2.648   8.820  0.7925 -0.0791  0.0286
 7830SOL     OW34951   2.471   0.433  12.932 -0.5068 -0.3891  0.1631
 7830SOL    HW134952   2.499   0.472  12.850 -1.6942 -2.0069 -1.0249
 7830SOL    HW234953   2.522   0.351  12.931  0.0675 -0.0228 -0.5729
 7831SOL     OW34954   0.812   2.383   5.219  0.1348 -0.0784 -0.1182
 7831SOL    HW134955   0.814   2.299   5.173 -0.3343 -0.4673  0.5726
 7831SOL    HW234956   0.871   2.358   5.289 -0.4720 -1.0078  0.0694
 7832SOL     OW34957   0.154   3.768   2.064  0.1421 -0.1593  0.1046
 7832SOL    HW134958   0.064   3.745   2.039  0.0708  0.7030 -0.4038
 7832SOL    HW234959   0.145   3.802   2.154  1.4821 -0.8059  0.4802
 7833SOL     OW34960   3.616   1.766  12.483  0.1674  0.1507  0.0296
 7833SOL    HW134961   3.618   1.824  12.406  1.8135  0.8408  0.5914
 7833SOL    HW234962   3.523   1.745  12.476  0.5582 -1.3447 -0.5811
 7834SOL     OW34963   1.189   0.759   9.718  0.1877 -0.6741  0.3465
 7834SOL    HW134964   1.133   0.836   9.713  0.0581 -0.7262  0.9650
 7834SOL    HW234965   1.133   0.704   9.773  0.1879 -0.7333  0.2870
 7835SOL     OW34966   0.705   3.032   5.607  0.1870 -0.4864  0.0455
 7835SOL    HW134967   0.767   2.968   5.572 -1.9686 -1.5717 -1.7853
 7835SOL    HW234968   0.688   3.005   5.698 -1.1993  0.1964 -0.0188
 7836SOL     OW34969   4.108   3.321   1.786  0.4350  0.1857  0.0357
 7836SOL    HW134970   4.173   3.387   1.813 -0.7176  0.9535  0.9283
 7836SOL    HW234971   4.134   3.241   1.832  0.4328  0.1658  0.0022
 7837SOL     OW34972   0.898   4.012   4.892  0.5715  0.4691  0.1278
 7837SOL    HW134973   0.887   3.920   4.915  0.8888  0.2905 -0.4358
 7837SOL    HW234974   0.808   4.045   4.889  0.0818 -0.8511  0.3275
 7838SOL     OW34975   1.986   0.129   6.798 -1.5869 -0.1969  0.1820
 7838SOL    HW134976   1.976   0.118   6.892 -0.2311 -2.6805  0.0538
 7838SOL    HW234977   2.068   0.177   6.791 -1.7426 -0.0576 -0.7263
 7839SOL     OW34978   3.475   4.055   2.913  1.0892 -0.6118  0.3065
 7839SOL    HW134979   3.439   4.013   2.991  1.2651  1.0429  1.2733
 7839SOL    HW234980   3.463   3.984   2.850 -1.1873  0.4874 -0.4844
 7840SOL     OW34981   3.137   2.127   7.702 -0.1312 -0.1203 -0.0731
 7840SOL    HW134982   3.089   2.166   7.776  0.5006  1.4960 -0.5298
 7840SOL    HW234983   3.076   2.148   7.631  0.8240  0.9681 -0.5705
 7841SOL     OW34984   3.334   0.151   7.057 -0.6977  0.6349  0.1492
 7841SOL    HW134985   3.342   0.224   6.996  3.5088  1.9805  2.3251
 7841SOL    HW234986   3.423   0.122   7.076 -0.4776  0.9510 -0.3818
 7842SOL     OW34987   0.180   2.014   5.862  0.4166  0.3234  0.1042
 7842SOL    HW134988   0.227   2.035   5.781  0.5751 -1.2446 -0.2081
 7842SOL    HW234989   0.157   2.099   5.897 -0.1769  0.3179 -0.2771
 7843SOL     OW34990   0.312   4.110   7.772  0.2270 -0.3265  0.0931
 7843SOL    HW134991   0.360   4.028   7.761 -1.4978 -1.3329  0.0497
 7843SOL    HW234992   0.298   4.129   7.679  0.5995  1.5916  0.4488
 7844SOL     OW34993   4.582   4.600  12.673 -0.0343 -0.1517 -0.4624
 7844SOL    HW134994   4.527   4.529  12.705  0.9926 -1.1453 -0.8586
 7844SOL    HW234995   4.562   4.600  12.580  0.1176  3.4361 -0.4882
 7845SOL     OW34996   4.465   1.621   1.343  0.1264 -0.4295 -0.4511
 7845SOL    HW134997   4.397   1.653   1.403  0.9865  0.2256  0.1573
 7845SOL    HW234998   4.416   1.587   1.268 -2.0276  0.2327  0.6610
 7846SOL     OW34999   1.718   4.565  16.701  0.8944  0.1449 -0.6434
 7846SOL    HW135000   1.782   4.615  16.752 -0.0623  2.4123 -1.7268
 7846SOL    HW235001   1.713   4.621  16.624 -1.2141 -0.3963 -0.9015
 7847SOL     OW35002   3.306   1.569  11.755  0.1889 -0.4231  0.2849
 7847SOL    HW135003   3.377   1.504  11.763 -0.5158 -1.4385 -1.7516
 7847SOL    HW235004   3.233   1.516  11.723 -0.8886  0.4174  1.3561
 7848SOL     OW35005   3.606   2.011  14.394 -0.2422 -0.1697  0.3519
 7848SOL    HW135006   3.572   1.996  14.482  0.8900  1.2038  1.0322
 7848SOL    HW235007   3.534   1.983  14.338  0.5879  1.2285 -1.4278
 7849SOL     OW35008   1.380   2.477   9.576  0.2264 -0.2501 -0.0805
 7849SOL    HW135009   1.388   2.417   9.650 -1.9846 -0.8754 -0.3420
 7849SOL    HW235010   1.330   2.544   9.623  1.9749  1.8555 -1.2156
 7850SOL     OW35011   3.734   2.029   4.232  0.1011 -0.1521 -0.0690
 7850SOL    HW135012   3.804   2.050   4.170  0.6002  0.2784  0.6273
 7850SOL    HW235013   3.664   2.080   4.192 -1.4468 -2.0173  0.2710
 7851SOL     OW35014   0.507   4.583   3.442  0.0774  0.5274  0.1064
 7851SOL    HW135015   0.414   4.602   3.434  0.2665  1.4315  0.1308
 7851SOL    HW235016   0.525   4.576   3.348 -2.2181 -1.4269 -0.1885
 7852SOL     OW35017   3.025   3.817  11.943  0.1566  0.0399 -0.1953
 7852SOL    HW135018   2.961   3.874  11.986  0.0262 -0.7857  0.7068
 7852SOL    HW235019   3.097   3.830  12.005  0.6691  0.4957 -0.8824
 7853SOL     OW35020   1.963   2.922  14.774  0.4147 -0.2680  1.1444
 7853SOL    HW135021   2.005   3.004  14.797  0.8724 -0.2133  0.1111
 7853SOL    HW235022   1.870   2.943  14.774 -0.2700 -3.2552  1.3351
 7854SOL     OW35023   1.213   3.958   2.841 -0.1112  0.2703 -0.1172
 7854SOL    HW135024   1.207   3.983   2.933 -0.3425  2.0059 -0.5908
 7854SOL    HW235025   1.282   3.892   2.839 -1.1530 -0.9182  2.8818
 7855SOL     OW35026   2.283   0.805  15.910  0.0944 -0.7318 -0.1917
 7855SOL    HW135027   2.248   0.873  15.967  2.2283  1.6058 -1.6771
 7855SOL    HW235028   2.351   0.762  15.961 -1.7115 -3.2176  0.1601
 7856SOL     OW35029   1.782   0.436   2.532 -0.2064 -0.4936 -0.2841
 7856SOL    HW135030   1.796   0.366   2.468  0.2203  0.2885 -1.0443
 7856SOL    HW235031   1.728   0.392   2.598 -0.4140  3.4860  2.2178
 7857SOL     OW35032   3.950   1.483   6.233 -0.0979  0.8699  0.3085
 7857SOL    HW135033   3.860   1.514   6.229 -0.6932 -0.9823 -0.7896
 7857SOL    HW235034   3.945   1.416   6.165 -1.0416  1.6721 -0.4014
 7858SOL     OW35035   2.969   0.927  16.858  0.2714 -0.2182  0.0325
 7858SOL    HW135036   2.983   0.839  16.822  2.9662 -1.0149  3.0286
 7858SOL    HW235037   3.053   0.971  16.851  1.6125 -2.9725 -1.4651
 7859SOL     OW35038   3.843   1.666   2.395  0.3232 -0.1171 -0.5664
 7859SOL    HW135039   3.854   1.589   2.339 -1.6729 -0.4356 -0.5123
 7859SOL    HW235040   3.915   1.665   2.458 -1.6548  0.3185  1.6773
 7860SOL     OW35041   3.931   2.867   8.458 -0.7823 -0.0102  0.8285
 7860SOL    HW135042   3.869   2.923   8.411  2.8098  1.8533 -1.6582
 7860SOL    HW235043   4.007   2.905   8.414 -1.2505 -1.8075 -1.5262
 7861SOL     OW35044   2.350   4.284  15.518 -0.1153  0.3501  0.0478
 7861SOL    HW135045   2.354   4.308  15.610  0.2565 -1.4021  0.4969
 7861SOL    HW235046   2.433   4.321  15.489  0.0754 -0.3875 -0.3499
 7862SOL     OW35047   1.008   2.477   4.762 -0.2554  0.7910  0.5769
 7862SOL    HW135048   0.917   2.506   4.762 -0.2581  0.7934 -0.4827
 7862SOL    HW235049   1.005   2.435   4.676  3.6277 -0.8427  1.2414
 7863SOL     OW35050   3.374   2.074   5.956  0.1561 -0.3508  0.1352
 7863SOL    HW135051   3.436   2.138   5.991 -1.7706  0.9767  1.1440
 7863SOL    HW235052   3.404   2.077   5.865 -0.2966  2.5201  0.0778
 7864SOL     OW35053   1.031   3.057   4.456 -0.7955 -0.2736 -0.1649
 7864SOL    HW135054   0.999   2.980   4.409  0.7861 -0.0839 -1.5528
 7864SOL    HW235055   1.090   3.012   4.516 -1.1799 -2.2910 -1.3183
 7865SOL     OW35056   0.763   4.427   5.208 -0.7889  0.0345 -0.4563
 7865SOL    HW135057   0.800   4.341   5.193  0.7719  0.4171  1.1564
 7865SOL    HW235058   0.777   4.469   5.123 -2.5404  0.9426 -0.2976
 7866SOL     OW35059   4.344   1.629   7.991 -0.2224 -0.1091 -0.1720
 7866SOL    HW135060   4.346   1.555   7.931 -2.5979  0.6255 -1.1758
 7866SOL    HW235061   4.342   1.589   8.078  1.5033  0.4506  0.1205
 7867SOL     OW35062   1.665   1.101  13.230 -0.0587 -0.0551  0.1572
 7867SOL    HW135063   1.628   1.177  13.275 -0.1768 -0.1825  0.2739
 7867SOL    HW235064   1.678   1.043  13.305 -0.7845 -0.8353 -0.3337
 7868SOL     OW35065   1.502   0.532   0.715 -0.2702  0.7388 -0.3873
 7868SOL    HW135066   1.470   0.448   0.683  0.6208  0.4659 -0.5748
 7868SOL    HW235067   1.430   0.592   0.693 -0.9256  0.5255  1.1393
 7869SOL     OW35068   1.697   3.650   5.602 -0.0517  0.3937 -0.1581
 7869SOL    HW135069   1.722   3.723   5.658  1.7993 -0.6132  0.3376
 7869SOL    HW235070   1.668   3.703   5.528  1.7740  2.7920  0.8437
 7870SOL     OW35071   0.012   3.595   8.540  0.0447  0.2059  0.0481
 7870SOL    HW135072   4.662   3.570   8.485 -0.6114 -0.0532  1.0556
 7870SOL    HW235073   4.711   3.649   8.614  1.7617  0.7052  0.2685
 7871SOL     OW35074   4.268   4.412  14.387  0.1609 -0.1264 -0.1094
 7871SOL    HW135075   4.337   4.476  14.404 -1.2586  0.4491  3.6484
 7871SOL    HW235076   4.264   4.363  14.470 -0.2895 -1.8746 -1.1608
 7872SOL     OW35077   0.003   1.533   4.602  0.2303 -0.2606  0.2182
 7872SOL    HW135078   0.055   1.606   4.569  3.3640 -1.9320  1.3685
 7872SOL    HW235079   0.015   1.465   4.535  0.3259 -0.1997  0.1736
 7873SOL     OW35080   0.765   2.528   7.646  0.0321  0.4531 -0.2492
 7873SOL    HW135081   0.756   2.623   7.644  0.5985  0.5440  1.1951
 7873SOL    HW235082   0.676   2.499   7.625  0.5168 -0.5619 -0.9027
 7874SOL     OW35083   1.399   3.207   3.068  0.3375  0.1919 -0.2737
 7874SOL    HW135084   1.338   3.156   3.122  2.1264 -2.1422 -0.4594
 7874SOL    HW235085   1.455   3.137   3.034 -0.9095 -0.6145 -0.6589
 7875SOL     OW35086   4.449   1.429  12.130 -0.4507 -0.0319 -0.2218
 7875SOL    HW135087   4.501   1.368  12.078  1.2519  0.4034  0.9673
 7875SOL    HW235088   4.464   1.510  12.082 -1.5470  0.7080  0.6836
 7876SOL     OW35089   4.371   1.645  15.405 -0.1235 -0.0619  0.2595
 7876SOL    HW135090   4.465   1.646  15.425  0.0801  1.4397 -0.7472
 7876SOL    HW235091   4.342   1.592  15.480  0.1317 -2.5919 -1.4288
 7877SOL     OW35092   2.110   1.477   5.200 -0.6247 -0.2134  0.0136
 7877SOL    HW135093   2.090   1.560   5.157 -2.8151 -0.0885  1.2627
 7877SOL    HW235094   2.029   1.451   5.243 -0.8027 -1.5707 -1.1442
 7878SOL     OW35095   4.523   3.836  11.395 -0.4845  0.1062  0.6119
 7878SOL    HW135096   4.555   3.828  11.305 -1.1063  0.4372  0.3644
 7878SOL    HW235097   4.598   3.873  11.441  0.4917  0.9682 -1.6401
 7879SOL     OW35098   4.174   2.656   9.132 -0.1495  0.1200 -0.4253
 7879SOL    HW135099   4.134   2.573   9.161  0.9954 -1.0204 -2.0873
 7879SOL    HW235100   4.200   2.701   9.212  1.2926 -0.9448 -0.2915
 7880SOL     OW35101   0.441   3.537   6.704  0.2447 -0.5828 -0.2035
 7880SOL    HW135102   0.398   3.453   6.688  0.1931 -0.8408  1.3142
 7880SOL    HW235103   0.372   3.597   6.675 -0.7283 -1.1330  1.0030
 7881SOL     OW35104   1.708   0.660   3.365 -0.3319 -0.0843  0.4936
 7881SOL    HW135105   1.739   0.628   3.280 -2.7442 -2.4999  0.5260
 7881SOL    HW235106   1.757   0.741   3.379 -1.8690  0.6631  1.6172
 7882SOL     OW35107   3.805   3.261  14.388  0.0913 -0.0410  0.0179
 7882SOL    HW135108   3.847   3.176  14.399  0.7985 -0.0249 -2.5952
 7882SOL    HW235109   3.855   3.287  14.311 -1.5396 -0.3976 -1.1327
 7883SOL     OW35110   3.763   4.084   8.229  0.1262  0.3574  0.2138
 7883SOL    HW135111   3.706   4.081   8.306 -0.1799 -0.4103 -0.0426
 7883SOL    HW235112   3.801   3.996   8.226  0.2939  0.3954  1.2709
 7884SOL     OW35113   0.783   2.179   6.207 -0.2800 -0.4580  0.2196
 7884SOL    HW135114   0.814   2.215   6.290 -1.6421  0.0528  0.5170
 7884SOL    HW235115   0.688   2.191   6.209 -0.1979 -0.0266  1.4098
 7885SOL     OW35116   1.125   0.488   3.803  0.0840  0.5742 -0.2958
 7885SOL    HW135117   1.094   0.574   3.830 -0.1813  0.9055 -1.6654
 7885SOL    HW235118   1.212   0.509   3.767  0.8537 -0.1949  1.1150
 7886SOL     OW35119   3.424   1.240   4.222 -0.4143 -0.1534  1.0431
 7886SOL    HW135120   3.386   1.198   4.299 -3.7819 -0.4564 -0.7763
 7886SOL    HW235121   3.386   1.327   4.230  1.8218  0.9539 -0.1914
 7887SOL     OW35122   1.488   4.213   1.328 -0.1906  0.2941 -0.0482
 7887SOL    HW135123   1.482   4.307   1.343  1.6923  0.0451  2.3952
 7887SOL    HW235124   1.581   4.224   1.306 -0.4666 -0.3232 -1.4771
 7888SOL     OW35125   2.048   2.490   4.406  0.1373 -0.3138 -0.0464
 7888SOL    HW135126   2.010   2.568   4.447  1.2380  0.1742  0.0527
 7888SOL    HW235127   2.036   2.433   4.481 -2.2007  1.0219  0.5866
 7889SOL     OW35128   1.457   2.014   8.102  0.0639 -0.5206 -0.0698
 7889SOL    HW135129   1.391   1.954   8.137 -0.6566 -0.1040 -0.7126
 7889SOL    HW235130   1.485   1.970   8.022  2.9790 -0.3737  0.8870
 7890SOL     OW35131   3.951   2.245   5.804 -0.0398  0.0176  0.3769
 7890SOL    HW135132   4.013   2.207   5.742  2.4208 -0.8070  3.3479
 7890SOL    HW235133   4.005   2.318   5.834 -2.5089  1.2855  1.7212
 7891SOL     OW35134   3.331   3.117   2.143 -0.2146  0.1642  0.2500
 7891SOL    HW135135   3.352   3.122   2.050  0.2543  1.8137  0.4390
 7891SOL    HW235136   3.269   3.190   2.149 -1.1774 -0.7138  0.9544
 7892SOL     OW35137   0.795   0.547   4.297 -0.1869 -0.1146 -0.3394
 7892SOL    HW135138   0.840   0.546   4.382 -1.9470  1.2108  0.6179
 7892SOL    HW235139   0.730   0.478   4.308 -1.4345  1.1289  0.1886
 7893SOL     OW35140   3.360   3.716  17.091  0.0698 -0.1839 -0.5464
 7893SOL    HW135141   3.343   3.656  17.164  0.9108 -0.9670 -0.9956
 7893SOL    HW235142   3.272   3.749  17.077  0.2285 -0.3710 -1.9802
 7894SOL     OW35143   4.211   4.071   3.476  0.5368 -0.3943 -0.3652
 7894SOL    HW135144   4.265   4.043   3.402 -0.5293 -3.7622  0.1259
 7894SOL    HW235145   4.257   4.045   3.556  3.5766 -1.2190 -2.3558
 7895SOL     OW35146   3.371   1.332   7.326  0.0978  0.1497  0.2003
 7895SOL    HW135147   3.343   1.411   7.373 -1.5046  1.4418 -2.9347
 7895SOL    HW235148   3.297   1.325   7.266  0.8744 -2.3446 -0.4717
 7896SOL     OW35149   2.264   0.927   4.704  0.1303 -0.3525  0.3397
 7896SOL    HW135150   2.318   0.950   4.628  0.0084 -0.1836  0.3036
 7896SOL    HW235151   2.315   0.853   4.737  1.1661 -0.6639 -1.9590
 7897SOL     OW35152   1.891   1.275   0.834 -0.3217 -0.2106  0.0595
 7897SOL    HW135153   1.817   1.336   0.832 -1.3029 -1.3544  1.1930
 7897SOL    HW235154   1.920   1.264   0.744  1.3139 -1.3072  0.7144
 7898SOL     OW35155   1.556   2.992  14.538  0.5204 -0.1962  0.1430
 7898SOL    HW135156   1.589   2.953  14.457  1.3499 -0.6345  0.7037
 7898SOL    HW235157   1.462   2.986  14.520  0.5395 -1.2677  0.4164
 7899SOL     OW35158   0.627   0.673   6.723 -0.2693  0.2087 -0.1595
 7899SOL    HW135159   0.672   0.591   6.742  0.8039  0.5654 -1.1796
 7899SOL    HW235160   0.554   0.657   6.783 -0.8706 -0.1289 -0.9771
 7900SOL     OW35161   2.774   2.810   9.582 -0.2434  0.6758 -1.2048
 7900SOL    HW135162   2.700   2.806   9.641  0.3315  1.4702 -0.4192
 7900SOL    HW235163   2.815   2.728   9.609 -2.6797 -1.0669 -2.7693
 7901SOL     OW35164   4.339   0.409   3.783 -0.0551  0.4824 -0.0949
 7901SOL    HW135165   4.391   0.393   3.862  3.2820 -3.2895 -3.0493
 7901SOL    HW235166   4.253   0.389   3.820 -0.4644  1.1060 -0.7126
 7902SOL     OW35167   3.809   4.132   5.500 -0.3942 -0.3447  0.2064
 7902SOL    HW135168   3.776   4.218   5.526  0.4030  0.5759 -1.8047
 7902SOL    HW235169   3.856   4.099   5.576  0.8481  1.0253  0.0477
 7903SOL     OW35170   0.993   4.036   6.336  0.1808  0.1122  0.0676
 7903SOL    HW135171   1.074   4.019   6.288  1.0363  2.1491  0.8064
 7903SOL    HW235172   1.031   4.098   6.399  0.1060  0.2813 -0.0540
 7904SOL     OW35173   2.039   1.364  11.198 -0.0644  0.3049 -0.4960
 7904SOL    HW135174   1.993   1.446  11.179 -1.2716 -0.2378  0.0866
 7904SOL    HW235175   2.127   1.400  11.210  0.2968  0.1733 -2.5891
 7905SOL     OW35176   1.781   0.068   7.501  0.3657  0.0388  0.7557
 7905SOL    HW135177   1.804   4.700   7.503  2.8247  0.6475  0.9329
 7905SOL    HW235178   1.706   0.057   7.559 -0.7769  0.0565 -0.7044
 7906SOL     OW35179   1.656   4.132   2.701  0.3777 -0.3085  0.4339
 7906SOL    HW135180   1.618   4.153   2.616  1.7478 -1.3988 -0.4391
 7906SOL    HW235181   1.607   4.182   2.766 -1.0318 -1.5475  0.3294
 7907SOL     OW35182   2.740   2.284   3.560 -0.5040 -0.0596  0.3301
 7907SOL    HW135183   2.669   2.225   3.532 -0.7725  0.6411 -0.4579
 7907SOL    HW235184   2.708   2.303   3.648 -0.0245  2.1394  0.0373
 7908SOL     OW35185   2.932   2.590   9.688 -0.3634  0.4803 -0.3784
 7908SOL    HW135186   2.867   2.527   9.719  0.4563  1.2776  2.8979
 7908SOL    HW235187   3.012   2.538   9.698  0.1854  2.0326  3.0749
 7909SOL     OW35188   1.993   0.051  15.441  0.7834 -0.0928  0.2219
 7909SOL    HW135189   2.017   0.039  15.533  2.4460 -2.9498 -0.6017
 7909SOL    HW235190   1.991   4.683  15.418 -1.0562 -0.0369  0.1000
 7910SOL     OW35191   3.420   2.137   9.129  0.1327 -0.5120  0.2033
 7910SOL    HW135192   3.467   2.202   9.079 -1.1620 -1.3097 -2.0693
 7910SOL    HW235193   3.343   2.120   9.074  0.7652  3.9852 -2.0220
 7911SOL     OW35194   2.925   0.640   6.017 -0.1156 -0.1779  0.1650
 7911SOL    HW135195   2.930   0.733   5.999  0.6065 -0.5845 -1.7085
 7911SOL    HW235196   2.978   0.626   6.096 -0.5778 -0.5391  0.4158
 7912SOL     OW35197   4.426   0.088   5.821  0.2805  0.3169 -0.3999
 7912SOL    HW135198   4.491   0.101   5.890  0.4174  1.8197 -0.8057
 7912SOL    HW235199   4.355   0.142   5.855  0.7902  0.3677  0.5911
 7913SOL     OW35200   0.245   3.061  14.067 -0.5597  0.1545  0.0163
 7913SOL    HW135201   0.177   3.005  14.030  0.3496  0.0822 -1.5157
 7913SOL    HW235202   0.213   3.148  14.042  1.0993  1.5547  2.7355
 7914SOL     OW35203   3.384   3.165   7.976 -0.0216  0.2829 -0.0852
 7914SOL    HW135204   3.455   3.176   8.039 -0.5402 -0.4552  0.6425
 7914SOL    HW235205   3.414   3.082   7.940  0.4849 -0.7269  2.6574
 7915SOL     OW35206   1.787   4.178   7.626  0.2560 -0.6098 -0.3929
 7915SOL    HW135207   1.781   4.205   7.718  2.5091 -0.1938 -0.3669
 7915SOL    HW235208   1.769   4.084   7.633 -1.4014 -0.2810 -0.2906
 7916SOL     OW35209   3.088   1.139   5.975 -0.2038 -0.3350  0.2478
 7916SOL    HW135210   3.106   1.169   6.064  0.4999 -1.3168  0.4398
 7916SOL    HW235211   3.171   1.101   5.945  0.3443  1.5612 -0.6241
 7917SOL     OW35212   3.897   2.943   7.116  0.2855  0.1338 -0.0716
 7917SOL    HW135213   3.856   2.954   7.202  0.3749  0.6800 -0.1025
 7917SOL    HW235214   3.988   2.939   7.144 -0.6055 -1.1217  2.6859
 7918SOL     OW35215   1.706   0.292  11.895  0.3304 -0.4801  0.2739
 7918SOL    HW135216   1.679   0.201  11.910  1.0085 -1.4013 -3.8456
 7918SOL    HW235217   1.800   0.276  11.885  0.4900  0.8535 -0.3395
 7919SOL     OW35218   1.044   2.281   4.937  0.5325  0.5439  0.5642
 7919SOL    HW135219   1.040   2.337   4.860 -1.8849  0.7184  0.8027
 7919SOL    HW235220   1.098   2.336   4.994 -0.9020  0.2495  2.2062
 7920SOL     OW35221   4.414   0.787   6.585  0.3553 -0.0622  0.0409
 7920SOL    HW135222   4.377   0.811   6.670 -3.1079 -1.1026 -1.1748
 7920SOL    HW235223   4.457   0.871   6.569  0.3769 -0.3634 -1.4817
 7921SOL     OW35224   1.404   3.047   4.191 -0.1401 -0.6663 -0.3951
 7921SOL    HW135225   1.321   3.000   4.201 -0.0133 -0.7167  0.4242
 7921SOL    HW235226   1.389   3.131   4.233  1.4758 -0.5718 -0.0111
 7922SOL     OW35227   2.360   4.570   5.470  0.5794  0.1262  0.1296
 7922SOL    HW135228   2.425   4.573   5.400  1.8701  1.6570  1.3746
 7922SOL    HW235229   2.275   4.571   5.426  0.7657  1.9896 -0.1836
 7923SOL     OW35230   2.820   1.134   5.173 -0.1295 -0.2753  0.0364
 7923SOL    HW135231   2.731   1.165   5.156 -0.0549 -1.1261 -1.8357
 7923SOL    HW235232   2.794   1.060   5.228 -1.5217  1.2741  1.4786
 7924SOL     OW35233   2.333   2.567   4.323 -0.6578  0.5939  0.3914
 7924SOL    HW135234   2.324   2.581   4.417  0.9279  2.5554  0.2575
 7924SOL    HW235235   2.257   2.511   4.305  1.1186 -1.7956  0.2662
 7925SOL     OW35236   0.679   2.476   4.038  0.0284  0.0614  0.0803
 7925SOL    HW135237   0.721   2.538   3.980  2.4056 -3.1910 -1.6470
 7925SOL    HW235238   0.751   2.430   4.081  0.4868  0.5431 -0.1853
 7926SOL     OW35239   4.392   3.765  13.165 -0.4727 -0.0278 -0.9210
 7926SOL    HW135240   4.299   3.755  13.146 -0.6964  0.2309  0.0059
 7926SOL    HW235241   4.391   3.760  13.261 -0.3558  1.6119 -0.8271
 7927SOL     OW35242   4.130   1.265   9.960 -0.2668  0.1562  0.7267
 7927SOL    HW135243   4.224   1.245   9.966  0.2004  2.1944  0.2021
 7927SOL    HW235244   4.104   1.204  10.028  2.8473 -1.6474  0.3275
 7928SOL     OW35245   1.568   2.799   1.992  0.1352  0.0671  0.3151
 7928SOL    HW135246   1.502   2.732   1.976 -0.1036  0.4221 -0.2127
 7928SOL    HW235247   1.649   2.759   1.963  0.3356 -0.5042  1.6772
 7929SOL     OW35248   0.858   1.165   5.681 -0.1847  1.1230  0.3652
 7929SOL    HW135249   0.931   1.225   5.664  0.9312 -0.7824 -1.6201
 7929SOL    HW235250   0.784   1.218   5.651 -0.0129  1.1903  0.0647
 7930SOL     OW35251   1.750   3.723   2.421 -0.0120  0.2198  0.3349
 7930SOL    HW135252   1.789   3.646   2.379  1.7572 -0.5391  3.3803
 7930SOL    HW235253   1.811   3.793   2.397 -0.2749  0.1099 -0.6593
 7931SOL     OW35254   2.608   4.436   3.969 -0.3260 -0.2290 -0.2114
 7931SOL    HW135255   2.575   4.383   3.896  1.0941  0.2776 -1.2144
 7931SOL    HW235256   2.654   4.365   4.015 -2.2264 -0.3569  1.5016
 7932SOL     OW35257   4.097   3.583   7.881 -0.2427 -0.3846 -0.0691
 7932SOL    HW135258   4.153   3.566   7.805  0.2115 -1.0094  0.4071
 7932SOL    HW235259   4.025   3.631   7.840  0.9010  0.0264 -1.5937
 7933SOL     OW35260   0.137   3.060   8.895 -0.2639 -0.6279 -0.0863
 7933SOL    HW135261   0.153   3.058   8.989  1.3039  1.7454 -0.3102
 7933SOL    HW235262   0.182   2.978   8.879 -0.8814 -0.9431 -0.2135
 7934SOL     OW35263   3.324   0.096   8.749 -0.4915  0.2188  0.5655
 7934SOL    HW135264   3.278   0.179   8.754 -0.5672  0.3272 -2.3803
 7934SOL    HW235265   3.415   0.121   8.767 -0.0716 -1.1994  0.4089
 7935SOL     OW35266   1.780   3.615  13.862  0.4070 -0.1197  0.0925
 7935SOL    HW135267   1.702   3.634  13.913 -0.6414  0.7331 -1.8498
 7935SOL    HW235268   1.831   3.563  13.925 -0.0459  0.8267  1.2458
 7936SOL     OW35269   3.187   2.107  12.830  0.1196  0.0828 -0.3372
 7936SOL    HW135270   3.165   2.124  12.739  1.8288  2.2959 -0.3411
 7936SOL    HW235271   3.194   2.012  12.822 -1.5302 -0.3115  2.8155
 7937SOL     OW35272   1.461   4.720   3.466  0.4474 -0.0549 -0.0466
 7937SOL    HW135273   1.378   4.677   3.448 -0.5241  1.4183  0.9671
 7937SOL    HW235274   1.431   0.075   3.509 -3.3676 -1.2516 -0.4692
 7938SOL     OW35275   0.245   0.923  10.250 -0.3183  0.7866 -0.2059
 7938SOL    HW135276   0.238   0.913  10.345  0.1842 -0.1940 -0.2751
 7938SOL    HW235277   0.248   0.834  10.215  0.0498 -0.1911  2.3097
 7939SOL     OW35278   4.187   2.035   1.098 -0.3427 -0.2766  0.1478
 7939SOL    HW135279   4.190   1.986   1.016 -0.2844 -0.0254  0.0004
 7939SOL    HW235280   4.149   1.961   1.145  0.1178 -0.1226  0.7650
 7940SOL     OW35281   4.579   0.400   6.996  0.4068  0.1777  0.1209
 7940SOL    HW135282   4.623   0.483   6.979 -0.2289  0.6193  0.5990
 7940SOL    HW235283   4.648   0.336   6.981 -0.4006 -1.0955  1.7851
 7941SOL     OW35284   1.171   1.795   1.263  0.1136 -0.8421 -0.4243
 7941SOL    HW135285   1.200   1.718   1.311  3.3068 -0.0514 -1.0704
 7941SOL    HW235286   1.196   1.769   1.174  0.0940  1.4168 -1.0868
 7942SOL     OW35287   2.026   0.094   5.488 -0.4492 -0.1314 -0.3518
 7942SOL    HW135288   1.955   0.156   5.472 -0.1271  0.3624  0.1226
 7942SOL    HW235289   2.074   0.107   5.406  0.5125 -0.8906  0.0949
 7943SOL     OW35290   4.659   1.240   5.275 -0.2587  0.6513 -0.0725
 7943SOL    HW135291   4.605   1.194   5.340  2.0290 -1.7429  0.1355
 7943SOL    HW235292   0.007   1.179   5.270  1.1056  2.3175 -0.5962
 7944SOL     OW35293   3.078   3.674   4.794 -0.5037 -0.9385  0.3107
 7944SOL    HW135294   3.033   3.643   4.872 -0.9366 -0.7033  0.1564
 7944SOL    HW235295   3.001   3.710   4.749  0.8745 -1.1095 -2.2112
 7945SOL     OW35296   2.547   0.265  15.684 -0.0414 -0.0198 -0.0413
 7945SOL    HW135297   2.542   0.181  15.729 -1.9704  0.2670  0.2611
 7945SOL    HW235298   2.521   0.325  15.753  0.7984  0.1735  0.1070
 7946SOL     OW35299   1.504   0.538  16.907 -0.1547 -0.0253 -0.3727
 7946SOL    HW135300   1.523   0.598  16.835  0.9147  2.1833  1.7465
 7946SOL    HW235301   1.434   0.580  16.957 -1.4471  0.5248 -2.6513
 7947SOL     OW35302   1.590   4.567   8.844  0.3019  0.5717 -0.6637
 7947SOL    HW135303   1.616   4.592   8.932 -0.7610 -0.3788 -0.0859
 7947SOL    HW235304   1.678   4.561   8.807  0.6314 -2.5653  0.6216
 7948SOL     OW35305   1.170   0.713  13.680 -0.3387 -0.3234  0.3434
 7948SOL    HW135306   1.157   0.762  13.761 -2.7395 -0.9779  0.3491
 7948SOL    HW235307   1.243   0.654  13.698 -0.7141 -0.9231 -0.0829
 7949SOL     OW35308   4.225   0.493  13.173  0.1316 -1.1233 -0.3036
 7949SOL    HW135309   4.288   0.536  13.231 -0.8150  1.3255 -1.1145
 7949SOL    HW235310   4.238   0.547  13.096 -1.2140  1.1484  1.0762
 7950SOL     OW35311   0.649   1.478   6.317  0.0117  0.4706  0.3636
 7950SOL    HW135312   0.717   1.443   6.259 -0.5112 -0.8054  0.5210
 7950SOL    HW235313   0.702   1.537   6.371 -0.6274 -0.4669  2.0121
 7951SOL     OW35314   4.313   3.888  15.194  0.1149 -0.3199 -0.5805
 7951SOL    HW135315   4.366   3.958  15.157 -0.0971 -0.8711 -1.9026
 7951SOL    HW235316   4.386   3.826  15.205 -0.6471 -1.4006 -1.6879
 7952SOL     OW35317   3.157   1.232   8.545  0.0918 -0.8854 -0.4189
 7952SOL    HW135318   3.169   1.253   8.452  1.3867 -0.8626 -0.2492
 7952SOL    HW235319   3.131   1.316   8.582 -1.0799 -1.1431 -0.6481
 7953SOL     OW35320   1.614   0.082   4.056 -0.4684 -0.8430  0.2949
 7953SOL    HW135321   1.581   0.075   3.966  0.4135  2.7387 -0.3114
 7953SOL    HW235322   1.703   0.053   4.038 -0.3401  0.2585 -0.8707
 7954SOL     OW35323   0.814   3.705  13.160 -0.4950 -0.2654 -0.2212
 7954SOL    HW135324   0.810   3.610  13.171  2.8553 -0.2744  1.1500
 7954SOL    HW235325   0.881   3.715  13.092 -0.0326  0.4803  0.3499
 7955SOL     OW35326   3.744   4.570  12.287 -0.2437 -0.1796  0.2394
 7955SOL    HW135327   3.823   4.590  12.337  0.8950 -0.1706 -1.5837
 7955SOL    HW235328   3.686   4.574  12.363 -0.2802 -2.6366  0.3275
 7956SOL     OW35329   4.061   2.364   2.073  0.0513  0.3246 -0.3220
 7956SOL    HW135330   4.100   2.433   2.125  1.3822 -1.2708  0.7989
 7956SOL    HW235331   4.134   2.303   2.060  1.8678  2.4124  0.1934
 7957SOL     OW35332   0.216   1.191   5.028  0.1330  0.2563 -0.2568
 7957SOL    HW135333   0.163   1.145   5.093  0.1812  0.3770 -0.1325
 7957SOL    HW235334   0.283   1.122   5.029  0.7988  0.9007 -1.1196
 7958SOL     OW35335   1.920   4.012  14.135  0.2958 -0.1802 -0.0153
 7958SOL    HW135336   1.991   4.065  14.173 -0.6433  2.2533 -1.6167
 7958SOL    HW235337   1.887   4.084  14.081 -0.4705  0.1561  0.9055
 7959SOL     OW35338   4.366   1.852  10.113 -0.2284 -0.3174 -0.4855
 7959SOL    HW135339   4.397   1.857  10.023  0.6319  1.0597 -0.1040
 7959SOL    HW235340   4.324   1.766  10.115 -0.5487 -0.1400  0.4525
 7960SOL     OW35341   4.616   3.102  14.092 -0.2450  0.0837 -0.2241
 7960SOL    HW135342   4.661   3.080  14.174 -3.2752 -0.0553  1.4188
 7960SOL    HW235343   4.669   3.053  14.029  3.6962  1.3363  2.1228
 7961SOL     OW35344   3.718   2.704  15.865 -0.0091 -0.3562 -0.3703
 7961SOL    HW135345   3.711   2.783  15.811 -0.7097  1.9674  3.1177
 7961SOL    HW235346   3.717   2.750  15.949  0.5220 -3.2507  1.2105
 7962SOL     OW35347   4.076   0.712   5.943 -0.2890  0.4804  0.3785
 7962SOL    HW135348   4.142   0.645   5.923 -0.1312  0.3506  1.3205
 7962SOL    HW235349   4.109   0.790   5.899 -0.1504 -0.3879 -1.0869
 7963SOL     OW35350   2.961   1.065  14.272  0.2455 -0.0967 -0.1731
 7963SOL    HW135351   2.942   0.974  14.247  0.7473 -0.4472  0.7297
 7963SOL    HW235352   2.958   1.105  14.185  2.6081 -0.7416 -0.5487
 7964SOL     OW35353   1.441   4.472  13.334 -0.1325  0.1246 -0.3528
 7964SOL    HW135354   1.501   4.415  13.382 -0.5938  0.8299  1.0837
 7964SOL    HW235355   1.382   4.497  13.406 -0.1213  1.2044 -0.7133
 7965SOL     OW35356   1.812   1.020   0.902  0.6551 -0.7606  0.4618
 7965SOL    HW135357   1.860   1.100   0.877  1.3186 -0.6107  2.2691
 7965SOL    HW235358   1.875   0.982   0.962  0.8301  0.6326  1.1616
 7966SOL     OW35359   1.708   1.110  10.920 -0.3577  0.0138  0.6825
 7966SOL    HW135360   1.706   1.071  11.007 -0.5243 -1.4026  0.0457
 7966SOL    HW235361   1.615   1.102  10.900  0.1810  0.2559 -1.9571
 7967SOL     OW35362   3.378   2.854   5.672 -0.0417 -0.0385  0.5433
 7967SOL    HW135363   3.443   2.819   5.612 -0.5907 -2.4144  1.3316
 7967SOL    HW235364   3.383   2.946   5.647 -0.5874 -0.5560 -1.4240
 7968SOL     OW35365   4.248   4.049   8.775 -0.4000 -0.2588  0.7788
 7968SOL    HW135366   4.168   4.067   8.726  1.1311 -2.3403 -2.5203
 7968SOL    HW235367   4.276   3.967   8.735  1.7528  0.1665  1.3792
 7969SOL     OW35368   1.886   3.240   6.641 -0.2300  0.1910 -0.5576
 7969SOL    HW135369   1.888   3.334   6.660  1.8631 -0.0066  0.0953
 7969SOL    HW235370   1.887   3.211   6.733 -1.1852 -0.8883 -0.8790
 7970SOL     OW35371   2.854   1.884  12.536 -0.0600  0.1297  0.1329
 7970SOL    HW135372   2.826   1.960  12.485  1.5693  1.0196  0.5550
 7970SOL    HW235373   2.947   1.908  12.534 -0.6789  2.4265 -1.1190
 7971SOL     OW35374   2.933   4.715  16.877 -0.0105 -0.6068 -0.0437
 7971SOL    HW135375   2.855   0.010  16.928 -0.0691  0.6392 -0.6305
 7971SOL    HW235376   2.904   4.684  16.791 -1.0786  0.0135  0.0939
 7972SOL     OW35377   0.369   1.955  17.417 -0.1519  0.3740  0.0966
 7972SOL    HW135378   0.364   1.954  17.513 -1.3468  0.8164  0.0484
 7972SOL    HW235379   0.410   1.869  17.407 -0.1942  0.6457 -2.3144
 7973SOL     OW35380   3.219   0.924  14.991  0.3772  0.1777 -0.5376
 7973SOL    HW135381   3.149   0.869  15.028  1.0871 -0.2896  0.1174
 7973SOL    HW235382   3.257   0.941  15.077 -1.6094  2.1942 -0.0670
 7974SOL     OW35383   3.167   2.452   9.502 -0.0354  0.5467 -0.2980
 7974SOL    HW135384   3.118   2.397   9.442  0.5322 -0.0120 -0.2536
 7974SOL    HW235385   3.183   2.394   9.576  0.7170  1.6018  0.3777
 7975SOL     OW35386   4.283   3.656   5.305 -0.5278  0.4861  0.3170
 7975SOL    HW135387   4.365   3.617   5.274 -1.3259 -0.2170 -0.8842
 7975SOL    HW235388   4.235   3.672   5.224 -0.6004  2.4328  0.7261
 7976SOL     OW35389   3.340   0.928   4.199 -0.3748 -0.4350 -0.7663
 7976SOL    HW135390   3.296   1.012   4.213  0.6852 -0.2691  1.6283
 7976SOL    HW235391   3.393   0.944   4.121 -0.4020  2.8247 -0.1027
 7977SOL     OW35392   0.342   3.989  13.692  0.2587 -0.2721  0.0753
 7977SOL    HW135393   0.305   3.929  13.757 -0.7035  0.1633 -0.0785
 7977SOL    HW235394   0.313   3.946  13.611  5.2667  2.0383 -2.9950
 7978SOL     OW35395   3.130   0.860  17.198 -0.4696 -0.2318 -0.3179
 7978SOL    HW135396   3.130   0.766  17.218 -0.4312 -0.1688 -0.0201
 7978SOL    HW235397   3.035   0.874  17.196 -0.3542  0.3844 -1.4833
 7979SOL     OW35398   0.524   3.758   3.222 -0.0113 -0.3195 -0.0553
 7979SOL    HW135399   0.526   3.703   3.300 -0.7237 -0.2951 -0.0134
 7979SOL    HW235400   0.493   3.699   3.152 -1.0143 -1.4700  1.3622
 7980SOL     OW35401   1.764   0.435   5.807 -0.2663 -0.1951  0.1995
 7980SOL    HW135402   1.833   0.438   5.740 -2.1537  3.0392 -1.6091
 7980SOL    HW235403   1.698   0.492   5.769 -0.7894 -3.3078 -3.5749
 7981SOL     OW35404   0.901   2.687   3.947 -0.0250  0.2394  0.0662
 7981SOL    HW135405   0.928   2.643   3.867 -0.9371 -0.8729  0.3715
 7981SOL    HW235406   0.931   2.777   3.935  0.4483  0.0512 -0.1255
 7982SOL     OW35407   4.228   2.718   5.059  0.2730  0.8837 -0.5539
 7982SOL    HW135408   4.206   2.666   5.136 -0.3801 -0.5290 -1.6979
 7982SOL    HW235409   4.144   2.732   5.014 -0.1369  1.5101  0.3953
 7983SOL     OW35410   3.983   2.709   3.360  0.2664  0.3907 -0.1645
 7983SOL    HW135411   4.033   2.761   3.422 -1.3495  1.7917 -0.0120
 7983SOL    HW235412   4.050   2.650   3.326  0.5339  1.8119 -2.1566
 7984SOL     OW35413   3.716   1.736   8.178  0.3535  0.3406  0.0091
 7984SOL    HW135414   3.765   1.689   8.111  0.4588  2.0449 -1.1105
 7984SOL    HW235415   3.629   1.721   8.141  1.1630 -1.8480 -1.0476
 7985SOL     OW35416   1.492   0.764   2.697 -0.2947  0.0529  0.0873
 7985SOL    HW135417   1.556   0.834   2.684  0.1576 -0.2744  0.5730
 7985SOL    HW235418   1.468   0.742   2.607  0.5054  1.5836 -0.5017
 7986SOL     OW35419   2.849   4.362   9.288 -0.0140 -0.1571 -0.5465
 7986SOL    HW135420   2.812   4.286   9.332  0.0432  0.7314  1.0395
 7986SOL    HW235421   2.919   4.384   9.349 -0.9510 -1.3398  0.9780
 7987SOL     OW35422   1.824   3.416   8.052  0.1955 -0.0776  0.0953
 7987SOL    HW135423   1.754   3.464   8.097 -1.0398 -1.9562  0.1509
 7987SOL    HW235424   1.890   3.408   8.122  0.4940 -0.3833 -0.2206
 7988SOL     OW35425   0.107   3.774  15.653 -0.1433  0.8596 -0.4528
 7988SOL    HW135426   0.045   3.702  15.655  2.5062 -1.3748  1.6719
 7988SOL    HW235427   0.187   3.726  15.674 -0.8194  0.0763  0.3015
 7989SOL     OW35428   0.936   2.331   9.164 -0.0454 -0.2682  0.1539
 7989SOL    HW135429   1.028   2.318   9.186 -0.7005 -2.2123  1.7462
 7989SOL    HW235430   0.912   2.382   9.242  0.9279  0.7736 -0.2217
 7990SOL     OW35431   3.261   3.749   0.371 -0.0498  0.5617  0.2346
 7990SOL    HW135432   3.283   3.665   0.411  0.2853  0.0601 -1.0220
 7990SOL    HW235433   3.307   3.746   0.288 -0.3840 -2.1938  0.1580
 7991SOL     OW35434   1.752   3.672   3.482  0.2769  0.5189 -0.8160
 7991SOL    HW135435   1.747   3.669   3.578 -0.5534  0.1411 -0.8780
 7991SOL    HW235436   1.777   3.581   3.467  0.3860  0.1946  1.3960
 7992SOL     OW35437   2.990   4.420   3.311 -0.0712 -0.5912 -0.5733
 7992SOL    HW135438   3.057   4.484   3.286  1.6418 -2.7735 -1.5513
 7992SOL    HW235439   2.926   4.431   3.241  1.2825  0.9830 -1.5554
 7993SOL     OW35440   2.903   4.391  15.934  0.0607  0.1273 -0.2817
 7993SOL    HW135441   2.822   4.440  15.948  0.2076  0.5309 -0.8407
 7993SOL    HW235442   2.878   4.341  15.857 -0.7427  0.9443 -0.5564
 7994SOL     OW35443   0.401   3.494   3.906 -0.6920 -0.2043  0.3630
 7994SOL    HW135444   0.390   3.586   3.881  0.5689 -0.2928 -0.4995
 7994SOL    HW235445   0.493   3.479   3.881 -0.4042  0.4566  1.0177
 7995SOL     OW35446   1.012   1.940   4.671 -0.5780 -0.1655  0.2182
 7995SOL    HW135447   1.057   1.898   4.598  0.8502  1.5429  0.1244
 7995SOL    HW235448   1.055   1.894   4.743  1.6157 -0.1733 -1.0974
 7996SOL     OW35449   1.433   2.401   5.724 -0.7403  0.5880  0.9414
 7996SOL    HW135450   1.377   2.467   5.763  0.3812  3.5934 -2.5977
 7996SOL    HW235451   1.518   2.444   5.723 -0.8954  0.9420  2.7608
 7997SOL     OW35452   0.009   2.520   9.588  0.1019 -0.3622  0.1891
 7997SOL    HW135453   0.014   2.450   9.653 -0.2517  0.7029  1.3751
 7997SOL    HW235454   0.059   2.593   9.625 -0.1690 -0.2347  0.3079
 7998SOL     OW35455   1.893   2.209   1.986  0.6456 -0.0709 -0.2749
 7998SOL    HW135456   1.949   2.244   2.055 -1.5883 -0.3902  1.6891
 7998SOL    HW235457   1.959   2.205   1.917  0.9824  1.0775 -0.0250
 7999SOL     OW35458   0.759   0.234   4.407 -0.0896  0.8562 -0.1523
 7999SOL    HW135459   0.704   0.312   4.398  1.0631  1.7600  0.5349
 7999SOL    HW235460   0.769   0.215   4.501  0.0370 -0.6171 -0.4658
 8000SOL     OW35461   0.518   0.269   1.019 -0.5424  0.1099 -0.2337
 8000SOL    HW135462   0.434   0.285   0.976  2.1606  2.9444 -4.4226
 8000SOL    HW235463   0.538   0.345   1.074  0.2992 -1.5894  1.7901
 8001SOL     OW35464   1.926   1.856  17.204  0.3012  0.4512  0.1170
 8001SOL    HW135465   1.859   1.817  17.147  1.9714 -2.1426 -0.0509
 8001SOL    HW235466   1.992   1.787  17.201  2.6525  2.7637 -1.3939
 8002SOL     OW35467   3.521   2.415   5.582  0.5747 -0.1452 -0.7968
 8002SOL    HW135468   3.546   2.446   5.669  1.0274  1.0350 -1.3509
 8002SOL    HW235469   3.464   2.486   5.554  0.5412  0.3774  0.5795
 8003SOL     OW35470   1.324   4.226   4.976 -0.1200  0.4410 -0.0380
 8003SOL    HW135471   1.398   4.271   4.934  0.2147  0.2875  0.3761
 8003SOL    HW235472   1.361   4.176   5.049 -1.1265  0.7203  0.6594
 8004SOL     OW35473   0.211   1.637   7.234 -0.3211 -0.2170  0.0924
 8004SOL    HW135474   0.294   1.677   7.210 -0.2566 -0.0867  0.5330
 8004SOL    HW235475   0.230   1.554   7.278  0.8703 -0.4573 -0.8871
 8005SOL     OW35476   1.813   3.416   2.933 -0.4933 -0.0935  0.6721
 8005SOL    HW135477   1.757   3.399   3.009 -0.7074 -1.3025  0.2437
 8005SOL    HW235478   1.747   3.439   2.867 -1.3007  1.1552  1.9018
 8006SOL     OW35479   2.179   4.512   4.021  0.0662  0.4203  0.0018
 8006SOL    HW135480   2.153   4.545   4.108  0.9494  1.6901 -0.2220
 8006SOL    HW235481   2.159   4.584   3.961  0.0048 -0.0259 -0.5074
 8007SOL     OW35482   4.359   3.128  11.054 -0.5220 -0.1492  0.0470
 8007SOL    HW135483   4.296   3.057  11.041  1.1237 -1.2838 -1.7654
 8007SOL    HW235484   4.438   3.079  11.078  0.7906  2.1477  0.4103
 8008SOL     OW35485   2.871   2.388  12.853  0.3399  0.4184 -0.7804
 8008SOL    HW135486   2.964   2.410  12.851 -0.4080  3.1703 -4.4969
 8008SOL    HW235487   2.864   2.293  12.851  0.4210  0.3894  0.3494
 8009SOL     OW35488   0.353   1.429   2.622 -0.0486 -0.7815 -0.1585
 8009SOL    HW135489   0.289   1.358   2.608 -1.7741  0.2667  2.3388
 8009SOL    HW235490   0.333   1.485   2.547  1.5311 -0.9944 -0.7441
 8010SOL     OW35491   0.599   2.450   6.704 -0.3387 -0.8177 -0.6357
 8010SOL    HW135492   0.632   2.403   6.780 -1.6105 -0.4104  0.1721
 8010SOL    HW235493   0.544   2.509   6.755 -0.5782 -1.1319 -0.5303
 8011SOL     OW35494   3.338   4.394   1.975  0.0413  0.3851 -0.0315
 8011SOL    HW135495   3.315   4.361   1.888  0.1357 -0.4037  0.2390
 8011SOL    HW235496   3.341   4.487   1.955 -0.2085  0.2541 -0.6597
 8012SOL     OW35497   1.283   3.036  12.244 -0.2510 -0.4252 -0.3234
 8012SOL    HW135498   1.214   3.056  12.308 -0.7668 -1.9387 -0.4034
 8012SOL    HW235499   1.333   3.116  12.263 -0.6219 -0.3156  0.2162
 8013SOL     OW35500   3.039   0.077   6.239  0.2091 -0.4093 -0.3923
 8013SOL    HW135501   3.054   0.169   6.214  0.1597  0.0360  1.2529
 8013SOL    HW235502   3.117   0.034   6.205 -0.9701 -2.5225 -0.4272
 8014SOL     OW35503   3.844   0.595  17.057  0.1706  0.4185 -0.1358
 8014SOL    HW135504   3.897   0.674  17.059 -2.5401  2.1968  1.7850
 8014SOL    HW235505   3.762   0.624  17.016 -0.8592  1.1240  2.4267
 8015SOL     OW35506   4.468   1.685  16.809 -0.4008  0.0215 -0.4433
 8015SOL    HW135507   4.536   1.625  16.777 -0.1816 -0.4911  0.9575
 8015SOL    HW235508   4.438   1.729  16.730 -1.7380  1.0572  0.6519
 8016SOL     OW35509   1.974   2.431  12.767  0.2182  0.8408  0.4257
 8016SOL    HW135510   1.988   2.450  12.674  0.8824 -2.1137 -0.0740
 8016SOL    HW235511   1.904   2.493  12.787 -2.0662 -1.5549 -0.2662
 8017SOL     OW35512   1.726   2.671   3.706  0.2339  0.2512  0.1365
 8017SOL    HW135513   1.743   2.603   3.642  0.2244  0.7263 -0.3746
 8017SOL    HW235514   1.641   2.646   3.744 -0.2545 -0.5116 -1.4661
 8018SOL     OW35515   1.201   0.915   8.543 -0.7964 -0.0774  0.4040
 8018SOL    HW135516   1.108   0.891   8.545 -0.9406  0.7278  2.5901
 8018SOL    HW235517   1.196   1.001   8.584 -4.7924 -0.2829  0.3787
 8019SOL     OW35518   4.243   1.044   3.756 -0.1448 -0.1005 -1.2217
 8019SOL    HW135519   4.227   0.950   3.754 -1.8863  0.1364  0.9658
 8019SOL    HW235520   4.336   1.049   3.779  0.1930 -2.7124 -2.0769
 8020SOL     OW35521   0.136   4.411   4.283 -0.2092 -0.1947 -0.6033
 8020SOL    HW135522   0.223   4.377   4.259  0.0300 -0.1942  0.2314
 8020SOL    HW235523   0.096   4.337   4.328  0.3805  0.6852  1.3952
 8021SOL     OW35524   1.065   3.337   7.728  0.5744  0.0094 -0.2200
 8021SOL    HW135525   1.149   3.295   7.712  0.4051  0.3381 -1.9085
 8021SOL    HW235526   1.014   3.257   7.743  0.0668  0.2489 -0.6704
 8022SOL     OW35527   2.789   1.091  14.493  0.0477  0.4666 -0.1160
 8022SOL    HW135528   2.852   1.102  14.422 -1.0519  0.8963 -1.0275
 8022SOL    HW235529   2.838   1.038  14.556 -1.0249  0.2672  0.5588
 8023SOL     OW35530   2.350   2.192   7.390  0.0133 -0.1011 -0.0613
 8023SOL    HW135531   2.313   2.124   7.333  0.1812 -0.3432  0.1174
 8023SOL    HW235532   2.365   2.142   7.470 -2.9055 -2.7968 -1.1831
 8024SOL     OW35533   2.373   2.109  12.184 -0.0203 -0.7224  0.3075
 8024SOL    HW135534   2.340   2.027  12.149 -1.3868  0.0958 -0.3125
 8024SOL    HW235535   2.294   2.158  12.207  0.8747  1.9186 -2.1971
 8025SOL     OW35536   3.492   2.135   8.784 -0.4215 -0.0111  0.7717
 8025SOL    HW135537   3.569   2.128   8.840 -0.5685 -2.3413  0.6982
 8025SOL    HW235538   3.503   2.060   8.725 -0.4246  0.8173 -0.2704
 8026SOL     OW35539   0.465   2.077   3.062  0.2725 -0.2856  0.0854
 8026SOL    HW135540   0.398   2.009   3.054  0.2866 -0.4477  1.4777
 8026SOL    HW235541   0.475   2.083   2.967 -0.3497 -0.5682  0.0016
 8027SOL     OW35542   2.005   3.537   6.093  0.4684  0.1557  0.4066
 8027SOL    HW135543   2.016   3.489   6.174 -0.0120  0.2008  0.5007
 8027SOL    HW235544   1.912   3.524   6.072  0.2168 -1.9194  2.8185
 8028SOL     OW35545   3.759   3.639   4.337  0.4421 -0.1519 -0.5310
 8028SOL    HW135546   3.834   3.668   4.284  1.5000  1.4651  1.8802
 8028SOL    HW235547   3.740   3.724   4.376  0.5164  0.0316 -0.8857
 8029SOL     OW35548   2.929   2.031   8.924  0.5916 -0.2802 -0.3900
 8029SOL    HW135549   2.858   2.067   8.870  0.6217 -1.3255 -1.1187
 8029SOL    HW235550   3.010   2.062   8.884  1.1280  0.5720  1.3065
 8030SOL     OW35551   0.323   3.134   4.272  0.8487  0.9349  0.1407
 8030SOL    HW135552   0.407   3.090   4.288 -1.1484 -2.8208  0.3712
 8030SOL    HW235553   0.318   3.128   4.176  2.0210 -1.2676  0.2265
 8031SOL     OW35554   1.801   3.652  10.418 -0.4424  0.7519  0.5386
 8031SOL    HW135555   1.775   3.609  10.337  2.9748 -1.4858  0.6641
 8031SOL    HW235556   1.734   3.720  10.430 -0.8698  0.5710 -0.7907
 8032SOL     OW35557   3.218   4.640   7.592  0.2668 -0.3259 -0.2181
 8032SOL    HW135558   3.258   4.555   7.576  2.1730  0.4479  0.5058
 8032SOL    HW235559   3.206   4.646   7.687  2.2114  2.5883 -0.1594
 8033SOL     OW35560   3.377   2.784   9.416  0.1056  0.2439  0.0509
 8033SOL    HW135561   3.289   2.786   9.451  0.3709  0.4204  0.7119
 8033SOL    HW235562   3.402   2.694   9.434  0.6675  0.5925  1.0448
 8034SOL     OW35563   4.020   0.704   3.609 -0.0018  0.4476 -0.4348
 8034SOL    HW135564   3.948   0.676   3.666 -0.1597  0.8499 -0.4371
 8034SOL    HW235565   4.083   0.733   3.675 -1.4096  1.5232  0.4409
 8035SOL     OW35566   1.114   0.573   9.016  0.4310  0.1706 -0.0847
 8035SOL    HW135567   1.032   0.533   9.044 -0.8451  1.0530 -2.5645
 8035SOL    HW235568   1.127   0.633   9.089  2.3536 -0.9096  0.4901
 8036SOL     OW35569   4.709   1.421   4.346 -0.4099  0.7598  0.0518
 8036SOL    HW135570   0.032   1.342   4.325 -0.8514  1.0951 -2.1831
 8036SOL    HW235571   4.710   1.468   4.263 -0.3022 -0.1846 -0.4742
 8037SOL     OW35572   0.268   0.594  10.535 -0.1813 -0.0289 -0.5381
 8037SOL    HW135573   0.283   0.573  10.628  1.6593 -0.9915 -1.0512
 8037SOL    HW235574   0.356   0.592  10.498  0.6689  1.6366  1.3608
 8038SOL     OW35575   1.359   3.761   5.819  0.4329 -0.0887 -0.2012
 8038SOL    HW135576   1.340   3.854   5.810  2.1377  0.1503 -1.4178
 8038SOL    HW235577   1.443   3.757   5.865  1.1710  1.7825 -1.4185
 8039SOL     OW35578   2.942   1.086  12.495 -0.1222  0.0579  0.4969
 8039SOL    HW135579   3.002   1.014  12.515  1.0581  1.4923  2.1422
 8039SOL    HW235580   2.934   1.138  12.575  1.6646  0.5586  0.3500
 8040SOL     OW35581   0.235   1.646   7.691  0.4655 -0.8125  0.0186
 8040SOL    HW135582   0.211   1.591   7.766  3.0876 -0.0339  1.3956
 8040SOL    HW235583   0.196   1.601   7.616  2.3714  0.5819 -1.7766
 8041SOL     OW35584   3.662   4.223   6.697  0.0536  0.1702  0.0877
 8041SOL    HW135585   3.572   4.189   6.701  0.6816 -1.5433 -0.3572
 8041SOL    HW235586   3.651   4.313   6.667  2.8611  1.0938  1.9523
 8042SOL     OW35587   3.750   1.498   3.029 -0.6393  0.0714 -0.0647
 8042SOL    HW135588   3.773   1.519   3.119 -2.9629  0.0565  0.5160
 8042SOL    HW235589   3.700   1.575   3.004  0.0184  0.4890 -0.1044
 8043SOL     OW35590   2.666   0.932   6.816 -0.0611 -0.0767 -0.5169
 8043SOL    HW135591   2.629   1.020   6.825  1.2771  0.6528 -2.0431
 8043SOL    HW235592   2.626   0.889   6.741  0.9137  0.4136 -1.3183
 8044SOL     OW35593   1.614   0.532  12.805  0.7858  0.3519  0.4542
 8044SOL    HW135594   1.553   0.576  12.746  0.4362 -0.9671 -0.1706
 8044SOL    HW235595   1.673   0.606  12.821  0.7138  0.7301 -0.9981
 8045SOL     OW35596   0.159   4.477   8.921  0.1272  0.2404 -0.4103
 8045SOL    HW135597   0.151   4.413   8.991  0.2473  0.4593 -0.1968
 8045SOL    HW235598   0.068   4.473   8.889 -0.3328  1.7426  0.6938
 8046SOL     OW35599   0.238   1.611   2.120  0.5337 -0.7207 -0.2961
 8046SOL    HW135600   0.158   1.630   2.070 -0.8143 -3.8319  0.6251
 8046SOL    HW235601   0.296   1.685   2.105  0.7544 -0.4026  2.1738
 8047SOL     OW35602   3.160   2.111   5.671  0.0838 -0.0795  0.7186
 8047SOL    HW135603   3.108   2.151   5.741  1.9664  1.4356  1.2601
 8047SOL    HW235604   3.100   2.124   5.598  0.2013  1.2981  0.8626
 8048SOL     OW35605   3.913   4.447   3.460 -0.2751 -0.3042 -0.7219
 8048SOL    HW135606   3.922   4.353   3.446 -1.1327 -0.6108  0.7631
 8048SOL    HW235607   3.846   4.483   3.402  0.4568 -3.0467 -3.2222
 8049SOL     OW35608   1.985   1.190  11.675  0.5147 -0.0647  0.3607
 8049SOL    HW135609   1.917   1.123  11.681  2.1694 -1.6490  1.7003
 8049SOL    HW235610   1.976   1.206  11.582  0.5954  0.6097  0.4691
 8050SOL     OW35611   2.955   4.468   7.988 -0.0055 -0.0817 -0.3424
 8050SOL    HW135612   2.871   4.512   7.997 -0.2075 -0.8151  1.4096
 8050SOL    HW235613   2.926   4.396   8.044  0.8521  1.4798  2.0853
 8051SOL     OW35614   0.906   0.817   2.520 -0.2539  0.1245  0.2134
 8051SOL    HW135615   0.898   0.728   2.485  0.9697 -0.6958  2.0338
 8051SOL    HW235616   0.830   0.821   2.578 -1.1741  1.7824 -1.1116
 8052SOL     OW35617   0.884   1.383   6.211  0.1970  0.0018 -0.3541
 8052SOL    HW135618   0.916   1.460   6.258 -2.9140  0.2883  1.3438
 8052SOL    HW235619   0.945   1.383   6.137  0.7518  1.5766  0.1097
 8053SOL     OW35620   3.535   1.356   6.321  0.2150 -0.6797 -0.4951
 8053SOL    HW135621   3.554   1.355   6.414 -3.1799  0.3532  0.1798
 8053SOL    HW235622   3.516   1.448   6.304 -1.1709 -0.8639  0.0675
 8054SOL     OW35623   4.254   3.992   3.090  0.2106  0.2042  0.6176
 8054SOL    HW135624   4.235   4.081   3.118 -3.2926 -0.3993  0.0755
 8054SOL    HW235625   4.224   4.004   3.000 -1.4371 -1.5747  0.9308
 8055SOL     OW35626   3.327   2.086   4.704  0.0818 -0.6252 -0.4985
 8055SOL    HW135627   3.361   2.171   4.675 -2.0817  0.7576  1.0512
 8055SOL    HW235628   3.233   2.098   4.692  0.2981  0.3240 -1.2257
 8056SOL     OW35629   0.365   1.850   1.327  0.3419  0.8821  0.0073
 8056SOL    HW135630   0.368   1.800   1.246  2.4259  1.1289 -0.0627
 8056SOL    HW235631   0.443   1.814   1.369 -0.2164 -0.0894  0.2046
 8057SOL     OW35632   1.875   0.754   7.737  0.0503 -0.5480 -0.3058
 8057SOL    HW135633   1.931   0.813   7.787 -0.5221 -1.8266  1.8402
 8057SOL    HW235634   1.925   0.779   7.659  0.2018  2.1975  0.6675
 8058SOL     OW35635   1.398   0.810   5.480  0.1778  0.2816  0.4555
 8058SOL    HW135636   1.344   0.832   5.556 -1.1449  2.2928 -1.0621
 8058SOL    HW235637   1.337   0.842   5.413  0.3284 -1.7077 -0.6126
 8059SOL     OW35638   3.778   4.110   9.815  0.0213 -0.1449  0.4188
 8059SOL    HW135639   3.744   4.168   9.883  3.5676  0.3059  1.8002
 8059SOL    HW235640   3.832   4.163   9.757  0.1595  0.4026  1.0435
 8060SOL     OW35641   1.329   3.825   7.819 -0.2805  0.0070 -0.2795
 8060SOL    HW135642   1.313   3.919   7.820 -1.7103 -0.2429 -0.2248
 8060SOL    HW235643   1.239   3.794   7.827 -0.1778  0.5846  2.9269
 8061SOL     OW35644   0.135   1.728   5.701 -0.0157 -0.2893 -0.4671
 8061SOL    HW135645   0.108   1.675   5.626 -1.6741  1.8800 -1.3876
 8061SOL    HW235646   0.227   1.734   5.676  0.3669 -0.6361  0.8435
 8062SOL     OW35647   3.255   4.087   1.510  0.4956  0.0744  0.1661
 8062SOL    HW135648   3.261   3.992   1.510 -1.4500 -0.0415  0.6473
 8062SOL    HW235649   3.169   4.099   1.471  0.8581  0.6064 -0.4838
 8063SOL     OW35650   3.893   2.442  10.903 -0.3731  0.0034 -0.7603
 8063SOL    HW135651   3.894   2.434  10.998 -1.9138  0.2178 -0.7389
 8063SOL    HW235652   3.927   2.529  10.883 -0.0689  0.4317  1.6852
 8064SOL     OW35653   0.959   1.153   7.105  0.1060  0.2378 -0.0355
 8064SOL    HW135654   0.902   1.151   7.182  1.2047 -0.0168  0.7717
 8064SOL    HW235655   0.895   1.198   7.050  0.2646  0.9497  0.3607
 8065SOL     OW35656   1.086   2.767   6.366 -0.2104 -0.0603 -0.2938
 8065SOL    HW135657   1.022   2.823   6.412  1.3157 -0.7525  2.6586
 8065SOL    HW235658   1.112   2.722   6.447  0.6965  0.8397 -0.0915
 8066SOL     OW35659   1.540   0.161  10.873 -0.0183 -0.5298 -0.5035
 8066SOL    HW135660   1.635   0.160  10.864 -0.0171  0.2379 -0.5452
 8066SOL    HW235661   1.528   0.254  10.892 -1.8670 -1.3233  2.2480
 8067SOL     OW35662   4.592   1.486   5.386  0.3962 -0.6732  0.0509
 8067SOL    HW135663   4.650   1.534   5.327 -1.2521  2.1401  0.7522
 8067SOL    HW235664   4.616   1.395   5.365  0.5795 -0.8041  0.8153
 8068SOL     OW35665   3.065   3.114   4.266  0.3653 -0.7718 -0.1770
 8068SOL    HW135666   3.119   3.061   4.325  0.7735 -1.6981 -1.3792
 8068SOL    HW235667   2.999   3.149   4.326  0.1577 -0.1182 -0.7759
 8069SOL     OW35668   0.582   1.581  11.976 -0.0557  0.7736 -0.1474
 8069SOL    HW135669   0.526   1.659  11.982 -0.0186  0.8061 -0.2265
 8069SOL    HW235670   0.621   1.593  11.890 -0.9183 -2.8423 -1.0483
 8070SOL     OW35671   4.315   2.541   2.487  0.5066  0.0043  0.7786
 8070SOL    HW135672   4.267   2.568   2.408 -1.1587 -1.8428  1.1610
 8070SOL    HW235673   4.244   2.515   2.546  0.0639  0.4085  0.4339
 8071SOL     OW35674   3.555   0.616   2.569 -0.5802 -0.3369 -0.2236
 8071SOL    HW135675   3.521   0.683   2.628 -2.0835 -0.6109 -0.7800
 8071SOL    HW235676   3.614   0.562   2.622 -1.2376 -1.1214 -0.2892
 8072SOL     OW35677   4.223   3.709  13.433  0.0148 -0.2540  0.1277
 8072SOL    HW135678   4.285   3.652  13.478  1.4409 -0.1866 -1.7504
 8072SOL    HW235679   4.179   3.756  13.504  0.2227 -0.7862  0.6086
 8073SOL     OW35680   1.078   3.351   5.968 -0.0447  0.0859  0.0315
 8073SOL    HW135681   1.009   3.361   6.033  2.8723  0.8398  3.0334
 8073SOL    HW235682   1.094   3.440   5.936  1.3845 -0.2483 -0.1788
 8074SOL     OW35683   3.986   1.404   0.878 -0.2878 -0.2342 -0.0964
 8074SOL    HW135684   3.918   1.372   0.936  1.8834  0.1457  2.6344
 8074SOL    HW235685   3.933   1.407   0.798 -1.3066  1.2828  0.6396
 8075SOL     OW35686   4.356   0.294  16.504  0.2393 -0.3025 -0.4269
 8075SOL    HW135687   4.323   0.209  16.534  3.2723 -0.7946  1.5362
 8075SOL    HW235688   4.319   0.348  16.574  0.9725 -0.8504  0.3806
 8076SOL     OW35689   3.061   0.467   6.799 -0.4961 -0.0716 -0.6957
 8076SOL    HW135690   3.056   0.533   6.729  1.9875 -0.0929 -0.8959
 8076SOL    HW235691   3.034   0.396   6.740 -0.0122 -0.5890 -0.2820
 8077SOL     OW35692   2.225   2.002   2.657  0.1550  0.2155  0.1870
 8077SOL    HW135693   2.258   1.945   2.587  1.7641  0.7633  0.4930
 8077SOL    HW235694   2.133   1.978   2.651 -0.4396  2.0335  2.0258
 8078SOL     OW35695   0.712   3.458   9.161  0.1048 -0.0986 -0.3675
 8078SOL    HW135696   0.721   3.542   9.117  1.3711 -0.1254 -0.1517
 8078SOL    HW235697   0.630   3.481   9.205 -0.7391 -2.2874 -0.7920
 8079SOL     OW35698   2.463   2.212   5.045  0.2316 -0.8571  0.3293
 8079SOL    HW135699   2.384   2.246   5.088  0.0783 -1.0608  0.2049
 8079SOL    HW235700   2.521   2.268   5.097  0.3921 -0.5737 -0.1581
 8080SOL     OW35701   1.808   3.797   7.200  0.3449  0.1111  0.2337
 8080SOL    HW135702   1.869   3.869   7.190  1.5722 -1.2577 -2.0774
 8080SOL    HW235703   1.813   3.775   7.293 -1.7532 -0.0179  0.3212
 8081SOL     OW35704   3.928   2.125   3.115 -0.0834 -0.2192  0.0899
 8081SOL    HW135705   3.933   2.044   3.064 -1.3361 -0.8286  0.9632
 8081SOL    HW235706   4.002   2.113   3.175 -0.0781  0.8042  0.2819
 8082SOL     OW35707   3.238   1.721   8.058  0.3735  0.7349  0.4233
 8082SOL    HW135708   3.187   1.696   8.135  0.5959  0.6177  0.5306
 8082SOL    HW235709   3.177   1.692   7.990 -0.3410  0.7527  1.0465
 8083SOL     OW35710   2.164   3.161  12.910  0.5072  0.6543 -0.1536
 8083SOL    HW135711   2.077   3.194  12.930  0.1269  0.4679 -1.5122
 8083SOL    HW235712   2.208   3.189  12.990 -1.6859  0.7516  0.9939
 8084SOL     OW35713   2.174   3.849   3.795 -0.0639  0.3008 -0.3514
 8084SOL    HW135714   2.212   3.808   3.872  0.0054 -0.3966 -0.7523
 8084SOL    HW235715   2.203   3.790   3.725 -0.5652  0.2048 -0.4753
 8085SOL     OW35716   4.357   2.490   2.023  0.3982 -0.3566  0.1588
 8085SOL    HW135717   4.293   2.494   1.952 -0.6590 -2.6141  0.9747
 8085SOL    HW235718   4.385   2.581   2.018  0.2420 -0.4570 -2.4601
 8086SOL     OW35719   3.667   3.757   1.257 -0.0645  0.1480  0.1598
 8086SOL    HW135720   3.583   3.765   1.302 -1.5938 -2.6659 -2.1966
 8086SOL    HW235721   3.699   3.844   1.236  1.3768 -0.1924  0.9475
 8087SOL     OW35722   3.886   3.278   9.272 -0.3453 -0.5211  0.4491
 8087SOL    HW135723   3.821   3.222   9.314  0.4133 -1.1144  0.8493
 8087SOL    HW235724   3.970   3.240   9.298  0.3683  0.3353 -0.5993
 8088SOL     OW35725   1.221   2.201   4.405  0.2679  0.4786 -0.0668
 8088SOL    HW135726   1.278   2.239   4.473  0.7427  0.6245 -0.5468
 8088SOL    HW235727   1.262   2.115   4.416  2.4703  1.5865  0.5838
 8089SOL     OW35728   3.646   3.835   2.196  0.2962 -0.5791  0.2270
 8089SOL    HW135729   3.741   3.831   2.189  0.3971  1.8131  0.0941
 8089SOL    HW235730   3.641   3.747   2.232  2.2563 -0.9032 -0.3074
 8090SOL     OW35731   3.137   2.280   7.348  0.4490  0.2490  0.2465
 8090SOL    HW135732   3.229   2.286   7.376 -0.3046 -2.1546  3.2633
 8090SOL    HW235733   3.096   2.343   7.407  1.8363  0.0734  1.4020
 8091SOL     OW35734   3.664   2.374   1.907 -0.0085 -0.4909 -0.1845
 8091SOL    HW135735   3.610   2.428   1.849 -0.4750 -0.5985  0.1503
 8091SOL    HW235736   3.751   2.389   1.870  0.4160 -1.0354  0.5936
 8092SOL     OW35737   1.409   1.133   5.779  0.3984  0.0328 -0.7053
 8092SOL    HW135738   1.409   1.225   5.752  0.7972 -0.3017 -1.8126
 8092SOL    HW235739   1.481   1.098   5.726  1.3626  0.4730  0.2904
 8093SOL     OW35740   4.238   2.468   2.905 -0.0077 -0.0459  0.0797
 8093SOL    HW135741   4.256   2.402   2.838  0.6497 -0.2304  0.4401
 8093SOL    HW235742   4.330   2.488   2.922  0.3440  0.8225 -2.7407
 8094SOL     OW35743   1.454   1.921   3.477  0.7230 -0.1400 -0.1295
 8094SOL    HW135744   1.410   1.932   3.562 -1.1454  2.7042 -1.4955
 8094SOL    HW235745   1.462   1.825   3.474  0.8158 -0.1799  1.2231
 8095SOL     OW35746   1.198   4.041  12.157 -0.4283  0.2673 -0.0310
 8095SOL    HW135747   1.249   3.964  12.182  0.9650  1.6956  1.5974
 8095SOL    HW235748   1.149   4.017  12.079  1.4396 -1.5976 -0.6171
 8096SOL     OW35749   0.083   3.177   4.805 -0.1015  0.1820  0.1810
 8096SOL    HW135750   0.100   3.098   4.753 -0.0225  0.2415  0.1170
 8096SOL    HW235751   0.172   3.203   4.831 -0.6400  0.9880  1.1991
 8097SOL     OW35752   0.226   0.443   6.057 -0.0673  0.3489  1.1884
 8097SOL    HW135753   0.249   0.500   5.983  0.3551 -0.6398  0.5601
 8097SOL    HW235754   0.234   0.504   6.130 -2.9449  1.7461  0.3352
 8098SOL     OW35755   0.703   4.164  10.052 -0.0449 -0.2391  0.0457
 8098SOL    HW135756   0.685   4.258  10.052  0.3254 -0.1578  1.8326
 8098SOL    HW235757   0.620   4.140  10.011 -0.1910  0.5345 -0.1105
 8099SOL     OW35758   1.092   4.413  14.198 -0.3942  0.3275  0.3391
 8099SOL    HW135759   1.097   4.323  14.167  1.5582  0.6105 -0.1686
 8099SOL    HW235760   1.001   4.430  14.173 -0.2999 -1.0764 -0.9685
 8100SOL     OW35761   1.620   4.253   5.856  0.2687 -0.0687  0.3803
 8100SOL    HW135762   1.631   4.281   5.947  3.0654  1.1218 -0.3411
 8100SOL    HW235763   1.706   4.281   5.824 -0.2514  1.5811  0.4250
 8101SOL     OW35764   1.821   1.856   3.718 -0.0468  0.2450  0.3424
 8101SOL    HW135765   1.859   1.821   3.798  0.8220  3.0146  1.1597
 8101SOL    HW235766   1.799   1.782   3.661 -2.9528  0.2260  1.4913
 8102SOL     OW35767   3.561   0.952   2.154  0.2212 -0.7424  0.6312
 8102SOL    HW135768   3.485   0.964   2.096 -0.4481  1.0939  1.8847
 8102SOL    HW235769   3.520   0.883   2.205 -0.8310  0.3258  1.2421
 8103SOL     OW35770   4.216   0.491  11.034  0.3325  0.5404  0.1729
 8103SOL    HW135771   4.256   0.475  11.119 -0.5489  0.6334  0.6134
 8103SOL    HW235772   4.204   0.586  11.040 -0.7490  0.4335 -0.1859
 8104SOL     OW35773   0.308   4.248   5.671 -0.0468 -0.1952 -0.1058
 8104SOL    HW135774   0.298   4.273   5.580 -0.3211 -1.1647 -0.3376
 8104SOL    HW235775   0.303   4.153   5.666  2.7356 -0.5118  2.8229
 8105SOL     OW35776   4.467   2.620   4.019  0.4035  0.0644 -0.1856
 8105SOL    HW135777   4.560   2.643   4.015  0.4024 -0.0766 -0.9766
 8105SOL    HW235778   4.443   2.654   4.106  0.6736 -0.5674  0.1302
 8106SOL     OW35779   3.478   3.723   7.369  0.1239  0.1770  0.1126
 8106SOL    HW135780   3.413   3.655   7.352  1.0377 -0.4053 -1.0562
 8106SOL    HW235781   3.539   3.683   7.431 -0.8746  0.1146  1.0516
 8107SOL     OW35782   0.222   0.338   7.516 -0.0145 -0.3391 -0.5555
 8107SOL    HW135783   0.149   0.326   7.577 -0.1979  2.9717 -0.1123
 8107SOL    HW235784   0.202   0.284   7.439 -1.0255  0.0769 -0.5908
 8108SOL     OW35785   0.433   0.639   8.455 -0.3043 -0.1365  0.2657
 8108SOL    HW135786   0.472   0.699   8.519  1.0343  0.6642 -1.3112
 8108SOL    HW235787   0.502   0.639   8.390 -2.3542  1.1796 -1.8990
 8109SOL     OW35788   2.452   0.329  13.841 -0.3414 -0.3261  0.1215
 8109SOL    HW135789   2.448   0.295  13.930  1.0205 -0.8843 -0.0408
 8109SOL    HW235790   2.394   0.403  13.858  1.9196  0.9890  2.0014
 8110SOL     OW35791   2.010   2.901  10.909  0.0856  0.5335 -0.5010
 8110SOL    HW135792   2.005   2.943  10.995 -1.4192 -2.0287  0.6621
 8110SOL    HW235793   1.929   2.851  10.899  0.4756 -0.7138  2.4007
 8111SOL     OW35794   4.286   1.752   9.347  0.1236 -0.6235 -0.3861
 8111SOL    HW135795   4.272   1.802   9.428  1.1683  0.4429 -0.8665
 8111SOL    HW235796   4.199   1.713   9.339 -0.2904 -0.4427  2.9687
 8112SOL     OW35797   1.150   3.322   4.114 -0.1506  0.0458  0.0906
 8112SOL    HW135798   1.133   3.410   4.080  1.1192 -0.3510 -1.5575
 8112SOL    HW235799   1.150   3.278   4.029  1.3662  1.3349 -0.5766
 8113SOL     OW35800   2.901   3.630   6.024 -0.2551  0.2091 -0.1461
 8113SOL    HW135801   2.812   3.597   6.014 -0.8604  1.6061  0.7088
 8113SOL    HW235802   2.896   3.725   6.014  1.4936  0.1120 -1.9099
 8114SOL     OW35803   4.696   1.654  10.553 -0.2624  0.1218  0.1451
 8114SOL    HW135804   0.014   1.577  10.517 -0.0662  0.1904  0.2303
 8114SOL    HW235805   0.051   1.701  10.575 -0.5709 -0.0334  1.5859
 8115SOL     OW35806   2.784   3.213   9.665 -0.2692 -0.2467 -0.4046
 8115SOL    HW135807   2.757   3.122   9.658  2.2339 -1.2543  3.1175
 8115SOL    HW235808   2.709   3.258   9.706 -0.1460 -0.6200  0.2265
 8116SOL     OW35809   4.628   1.064   4.682  0.0350 -0.4318  0.5773
 8116SOL    HW135810   4.570   1.055   4.757  0.4059  0.7322  1.0009
 8116SOL    HW235811   4.604   0.989   4.627  1.4523 -1.7306  1.7293
 8117SOL     OW35812   2.632   1.756   3.352  0.0541  1.0206 -0.3484
 8117SOL    HW135813   2.688   1.688   3.313 -1.0544 -1.8973  3.0937
 8117SOL    HW235814   2.570   1.749   3.279 -0.6310 -2.6106  0.5549
 8118SOL     OW35815   4.581   2.364   6.585  0.1822  0.2330 -0.4253
 8118SOL    HW135816   4.558   2.437   6.643 -0.5718  1.0563 -1.7483
 8118SOL    HW235817   4.624   2.415   6.517  1.3850 -1.1008 -0.6627
 8119SOL     OW35818   3.265   0.502   0.989  0.3891  0.5071  0.3804
 8119SOL    HW135819   3.177   0.530   0.968 -0.0911  0.2209  1.9823
 8119SOL    HW235820   3.318   0.577   0.960  2.1084 -0.4401  1.0356
 8120SOL     OW35821   3.162   4.457   9.845  0.1129  0.2514 -0.6737
 8120SOL    HW135822   3.205   4.371   9.843  0.8096  0.5200  2.4715
 8120SOL    HW235823   3.167   4.477   9.752 -0.6840  0.1717 -0.7301
 8121SOL     OW35824   1.876   1.529  10.033 -1.3310 -0.7404 -0.2598
 8121SOL    HW135825   1.928   1.485   9.965 -2.4099 -0.6109 -1.1829
 8121SOL    HW235826   1.789   1.530   9.992 -0.5125 -2.3772 -2.0373
 8122SOL     OW35827   4.164   0.692   7.582  0.7201 -0.2249  0.1053
 8122SOL    HW135828   4.210   0.748   7.644  0.9825 -2.4656  1.9074
 8122SOL    HW235829   4.097   0.759   7.568 -0.7236 -1.0523  3.1477
 8123SOL     OW35830   0.738   4.042   0.381 -0.9023 -0.4033  0.5026
 8123SOL    HW135831   0.744   4.049   0.286 -1.7115 -2.0736  0.3297
 8123SOL    HW235832   0.674   3.971   0.387 -1.7161  0.2623 -0.3613
 8124SOL     OW35833   3.466   1.864   9.264 -0.1318 -0.3150 -0.5275
 8124SOL    HW135834   3.375   1.837   9.253 -0.6957  1.4879 -0.2444
 8124SOL    HW235835   3.477   1.947   9.217 -1.4493  0.8947  1.2978
 8125SOL     OW35836   0.641   1.943  15.209  0.1062  0.4701 -0.1829
 8125SOL    HW135837   0.594   1.964  15.290  0.7539  0.6536  0.1497
 8125SOL    HW235838   0.591   1.862  15.196 -1.0583  1.3282 -1.0587
 8126SOL     OW35839   1.439   3.550   8.303 -0.0096 -0.6143 -0.2499
 8126SOL    HW135840   1.376   3.581   8.368  0.0080  0.3910 -0.7197
 8126SOL    HW235841   1.399   3.468   8.275  0.4102 -0.7909 -0.3346
 8127SOL     OW35842   1.585   3.429   8.524  0.5270  0.1820 -0.1087
 8127SOL    HW135843   1.629   3.509   8.552 -2.7803  2.8718 -2.5226
 8127SOL    HW235844   1.530   3.458   8.450  0.2837 -0.2298 -0.0853
 8128SOL     OW35845   3.996   2.763   7.649 -0.1787  0.2746  0.3096
 8128SOL    HW135846   3.948   2.715   7.582 -2.9406  3.1742  0.2358
 8128SOL    HW235847   3.922   2.817   7.676 -1.7285 -2.1880  0.9362
 8129SOL     OW35848   4.267   1.173   2.416  0.7458 -0.0264  0.5658
 8129SOL    HW135849   4.226   1.102   2.466  1.6123 -0.0662  1.2152
 8129SOL    HW235850   4.212   1.249   2.433  0.2125  0.3242 -2.8092
 8130SOL     OW35851   1.114   1.826  14.879 -0.1921  0.4949  0.2021
 8130SOL    HW135852   1.181   1.811  14.812  0.5314  0.7823  0.8505
 8130SOL    HW235853   1.164   1.815  14.960  1.1508 -0.7694 -0.7759
 8131SOL     OW35854   0.144   3.909   4.362  0.1455  0.6853 -0.3620
 8131SOL    HW135855   0.176   3.895   4.273 -0.0833  1.0771 -0.5056
 8131SOL    HW235856   0.066   3.855   4.350  1.8976 -2.4877  2.6485
 8132SOL     OW35857   0.607   1.064   7.146 -0.3520 -0.4628  0.1805
 8132SOL    HW135858   0.632   0.982   7.104  0.9365  1.1634 -2.2308
 8132SOL    HW235859   0.611   1.118   7.067  0.5966  1.3860  1.4736
 8133SOL     OW35860   3.021   1.704   2.356  0.0657  0.3126 -0.4690
 8133SOL    HW135861   2.991   1.683   2.268  0.2515 -1.9342  0.0051
 8133SOL    HW235862   3.074   1.782   2.336  1.3510  0.0863  2.0203
 8134SOL     OW35863   0.772   4.185   9.493  0.3896 -0.5868  0.2616
 8134SOL    HW135864   0.691   4.179   9.442  0.3798  0.0007  0.2046
 8134SOL    HW235865   0.804   4.265   9.451  0.8743 -1.0460 -0.2430
 8135SOL     OW35866   1.881   2.226   0.310  0.0409  0.2603  0.0304
 8135SOL    HW135867   1.820   2.163   0.272 -1.5467  1.2736  0.8785
 8135SOL    HW235868   1.822   2.302   0.310  2.0329  1.8096  0.1422
 8136SOL     OW35869   1.357   4.635   8.724  0.9641 -0.6551 -0.3320
 8136SOL    HW135870   1.319   4.647   8.811  1.7591  0.7016 -0.1728
 8136SOL    HW235871   1.445   4.617   8.755  0.1912 -1.2534  1.4841
 8137SOL     OW35872   0.098   1.030   5.234 -0.4805 -0.2196  0.1359
 8137SOL    HW135873   0.015   0.982   5.227 -2.3844  2.8399  1.7624
 8137SOL    HW235874   0.160   0.977   5.284  0.6462 -0.0458 -1.0700
 8138SOL     OW35875   3.032   2.143   8.534 -0.0120 -0.2680 -0.0274
 8138SOL    HW135876   2.939   2.154   8.516 -0.0511  0.3788  0.5439
 8138SOL    HW235877   3.074   2.186   8.459 -1.1987  0.5551 -0.2175
 8139SOL     OW35878   0.944   0.532  10.431 -0.1031  0.8724 -0.0482
 8139SOL    HW135879   0.996   0.604  10.395 -0.8124  1.0355 -0.7440
 8139SOL    HW235880   0.884   0.572  10.495 -1.0946 -1.2996  0.3629
 8140SOL     OW35881   0.777   2.130   7.095 -0.4286 -0.4815 -0.6008
 8140SOL    HW135882   0.757   2.095   7.182  0.8880 -1.0779 -0.5466
 8140SOL    HW235883   0.776   2.222   7.122 -1.1099 -0.7544  0.3139
 8141SOL     OW35884   3.391   3.091   4.940  0.0141  0.3571  0.0990
 8141SOL    HW135885   3.370   3.184   4.930 -4.1369 -0.5806  0.2400
 8141SOL    HW235886   3.471   3.105   4.990 -0.9471  0.8413  1.5137
 8142SOL     OW35887   0.078   3.294  16.737 -0.4008  0.3350 -0.2692
 8142SOL    HW135888   0.090   3.300  16.832 -1.7576 -0.4269 -0.0586
 8142SOL    HW235889   0.016   3.364  16.718 -0.8138  0.5040  1.6642
 8143SOL     OW35890   3.791   3.451   1.730  0.2737  0.3792  0.6328
 8143SOL    HW135891   3.733   3.474   1.804  2.1467  1.0807  1.8787
 8143SOL    HW235892   3.870   3.434   1.780  0.9807 -2.2688 -1.4042
 8144SOL     OW35893   4.181   2.535   3.630  0.4168  0.3406 -0.6002
 8144SOL    HW135894   4.215   2.584   3.705 -0.8991  2.2930 -1.3052
 8144SOL    HW235895   4.179   2.449   3.673 -1.0601  0.9321  0.5065
 8145SOL     OW35896   4.468   2.454   5.682 -0.5312 -0.0905 -0.0020
 8145SOL    HW135897   4.531   2.417   5.620 -0.9663  1.2069 -1.2552
 8145SOL    HW235898   4.391   2.468   5.626  0.3384  2.5309 -0.5755
 8146SOL     OW35899   1.333   1.009   0.537  0.1839 -0.1725 -0.2916
 8146SOL    HW135900   1.377   0.928   0.564  1.0218  1.2595  2.6240
 8146SOL    HW235901   1.409   1.065   0.522 -0.8726  1.1316 -0.7139
 8147SOL     OW35902   2.743   2.615   2.571  0.5365  0.4259  0.3075
 8147SOL    HW135903   2.767   2.646   2.484 -3.8662  0.7598 -0.8102
 8147SOL    HW235904   2.726   2.522   2.564 -1.1747  0.7335  0.3652
 8148SOL     OW35905   2.205   0.400   5.115 -0.5968  0.4552 -0.0220
 8148SOL    HW135906   2.239   0.314   5.141 -1.1709  0.5148  0.9305
 8148SOL    HW235907   2.280   0.458   5.124  0.4383 -0.9482  0.3319
 8149SOL     OW35908   4.063   4.640  13.527  0.8705  0.3550 -0.7278
 8149SOL    HW135909   4.118   4.578  13.575  0.7939  3.6104  3.4770
 8149SOL    HW235910   3.972   4.613  13.539  0.3964  3.0619  1.6364
 8150SOL     OW35911   2.878   2.783  12.565 -0.0805 -0.0629  0.2362
 8150SOL    HW135912   2.841   2.702  12.601  0.4286 -0.5675 -0.3697
 8150SOL    HW235913   2.816   2.811  12.497  0.5138  2.1257  0.6095
 8151SOL     OW35914   2.665   0.895  16.606  0.1408  0.6820 -0.0435
 8151SOL    HW135915   2.679   0.962  16.672 -1.3016  1.5839 -0.6485
 8151SOL    HW235916   2.584   0.852  16.634  0.8421 -0.3310  0.4420
 8152SOL     OW35917   2.182   4.372   1.496  0.1568  0.0732 -0.3711
 8152SOL    HW135918   2.215   4.307   1.558 -0.9353 -2.4676 -2.4666
 8152SOL    HW235919   2.239   4.349   1.422 -0.8399 -0.2943 -1.0293
 8153SOL     OW35920   1.761   4.490   3.907 -0.6191  0.2222 -0.0510
 8153SOL    HW135921   1.670   4.485   3.880 -0.9595 -0.7985  1.2499
 8153SOL    HW235922   1.760   4.411   3.962 -0.3582  0.7110  0.6600
 8154SOL     OW35923   3.700   3.385   6.053  0.2439  0.3242  0.4374
 8154SOL    HW135924   3.687   3.302   6.098 -0.7899  0.7185  0.8592
 8154SOL    HW235925   3.648   3.446   6.105  0.7366 -0.3921  1.7559
 8155SOL     OW35926   1.607   2.152   3.453  0.3372 -0.2109 -0.1574
 8155SOL    HW135927   1.586   2.059   3.465 -1.5405  0.7060  3.4638
 8155SOL    HW235928   1.523   2.179   3.490 -0.2867 -1.1796 -0.8382
 8156SOL     OW35929   1.531   2.613  10.319  0.2166 -0.1018 -0.0764
 8156SOL    HW135930   1.531   2.669  10.397  2.7128 -2.2798  1.5162
 8156SOL    HW235931   1.474   2.542  10.349 -0.3517  1.1351  1.7288
 8157SOL     OW35932   2.243   1.728  16.127 -0.1365 -1.0765  0.2311
 8157SOL    HW135933   2.199   1.789  16.187 -1.5884 -1.1855 -0.7132
 8157SOL    HW235934   2.257   1.653  16.184  3.8591 -1.0716 -0.7912
 8158SOL     OW35935   1.576   0.523   6.906 -0.1453 -0.6970  0.0945
 8158SOL    HW135936   1.611   0.611   6.919  0.6636 -1.1739  1.1406
 8158SOL    HW235937   1.654   0.470   6.925 -1.0099 -2.3119 -0.8887
 8159SOL     OW35938   1.587   2.303   5.295 -0.0462 -0.1026 -0.2241
 8159SOL    HW135939   1.598   2.352   5.214  2.0987  0.7418  0.5839
 8159SOL    HW235940   1.493   2.287   5.302 -0.3731  2.0928  0.2496
 8160SOL     OW35941   0.803   1.810  11.797  0.5476 -0.0130  0.1498
 8160SOL    HW135942   0.763   1.897  11.803  2.8395  0.8678  2.1876
 8160SOL    HW235943   0.723   1.767  11.766 -0.1435  0.2932  1.5075
 8161SOL     OW35944   3.604   2.720   6.483 -0.0443 -0.1704  0.8333
 8161SOL    HW135945   3.653   2.768   6.550  0.7868 -0.2445  0.2736
 8161SOL    HW235946   3.518   2.761   6.490  0.1816  0.5238 -0.5624
 8162SOL     OW35947   3.516   1.132   4.959 -0.6778  0.4105  0.7537
 8162SOL    HW135948   3.421   1.132   4.942 -0.4505 -3.4801 -0.6329
 8162SOL    HW235949   3.519   1.169   5.047 -1.1164 -0.5073  1.1542
 8163SOL     OW35950   3.955   3.763   4.199  0.2234  0.1218 -0.0032
 8163SOL    HW135951   3.975   3.852   4.229  1.1867  0.2133 -0.9241
 8163SOL    HW235952   3.917   3.789   4.115  0.9595 -1.5622 -0.8590
 8164SOL     OW35953   4.279   4.064  12.794  0.1406  0.1516 -0.0262
 8164SOL    HW135954   4.319   4.068  12.881  0.9914 -0.4095 -0.3856
 8164SOL    HW235955   4.296   3.974  12.766  0.0310  0.7295 -1.9906
 8165SOL     OW35956   4.521   0.936   7.276  0.3044  0.4530 -0.4622
 8165SOL    HW135957   4.548   0.845   7.289  2.0526  1.2684  1.6886
 8165SOL    HW235958   4.425   0.938   7.282  0.3983 -1.5115  1.6797
 8166SOL     OW35959   3.037   1.519   8.117 -0.2701 -0.2522 -0.1546
 8166SOL    HW135960   2.997   1.513   8.030 -0.7339 -0.5894  0.0838
 8166SOL    HW235961   2.997   1.443   8.158  0.6364 -0.7398 -0.1805
 8167SOL     OW35962   1.787   2.389   8.392 -0.0941  0.8995 -0.2624
 8167SOL    HW135963   1.771   2.316   8.452  1.1054 -1.0229 -2.2749
 8167SOL    HW235964   1.729   2.457   8.425 -0.1558 -0.4189  2.3013
 8168SOL     OW35965   3.928   3.919   3.966 -0.0122 -0.6331 -0.1018
 8168SOL    HW135966   3.971   3.969   3.896 -0.9620  1.4119  0.7669
 8168SOL    HW235967   3.843   3.924   3.923 -0.8918 -1.2137  1.5925
 8169SOL     OW35968   2.139   1.006   3.546 -0.3803 -0.3380  0.2119
 8169SOL    HW135969   2.072   1.071   3.566  1.7332  1.0949  2.6449
 8169SOL    HW235970   2.167   0.990   3.636 -0.7799 -2.0929  0.0219
 8170SOL     OW35971   0.900   1.260   2.728 -0.4794 -0.2271  0.4127
 8170SOL    HW135972   0.943   1.175   2.724 -0.4783 -0.3213  2.1424
 8170SOL    HW235973   0.810   1.246   2.697 -0.8055 -0.4392  1.4151
 8171SOL     OW35974   1.916   3.855   0.958 -0.2630 -0.0508 -0.5990
 8171SOL    HW135975   1.831   3.847   0.914 -1.2652  0.0666  1.2926
 8171SOL    HW235976   1.942   3.947   0.952 -0.5725  0.1393  0.8075
 8172SOL     OW35977   0.799   1.616   3.243 -0.2801 -0.2197 -0.3614
 8172SOL    HW135978   0.704   1.616   3.232 -0.6208 -0.5453  2.5609
 8172SOL    HW235979   0.805   1.708   3.269  1.0172 -0.4544  0.1812
 8173SOL     OW35980   1.473   2.818   4.969 -0.4714 -0.1988 -0.1180
 8173SOL    HW135981   1.511   2.811   5.057  1.9644 -0.7951 -1.2229
 8173SOL    HW235982   1.393   2.870   4.981 -0.3003  0.0554 -0.0856
 8174SOL     OW35983   3.520   2.533   7.692 -0.8742 -0.6677 -0.0306
 8174SOL    HW135984   3.463   2.477   7.744 -1.4439  0.0714  0.1370
 8174SOL    HW235985   3.540   2.598   7.760  1.3197  1.3722 -2.6263
 8175SOL     OW35986   2.552   1.916  13.365  0.3728  0.2419 -0.4030
 8175SOL    HW135987   2.537   2.003  13.327 -1.1749 -0.3630 -1.2129
 8175SOL    HW235988   2.616   1.934  13.433  0.2233  0.5264 -0.3355
 8176SOL     OW35989   3.540   4.028  10.072  0.1612  0.0696  0.3042
 8176SOL    HW135990   3.577   3.967  10.136 -0.4153 -0.9158 -0.3118
 8176SOL    HW235991   3.503   3.973  10.003  1.9080 -0.1687 -0.4281
 8177SOL     OW35992   3.400   0.316   5.705 -0.7348 -0.1689 -0.0681
 8177SOL    HW135993   3.435   0.230   5.726 -1.2099 -0.5277 -0.7549
 8177SOL    HW235994   3.386   0.349   5.794  0.7136  2.0354 -0.6494
 8178SOL     OW35995   3.733   2.737  15.454 -0.1156  0.1901 -0.0022
 8178SOL    HW135996   3.649   2.742  15.407  0.0547  0.5999 -0.2572
 8178SOL    HW235997   3.799   2.726  15.387  0.5201 -0.2650  0.6947
 8179SOL     OW35998   2.866   4.691  11.943 -0.7923 -0.1066 -0.4135
 8179SOL    HW135999   2.900   0.040  11.892  0.0019 -1.3123 -1.6404
 8179SOL    HW236000   2.779   4.688  11.903 -0.7741  2.5386 -0.6758
 8180SOL     OW36001   4.512   3.277   0.007  0.5461  0.3508  0.0767
 8180SOL    HW136002   4.469   3.226   0.076  3.1590 -0.7309  0.9252
 8180SOL    HW236003   4.439   3.280  17.647  0.3443 -0.0946  0.2959
 8181SOL     OW36004   3.605   2.316   3.352  0.1800  0.2419  0.1483
 8181SOL    HW136005   3.562   2.386   3.402 -1.3605 -1.1193  0.7520
 8181SOL    HW236006   3.654   2.271   3.421  2.2920  1.8586 -0.3084
 8182SOL     OW36007   0.902   2.448  15.449  0.1505  0.0389 -0.0142
 8182SOL    HW136008   0.931   2.461  15.539  0.0083  1.1497 -0.1246
 8182SOL    HW236009   0.914   2.537  15.415  2.8722 -0.0621  0.7453
 8183SOL     OW36010   1.270   0.315   5.818 -0.0394 -0.0803 -0.1909
 8183SOL    HW136011   1.353   0.281   5.850  0.9335  0.5280 -2.0261
 8183SOL    HW236012   1.292   0.379   5.750  1.1860  0.9766  1.1913
 8184SOL     OW36013   0.353   1.560  15.613  0.2475  0.2553 -0.1605
 8184SOL    HW136014   0.374   1.599  15.529 -1.7039  0.4019 -0.5903
 8184SOL    HW236015   0.406   1.615  15.670  1.3560 -0.5420 -0.4237
 8185SOL     OW36016   2.708   2.031   5.497  0.4366  0.0462 -0.3061
 8185SOL    HW136017   2.663   1.955   5.534 -1.3231  2.0881  1.7172
 8185SOL    HW236018   2.634   2.085   5.470 -0.2289  0.0264  1.5118
 8186SOL     OW36019   2.173   0.765   5.493  0.3165  0.6792 -0.1153
 8186SOL    HW136020   2.218   0.791   5.573  1.6014 -1.5174 -0.1214
 8186SOL    HW236021   2.080   0.771   5.515  0.8041  0.6756  1.9336
 8187SOL     OW36022   2.543   3.819   2.619 -0.1473  0.9134 -0.7070
 8187SOL    HW136023   2.460   3.849   2.657  1.5081  0.3709  3.3270
 8187SOL    HW236024   2.566   3.877   2.546 -1.0686  0.3025 -1.4862
 8188SOL     OW36025   3.957   2.695   6.078 -0.3878 -0.1992  0.2524
 8188SOL    HW136026   3.892   2.746   6.125  1.0663  0.6941  1.3150
 8188SOL    HW236027   3.940   2.619   6.134 -0.6032  0.2182  0.7480
 8189SOL     OW36028   3.123   2.447   0.993 -0.1644 -0.4037  0.1010
 8189SOL    HW136029   3.189   2.462   0.925  0.6240 -0.3151  0.8884
 8189SOL    HW236030   3.040   2.466   0.951 -1.2090 -0.7964  2.0168
 8190SOL     OW36031   2.313   1.234   0.763  0.2605  0.1844 -0.1957
 8190SOL    HW136032   2.229   1.196   0.786  1.2960 -1.4243  0.9328
 8190SOL    HW236033   2.369   1.158   0.748 -0.7434 -0.3211 -1.3762
 8191SOL     OW36034   4.537   3.664  16.154  0.0762 -0.0442  0.2434
 8191SOL    HW136035   4.507   3.597  16.093  0.4012  1.4036 -1.5147
 8191SOL    HW236036   4.632   3.656  16.145  0.3317  0.4778  2.5430
 8192SOL     OW36037   2.017   1.379   2.863 -0.2924  0.0248  0.1311
 8192SOL    HW136038   2.048   1.400   2.951 -0.5964 -2.2472  0.7796
 8192SOL    HW236039   1.925   1.395   2.881  0.3967  2.1683  1.7368
 8193SOL     OW36040   1.135   0.893   7.490 -0.4978  0.0536  0.0293
 8193SOL    HW136041   1.070   0.837   7.447  0.3027 -1.4029  0.7077
 8193SOL    HW236042   1.076   0.968   7.498  0.1244  0.6351 -0.8417
 8194SOL     OW36043   4.631   0.759   7.754 -0.3796 -0.2661  0.0437
 8194SOL    HW136044   4.670   0.708   7.683  0.3596  0.7768 -0.2967
 8194SOL    HW236045   4.575   0.691   7.791  0.8060 -1.4147 -0.2853
 8195SOL     OW36046   3.355   1.782  12.357 -0.3577  0.2115  0.5341
 8195SOL    HW136047   3.363   1.777  12.262 -0.7011 -1.4320  0.5917
 8195SOL    HW236048   3.274   1.732  12.368 -1.0256  1.6347  1.9658
 8196SOL     OW36049   1.512   1.398  14.625 -1.1511  0.0524  0.2572
 8196SOL    HW136050   1.561   1.430  14.700  0.0588 -0.4478 -0.3165
 8196SOL    HW236051   1.553   1.458  14.563  0.8723 -1.2471  0.3358
 8197SOL     OW36052   3.501   1.262   0.405 -0.4426 -0.3735 -0.1724
 8197SOL    HW136053   3.480   1.184   0.354  1.3558  0.1522 -1.7255
 8197SOL    HW236054   3.504   1.234   0.496 -1.0664  2.5650  0.7614
 8198SOL     OW36055   1.533   4.494  14.430  0.6092 -0.0607  0.2533
 8198SOL    HW136056   1.599   4.461  14.370  0.0847 -2.2667  0.8694
 8198SOL    HW236057   1.593   4.528  14.497 -0.6935  0.4728  1.1501
 8199SOL     OW36058   2.569   4.416   5.849 -1.0808  0.1098 -0.3814
 8199SOL    HW136059   2.539   4.329   5.823 -1.8535  0.5268 -0.8892
 8199SOL    HW236060   2.567   4.416   5.945  0.0729 -0.5223 -0.3677
 8200SOL     OW36061   3.846   4.665   4.634 -0.2578  0.3931  0.1620
 8200SOL    HW136062   3.846   4.725   4.559  1.0126 -1.4193 -1.3117
 8200SOL    HW236063   3.783   4.710   4.689 -0.7546 -1.3745  1.0412
 8201SOL     OW36064   2.556   2.624   9.804 -0.1973 -0.4403  0.1007
 8201SOL    HW136065   2.480   2.589   9.851  1.9814 -2.0527  2.4682
 8201SOL    HW236066   2.629   2.567   9.832 -0.5569 -1.1677 -0.4275
 8202SOL     OW36067   3.596   4.618   8.341 -0.1799  0.3485 -0.5374
 8202SOL    HW136068   3.611   4.711   8.357  1.9886 -0.0913 -0.0523
 8202SOL    HW236069   3.501   4.615   8.355 -0.2904  0.0297 -1.3860
 8203SOL     OW36070   3.842   0.142   3.893  0.6038 -0.0357  0.0078
 8203SOL    HW136071   3.788   0.078   3.847 -1.1719  1.4163  0.0796
 8203SOL    HW236072   3.876   0.177   3.810 -2.0579  1.9417 -0.2341
 8204SOL     OW36073   3.916   0.570   3.355  0.3527 -0.5888 -0.1405
 8204SOL    HW136074   3.883   0.533   3.437  0.0618 -0.6272 -0.2783
 8204SOL    HW236075   3.968   0.641   3.393  0.3977 -0.1039 -1.1118
 8205SOL     OW36076   1.388   4.554  10.335 -0.1376  0.0263 -0.4405
 8205SOL    HW136077   1.465   4.528  10.284 -0.6698  1.3560 -1.9359
 8205SOL    HW236078   1.395   4.506  10.417  1.9114  1.2646  0.1155
 8206SOL     OW36079   1.044   1.516   9.048  0.7874 -0.3723  0.6885
 8206SOL    HW136080   1.085   1.509   9.135  0.1713  0.5268  1.0506
 8206SOL    HW236081   1.007   1.604   9.061  1.2642  0.4139 -3.5479
 8207SOL     OW36082   4.198   2.262   0.246  0.1527 -0.0419  0.1662
 8207SOL    HW136083   4.291   2.268   0.266 -0.1781  1.1860  1.2803
 8207SOL    HW236084   4.168   2.352   0.236  0.5645  0.1297  0.4941
 8208SOL     OW36085   4.452   2.088   7.708 -0.4019  0.5320  0.5750
 8208SOL    HW136086   4.451   1.992   7.703 -2.1701  0.6097 -0.5527
 8208SOL    HW236087   4.495   2.106   7.624 -0.3245 -0.4963  0.3892
 8209SOL     OW36088   4.101   4.623   3.374 -0.5337 -0.7340  0.1172
 8209SOL    HW136089   4.171   4.589   3.429  1.3091  0.4237 -1.4960
 8209SOL    HW236090   4.025   4.572   3.402  0.0289 -1.2751  0.6609
 8210SOL     OW36091   2.315   0.422   5.890  0.2846  0.2897 -0.3150
 8210SOL    HW136092   2.377   0.392   5.956  0.6613  2.8014  0.4866
 8210SOL    HW236093   2.241   0.452   5.942 -0.1291 -0.1350 -0.6600
 8211SOL     OW36094   1.811   3.737   0.464 -0.0878 -0.1198  0.1806
 8211SOL    HW136095   1.812   3.641   0.466 -0.6306 -0.1519 -0.7817
 8211SOL    HW236096   1.831   3.757   0.372 -0.0378 -0.9315  0.0109
 8212SOL     OW36097   1.987   3.700   1.656 -0.1903 -0.5734 -0.0542
 8212SOL    HW136098   1.963   3.658   1.574  1.5082  0.2942 -1.0067
 8212SOL    HW236099   1.910   3.756   1.664 -0.6350 -1.2422  0.3199
 8213SOL     OW36100   1.047   3.371   7.442 -0.0084  0.3947 -0.4880
 8213SOL    HW136101   1.070   3.385   7.534  2.2291 -0.3756 -0.9503
 8213SOL    HW236102   1.097   3.433   7.390  1.2303 -1.9699 -2.1162
 8214SOL     OW36103   0.029   0.660  17.451  0.3997  0.8233 -0.2804
 8214SOL    HW136104   0.084   0.712  17.509 -0.2992  0.7233  0.4763
 8214SOL    HW236105   0.012   0.586  17.510 -1.3317 -0.2172 -2.0868
 8215SOL     OW36106   2.904   1.636   9.161  0.1475  0.0341 -0.5358
 8215SOL    HW136107   2.841   1.593   9.219  3.0547 -2.0256  1.0879
 8215SOL    HW236108   2.988   1.611   9.200  0.0615  0.3018 -0.1747
 8216SOL     OW36109   2.734   3.939   3.296 -0.4327 -0.0038 -0.3781
 8216SOL    HW136110   2.792   3.905   3.364 -2.5076 -1.2776  0.7651
 8216SOL    HW236111   2.665   3.975   3.351  0.7457  1.8856 -0.1489
 8217SOL     OW36112   4.260   0.245   8.445  0.2223 -0.0155 -0.2671
 8217SOL    HW136113   4.289   0.157   8.420  2.5257  1.2464 -1.9633
 8217SOL    HW236114   4.248   0.240   8.540 -0.3636 -1.8174 -0.4373
 8218SOL     OW36115   1.027   1.889   5.109  0.2047  0.2837 -0.0987
 8218SOL    HW136116   0.937   1.905   5.079 -0.4172 -0.4665  1.3136
 8218SOL    HW236117   1.035   1.930   5.195  0.3024 -0.1694  0.1111
 8219SOL     OW36118   3.279   1.109   9.173 -0.6676 -0.3451 -0.1034
 8219SOL    HW136119   3.221   1.048   9.127 -1.2478  1.0176 -1.1817
 8219SOL    HW236120   3.248   1.193   9.140 -1.3071 -0.9052 -0.9362
 8220SOL     OW36121   2.506   1.392   8.416 -0.4240 -0.5467  0.3606
 8220SOL    HW136122   2.542   1.481   8.426 -1.4797  0.1214 -1.5745
 8220SOL    HW236123   2.511   1.361   8.506 -0.9204  0.2738  0.6697
 8221SOL     OW36124   4.164   2.821   8.894  0.5375 -0.5122  0.0486
 8221SOL    HW136125   4.257   2.809   8.874  0.7265  0.6461  0.2310
 8221SOL    HW236126   4.160   2.806   8.989  1.4402  1.3635  0.3750
 8222SOL     OW36127   3.033   0.592   4.042 -0.4523 -0.0702  1.1264
 8222SOL    HW136128   2.950   0.546   4.035 -0.8076  0.4919  1.6450
 8222SOL    HW236129   3.014   0.677   4.002 -0.6429 -0.4052  0.5010
 8223SOL     OW36130   3.611   3.552   1.486  0.4124 -0.6794 -0.1872
 8223SOL    HW136131   3.590   3.570   1.578 -0.3651  1.0501 -0.7039
 8223SOL    HW236132   3.567   3.627   1.446  1.0582  1.6469  3.5106
 8224SOL     OW36133   0.631   0.864   2.084  0.0454  0.3997 -0.4819
 8224SOL    HW136134   0.680   0.788   2.052 -1.2859 -0.6974  0.0535
 8224SOL    HW236135   0.555   0.862   2.025  0.4904 -1.7194 -0.9837
 8225SOL     OW36136   4.294   2.004   4.370  0.2500 -0.0278  0.1689
 8225SOL    HW136137   4.247   1.936   4.322  1.5247 -1.4863  1.0038
 8225SOL    HW236138   4.382   1.967   4.370 -0.2641 -1.2513 -1.7142
 8226SOL     OW36139   1.421   2.757  14.620 -0.7824  0.0314 -0.3502
 8226SOL    HW136140   1.371   2.800  14.550 -0.8465 -0.3005 -0.5103
 8226SOL    HW236141   1.479   2.705  14.564 -0.3976 -0.8554  0.8880
 8227SOL     OW36142   1.136   0.958   3.736 -0.0993  0.3507 -0.0736
 8227SOL    HW136143   1.113   1.050   3.749  0.6024  0.4993  0.0760
 8227SOL    HW236144   1.196   0.949   3.810 -0.5991 -0.7371  0.1999
 8228SOL     OW36145   2.929   0.122   1.195  0.2224  0.7204  0.0070
 8228SOL    HW136146   2.975   0.158   1.271  1.7624  2.3281 -1.6904
 8228SOL    HW236147   2.897   0.039   1.231  2.3350  0.0193  0.2706
 8229SOL     OW36148   0.124   3.991   5.310  0.1439 -0.0904  0.0247
 8229SOL    HW136149   0.105   3.897   5.314  1.3572 -0.2605  2.4905
 8229SOL    HW236150   0.209   3.982   5.354  0.3378 -0.7196 -0.4740
 8230SOL     OW36151   4.005   0.677   1.673 -0.7016 -0.3626 -0.1275
 8230SOL    HW136152   4.016   0.768   1.702  1.5424 -0.4245 -0.7424
 8230SOL    HW236153   4.069   0.637   1.733 -0.8916 -1.5835 -0.7425
 8231SOL     OW36154   1.417   3.674   3.416 -0.3035  0.1843  0.6259
 8231SOL    HW136155   1.447   3.624   3.492  0.4336 -3.0398 -1.7675
 8231SOL    HW236156   1.343   3.723   3.452 -1.6714 -0.6729 -0.9676
 8232SOL     OW36157   0.259   0.627   1.833 -0.0757 -0.3031  0.2448
 8232SOL    HW136158   0.327   0.646   1.768 -0.0932 -0.0747  0.2918
 8232SOL    HW236159   0.212   0.710   1.823  1.2245  0.5454  1.2623
 8233SOL     OW36160   4.462   1.743   6.764  0.8450 -0.1425  0.3606
 8233SOL    HW136161   4.461   1.704   6.852 -0.1322 -1.4758 -0.2470
 8233SOL    HW236162   4.554   1.723   6.747  0.7032 -0.3407 -0.1627
 8234SOL     OW36163   3.020   1.999   9.379  0.1348  0.7291  0.2575
 8234SOL    HW136164   3.003   1.920   9.327 -0.4926  0.3954  0.9581
 8234SOL    HW236165   2.947   1.990   9.441 -1.7265 -1.1575 -2.2243
 8235SOL     OW36166   3.851   0.835   5.705  0.4167  0.1191  0.1741
 8235SOL    HW136167   3.942   0.812   5.688  0.5895  0.2651  0.9074
 8235SOL    HW236168   3.821   0.758   5.753 -0.3409  0.1581 -0.2279
 8236SOL     OW36169   1.947   2.086   4.271  0.0431 -0.5089 -0.0262
 8236SOL    HW136170   2.038   2.080   4.301  0.1481 -2.5248 -0.7770
 8236SOL    HW236171   1.908   2.035   4.342 -0.4395 -0.1127 -0.0087
 8237SOL     OW36172   2.266   4.533  16.132 -0.3395  0.4749 -0.1119
 8237SOL    HW136173   2.172   4.540  16.115 -0.4699 -1.5040 -0.2568
 8237SOL    HW236174   2.275   4.444  16.097 -0.3684  0.5632 -0.3435
 8238SOL     OW36175   3.943   3.647   6.201  0.0610 -0.0437  0.2013
 8238SOL    HW136176   3.951   3.728   6.252 -0.6646 -1.5662  2.7714
 8238SOL    HW236177   4.037   3.629   6.189 -0.3215 -0.6560 -1.8010
 8239SOL     OW36178   2.725   2.782  16.878  0.1041 -0.1782 -0.2727
 8239SOL    HW136179   2.692   2.832  16.803  0.8864  0.1707 -0.3855
 8239SOL    HW236180   2.819   2.798  16.882 -0.2283  1.5537  0.5206
 8240SOL     OW36181   1.946   2.820   3.581  0.5875 -0.0006  0.0752
 8240SOL    HW136182   1.884   2.754   3.613 -1.0373 -0.1763 -3.4678
 8240SOL    HW236183   1.926   2.893   3.641 -0.6852  1.7996 -2.5546
 8241SOL     OW36184   2.625   2.912   0.858  0.5326 -0.5391  0.7514
 8241SOL    HW136185   2.682   2.989   0.854  0.0341 -0.2425 -0.9306
 8241SOL    HW236186   2.535   2.946   0.859  1.3024  1.4821  2.1921
 8242SOL     OW36187   3.752   4.485   8.173 -0.0318 -0.0950 -0.1176
 8242SOL    HW136188   3.686   4.537   8.220  1.8002  0.6654  1.5875
 8242SOL    HW236189   3.824   4.540   8.203 -1.4081  2.2049 -0.9617
 8243SOL     OW36190   2.558   4.367  15.789  0.0445 -0.2315 -0.0612
 8243SOL    HW136191   2.472   4.408  15.801 -1.6075 -2.7982 -3.0312
 8243SOL    HW236192   2.591   4.390  15.875  2.7759  0.9929 -1.4499
 8244SOL     OW36193   2.385   2.667  15.934 -0.0888 -0.1858 -0.6032
 8244SOL    HW136194   2.398   2.747  15.883 -2.1567 -0.3534 -1.3938
 8244SOL    HW236195   2.467   2.675  15.983 -1.5255  0.6831  1.6241
 8245SOL     OW36196   4.228   1.473   4.381  0.0558 -0.3284  0.3368
 8245SOL    HW136197   4.308   1.504   4.338  0.5674 -2.7966 -0.5285
 8245SOL    HW236198   4.207   1.536   4.450 -1.3156 -0.1710 -0.2325
 8246SOL     OW36199   2.811   3.558  11.964 -0.4678 -0.2473  0.1585
 8246SOL    HW136200   2.867   3.486  11.994  1.4110  1.1547 -0.0345
 8246SOL    HW236201   2.847   3.621  12.027 -1.7087  0.4699  0.1520
 8247SOL     OW36202   3.613   0.266   5.145 -0.5082 -0.2754 -0.3512
 8247SOL    HW136203   3.545   0.265   5.077  2.9810 -0.1163 -3.8845
 8247SOL    HW236204   3.640   0.358   5.139 -1.0782 -0.1586 -1.2631
 8248SOL     OW36205   2.876   4.416  17.008 -0.3093 -0.1703  0.0272
 8248SOL    HW136206   2.800   4.364  17.035 -0.4986 -0.5245 -1.1812
 8248SOL    HW236207   2.872   4.487  17.072 -1.3853  2.1989 -2.6849
 8249SOL     OW36208   2.923   3.087   7.927  0.2334 -0.5317 -0.0536
 8249SOL    HW136209   2.853   3.137   7.968  0.1260 -0.2620 -0.5606
 8249SOL    HW236210   2.875   3.042   7.857 -0.5677  2.1262 -1.2197
 8250SOL     OW36211   0.541   1.328   7.716  0.2758 -0.2482  0.7624
 8250SOL    HW136212   0.547   1.379   7.797  0.4626  3.1834 -1.4266
 8250SOL    HW236213   0.447   1.323   7.696  0.1083 -0.7422  1.6622
 8251SOL     OW36214   1.414   1.174   8.616  0.6134  0.0847 -0.1073
 8251SOL    HW136215   1.337   1.127   8.647 -0.5001  2.1764  0.2472
 8251SOL    HW236216   1.397   1.262   8.649 -0.1962 -0.1195  0.0181
 8252SOL     OW36217   0.659   1.126   7.572  0.3923 -0.3437  0.1770
 8252SOL    HW136218   0.620   1.170   7.647 -1.7137 -1.9016  0.0085
 8252SOL    HW236219   0.720   1.069   7.620 -0.6240 -3.3156 -2.1031
 8253SOL     OW36220   2.870   3.733  11.748 -0.0959 -0.2235 -0.1468
 8253SOL    HW136221   2.925   3.768  11.818  0.7749 -0.7687 -0.5626
 8253SOL    HW236222   2.855   3.645  11.783  1.5259  0.0431  1.2353
 8254SOL     OW36223   1.857   2.903   6.959 -0.2681  0.2650 -0.2643
 8254SOL    HW136224   1.820   2.873   7.043  0.2282 -0.6642 -0.3743
 8254SOL    HW236225   1.781   2.918   6.902  1.2105  1.9326 -1.7653
 8255SOL     OW36226   1.639   1.805  13.047 -0.1808  0.3635 -0.6386
 8255SOL    HW136227   1.596   1.756  12.977  2.1807 -1.0817 -1.0739
 8255SOL    HW236228   1.615   1.894  13.021  0.5938  0.4971 -0.8943
 8256SOL     OW36229   1.463   0.232  17.463  0.4839 -0.3370  0.7966
 8256SOL    HW136230   1.399   0.175  17.418  0.8601 -1.5697  1.8304
 8256SOL    HW236231   1.488   0.294  17.394  1.1594  0.4747  1.7814
 8257SOL     OW36232   0.498   3.879   5.044 -0.3089 -0.2980  0.5245
 8257SOL    HW136233   0.549   3.859   4.965 -2.6733 -0.8610 -0.8661
 8257SOL    HW236234   0.517   3.804   5.101 -1.1238 -0.9491 -0.0499
 8258SOL     OW36235   1.260   2.806   8.751  0.4139  0.1422 -0.5357
 8258SOL    HW136236   1.170   2.778   8.766  0.7059 -1.3944 -1.7104
 8258SOL    HW236237   1.253   2.893   8.790  0.2362 -0.4255  0.6957
 8259SOL     OW36238   3.947   3.311   8.998  0.4596 -0.5883 -0.2248
 8259SOL    HW136239   3.973   3.227   8.961 -1.9343 -1.1389 -0.6752
 8259SOL    HW236240   3.936   3.289   9.090  0.2535  1.8231  0.3383
 8260SOL     OW36241   1.696   4.530   3.185 -0.4991 -0.1703 -0.0498
 8260SOL    HW136242   1.648   4.469   3.241 -0.9571  0.1695 -0.0738
 8260SOL    HW236243   1.709   4.469   3.113 -3.8083 -0.7845 -0.1268
 8261SOL     OW36244   0.369   2.593   3.975 -0.6885 -0.1186  0.1693
 8261SOL    HW136245   0.281   2.611   3.943 -1.2312 -1.5487  0.8395
 8261SOL    HW236246   0.403   2.567   3.889 -2.6651 -1.3815 -0.2350
 8262SOL     OW36247   0.319   0.419   2.239  0.1520  0.1526  0.3768
 8262SOL    HW136248   0.349   0.509   2.249 -1.0375  0.7157 -1.1326
 8262SOL    HW236249   0.230   0.426   2.274 -0.1358 -1.9915  0.0874
 8263SOL     OW36250   4.688   3.326   2.737 -0.2644  0.2902  0.0884
 8263SOL    HW136251   4.702   3.326   2.642  2.1054  0.9735  0.4364
 8263SOL    HW236252   4.646   3.411   2.751 -0.3878  0.1410  0.6036
 8264SOL     OW36253   3.992   3.531  10.242  0.4048 -0.2938 -0.3529
 8264SOL    HW136254   4.046   3.483  10.179  0.1955 -0.4250 -0.4314
 8264SOL    HW236255   3.943   3.470  10.297  0.6462 -0.7646 -0.6566
 8265SOL     OW36256   2.414   2.090   7.981 -0.9021 -0.3897 -0.6155
 8265SOL    HW136257   2.365   2.120   8.057  2.2003 -0.4458  1.3887
 8265SOL    HW236258   2.409   1.997   8.000  0.2371 -0.5581 -1.0986
 8266SOL     OW36259   3.223   4.346  14.383  0.0980 -0.0319 -0.5761
 8266SOL    HW136260   3.213   4.391  14.300 -1.1223  0.2067 -0.3021
 8266SOL    HW236261   3.193   4.416  14.441 -2.0951 -1.6223  0.2282
 8267SOL     OW36262   1.520   3.175   2.819  0.6380 -0.3199  0.5225
 8267SOL    HW136263   1.525   3.266   2.791  3.7547 -0.6344  0.0777
 8267SOL    HW236264   1.432   3.147   2.791  1.4914 -0.6601 -1.7955
 8268SOL     OW36265   0.851   3.406   4.882  0.3292 -0.4506  0.1330
 8268SOL    HW136266   0.895   3.375   4.961 -0.5332 -0.7729  0.4861
 8268SOL    HW236267   0.845   3.322   4.837 -3.2582 -0.3964  0.4963
 8269SOL     OW36268   1.489   2.450   3.123  0.2095 -0.2870 -1.1642
 8269SOL    HW136269   1.402   2.473   3.090  0.1814  1.0119 -0.1791
 8269SOL    HW236270   1.550   2.495   3.065 -0.1605  0.3457 -1.0630
 8270SOL     OW36271   4.503   4.587   6.203  0.0654  0.2457  0.0565
 8270SOL    HW136272   4.474   4.604   6.113 -2.5943 -1.9357  0.5053
 8270SOL    HW236273   4.532   4.496   6.200  0.3040  0.3205  0.0772
 8271SOL     OW36274   3.180   2.018   9.598  0.4275  0.7373  0.1447
 8271SOL    HW136275   3.229   1.936   9.602 -1.1730 -0.3258 -2.6828
 8271SOL    HW236276   3.137   2.003   9.514 -2.3033 -4.2260  2.3875
 8272SOL     OW36277   0.047   4.430   4.618 -0.1430  0.6681  0.8390
 8272SOL    HW136278   0.066   4.362   4.553  3.3831  0.9627  1.5202
 8272SOL    HW236279   0.138   4.451   4.638  1.0418 -0.2054 -3.6497
 8273SOL     OW36280   3.460   3.788  15.075 -0.2903  0.0537 -0.5967
 8273SOL    HW136281   3.373   3.777  15.114  1.2795 -1.4364  2.4535
 8273SOL    HW236282   3.474   3.703  15.034 -0.4601 -1.3835  2.3896
 8274SOL     OW36283   2.085   2.926  15.090 -0.1952  0.1351  0.0647
 8274SOL    HW136284   2.095   2.997  15.026 -0.0711  0.9349  0.9675
 8274SOL    HW236285   1.990   2.924  15.098 -0.1677  2.6146  1.0939
 8275SOL     OW36286   2.512   4.125  17.557  0.3271 -0.5854  0.6867
 8275SOL    HW136287   2.592   4.165  17.524 -0.0828  0.0442  0.4408
 8275SOL    HW236288   2.539   4.129  17.648  1.0345  0.0991  0.4447
 8276SOL     OW36289   1.506   1.949   9.702 -0.2024  0.2178  0.6806
 8276SOL    HW136290   1.456   1.901   9.768 -1.3948 -1.6484 -1.5951
 8276SOL    HW236291   1.432   2.003   9.672  0.0713 -0.0008 -0.3697
 8277SOL     OW36292   2.505   2.945  16.292  0.0155 -0.2298  0.7697
 8277SOL    HW136293   2.540   2.856  16.284  1.7387  0.2753  2.8655
 8277SOL    HW236294   2.456   2.966  16.212  0.7700  0.9124  0.6142
 8278SOL     OW36295   3.204   1.068   2.540  0.5050  0.3310 -0.4895
 8278SOL    HW136296   3.294   1.099   2.539  0.0999  1.6296  2.0665
 8278SOL    HW236297   3.201   1.011   2.463  0.6965 -0.4394  0.0625
 8279SOL     OW36298   4.664   1.951   8.626 -0.3716  0.0969 -0.1813
 8279SOL    HW136299   0.014   1.954   8.685 -0.1638  0.1462 -0.4533
 8279SOL    HW236300   4.622   2.034   8.649  0.4700 -0.0464  1.9398
 8280SOL     OW36301   3.491   2.236   9.820  0.2610  0.0874 -0.1102
 8280SOL    HW136302   3.401   2.213   9.842 -0.2106  2.3579  0.3295
 8280SOL    HW236303   3.504   2.188   9.738  0.7297 -1.7645  1.0484
 8281SOL     OW36304   0.421   1.011   2.958  0.5734  0.1867 -0.4613
 8281SOL    HW136305   0.400   1.092   3.005  0.8132 -0.3375  0.5540
 8281SOL    HW236306   0.339   0.964   2.973  0.4948  0.2496 -0.7005
 8282SOL     OW36307   3.619   1.734   5.487 -0.0066  0.1724 -0.1105
 8282SOL    HW136308   3.570   1.656   5.513  1.2174 -0.5635 -0.0298
 8282SOL    HW236309   3.706   1.708   5.517 -1.8899 -2.9438  2.5731
 8283SOL     OW36310   4.195   2.102  14.814  0.2931  0.2906  0.2673
 8283SOL    HW136311   4.127   2.162  14.844  0.5138  0.5003  0.3512
 8283SOL    HW236312   4.271   2.127  14.866 -0.0034  0.2681  0.7148
 8284SOL     OW36313   1.647   1.396   2.744 -0.0241 -0.6158  0.2170
 8284SOL    HW136314   1.637   1.393   2.649 -1.2779 -2.5193  0.3901
 8284SOL    HW236315   1.561   1.432   2.766  1.2041  1.4751  1.5170
 8285SOL     OW36316   4.147   3.943   6.671 -0.0501  0.0343 -0.1409
 8285SOL    HW136317   4.183   3.973   6.587 -0.0155  2.1325  0.6242
 8285SOL    HW236318   4.081   3.881   6.640 -2.7328  3.0589 -0.4350
 8286SOL     OW36319   0.291   4.427  16.282  0.1358 -0.3338  0.8879
 8286SOL    HW136320   0.267   4.354  16.339  3.7051 -1.0660  1.4163
 8286SOL    HW236321   0.355   4.384  16.226  1.7748  2.6631  0.4929
 8287SOL     OW36322   1.507   1.117  12.556 -0.5632  0.6408 -0.6871
 8287SOL    HW136323   1.565   1.061  12.505 -1.6726 -0.1830 -1.0410
 8287SOL    HW236324   1.528   1.197  12.509 -1.3824  1.7161  0.7750
 8288SOL     OW36325   1.344   4.328   0.307  0.2622 -0.7979 -0.0824
 8288SOL    HW136326   1.333   4.239   0.342 -1.8973  0.7849  3.2531
 8288SOL    HW236327   1.270   4.385   0.329  1.5115  0.1226  1.6868
 8289SOL     OW36328   2.271   3.410   8.731 -0.3351 -0.4877  0.1066
 8289SOL    HW136329   2.262   3.436   8.823 -0.6351 -0.7099  0.1414
 8289SOL    HW236330   2.181   3.392   8.705 -0.2380 -1.3994  0.4073
 8290SOL     OW36331   0.530   4.015   6.092 -0.6528  0.8730  1.0275
 8290SOL    HW136332   0.550   4.090   6.037  0.9524 -0.8766 -0.7847
 8290SOL    HW236333   0.620   3.982   6.097 -0.8955  0.3069  1.6343
 8291SOL     OW36334   0.711   2.532   3.162 -0.4376 -1.2608 -0.2782
 8291SOL    HW136335   0.637   2.475   3.183 -1.1165  0.4849  2.0399
 8291SOL    HW236336   0.770   2.460   3.142  1.8384 -0.1675  2.4104
 8292SOL     OW36337   0.630   4.518   5.412  0.5630 -0.9507 -0.0596
 8292SOL    HW136338   0.537   4.529   5.396  0.6410  0.3492  0.3364
 8292SOL    HW236339   0.655   4.479   5.328  3.1150  1.3755 -0.3805
 8293SOL     OW36340   2.605   1.061   5.757 -0.2396  0.1916 -0.3127
 8293SOL    HW136341   2.565   1.128   5.813 -2.0330 -0.4264 -0.8583
 8293SOL    HW236342   2.653   1.115   5.694  1.0803  0.2303  0.7102
 8294SOL     OW36343   0.022   0.470   7.283 -0.2596 -0.2336 -0.1545
 8294SOL    HW136344   0.027   0.378   7.256 -0.0613 -0.5447  0.9392
 8294SOL    HW236345   0.112   0.501   7.270 -1.0275  2.6168  1.3085
 8295SOL     OW36346   3.427   3.339   8.812 -0.2703  0.4860 -0.0466
 8295SOL    HW136347   3.351   3.341   8.754  0.5896 -1.8369 -1.2640
 8295SOL    HW236348   3.394   3.387   8.888  2.6468  0.2494  1.3618
 8296SOL     OW36349   3.477   4.490   8.903  0.2645  0.1386 -0.1977
 8296SOL    HW136350   3.551   4.551   8.901  1.1806 -1.0458 -2.0639
 8296SOL    HW236351   3.428   4.517   8.824 -0.6247 -0.7817  0.0416
 8297SOL     OW36352   0.783   4.474   9.360  0.1452 -0.1604  0.1107
 8297SOL    HW136353   0.822   4.560   9.372 -2.0085  0.9207 -0.7157
 8297SOL    HW236354   0.692   4.492   9.384  0.4414  0.0802  1.0407
 8298SOL     OW36355   4.446   3.980   7.642 -0.1418 -0.1578 -0.0743
 8298SOL    HW136356   4.499   3.924   7.585  0.0206  2.0735 -2.0955
 8298SOL    HW236357   4.358   3.950   7.621  0.2214 -1.2197 -0.0515
 8299SOL     OW36358   1.180   0.568   5.968  0.4136 -0.2039  0.8071
 8299SOL    HW136359   1.228   0.541   5.890 -0.5731 -1.2738  0.5858
 8299SOL    HW236360   1.095   0.526   5.957  1.1171 -0.8423 -2.1568
 8300SOL     OW36361   0.984   4.565   7.574 -0.1288  0.1509 -0.1152
 8300SOL    HW136362   1.049   4.633   7.560 -0.5813  0.9648  1.8030
 8300SOL    HW236363   0.949   4.586   7.661  2.7612 -0.6898  1.2627
 8301SOL     OW36364   0.700   0.249   3.371 -0.3435 -0.2434 -0.2776
 8301SOL    HW136365   0.716   0.341   3.351  1.8068 -0.1948  1.7150
 8301SOL    HW236366   0.709   0.206   3.285 -1.0782 -2.0432  0.5349
 8302SOL     OW36367   3.762   0.047   5.084  0.2054 -0.6786 -0.1426
 8302SOL    HW136368   3.706   0.114   5.123 -0.6392 -2.5218  1.8038
 8302SOL    HW236369   3.747   0.067   4.992 -2.7390 -0.1727  0.4629
 8303SOL     OW36370   4.174   1.697   4.601  0.2600 -0.0336 -0.6596
 8303SOL    HW136371   4.249   1.747   4.633  1.4936 -0.6002 -2.6329
 8303SOL    HW236372   4.113   1.711   4.673  0.2565  1.1436 -0.8966
 8304SOL     OW36373   1.225   2.587  15.522 -0.0687  0.4720 -0.1570
 8304SOL    HW136374   1.316   2.572  15.496  0.4693  1.5576  1.1181
 8304SOL    HW236375   1.181   2.630  15.448 -0.4406 -0.1250 -0.2778
 8305SOL     OW36376   2.380   3.908  10.424 -0.7079 -0.2216 -0.2266
 8305SOL    HW136377   2.381   3.971  10.496 -1.8729 -0.6839  0.2014
 8305SOL    HW236378   2.391   3.970  10.352  2.8126 -1.3736 -0.7078
 8306SOL     OW36379   0.308   2.067   9.276 -0.1469  0.3573 -0.0749
 8306SOL    HW136380   0.265   1.998   9.226 -0.0194 -0.3819  0.8458
 8306SOL    HW236381   0.243   2.136   9.264 -2.0053 -0.8328  3.1118
 8307SOL     OW36382   2.412   0.979   3.416 -0.3601  0.9526 -0.2897
 8307SOL    HW136383   2.335   0.989   3.471 -0.1250  1.5343 -0.0599
 8307SOL    HW236384   2.415   1.065   3.374  0.2906  1.2368  0.3314
 8308SOL     OW36385   2.490   1.536   3.206 -0.2203 -0.1042  0.1176
 8308SOL    HW136386   2.444   1.557   3.124  1.1002  0.4209 -0.4805
 8308SOL    HW236387   2.427   1.577   3.265 -2.4670 -1.0869 -1.5923
 8309SOL     OW36388   2.052   3.880  12.636  0.0255 -0.2949  0.3829
 8309SOL    HW136389   1.991   3.809  12.618  0.2714  0.0948 -1.9545
 8309SOL    HW236390   2.093   3.893  12.551  0.6139  1.3918  0.9058
 8310SOL     OW36391   1.101   0.499   7.142 -0.1079 -0.0031  0.7059
 8310SOL    HW136392   1.145   0.571   7.097 -0.5844  0.3897  0.8823
 8310SOL    HW236393   1.073   0.546   7.221 -0.6430  1.9685 -0.6757
 8311SOL     OW36394   4.593   1.813   2.414 -0.0018 -0.0938 -0.1664
 8311SOL    HW136395   4.575   1.719   2.423 -0.0757 -0.1057 -0.4708
 8311SOL    HW236396   4.661   1.831   2.480 -0.7770  0.1281  0.5627
 8312SOL     OW36397   3.305   3.839   8.864 -0.3160  0.3214  0.1681
 8312SOL    HW136398   3.363   3.764   8.852 -1.9533 -1.0806  0.8862
 8312SOL    HW236399   3.319   3.872   8.953  0.3191  1.7086 -0.4401
 8313SOL     OW36400   4.319   0.143   4.656  0.5378  0.0494  0.3661
 8313SOL    HW136401   4.326   0.205   4.584  1.2795 -0.9252 -0.3995
 8313SOL    HW236402   4.374   0.179   4.727 -0.5538  1.4437  0.4983
 8314SOL     OW36403   3.240   1.700   5.407 -0.3659  0.3396 -0.3989
 8314SOL    HW136404   3.263   1.673   5.318  0.5080 -0.0529 -0.0581
 8314SOL    HW236405   3.194   1.624   5.442  2.0323 -0.7907  0.3140
 8315SOL     OW36406   1.158   3.132   6.595  0.1196 -0.1856  0.3446
 8315SOL    HW136407   1.216   3.067   6.557 -2.9373 -2.2879 -0.7441
 8315SOL    HW236408   1.119   3.094   6.673  2.2103 -0.7400  1.1077
 8316SOL     OW36409   4.328   1.070   8.371 -0.5577 -0.5625  1.2544
 8316SOL    HW136410   4.412   1.025   8.359 -0.3581 -0.1820  1.1968
 8316SOL    HW236411   4.356   1.159   8.393  4.1662 -2.0847  1.4896
 8317SOL     OW36412   0.583   0.775   0.975  0.6703 -0.3053  0.8090
 8317SOL    HW136413   0.504   0.720   0.980  0.8115 -0.5925 -0.0386
 8317SOL    HW236414   0.569   0.841   1.043 -0.2239  0.3989 -0.0601
 8318SOL     OW36415   3.465   0.857   2.651 -0.0499  0.5509  0.2976
 8318SOL    HW136416   3.449   0.872   2.744  0.5616  1.9318  0.1694
 8318SOL    HW236417   3.496   0.942   2.621 -0.8088  0.7502  0.0710
 8319SOL     OW36418   1.286   2.696  11.328  0.0380  0.3969  0.6093
 8319SOL    HW136419   1.240   2.721  11.408  0.6998 -0.7006  1.3461
 8319SOL    HW236420   1.305   2.605  11.353 -3.1873 -0.9715 -1.9343
 8320SOL     OW36421   4.485   3.408  15.248 -0.0569  0.2056 -0.2249
 8320SOL    HW136422   4.411   3.443  15.296 -1.1325  1.0997 -2.5241
 8320SOL    HW236423   4.484   3.320  15.286 -1.2061 -0.0529 -0.8690
 8321SOL     OW36424   4.458   2.282   0.342  0.2896  0.1986 -0.3269
 8321SOL    HW136425   4.392   2.288   0.411  1.8141 -0.6748  1.2018
 8321SOL    HW236426   4.530   2.244   0.392 -0.8623 -0.6870  0.6756
 8322SOL     OW36427   0.876   2.277   3.252 -0.8795 -0.0546 -0.1841
 8322SOL    HW136428   0.856   2.281   3.345  1.3179 -1.8643  0.3430
 8322SOL    HW236429   0.827   2.199   3.227 -0.1455 -0.7032  0.4407
 8323SOL     OW36430   0.092   3.943   9.006 -0.4038 -0.0238  0.1535
 8323SOL    HW136431   0.019   3.939   8.944 -1.3624  1.5133  1.1571
 8323SOL    HW236432   0.059   3.890   9.079  1.8804 -1.1223  0.3813
 8324SOL     OW36433   3.609   1.819  11.963 -0.3908 -0.0908 -0.5227
 8324SOL    HW136434   3.577   1.820  11.873  1.5380  2.4011 -1.1923
 8324SOL    HW236435   3.530   1.779  11.999  1.3538 -1.2958  2.0248
 8325SOL     OW36436   2.073   1.754  16.921 -0.2272 -0.6521 -0.2912
 8325SOL    HW136437   2.130   1.695  16.970 -0.6113 -0.7589  0.0256
 8325SOL    HW236438   2.132   1.818  16.881 -0.4044  0.0384  0.5780
 8326SOL     OW36439   0.498   0.299   2.056  0.0897 -0.1174 -0.5785
 8326SOL    HW136440   0.566   0.324   2.119 -2.7235  0.9596  2.0504
 8326SOL    HW236441   0.422   0.322   2.109  0.3381 -2.4743  0.7711
 8327SOL     OW36442   2.235   2.458   0.897 -0.2861  0.5166 -0.3699
 8327SOL    HW136443   2.327   2.452   0.873 -0.2447 -0.8786  0.1572
 8327SOL    HW236444   2.199   2.408   0.825  0.0256  1.2667 -1.0506
 8328SOL     OW36445   1.852   0.116  14.751 -0.4420 -0.1732  0.3334
 8328SOL    HW136446   1.912   0.150  14.684 -1.0556 -0.8724 -0.5728
 8328SOL    HW236447   1.769   0.157  14.724  0.6837 -1.6195 -5.3039
 8329SOL     OW36448   4.599   0.654   5.268  0.8529 -0.0447  0.2184
 8329SOL    HW136449   4.578   0.572   5.313 -0.8310  0.4698  0.3773
 8329SOL    HW236450   4.683   0.686   5.300 -0.0264  1.6675  0.8233
 8330SOL     OW36451   4.683   1.425   1.253  0.1053  0.1470  0.4879
 8330SOL    HW136452   4.697   1.334   1.279 -4.4368 -0.4813  0.7837
 8330SOL    HW236453   4.610   1.416   1.192  0.4306  1.0173 -0.0271
 8331SOL     OW36454   1.814   4.058  15.251 -0.4283  0.4281  0.4204
 8331SOL    HW136455   1.822   4.091  15.161  2.1182 -1.2374  0.0297
 8331SOL    HW236456   1.816   4.133  15.309 -1.2522 -0.8642  2.1215
 8332SOL     OW36457   4.209   1.511   8.237  0.2010 -0.7221  0.3785
 8332SOL    HW136458   4.215   1.606   8.251  1.0558 -0.9174  1.2559
 8332SOL    HW236459   4.115   1.501   8.257  0.2119 -0.5393  0.5235
 8333SOL     OW36460   0.253   2.554   4.920 -0.4089 -0.1124  0.3284
 8333SOL    HW136461   0.245   2.462   4.948 -0.4970 -0.0318  0.5710
 8333SOL    HW236462   0.348   2.554   4.916 -0.5014  0.9194 -1.5028
 8334SOL     OW36463   0.028   3.306   1.615  0.1093 -0.4731 -0.0522
 8334SOL    HW136464   0.064   3.227   1.656  0.0689 -0.6280 -0.3183
 8334SOL    HW236465   4.717   3.272   1.533 -1.5940  0.9413  0.1081
 8335SOL     OW36466   1.228   0.302   6.854  0.4644  0.6548  0.3781
 8335SOL    HW136467   1.251   0.215   6.822  0.1728  0.0303  1.8643
 8335SOL    HW236468   1.185   0.280   6.937 -0.4757  2.6908  0.4337
 8336SOL     OW36469   1.029   3.249   1.262  0.9091 -0.6478  0.0575
 8336SOL    HW136470   1.075   3.164   1.265  2.2697  0.0026 -2.6134
 8336SOL    HW236471   1.092   3.312   1.297  0.9001 -0.0610 -0.9912
 8337SOL     OW36472   4.185   1.120  10.176  0.5434  0.0486 -0.1932
 8337SOL    HW136473   4.153   1.087  10.260 -0.1080  0.8302 -0.1448
 8337SOL    HW236474   4.273   1.082  10.177  0.5774  0.1457  0.4912
 8338SOL     OW36475   1.761   4.205   1.265  0.0712  0.5801 -0.5232
 8338SOL    HW136476   1.807   4.134   1.310  0.1566  1.1223  0.2429
 8338SOL    HW236477   1.807   4.285   1.292  1.9678 -0.5204 -0.4942
 8339SOL     OW36478   1.339   2.277   7.823  0.1440  0.1495 -0.2237
 8339SOL    HW136479   1.401   2.334   7.868  2.3038 -0.0183 -2.9921
 8339SOL    HW236480   1.268   2.341   7.812  0.8986  1.2019  1.0769
 8340SOL     OW36481   3.547   0.162   0.507  0.0363  0.6152 -0.4316
 8340SOL    HW136482   3.494   0.205   0.440  0.1297  2.2674  0.5370
 8340SOL    HW236483   3.637   0.161   0.474  0.4924 -0.9842  0.8211
 8341SOL     OW36484   4.444   2.855   3.650  0.4800 -0.0391  0.0835
 8341SOL    HW136485   4.415   2.765   3.667  0.1707 -0.2554 -1.5320
 8341SOL    HW236486   4.400   2.900   3.722  0.5126 -1.4440  0.9736
 8342SOL     OW36487   1.171   1.518   9.580 -0.7027  0.0445  0.1735
 8342SOL    HW136488   1.138   1.436   9.542  1.9366 -1.0508  0.2176
 8342SOL    HW236489   1.090   1.567   9.567  0.5517  1.8381 -0.8613
 8343SOL     OW36490   0.234   3.228   1.306 -0.1065  0.0004 -0.2234
 8343SOL    HW136491   0.288   3.201   1.232  1.2701  2.1473 -0.0194
 8343SOL    HW236492   0.292   3.295   1.341  0.5429 -0.8527  0.3302
 8344SOL     OW36493   2.251   2.997   3.464  0.1281  0.0579  0.1307
 8344SOL    HW136494   2.282   2.996   3.374 -0.6870  1.1948 -0.1682
 8344SOL    HW236495   2.156   2.990   3.456  0.2612  0.6953 -2.0125
 8345SOL     OW36496   3.991   3.440   0.815  0.2888  0.2418  0.1689
 8345SOL    HW136497   3.992   3.490   0.897 -0.0306 -1.8973  1.4707
 8345SOL    HW236498   4.025   3.504   0.752 -1.2113  0.4792 -0.3861
 8346SOL     OW36499   1.424   4.623  11.826 -0.3799 -0.1047 -0.5103
 8346SOL    HW136500   1.426   4.580  11.741 -1.6034  0.6646 -0.9301
 8346SOL    HW236501   1.364   4.696  11.807  0.0535 -0.2140 -2.2747
 8347SOL     OW36502   0.176   0.930   9.379  0.0466 -0.0835 -0.0638
 8347SOL    HW136503   0.232   1.007   9.387 -0.6656  0.2017  2.1067
 8347SOL    HW236504   0.233   0.864   9.340  0.4510  0.7350 -0.8505
 8348SOL     OW36505   2.097   1.936   3.731  0.5406  0.2142 -0.7816
 8348SOL    HW136506   2.098   2.010   3.792 -1.1945  0.5314 -1.1198
 8348SOL    HW236507   2.021   1.887   3.762 -1.2276  2.6676 -1.2112
 8349SOL     OW36508   2.488   4.180  11.155  0.7089 -0.0753 -0.7875
 8349SOL    HW136509   2.410   4.131  11.130  0.4306  0.1436 -0.3551
 8349SOL    HW236510   2.536   4.185  11.072  0.1742  0.7633 -1.0498
 8350SOL     OW36511   1.894   0.854   6.790  0.1415  0.4193 -0.5852
 8350SOL    HW136512   1.963   0.916   6.815 -0.1361  0.1756  0.8000
 8350SOL    HW236513   1.892   0.860   6.694 -2.8983 -0.2073 -0.5470
 8351SOL     OW36514   3.212   1.735   6.730 -0.4344  0.1776 -0.3542
 8351SOL    HW136515   3.118   1.751   6.726 -0.1511  1.9351 -0.1200
 8351SOL    HW236516   3.234   1.812   6.784 -1.5187 -0.2214  0.6637
 8352SOL     OW36517   3.045   0.959   4.263  0.5779  0.4133  0.0626
 8352SOL    HW136518   3.062   0.866   4.281  0.8790  0.9475  2.4841
 8352SOL    HW236519   2.967   0.952   4.318  1.6540 -1.2999  1.3767
 8353SOL     OW36520   2.356   3.406   8.198  0.1085 -0.3746  0.1803
 8353SOL    HW136521   2.384   3.491   8.165 -0.7809 -1.2314 -2.8138
 8353SOL    HW236522   2.283   3.433   8.253  0.2367 -0.5992  0.4623
 8354SOL     OW36523   3.552   3.516  12.017 -0.3613  0.5825  0.3061
 8354SOL    HW136524   3.538   3.602  12.056 -0.2984  0.6985  0.0720
 8354SOL    HW236525   3.569   3.464  12.096 -0.7583  0.0064  0.0137
 8355SOL     OW36526   2.988   4.200   4.082 -0.4775 -0.3691  0.1722
 8355SOL    HW136527   3.066   4.201   4.136 -0.7181  0.3314  0.5023
 8355SOL    HW236528   3.016   4.247   4.004 -0.4810  0.8078  0.8943
 8356SOL     OW36529   3.114   0.342   4.495  0.4875  0.3528 -0.3521
 8356SOL    HW136530   3.134   0.384   4.411 -0.3574  0.2992 -0.5752
 8356SOL    HW236531   3.075   0.262   4.462  0.3894 -0.5207  1.8836
 8357SOL     OW36532   1.242   4.083   7.823 -0.1925  0.2086  0.1256
 8357SOL    HW136533   1.239   4.170   7.784 -1.9679 -0.0096 -0.2134
 8357SOL    HW236534   1.160   4.045   7.791 -0.9961 -0.4096  2.8828
 8358SOL     OW36535   2.262   4.130  16.301 -0.2116 -0.2062  0.1076
 8358SOL    HW136536   2.201   4.157  16.370  0.5903  1.6254  0.0896
 8358SOL    HW236537   2.218   4.056  16.260 -0.4098  0.1847 -0.3791
 8359SOL     OW36538   2.603   2.848   2.032  0.6928 -0.2273 -0.0855
 8359SOL    HW136539   2.654   2.768   2.049 -1.5431 -1.8260 -0.8638
 8359SOL    HW236540   2.627   2.861   1.940  0.3044  1.3992  0.0536
 8360SOL     OW36541   1.807   0.142   2.846  0.3510 -0.0214  0.0337
 8360SOL    HW136542   1.857   0.220   2.823  0.4807  0.5119  2.1923
 8360SOL    HW236543   1.846   0.096   2.920 -0.3810 -1.5533 -0.5243
 8361SOL     OW36544   3.989   0.550  12.267  0.2045 -0.6965  0.0066
 8361SOL    HW136545   4.036   0.540  12.185 -0.8501  1.0134 -0.8117
 8361SOL    HW236546   3.923   0.480  12.260 -1.3836  0.7467  0.4256
 8362SOL     OW36547   0.227   1.583  13.762 -0.3207 -0.3629 -0.1089
 8362SOL    HW136548   0.225   1.494  13.726  0.1079  0.6854 -2.6876
 8362SOL    HW236549   0.185   1.629  13.690 -1.0855 -0.4167  0.3094
 8363SOL     OW36550   3.069   2.658   4.199  0.3186  0.2235 -0.4382
 8363SOL    HW136551   3.160   2.681   4.179  0.3890 -0.6046 -1.0877
 8363SOL    HW236552   3.047   2.722   4.267 -0.1835 -1.0733  0.6226
 8364SOL     OW36553   3.900   3.815   2.312 -0.3813  0.2130  0.1155
 8364SOL    HW136554   3.869   3.746   2.371 -1.9864  0.0338 -0.9379
 8364SOL    HW236555   3.907   3.891   2.369 -1.3205 -0.4387  1.1198
 8365SOL     OW36556   4.005   3.374   4.603  0.4897  0.0695  0.4249
 8365SOL    HW136557   3.933   3.384   4.541  1.2152  1.6801 -0.1711
 8365SOL    HW236558   4.080   3.404   4.552  1.1232 -1.3371  0.5285
 8366SOL     OW36559   2.729   2.590  13.858  0.7751  0.4233 -0.3678
 8366SOL    HW136560   2.739   2.654  13.788  1.2690  2.0254  1.1585
 8366SOL    HW236561   2.793   2.618  13.924  1.2677  1.7366 -1.4101
 8367SOL     OW36562   0.244   2.232   0.342 -0.1043 -0.3308 -0.4595
 8367SOL    HW136563   0.290   2.302   0.389 -0.5201  0.4860 -1.2683
 8367SOL    HW236564   0.318   2.180   0.311  0.2526 -0.2446  0.2456
 8368SOL     OW36565   4.661   2.299   5.520  0.1469  0.0073 -0.4454
 8368SOL    HW136566   4.669   2.205   5.506  2.3285 -0.0116  0.9350
 8368SOL    HW236567   4.668   2.320   5.427  0.0681  0.3093 -0.3844
 8369SOL     OW36568   0.786   2.686   0.522 -0.0711 -0.9253  0.3878
 8369SOL    HW136569   0.757   2.774   0.498 -0.4648 -0.9417  0.8094
 8369SOL    HW236570   0.821   2.689   0.612 -0.9809  0.1868  0.7087
 8370SOL     OW36571   2.377   2.715   3.667 -0.8525  0.1463 -0.4392
 8370SOL    HW136572   2.334   2.713   3.582 -1.5734  1.1749 -0.0981
 8370SOL    HW236573   2.311   2.753   3.724  0.0879 -0.6437  1.1655
 8371SOL     OW36574   2.962   3.780   9.051 -0.0265  0.1016  0.0016
 8371SOL    HW136575   2.966   3.874   9.035  2.2748  0.2941  1.6007
 8371SOL    HW236576   2.877   3.755   9.015  0.9731 -1.3532 -1.3235
 8372SOL     OW36577   0.716   0.294   8.414 -0.2684 -1.1450  0.0890
 8372SOL    HW136578   0.747   0.204   8.419  1.8196 -0.4932 -1.5712
 8372SOL    HW236579   0.755   0.330   8.494  2.5067 -0.9509 -1.3571
 8373SOL     OW36580   1.868   4.536   8.977  0.1851  0.5041 -0.2060
 8373SOL    HW136581   1.938   4.515   9.040  0.1683  0.5824 -0.1614
 8373SOL    HW236582   1.865   4.632   8.974  0.2551  0.4615 -1.7402
 8374SOL     OW36583   2.620   3.243   2.576  0.2061  0.2754  0.0736
 8374SOL    HW136584   2.612   3.159   2.530 -1.0572  0.3338  0.1801
 8374SOL    HW236585   2.528   3.267   2.587 -0.6155 -2.2807 -1.0415
 8375SOL     OW36586   1.592   1.479   2.471  0.1266  0.2743  0.4540
 8375SOL    HW136587   1.508   1.517   2.445  0.4506  0.1518 -0.7994
 8375SOL    HW236588   1.650   1.522   2.408 -0.3549  0.8378  0.3953
 8376SOL     OW36589   2.883   1.487   2.025  0.2024  0.1620 -0.4016
 8376SOL    HW136590   2.901   1.574   2.060 -0.8613  0.2167  0.0053
 8376SOL    HW236591   2.790   1.466   2.034 -0.1036  1.7825  0.1936
 8377SOL     OW36592   4.415   2.792   2.003  0.1112  0.0881 -0.0513
 8377SOL    HW136593   4.491   2.814   1.948  0.5743 -3.3549 -0.8002
 8377SOL    HW236594   4.453   2.795   2.091  2.6425  0.8003 -1.1762
 8378SOL     OW36595   0.741   2.693   6.011  0.1826 -0.0237  0.4183
 8378SOL    HW136596   0.797   2.653   6.077  1.1651  1.5917  0.5571
 8378SOL    HW236597   0.736   2.773   6.064 -0.2344 -0.9095  1.7295
 8379SOL     OW36598   4.325   0.052   2.936  0.4933 -0.4232 -1.0359
 8379SOL    HW136599   4.391   4.722   2.893  1.4385  0.1594 -0.3279
 8379SOL    HW236600   4.263   4.711   2.966 -0.8201  0.9326 -0.7635
 8380SOL     OW36601   0.677   4.330   7.731  0.0527 -0.2438 -0.2051
 8380SOL    HW136602   0.764   4.353   7.766  1.0410 -1.8983 -1.5744
 8380SOL    HW236603   0.645   4.419   7.721  0.9436  0.0252 -0.6463
 8381SOL     OW36604   1.756   3.874   0.203 -0.1635 -0.1120  0.0336
 8381SOL    HW136605   1.662   3.865   0.219  0.0468  0.6188  1.6678
 8381SOL    HW236606   1.761   3.861   0.108  1.0729 -1.5263  0.2996
 8382SOL     OW36607   0.814   2.460   2.380 -0.0650  0.5504  0.2695
 8382SOL    HW136608   0.780   2.549   2.377  0.0603  0.6608  2.2965
 8382SOL    HW236609   0.893   2.465   2.434  0.1750  2.6584 -0.2544
 8383SOL     OW36610   1.195   3.290  15.118  0.1113  0.3476  0.3110
 8383SOL    HW136611   1.238   3.348  15.181 -2.8971  1.5218  1.2929
 8383SOL    HW236612   1.145   3.356  15.071  0.3196 -0.2573 -0.7470
 8384SOL     OW36613   2.982   2.892   1.797 -0.2686  0.0446  0.2515
 8384SOL    HW136614   2.895   2.872   1.762 -0.2139 -0.8078  0.6124
 8384SOL    HW236615   3.005   2.813   1.845 -1.9988 -1.0330 -0.6885
 8385SOL     OW36616   3.535   2.452   4.017  0.1615 -0.1494  0.3048
 8385SOL    HW136617   3.609   2.447   3.956 -0.4267 -2.5462 -0.1928
 8385SOL    HW236618   3.587   2.448   4.097  1.2806  2.2705 -0.2789
 8386SOL     OW36619   4.439   0.927   7.556  1.1306 -0.0030 -0.0810
 8386SOL    HW136620   4.370   0.945   7.620  0.4460  1.6518 -1.2904
 8386SOL    HW236621   4.509   0.879   7.600  0.9868  0.2056  0.3759
 8387SOL     OW36622   2.070   0.917  17.559  0.8781  0.2703 -0.1224
 8387SOL    HW136623   2.036   0.845  17.504 -0.5352 -2.0684  3.8455
 8387SOL    HW236624   2.137   0.867  17.605  2.0377  2.5059  0.5652
 8388SOL     OW36625   2.897   2.024   4.173  0.2812  0.6556 -0.2101
 8388SOL    HW136626   2.863   2.095   4.118  2.5445  1.0455 -1.1393
 8388SOL    HW236627   2.988   2.031   4.144  0.0395  1.5140 -0.7883
 8389SOL     OW36628   1.277   2.040   6.503  0.0014  0.6396 -0.5703
 8389SOL    HW136629   1.253   2.025   6.411  2.0993  0.7276 -1.1409
 8389SOL    HW236630   1.190   2.043   6.543  0.7356 -0.7200  1.1169
 8390SOL     OW36631   4.282   0.086  13.636  0.4282  0.2297  0.1949
 8390SOL    HW136632   4.310   0.131  13.716 -2.6763 -0.0649  1.4496
 8390SOL    HW236633   4.362   0.055  13.594  1.1608 -1.1597  2.5971
 8391SOL     OW36634   2.606   3.221   9.382  0.1537  1.0183  0.3930
 8391SOL    HW136635   2.662   3.294   9.406  2.3346 -0.7523  0.6478
 8391SOL    HW236636   2.522   3.266   9.389 -0.6722 -0.7416  1.9805
 8392SOL     OW36637   2.636   1.776   4.561 -0.3248  0.0615 -0.2018
 8392SOL    HW136638   2.680   1.836   4.621  0.2295 -1.0960  0.5327
 8392SOL    HW236639   2.642   1.828   4.480  1.9135 -0.2735 -0.2613
 8393SOL     OW36640   4.080   3.007   1.355  0.4098 -0.1175 -0.3895
 8393SOL    HW136641   4.153   2.951   1.330 -0.2529 -1.4118  0.5506
 8393SOL    HW236642   4.130   3.088   1.362  0.0977 -0.0979  1.5530
 8394SOL     OW36643   0.752   3.834   8.659 -0.3230 -0.2097 -0.2930
 8394SOL    HW136644   0.730   3.779   8.584 -0.9309  0.5166 -0.6331
 8394SOL    HW236645   0.738   3.922   8.626 -0.1471  0.7293  2.1338
 8395SOL     OW36646   1.589   4.341  13.778 -0.6708 -0.1681  0.2418
 8395SOL    HW136647   1.683   4.357  13.771 -0.5945  0.0729  1.8883
 8395SOL    HW236648   1.551   4.345  13.690 -1.6876 -1.0643  0.6469
 8396SOL     OW36649   2.785   3.487   0.413  0.3379  0.4901  0.3233
 8396SOL    HW136650   2.809   3.456   0.326  1.9540 -0.0008  0.9379
 8396SOL    HW236651   2.692   3.506   0.407  0.7068  2.4367  0.7489
 8397SOL     OW36652   3.921   2.176   6.719  0.2221  0.1849  0.3452
 8397SOL    HW136653   3.992   2.119   6.689 -0.4488 -0.6754  0.3985
 8397SOL    HW236654   3.853   2.109   6.726  1.0930 -0.8388 -0.9612
 8398SOL     OW36655   3.193   0.447   8.886  0.3409 -0.1278  0.5335
 8398SOL    HW136656   3.108   0.489   8.875  0.6328  0.1015 -0.8054
 8398SOL    HW236657   3.189   0.405   8.972 -0.6703  2.2684  1.6507
 8399SOL     OW36658   1.903   4.369   4.305  0.0574  0.0747 -0.1182
 8399SOL    HW136659   1.910   4.278   4.332 -2.6893 -0.8582 -2.5211
 8399SOL    HW236660   1.890   4.349   4.212 -0.9858  2.9993 -0.6132
 8400SOL     OW36661   4.606   4.076  15.063  0.1230  0.0060  0.2126
 8400SOL    HW136662   4.609   3.982  15.082  1.2188 -0.4194 -2.0164
 8400SOL    HW236663   4.643   4.068  14.975  1.2801 -1.9923  0.8781
 8401SOL     OW36664   3.609   0.203  10.544 -0.2505 -0.1902 -0.1342
 8401SOL    HW136665   3.533   0.254  10.517  0.0301  0.4151  0.2178
 8401SOL    HW236666   3.680   0.268  10.544  0.2721 -0.7531  1.2063
 8402SOL     OW36667   1.314   1.222   9.775 -0.1788 -0.2144  1.1146
 8402SOL    HW136668   1.300   1.311   9.806  0.1503 -0.1203  0.9861
 8402SOL    HW236669   1.362   1.238   9.694 -0.9227  0.1074  0.7363
 8403SOL     OW36670   3.791   1.084   0.620  0.0248  0.1063  0.5772
 8403SOL    HW136671   3.696   1.088   0.622 -0.1620 -3.4059 -1.5982
 8403SOL    HW236672   3.823   1.034   0.695  0.0675 -1.0915 -0.2437
 8404SOL     OW36673   1.841   2.738  11.233  0.1288  0.3213 -0.3263
 8404SOL    HW136674   1.916   2.797  11.219  0.1820 -0.0664 -1.6443
 8404SOL    HW236675   1.854   2.714  11.325  0.4682 -1.7975 -0.9270
 8405SOL     OW36676   1.728   0.222   4.493  0.0091  0.1984 -0.0569
 8405SOL    HW136677   1.664   0.160   4.530 -1.7282  2.2354  0.3195
 8405SOL    HW236678   1.793   0.163   4.454 -0.9770 -0.9019 -0.0736
 8406SOL     OW36679   3.062   1.880  10.203  0.3758  0.1823 -0.0332
 8406SOL    HW136680   3.156   1.885  10.187  0.6702  0.3480  1.6839
 8406SOL    HW236681   3.038   1.960  10.158  1.1189  0.1097 -0.5452
 8407SOL     OW36682   1.572   3.293   4.895  0.4198  0.5885  0.1455
 8407SOL    HW136683   1.513   3.218   4.885  3.4464 -1.8655  0.4897
 8407SOL    HW236684   1.513   3.334   4.959 -0.0326  3.9885 -2.4737
 8408SOL     OW36685   3.640   0.169   8.314 -0.0870  0.1972 -0.0027
 8408SOL    HW136686   3.639   0.260   8.343 -1.2891  0.0428  0.4912
 8408SOL    HW236687   3.652   0.176   8.220 -0.1572 -0.9697 -0.1044
 8409SOL     OW36688   2.848   2.124  12.801  0.0843 -0.0748  0.1533
 8409SOL    HW136689   2.895   2.141  12.719 -1.9167  0.4876 -0.8741
 8409SOL    HW236690   2.878   2.038  12.830 -0.9602  0.3067  2.3508
 8410SOL     OW36691   1.503   0.244  13.874  0.2493 -0.1782 -0.4182
 8410SOL    HW136692   1.424   0.279  13.916 -1.0833 -0.8640 -2.3280
 8410SOL    HW236693   1.541   0.197  13.948  0.7005 -1.1152 -1.2394
 8411SOL     OW36694   3.303   3.645  16.151 -0.6890 -0.1947 -0.0768
 8411SOL    HW136695   3.217   3.677  16.123  0.4422  0.8840 -2.3639
 8411SOL    HW236696   3.355   3.725  16.142  0.4202 -0.9398 -0.1982
 8412SOL     OW36697   1.444   4.299  12.243 -0.7724 -0.1903 -0.2949
 8412SOL    HW136698   1.369   4.278  12.299 -0.8486 -0.1582 -0.3843
 8412SOL    HW236699   1.405   4.365  12.186 -0.6941  0.3642  0.2975
 8413SOL     OW36700   4.013   0.192  15.611  0.7790  0.2527  0.0175
 8413SOL    HW136701   4.033   0.263  15.672 -0.7825 -0.0448  0.8755
 8413SOL    HW236702   4.040   0.239  15.532  1.9838 -1.8294 -0.8274
 8414SOL     OW36703   1.529   0.367   1.041  0.2344 -0.1534 -0.3192
 8414SOL    HW136704   1.457   0.314   1.075 -1.2027  1.1212 -1.4098
 8414SOL    HW236705   1.584   0.288   1.038  1.5132  0.7524 -0.7249
 8415SOL     OW36706   3.712   2.422   5.799  0.0121 -0.2730  0.0816
 8415SOL    HW136707   3.798   2.380   5.788 -1.3290 -2.9736 -0.0336
 8415SOL    HW236708   3.738   2.480   5.870  0.8523 -2.4935  1.6048
 8416SOL     OW36709   2.499   1.202   2.277  0.4024 -0.1063 -0.1072
 8416SOL    HW136710   2.584   1.219   2.236 -0.4913  2.4746 -0.8585
 8416SOL    HW236711   2.487   1.111   2.248 -1.5619 -0.5526  2.1533
 8417SOL     OW36712   1.130   1.159   8.616  0.5735  0.2234  0.4199
 8417SOL    HW136713   1.044   1.187   8.585  0.6121  0.3134  0.3927
 8417SOL    HW236714   1.161   1.245   8.646 -1.0563  0.7474  0.6604
 8418SOL     OW36715   3.145   2.783  14.443 -0.0633  0.2232 -0.7364
 8418SOL    HW136716   3.094   2.863  14.455 -0.2248  0.0065  0.0081
 8418SOL    HW236717   3.179   2.749  14.525 -0.4447  0.4774 -0.4719
 8419SOL     OW36718   4.457   0.489   7.863  0.3773  0.3155 -0.2551
 8419SOL    HW136719   4.452   0.476   7.768  1.7031  1.0683 -0.4375
 8419SOL    HW236720   4.443   0.397   7.883 -0.4478  0.4826 -0.0866
 8420SOL     OW36721   1.978   2.817   6.259  0.2881  0.8763 -0.8333
 8420SOL    HW136722   1.894   2.795   6.219  0.2122  0.8351 -0.6506
 8420SOL    HW236723   2.018   2.731   6.248 -0.0703  0.4624  1.1373
 8421SOL     OW36724   1.031   1.402   8.231 -0.2576 -0.0196 -0.0415
 8421SOL    HW136725   1.124   1.385   8.239 -0.5167 -2.1756 -1.6186
 8421SOL    HW236726   1.003   1.320   8.190 -0.2722 -0.6252  1.1780
 8422SOL     OW36727   3.812   2.214  16.904 -0.1128  0.3801  0.1299
 8422SOL    HW136728   3.796   2.275  16.976  3.4662  1.9015 -0.3623
 8422SOL    HW236729   3.827   2.128  16.944 -2.5163 -1.4593 -2.9225
 8423SOL     OW36730   2.378   0.158   2.773  0.0855 -0.1660  0.2167
 8423SOL    HW136731   2.321   0.081   2.779  2.4761 -1.9723 -0.3226
 8423SOL    HW236732   2.346   0.213   2.844  2.8623  0.4556  0.9640
 8424SOL     OW36733   1.001   2.111  11.221 -0.1779  0.4855 -0.8479
 8424SOL    HW136734   0.921   2.103  11.170 -0.0806 -0.8124 -0.8008
 8424SOL    HW236735   0.976   2.122  11.313  2.8548 -2.3349  0.3158
 8425SOL     OW36736   3.110   4.534  14.154 -0.4444  0.1372 -0.4634
 8425SOL    HW136737   3.104   4.595  14.081  2.8969  0.5598 -0.3680
 8425SOL    HW236738   3.017   4.515  14.165 -0.4035  0.5809  0.6840
 8426SOL     OW36739   3.785   3.601  17.289 -0.9573 -0.0298 -0.0531
 8426SOL    HW136740   3.831   3.678  17.325 -2.0386  0.9069 -0.6942
 8426SOL    HW236741   3.694   3.606  17.316 -0.3398 -1.5670  2.3893
 8427SOL     OW36742   0.533   3.253  15.492  0.2846 -0.2176  0.4691
 8427SOL    HW136743   0.576   3.232  15.576 -1.2398  1.6701  1.7021
 8427SOL    HW236744   0.508   3.344  15.507 -0.5802 -0.6468  1.6682
 8428SOL     OW36745   2.319   0.167  15.439 -0.5772  0.5276  0.2099
 8428SOL    HW136746   2.370   0.243  15.410 -1.3499  0.3544 -1.5997
 8428SOL    HW236747   2.247   0.173  15.376 -0.1134 -2.0880 -0.5675
 8429SOL     OW36748   2.323   3.554   2.858  0.3590 -0.4214  0.5554
 8429SOL    HW136749   2.230   3.557   2.880  0.2058 -0.6644 -0.0579
 8429SOL    HW236750   2.325   3.596   2.772 -2.6681  1.2819  1.3101
 8430SOL     OW36751   3.139   2.238   1.866 -0.1705  0.5257 -0.1267
 8430SOL    HW136752   3.215   2.277   1.822 -1.0955  1.4944 -0.8376
 8430SOL    HW236753   3.182   2.204   1.945 -0.2168  2.0909  0.5631
 8431SOL     OW36754   3.911   3.006   1.560  0.0877 -0.1097 -0.6950
 8431SOL    HW136755   3.883   3.097   1.549 -0.3334  0.0328  1.5719
 8431SOL    HW236756   3.979   2.999   1.493  1.7147  1.9513  0.7497
 8432SOL     OW36757   3.736   2.305   3.101 -0.3050 -0.3658  0.6521
 8432SOL    HW136758   3.820   2.266   3.123  0.3025  0.6198  0.0575
 8432SOL    HW236759   3.703   2.309   3.191 -0.6771  0.8920  0.4639
 8433SOL     OW36760   0.749   0.231  12.304 -0.7932 -0.2876  0.5233
 8433SOL    HW136761   0.692   0.278  12.365 -1.5683  1.5400 -1.6161
 8433SOL    HW236762   0.835   0.262  12.334 -0.5209  1.3133 -1.9143
 8434SOL     OW36763   4.269   0.101  10.784  0.2018  0.0943  0.0874
 8434SOL    HW136764   4.321   0.138  10.712 -1.1220 -0.9646 -1.4004
 8434SOL    HW236765   4.231   0.177  10.829 -0.5797 -0.4351  0.3042
 8435SOL     OW36766   0.615   3.151  11.033 -0.4216  0.3884  0.5348
 8435SOL    HW136767   0.578   3.213  11.097  0.8066  3.0920 -1.3576
 8435SOL    HW236768   0.697   3.189  11.002 -0.1477 -1.3307 -0.8436
 8436SOL     OW36769   3.113   0.888   3.341  0.5301 -0.2955  0.3503
 8436SOL    HW136770   3.193   0.837   3.324  0.7269  0.1823 -0.1804
 8436SOL    HW236771   3.138   0.980   3.327  0.8065 -0.6754 -1.7031
 8437SOL     OW36772   3.773   2.004   4.827  0.3263  0.1161  0.4953
 8437SOL    HW136773   3.847   2.057   4.798  0.9486 -0.2888  1.3370
 8437SOL    HW236774   3.792   2.007   4.921 -1.1411  0.9161  0.7582
 8438SOL     OW36775   2.011   2.223  14.813  0.0843  0.5505 -0.2597
 8438SOL    HW136776   1.924   2.184  14.810  0.7483 -0.7329 -2.8032
 8438SOL    HW236777   2.023   2.203  14.906 -1.8213  0.0811 -0.1247
 8439SOL     OW36778   3.878   3.387   4.341 -0.9573  0.2642  0.1889
 8439SOL    HW136779   3.840   3.460   4.293  1.9687  1.2870 -0.5868
 8439SOL    HW236780   3.960   3.369   4.295 -0.5283  2.1985  0.2012
 8440SOL     OW36781   2.302   0.807   6.536  0.0294 -0.6398 -0.1680
 8440SOL    HW136782   2.252   0.883   6.567  0.1053 -1.2643  1.4715
 8440SOL    HW236783   2.252   0.799   6.455  0.3864 -1.8865 -0.2616
 8441SOL     OW36784   3.547   0.725   8.410 -0.0071  0.3583  0.4651
 8441SOL    HW136785   3.466   0.725   8.461 -1.9783 -0.0251 -2.6381
 8441SOL    HW236786   3.600   0.792   8.453  0.5931 -0.7489  1.4656
 8442SOL     OW36787   2.496   2.898   9.747  0.2483 -0.1568  0.4789
 8442SOL    HW136788   2.453   2.824   9.790  1.6372 -0.5464  1.2090
 8442SOL    HW236789   2.492   2.968   9.812  1.3617 -0.8580  1.3031
 8443SOL     OW36790   0.566   0.051   2.029  0.2444 -0.0696  0.1537
 8443SOL    HW136791   0.531   0.140   2.024  1.1764  0.4929  3.4105
 8443SOL    HW236792   0.485   0.005   2.047  0.0953  0.2954  0.4064
 8444SOL     OW36793   2.792   2.994  13.209 -0.2670  0.2546 -0.1302
 8444SOL    HW136794   2.770   3.079  13.171 -1.5897  0.6993  1.6081
 8444SOL    HW236795   2.881   3.015  13.237 -0.5032  3.4576 -1.7284
 8445SOL     OW36796   3.672   1.617   5.051 -0.9460  0.4493  0.1486
 8445SOL    HW136797   3.641   1.706   5.034  0.2781  0.7017 -0.7324
 8445SOL    HW236798   3.602   1.571   5.004 -0.0299 -1.5309  0.6998
 8446SOL     OW36799   1.571   4.149   4.331 -0.4154  0.9685  0.0779
 8446SOL    HW136800   1.656   4.178   4.363  0.0905 -1.3178  0.7768
 8446SOL    HW236801   1.570   4.059   4.363 -2.2340  1.3788  1.2023
 8447SOL     OW36802   0.180   1.379   3.483  0.0243  0.6498  0.1085
 8447SOL    HW136803   0.260   1.325   3.489 -0.0214  0.6279  0.5275
 8447SOL    HW236804   0.105   1.326   3.456  0.4749  0.7755 -1.4004
 8448SOL     OW36805   2.499   2.843   6.721 -1.2372  0.1423 -0.4131
 8448SOL    HW136806   2.405   2.861   6.712 -1.4841  0.1986  2.2239
 8448SOL    HW236807   2.508   2.764   6.668 -0.9202  0.9485 -1.5644
 8449SOL     OW36808   1.740   2.142  11.028  0.0328 -0.0683 -0.2837
 8449SOL    HW136809   1.754   2.050  11.051 -0.1434 -0.3458 -1.2862
 8449SOL    HW236810   1.766   2.137  10.936  1.6330 -3.3483  0.3723
 8450SOL     OW36811   2.013   3.037   5.750  0.0671  0.5211  0.5264
 8450SOL    HW136812   1.966   2.955   5.769 -2.0684  1.2937 -1.3131
 8450SOL    HW236813   1.971   3.093   5.815  0.3057  0.1768  0.9729
 8451SOL     OW36814   1.756   2.004   1.745 -0.3476  0.2393  0.4516
 8451SOL    HW136815   1.819   2.027   1.813  0.8338  2.2334 -1.3019
 8451SOL    HW236816   1.684   2.062   1.769 -0.8575 -0.3197  0.2511
 8452SOL     OW36817   2.562   1.956   4.360  0.0599  0.5809 -0.7713
 8452SOL    HW136818   2.580   2.043   4.396 -1.5461 -0.3557  2.2700
 8452SOL    HW236819   2.627   1.939   4.293  0.0806  2.0853 -1.1344
 8453SOL     OW36820   4.576   2.235   8.076 -0.2809  0.3863  0.2528
 8453SOL    HW136821   4.665   2.252   8.046 -0.5999  0.3175 -0.7426
 8453SOL    HW236822   4.587   2.218   8.169  0.7573 -1.2780 -0.1774
 8454SOL     OW36823   1.630   0.829   8.894 -0.2809  0.4551 -0.4994
 8454SOL    HW136824   1.566   0.764   8.862  0.2626  0.3939 -1.4360
 8454SOL    HW236825   1.707   0.777   8.872 -1.6881 -1.1136 -1.7758
 8455SOL     OW36826   1.505   4.244   2.898 -0.3428 -0.0149 -0.1836
 8455SOL    HW136827   1.535   4.335   2.899 -1.5124  0.3725 -0.0546
 8455SOL    HW236828   1.537   4.210   2.982  0.5137 -0.9529 -0.9025
 8456SOL     OW36829   4.276   4.723   1.922  0.2448 -0.3076 -0.1995
 8456SOL    HW136830   4.207   4.694   1.982 -1.0230  0.2280 -1.4212
 8456SOL    HW236831   4.221   0.003   1.844  1.1137  1.7937 -0.6699
 8457SOL     OW36832   4.198   0.770   5.415  0.0168  0.1356 -0.0592
 8457SOL    HW136833   4.261   0.758   5.343 -1.4458  0.8327 -1.4513
 8457SOL    HW236834   4.150   0.688   5.402 -0.7429  0.4302  0.8955
 8458SOL     OW36835   2.744   0.418   5.255 -0.2367 -0.5341 -0.2228
 8458SOL    HW136836   2.828   0.417   5.302  0.1300 -1.1601 -0.8882
 8458SOL    HW236837   2.680   0.415   5.326 -0.0606 -0.8905 -0.0755
 8459SOL     OW36838   0.854   2.637  16.518  0.3568  0.0563  0.0973
 8459SOL    HW136839   0.885   2.722  16.489 -2.3819  0.9851 -0.1215
 8459SOL    HW236840   0.853   2.653  16.613 -0.7537  0.0996  0.0756
 8460SOL     OW36841   1.965   2.403   6.078 -0.3806  0.4268 -0.3140
 8460SOL    HW136842   1.955   2.438   6.166  2.4491 -1.3819  0.7200
 8460SOL    HW236843   2.018   2.473   6.039 -1.0861  0.3757 -1.3796
 8461SOL     OW36844   0.772   0.578   5.725  0.1023  0.2062 -0.0710
 8461SOL    HW136845   0.741   0.578   5.635  2.5753 -0.4840 -0.9168
 8461SOL    HW236846   0.702   0.525   5.765 -0.6886  0.5758 -0.9757
 8462SOL     OW36847   3.167   2.252   3.691  0.5224  0.2354  0.1500
 8462SOL    HW136848   3.189   2.240   3.598  0.3777 -0.7727  0.2452
 8462SOL    HW236849   3.096   2.313   3.673 -0.8170 -1.7059 -1.1851
 8463SOL     OW36850   3.003   2.608   2.872 -0.6180  0.1823 -0.3363
 8463SOL    HW136851   3.012   2.626   2.965  0.8061 -1.1647 -0.2223
 8463SOL    HW236852   3.094   2.612   2.843 -1.2285 -0.8343 -2.4019
 8464SOL     OW36853   3.820   0.178   3.479 -0.4261 -0.6334  0.5602
 8464SOL    HW136854   3.790   0.265   3.505  2.8468  0.7570 -0.3103
 8464SOL    HW236855   3.766   0.163   3.401  0.2669 -0.3030  0.0208
 8465SOL     OW36856   4.376   1.047   9.701  0.7255 -0.4490  0.6913
 8465SOL    HW136857   4.316   1.121   9.701  1.2385 -0.0217 -1.2407
 8465SOL    HW236858   4.434   1.069   9.774  2.8878  0.1817 -1.2386
 8466SOL     OW36859   1.524   0.969   4.353 -0.2920 -0.2814  0.4112
 8466SOL    HW136860   1.469   0.972   4.431  1.1157 -1.0030  1.4135
 8466SOL    HW236861   1.603   1.020   4.370 -1.2546  0.6678  1.9927
 8467SOL     OW36862   0.750   3.698   9.029  0.9445  0.0680  0.1117
 8467SOL    HW136863   0.766   3.792   9.030 -0.0985  0.2348  1.4317
 8467SOL    HW236864   0.657   3.685   9.011  0.7970  1.6345 -0.1902
 8468SOL     OW36865   0.594   0.819   3.669  0.3314  0.0089  0.5282
 8468SOL    HW136866   0.508   0.843   3.637  0.9177  0.3385 -0.7889
 8468SOL    HW236867   0.595   0.725   3.650  0.3680  0.0677  0.2388
 8469SOL     OW36868   3.594   2.114  17.192  0.2923 -0.5712 -0.2164
 8469SOL    HW136869   3.645   2.182  17.235 -0.2923 -1.3043  1.6054
 8469SOL    HW236870   3.661   2.079  17.132 -0.0083 -1.9809  0.2673
 8470SOL     OW36871   1.900   0.842   4.400 -0.3392 -0.1731  0.4325
 8470SOL    HW136872   1.912   0.822   4.493  2.5701  0.0299  0.0903
 8470SOL    HW236873   1.987   0.876   4.380  0.1771 -1.5264  0.4397
 8471SOL     OW36874   2.449   2.323   9.122 -0.1314  0.2727 -0.2863
 8471SOL    HW136875   2.380   2.273   9.167  1.5479 -2.0728 -0.3198
 8471SOL    HW236876   2.500   2.254   9.080 -1.0278  0.2007 -1.2361
 8472SOL     OW36877   4.138   2.672   8.275 -0.2798 -0.0028  0.0861
 8472SOL    HW136878   4.149   2.699   8.367  1.3398 -1.9202  0.4394
 8472SOL    HW236879   4.046   2.684   8.252 -0.6988 -0.4546  1.5038
 8473SOL     OW36880   3.207   2.101  11.284 -0.3100  0.0460  0.4177
 8473SOL    HW136881   3.224   2.007  11.285 -2.3133 -0.3118  2.5385
 8473SOL    HW236882   3.125   2.102  11.334  0.1734 -1.4358  1.2381
 8474SOL     OW36883   3.451   3.136  17.387  0.1556 -0.0569 -0.8989
 8474SOL    HW136884   3.534   3.092  17.404 -1.5654 -2.4185  1.3727
 8474SOL    HW236885   3.453   3.210  17.447 -1.7034  0.0557 -0.9788
 8475SOL     OW36886   0.084   1.325   2.530  0.2992 -0.0578 -0.2337
 8475SOL    HW136887   0.096   1.271   2.452  2.7580  2.3112 -1.5286
 8475SOL    HW236888   0.094   1.261   2.599 -2.6957  1.2483  1.4114
 8476SOL     OW36889   3.470   4.562   5.129 -0.1919 -0.5163 -0.3647
 8476SOL    HW136890   3.467   4.538   5.222  0.4952 -1.1257 -0.5040
 8476SOL    HW236891   3.389   4.612   5.114  0.1380  0.2754  0.4417
 8477SOL     OW36892   4.092   4.492   9.467  0.3062  0.0917  0.2459
 8477SOL    HW136893   4.069   4.503   9.559 -1.7953 -1.5330 -0.0797
 8477SOL    HW236894   4.160   4.559   9.461 -3.5572  3.9997  0.4231
 8478SOL     OW36895   3.747   2.615   6.986  0.3290 -0.3371 -0.2423
 8478SOL    HW136896   3.661   2.652   6.970  0.8537  2.0238  2.4824
 8478SOL    HW236897   3.755   2.551   6.915  1.8620 -0.5571  0.1193
 8479SOL     OW36898   0.304   0.662   6.255 -0.0005 -0.5104  0.2602
 8479SOL    HW136899   0.282   0.678   6.347 -0.5982 -2.6027  0.4895
 8479SOL    HW236900   0.297   0.744   6.207 -1.8028 -0.0892  1.2407
 8480SOL     OW36901   1.277   3.739   4.968 -0.1002 -0.2833 -0.3993
 8480SOL    HW136902   1.255   3.674   4.901  2.3829 -2.4432  0.9097
 8480SOL    HW236903   1.307   3.810   4.911 -2.4067  0.2662 -0.9381
 8481SOL     OW36904   3.072   0.292   9.109 -0.0254 -0.0856  0.0155
 8481SOL    HW136905   3.047   0.350   9.181 -0.0677 -0.5174  0.3478
 8481SOL    HW236906   2.995   0.283   9.053  0.5128 -0.2290 -0.6986
 8482SOL     OW36907   4.674   2.687   8.740  0.1114 -0.0306 -0.0169
 8482SOL    HW136908   4.719   2.654   8.818 -2.1112 -3.4811 -0.2049
 8482SOL    HW236909   4.706   2.625   8.675  1.5343 -1.5481  2.1253
 8483SOL     OW36910   2.016   2.229   8.343  0.0099  0.2971  0.2905
 8483SOL    HW136911   1.997   2.320   8.318  1.8324  0.6321  0.1638
 8483SOL    HW236912   1.946   2.207   8.405 -1.5554  0.5724 -1.3595
 8484SOL     OW36913   4.105   1.545   1.612  0.1808  0.1354 -0.0744
 8484SOL    HW136914   4.180   1.584   1.568  0.8447  0.0080  0.9507
 8484SOL    HW236915   4.043   1.618   1.609  1.8503  1.4915 -0.8569
 8485SOL     OW36916   2.707   2.527   1.869 -0.0160 -0.3709 -0.1060
 8485SOL    HW136917   2.736   2.436   1.864  1.3856  0.0681 -0.0478
 8485SOL    HW236918   2.705   2.544   1.774 -0.8876  1.3784  0.2099
 8486SOL     OW36919   2.951   3.711  15.715  0.2045 -0.0000  0.6899
 8486SOL    HW136920   2.941   3.800  15.682 -0.0763 -0.0081  0.7530
 8486SOL    HW236921   2.976   3.725  15.807 -1.1878 -0.3598  1.1306
 8487SOL     OW36922   3.386   0.529  17.054  0.2942  0.5509  0.3745
 8487SOL    HW136923   3.324   0.460  17.076  0.6209  0.6295  1.5365
 8487SOL    HW236924   3.332   0.599  17.017  0.5064  0.4860 -0.0675
 8488SOL     OW36925   1.789   1.946   2.032 -0.0830 -0.4166  1.0136
 8488SOL    HW136926   1.789   2.039   2.012 -2.6896 -0.3051  1.5071
 8488SOL    HW236927   1.870   1.920   1.988 -0.9511  1.5101 -1.6590
 8489SOL     OW36928   4.031   1.316  12.920 -0.0408  0.5278 -0.3652
 8489SOL    HW136929   4.083   1.235  12.915 -2.3222 -0.9416 -0.3056
 8489SOL    HW236930   4.069   1.364  12.994 -2.3626  0.2865  0.9766
 8490SOL     OW36931   0.481   2.788  10.210 -1.1935  0.8274 -0.9103
 8490SOL    HW136932   0.552   2.823  10.263 -1.7320  3.2222 -1.7502
 8490SOL    HW236933   0.415   2.796  10.280  0.7784  3.6630  0.6177
 8491SOL     OW36934   2.271   1.112   1.836 -0.2237  0.3122 -0.1221
 8491SOL    HW136935   2.208   1.064   1.889 -1.6806  2.3904  0.0310
 8491SOL    HW236936   2.307   1.174   1.900 -0.8530  2.2629 -1.6419
 8492SOL     OW36937   1.991   4.389  16.839 -0.1372 -0.7597 -0.0106
 8492SOL    HW136938   2.071   4.369  16.887  0.3581  1.7808  0.1805
 8492SOL    HW236939   2.020   4.414  16.751  0.2712 -0.9114  0.0818
 8493SOL     OW36940   1.684   2.937   8.069  0.0900  0.3064  1.1629
 8493SOL    HW136941   1.677   2.873   7.998 -0.4466  0.3866  1.1471
 8493SOL    HW236942   1.760   2.903   8.116  1.3560  0.0427 -1.0904
 8494SOL     OW36943   3.251   3.318  13.227  0.1573  0.4542 -0.1310
 8494SOL    HW136944   3.309   3.370  13.171  2.0246 -1.4662 -0.0098
 8494SOL    HW236945   3.211   3.250  13.173  0.0634  1.3090 -1.1271
 8495SOL     OW36946   2.187   2.128  16.993 -0.4634 -0.4774 -0.1438
 8495SOL    HW136947   2.204   2.077  16.914  3.4415  1.9262 -0.8801
 8495SOL    HW236948   2.227   2.069  17.058  1.7203  0.3513 -0.7179
 8496SOL     OW36949   2.503   0.328   3.539 -0.7685  0.1518 -0.4231
 8496SOL    HW136950   2.537   0.328   3.449 -1.3304 -3.3469 -0.6102
 8496SOL    HW236951   2.409   0.329   3.519 -1.2941 -0.8614  1.9904
 8497SOL     OW36952   3.438   0.219  11.630  0.2311 -0.2088 -0.0511
 8497SOL    HW136953   3.460   0.149  11.568 -2.3832 -1.9557  0.9582
 8497SOL    HW236954   3.518   0.257  11.664 -0.1740 -0.1440  0.8221
 8498SOL     OW36955   4.089   3.166   7.971  0.6517  0.2471  0.1268
 8498SOL    HW136956   4.168   3.214   7.947  1.6802 -0.8358  1.3870
 8498SOL    HW236957   4.072   3.202   8.058 -1.5267 -0.6056  0.0665
 8499SOL     OW36958   1.011   1.488   4.639 -0.4554 -0.2256 -0.2418
 8499SOL    HW136959   0.996   1.397   4.663 -2.9067 -0.2656 -1.8853
 8499SOL    HW236960   0.923   1.519   4.661 -0.6531 -0.5485 -0.5686
 8500SOL     OW36961   0.176   3.124   2.086 -0.3873 -0.0985  0.6110
 8500SOL    HW136962   0.108   3.085   2.141  0.8890 -2.4856  0.4565
 8500SOL    HW236963   0.224   3.168   2.156  4.5411 -0.3623 -2.6085
 8501SOL     OW36964   1.797   0.160  13.915 -0.3720  0.1658 -0.2644
 8501SOL    HW136965   1.792   0.166  14.011 -0.4343  0.6048 -0.2974
 8501SOL    HW236966   1.797   0.065  13.899 -1.3945  0.4696 -2.0164
 8502SOL     OW36967   3.922   1.420   5.959 -0.3874 -0.1777 -0.1599
 8502SOL    HW136968   3.861   1.418   5.885 -3.0279  2.7839  1.9266
 8502SOL    HW236969   3.975   1.495   5.934 -0.3711  0.0619  0.5675
 8503SOL     OW36970   3.107   3.534   9.212  0.2219  0.1210 -0.0585
 8503SOL    HW136971   3.139   3.619   9.239  0.2860  0.1540 -0.2342
 8503SOL    HW236972   3.014   3.558   9.215 -0.1508 -1.4018  0.6654
 8504SOL     OW36973   3.445   4.458   1.173  0.0034 -0.2266  0.3337
 8504SOL    HW136974   3.421   4.431   1.261  0.8827  0.3023  0.7351
 8504SOL    HW236975   3.540   4.472   1.175 -0.3997  2.6858 -0.6028
 8505SOL     OW36976   0.176   1.769  15.438 -0.7445 -0.1032  0.3318
 8505SOL    HW136977   0.242   1.702  15.418  0.3210  0.8050  0.8206
 8505SOL    HW236978   0.227   1.843  15.469 -1.1992  1.6157 -3.0070
 8506SOL     OW36979   1.356   2.027   1.316 -0.3064 -0.8160 -1.4096
 8506SOL    HW136980   1.288   1.961   1.307 -1.4973  0.0423  1.2651
 8506SOL    HW236981   1.378   2.048   1.226  0.3353 -0.6113 -1.2088
 8507SOL     OW36982   1.725   4.342  16.902 -0.3622 -0.4446 -0.0035
 8507SOL    HW136983   1.704   4.417  16.846 -0.7222 -0.0997  0.5817
 8507SOL    HW236984   1.819   4.335  16.889 -1.1818 -1.6509 -5.0383
 8508SOL     OW36985   4.588   0.910   5.221 -0.5150  0.0239 -0.4537
 8508SOL    HW136986   4.578   0.815   5.228  0.6755  0.0385  1.5911
 8508SOL    HW236987   4.520   0.946   5.279 -0.2830  1.5074 -1.0871
 8509SOL     OW36988   1.401   0.176   8.630 -0.2011  0.2946 -0.2074
 8509SOL    HW136989   1.363   0.088   8.622 -0.6909  0.4088  0.8490
 8509SOL    HW236990   1.482   0.150   8.675 -1.4726 -0.6444  1.5639
 8510SOL     OW36991   4.065   3.645   5.113 -0.0534  0.4153 -0.4667
 8510SOL    HW136992   3.972   3.623   5.103  0.1709 -1.4466  1.4513
 8510SOL    HW236993   4.061   3.726   5.062 -0.3083  1.2616  0.8972
 8511SOL     OW36994   0.569   0.538   6.188  0.2840 -0.1641  0.2258
 8511SOL    HW136995   0.618   0.611   6.225 -0.3789  0.6968 -0.5929
 8511SOL    HW236996   0.477   0.553   6.209  0.5602  1.0864  0.5463
 8512SOL     OW36997   0.984   4.302   7.525 -0.4195  0.1830 -0.0838
 8512SOL    HW136998   0.947   4.273   7.608  0.8999 -0.8083  0.1697
 8512SOL    HW236999   0.968   4.396   7.531  2.0580  0.8580 -4.1629
 8513SOL     OW37000   3.617   0.371   7.040  0.0676  0.1842  0.4822
 8513SOL    HW137001   3.628   0.277   7.050  0.2675  0.2377  0.7604
 8513SOL    HW237002   3.531   0.364   6.998  0.4148  0.6440 -0.3273
 8514SOL     OW37003   3.480   0.728   8.807  0.1743 -0.6270 -0.1506
 8514SOL    HW137004   3.562   0.763   8.843  0.5980 -0.3742 -1.3685
 8514SOL    HW237005   3.513   0.638   8.810  1.0649 -0.2284  1.8262
 8515SOL     OW37006   2.230   0.890  12.102 -0.1341  0.1200  0.5401
 8515SOL    HW137007   2.278   0.970  12.122  0.0234  0.8093 -2.5119
 8515SOL    HW237008   2.294   0.822  12.122 -0.3136 -0.3272 -0.3889
 8516SOL     OW37009   4.158   4.382  12.704 -0.2737  0.4483  0.2449
 8516SOL    HW137010   4.124   4.404  12.618  2.2685 -0.8836 -1.1002
 8516SOL    HW237011   4.167   4.473  12.733  0.0598 -0.3514  2.6124
 8517SOL     OW37012   0.027   0.327   7.701  0.3453  0.2173  0.2688
 8517SOL    HW137013   0.058   0.360   7.785 -0.4000 -1.1335  1.0707
 8517SOL    HW237014   4.679   0.382   7.672 -0.6518 -0.7321  0.9279
 8518SOL     OW37015   3.639   1.459   7.835 -0.6802  0.7487  0.1148
 8518SOL    HW137016   3.583   1.473   7.759  0.8073  3.0392 -0.5708
 8518SOL    HW237017   3.706   1.526   7.821 -1.0253  1.3301  1.1743
 8519SOL     OW37018   1.386   2.186   2.109 -0.0432  0.4242  0.7340
 8519SOL    HW137019   1.457   2.244   2.136  0.0352 -0.4197  2.2890
 8519SOL    HW237020   1.369   2.147   2.194 -2.0892  1.4737  0.8039
 8520SOL     OW37021   3.981   1.901  12.069 -0.5804 -0.0427 -0.3396
 8520SOL    HW137022   3.921   1.826  12.072  0.4920 -0.8754  0.2028
 8520SOL    HW237023   4.053   1.866  12.017  0.9235 -0.9219  2.3284
 8521SOL     OW37024   3.602   1.399   0.680  0.1173 -0.1410  0.5665
 8521SOL    HW137025   3.694   1.384   0.663  0.1182 -0.7655  1.1499
 8521SOL    HW237026   3.612   1.394   0.775 -0.4886  0.3633  0.6638
 8522SOL     OW37027   3.429   2.560   6.703 -0.4496 -0.6793  0.6897
 8522SOL    HW137028   3.439   2.611   6.623 -0.9984 -1.9877 -0.2117
 8522SOL    HW237029   3.337   2.536   6.706 -0.4313 -0.8679 -0.4625
 8523SOL     OW37030   0.411   0.303   7.709  0.0452 -0.3712 -0.0974
 8523SOL    HW137031   0.341   0.321   7.646 -1.5260  0.6668  1.9409
 8523SOL    HW237032   0.367   0.239   7.764 -0.2641  0.6295  0.8172
 8524SOL     OW37033   0.084   1.999   6.675 -0.3546  0.1483  0.0434
 8524SOL    HW137034   0.065   1.960   6.761 -1.3212 -1.6941 -1.0047
 8524SOL    HW237035   0.059   2.086   6.704  0.6173  0.3176  0.3881
 8525SOL     OW37036   0.478   3.362   4.597 -0.9103 -0.6578 -0.0569
 8525SOL    HW137037   0.523   3.280   4.578  3.0036  0.9731  1.9539
 8525SOL    HW237038   0.463   3.394   4.508  1.5720  2.6722  0.6911
 8526SOL     OW37039   1.104   1.826   3.190  0.8301  0.0665 -0.4211
 8526SOL    HW137040   1.195   1.855   3.189  0.1105  2.5440  4.5128
 8526SOL    HW237041   1.098   1.791   3.101 -0.9382  0.4702 -0.4640
 8527SOL     OW37042   3.947   1.807   4.707  0.4121  0.3663 -0.1064
 8527SOL    HW137043   3.909   1.879   4.756 -2.1917 -0.5239 -0.8064
 8527SOL    HW237044   3.916   1.835   4.620  0.7422 -1.6041 -0.8804
 8528SOL     OW37045   2.367   2.389  13.146  0.1350 -0.5245  0.6986
 8528SOL    HW137046   2.405   2.475  13.128  1.7407 -1.2388  0.6827
 8528SOL    HW237047   2.318   2.370  13.066  2.2471  0.4451 -0.8254
 8529SOL     OW37048   2.398   3.539   2.009 -0.2663  0.6601  0.1666
 8529SOL    HW137049   2.343   3.556   1.932 -0.4040 -0.8161 -0.0502
 8529SOL    HW237050   2.334   3.499   2.068  0.2485 -0.1042  0.1988
 8530SOL     OW37051   0.172   2.618  15.753  0.1519 -0.1677  0.0824
 8530SOL    HW137052   0.155   2.670  15.831 -0.6790  0.3453 -0.4411
 8530SOL    HW237053   0.144   2.536  15.795 -1.8587 -0.1827 -1.2925
 8531SOL     OW37054   2.155   0.167   1.322  0.1622 -0.0044  0.0761
 8531SOL    HW137055   2.208   0.228   1.270  0.2644 -0.8363 -0.7965
 8531SOL    HW237056   2.223   0.139   1.383 -1.0841  0.1567  1.5357
 8532SOL     OW37057   3.721   3.199   6.825 -0.6847  0.1927  0.2075
 8532SOL    HW137058   3.805   3.188   6.781 -0.4951 -0.2262  0.6790
 8532SOL    HW237059   3.684   3.111   6.825  0.5830 -0.3452  2.2059
 8533SOL     OW37060   2.873   3.528  13.135  0.4935 -0.3346  0.1108
 8533SOL    HW137061   2.926   3.499  13.210  1.3086  0.1846 -0.2561
 8533SOL    HW237062   2.804   3.573  13.183 -0.1121 -0.5417 -0.5644
 8534SOL     OW37063   0.691   0.374   7.734  0.1640  0.4861  0.2977
 8534SOL    HW137064   0.598   0.352   7.743  0.0468  0.1620 -1.9034
 8534SOL    HW237065   0.707   0.307   7.669  2.5727  1.0035  0.3824
 8535SOL     OW37066   0.529   0.257   6.265  0.2014  0.1974  0.6135
 8535SOL    HW137067   0.524   0.348   6.234  0.5094 -0.5257 -1.5936
 8535SOL    HW237068   0.537   0.209   6.182  1.6048  1.0679  0.2477
 8536SOL     OW37069   3.173   4.354   8.534 -0.4522  0.3380 -0.7120
 8536SOL    HW137070   3.201   4.425   8.591  2.0029 -2.1325  1.1465
 8536SOL    HW237071   3.159   4.402   8.453  0.0267 -1.4504 -1.8607
 8537SOL     OW37072   3.025   0.345   6.128 -0.1403  0.1777  0.2829
 8537SOL    HW137073   2.949   0.363   6.184 -0.4518 -0.7536  0.1586
 8537SOL    HW237074   3.090   0.397   6.177  1.4435  0.1131 -1.7726
 8538SOL     OW37075   4.111   4.279   1.967  0.2893  0.8838 -0.3726
 8538SOL    HW137076   4.204   4.254   1.961 -0.0411 -0.5709  0.5695
 8538SOL    HW237077   4.061   4.216   1.916  2.3700  0.4252 -1.8319
 8539SOL     OW37078   4.586   3.709   2.024  0.7973 -0.5402 -0.8772
 8539SOL    HW137079   4.554   3.630   1.980 -0.0983 -0.4196 -0.4511
 8539SOL    HW237080   4.510   3.766   2.016  0.7283 -0.2449  1.9102
 8540SOL     OW37081   1.098   3.846   8.938 -0.1508 -0.3895 -0.1000
 8540SOL    HW137082   1.025   3.880   8.989  0.1288  0.7385 -0.4596
 8540SOL    HW237083   1.175   3.886   8.979 -0.3047 -0.0631 -0.1392
 8541SOL     OW37084   0.788   2.680   2.645 -0.1604  0.2484 -0.0183
 8541SOL    HW137085   0.873   2.652   2.610 -0.1324 -0.8774  0.9732
 8541SOL    HW237086   0.774   2.608   2.707 -2.3449 -0.9103 -1.8921
 8542SOL     OW37087   3.314   3.853   7.562  0.5584 -0.8231  0.3624
 8542SOL    HW137088   3.370   3.836   7.486  2.0667  1.4950  0.9240
 8542SOL    HW237089   3.370   3.874   7.637 -0.7011  0.5863  0.9113
 8543SOL     OW37090   2.114   2.377   0.294  1.0055 -0.3390  0.0261
 8543SOL    HW137091   2.097   2.446   0.358 -0.8618  1.3529 -2.2819
 8543SOL    HW237092   2.045   2.317   0.322  1.9940 -0.7168  1.6332
 8544SOL     OW37093   2.228   3.799  11.337 -0.6852 -0.3921 -0.6214
 8544SOL    HW137094   2.206   3.711  11.369  2.7107 -0.3233  2.0383
 8544SOL    HW237095   2.162   3.800  11.268 -0.1704  0.2595 -1.0979
 8545SOL     OW37096   1.426   1.607  11.220  0.1470 -0.3760 -0.0846
 8545SOL    HW137097   1.337   1.639  11.208  0.2704  0.0855  0.2349
 8545SOL    HW237098   1.406   1.513  11.226 -2.7388  0.2343 -0.3308
 8546SOL     OW37099   0.119   4.092  10.874  0.0524 -0.2618 -0.0056
 8546SOL    HW137100   0.078   4.113  10.958  2.0424  0.8920  0.6604
 8546SOL    HW237101   0.047   4.111  10.813  0.0178 -1.6176 -0.3929
 8547SOL     OW37102   0.410   1.890   7.340  0.0261  0.1616 -0.3131
 8547SOL    HW137103   0.488   1.847   7.375 -1.1810 -0.4632  1.6266
 8547SOL    HW237104   0.444   1.943   7.269  0.1182  1.8466  1.0026
 8548SOL     OW37105   2.781   1.551   7.694  0.2144  0.5303  0.3496
 8548SOL    HW137106   2.729   1.605   7.634  0.5011  0.0487 -0.3379
 8548SOL    HW237107   2.861   1.572   7.646  1.3196 -2.4780  0.8709
 8549SOL     OW37108   2.322   3.900   4.633  0.2140  0.1861 -0.7317
 8549SOL    HW137109   2.417   3.901   4.621  0.3401 -0.9704  0.0987
 8549SOL    HW237110   2.313   3.825   4.692 -2.0530 -0.0364 -1.3707
 8550SOL     OW37111   2.646   3.631  11.478  0.6865  0.0621 -0.1638
 8550SOL    HW137112   2.629   3.545  11.518  0.5050  1.9288  3.7662
 8550SOL    HW237113   2.594   3.691  11.531  2.1870 -0.9000  2.4112
 8551SOL     OW37114   0.809   2.405   7.161  0.3352 -0.2417 -0.1964
 8551SOL    HW137115   0.812   2.484   7.107 -0.2435  0.7836  1.2703
 8551SOL    HW237116   0.900   2.403   7.190  1.2712  0.6735 -3.0071
 8552SOL     OW37117   1.434   0.018  11.068  0.2196 -0.3953  0.6105
 8552SOL    HW137118   1.466   4.671  11.013 -0.8980 -1.0083  0.7607
 8552SOL    HW237119   1.470   0.084  11.008  0.9944  0.4205  1.9869
 8553SOL     OW37120   4.692   3.638   0.820  0.0563  0.5668  0.1905
 8553SOL    HW137121   4.657   3.700   0.883 -1.5608  0.5939 -0.7416
 8553SOL    HW237122   0.061   3.657   0.813  0.2588 -0.5427 -0.2468
 8554SOL     OW37123   2.275   3.998   3.051  0.0484 -0.8456  0.2787
 8554SOL    HW137124   2.196   4.052   3.054  0.0406 -0.7069 -2.3365
 8554SOL    HW237125   2.248   3.920   3.003 -0.4367 -0.5483  0.0746
 8555SOL     OW37126   1.992   0.268   7.466  0.0979 -0.1978 -0.7333
 8555SOL    HW137127   1.910   0.222   7.484  1.9986 -2.2477  2.6457
 8555SOL    HW237128   1.992   0.352   7.511  1.2877 -1.1496  1.0220
 8556SOL     OW37129   3.699   1.747   8.813  0.1938 -0.0384 -0.1700
 8556SOL    HW137130   3.625   1.785   8.765  0.8566 -0.4695 -1.5108
 8556SOL    HW237131   3.672   1.655   8.820 -0.7847  0.2742  0.2529
 8557SOL     OW37132   3.340   0.714   0.862  0.8280 -0.5868 -0.4550
 8557SOL    HW137133   3.399   0.741   0.792  1.0776 -1.1135 -0.4430
 8557SOL    HW237134   3.268   0.753   0.812 -0.0173 -0.9497  0.4602
 8558SOL     OW37135   2.660   0.804  12.373 -0.1946 -0.0139 -0.1065
 8558SOL    HW137136   2.622   0.790  12.460  0.1388  2.2179  0.3866
 8558SOL    HW237137   2.752   0.783  12.383 -0.2134 -0.3973 -0.6844
 8559SOL     OW37138   0.524   4.278  14.920 -0.1313 -0.0700  0.5381
 8559SOL    HW137139   0.490   4.365  14.941 -1.0407  0.0759 -1.4751
 8559SOL    HW237140   0.616   4.300  14.904  0.3923 -2.3804  0.3913
 8560SOL     OW37141   1.195   0.239   7.137  0.3267  0.8457 -0.0034
 8560SOL    HW137142   1.158   0.324   7.162  0.3736  0.5236  1.1378
 8560SOL    HW237143   1.283   0.246   7.174  0.9096  0.3680 -1.3052
 8561SOL     OW37144   1.374   0.768   1.630  0.3428  0.1568  0.5836
 8561SOL    HW137145   1.464   0.765   1.598 -0.0004 -0.9765 -0.2816
 8561SOL    HW237146   1.387   0.784   1.723  2.3432  1.0481  0.1554
 8562SOL     OW37147   4.591   3.314   4.722  0.4033 -0.0299 -0.1554
 8562SOL    HW137148   4.607   3.369   4.645 -2.0024  3.6158  1.9480
 8562SOL    HW237149   4.672   3.272   4.752  0.2382 -0.6908 -0.6310
 8563SOL     OW37150   0.328   2.525  12.160 -0.1793 -0.1155  0.4055
 8563SOL    HW137151   0.363   2.560  12.242  0.1411  0.0208  0.2107
 8563SOL    HW237152   0.288   2.447  12.198 -1.0027  0.4544  0.6993
 8564SOL     OW37153   3.405   2.826   3.392  0.3202 -0.1858 -0.1150
 8564SOL    HW137154   3.397   2.921   3.390  0.8302 -0.1827 -1.7091
 8564SOL    HW237155   3.337   2.804   3.455  0.3732  1.3537  0.4609
 8565SOL     OW37156   2.050   3.939   2.877 -0.4426  0.0893  0.4863
 8565SOL    HW137157   2.063   4.034   2.872  2.5477 -0.3793 -0.0964
 8565SOL    HW237158   1.990   3.936   2.952 -0.0826  0.9252  0.8099
 8566SOL     OW37159   2.508   0.698  16.956  0.0068  0.0679  0.3119
 8566SOL    HW137160   2.427   0.722  17.002  0.3634  0.1067  0.9284
 8566SOL    HW237161   2.488   0.684  16.864  1.0488  1.5269 -0.1349
 8567SOL     OW37162   2.698   1.341  14.583 -0.3802 -0.4853 -0.3300
 8567SOL    HW137163   2.648   1.375  14.508  0.5134 -0.5553 -0.9520
 8567SOL    HW237164   2.719   1.256  14.545 -0.0773  0.2894 -1.8710
 8568SOL     OW37165   2.663   3.855  13.018  0.5577 -0.5292 -0.3337
 8568SOL    HW137166   2.705   3.868  12.933 -0.4335  2.4143 -0.3630
 8568SOL    HW237167   2.615   3.938  13.015  0.6763 -0.4969 -1.2859
 8569SOL     OW37168   0.516   1.464   4.138 -0.5097  0.2505  0.1267
 8569SOL    HW137169   0.431   1.430   4.167  0.5706 -0.1012  2.8516
 8569SOL    HW237170   0.550   1.489   4.224 -0.1304  0.8997 -0.2192
 8570SOL     OW37171   3.827   1.607  12.438  0.7498 -0.4229 -0.0358
 8570SOL    HW137172   3.750   1.654  12.471  0.1072 -1.4683 -0.0475
 8570SOL    HW237173   3.849   1.547  12.509 -0.9780 -0.8367  0.1285
 8571SOL     OW37174   1.459   4.587   2.987 -0.8937  0.2436  0.0482
 8571SOL    HW137175   1.471   4.593   2.892  2.3208  0.4362  0.4615
 8571SOL    HW237176   1.551   4.598   3.011 -0.8036  0.6257 -0.4632
 8572SOL     OW37177   1.536   3.733   0.513 -0.0089 -0.5118 -0.2852
 8572SOL    HW137178   1.499   3.793   0.447 -2.2866 -1.7619 -0.1282
 8572SOL    HW237179   1.630   3.742   0.499 -0.1806 -0.9049 -1.7036
 8573SOL     OW37180   1.987   4.416   7.895  0.5088  0.0316 -0.0815
 8573SOL    HW137181   2.039   4.379   7.966  1.2454  0.7634 -0.2391
 8573SOL    HW237182   1.926   4.346   7.872 -0.1235  0.6447 -0.2735
 8574SOL     OW37183   1.227   4.252  12.441 -0.4620  0.3546  0.1027
 8574SOL    HW137184   1.287   4.323  12.465  1.2714 -1.2311  0.4779
 8574SOL    HW237185   1.222   4.216  12.529 -2.0582 -0.7034 -0.4279
 8575SOL     OW37186   2.328   4.337   3.303  0.5521  0.2639  0.6411
 8575SOL    HW137187   2.344   4.423   3.342  0.3655  1.3191 -1.6213
 8575SOL    HW237188   2.293   4.289   3.378 -2.9118  0.3712 -0.9086
 8576SOL     OW37189   0.545   3.710   2.828 -0.3214 -0.1715 -0.4056
 8576SOL    HW137190   0.455   3.678   2.837  0.2400 -1.2601  1.3478
 8576SOL    HW237191   0.551   3.724   2.734 -0.3710 -2.2496 -0.7159
 8577SOL     OW37192   4.644   0.747   5.691 -0.2091  0.1997  0.1491
 8577SOL    HW137193   4.579   0.783   5.631  0.0473 -2.8633 -1.9588
 8577SOL    HW237194   4.715   0.725   5.631  1.2514 -1.7674  2.5655
 8578SOL     OW37195   1.506   0.224   7.856 -0.4873  0.6098 -0.2266
 8578SOL    HW137196   1.598   0.248   7.859  0.0101 -1.4584  1.0345
 8578SOL    HW237197   1.504   0.197   7.764 -1.0265  0.2454 -0.1099
 8579SOL     OW37198   0.748   1.169   1.014  0.2639  0.0678 -0.0127
 8579SOL    HW137199   0.719   1.258   0.993  1.2364  0.0758 -1.3177
 8579SOL    HW237200   0.692   1.148   1.089  1.7528  0.6554  1.2682
 8580SOL     OW37201   4.442   0.248   7.966 -0.2914  0.0857 -0.4212
 8580SOL    HW137202   4.485   0.168   7.998 -0.7801 -0.9404 -2.3733
 8580SOL    HW237203   4.349   0.234   7.987  1.2279 -1.0763  5.6093
 8581SOL     OW37204   1.439   2.948   8.229 -0.4478 -0.0215  0.0975
 8581SOL    HW137205   1.397   3.032   8.209  2.3011  1.6339  1.2143
 8581SOL    HW237206   1.513   2.955   8.169  0.5635  0.4902  1.3841
 8582SOL     OW37207   0.620   2.480   8.273  0.0756 -0.1161  0.4789
 8582SOL    HW137208   0.590   2.465   8.183  2.4200 -0.0822 -0.2950
 8582SOL    HW237209   0.565   2.421   8.326 -1.9956  2.2518  0.9644
 8583SOL     OW37210   2.234   4.283  10.352  0.1602 -0.6077  0.3575
 8583SOL    HW137211   2.226   4.249  10.441  0.0726 -0.9571  0.2170
 8583SOL    HW237212   2.175   4.358  10.358 -0.9920 -1.0127 -5.3962
 8584SOL     OW37213   1.832   0.641   8.840  0.1706 -0.1500 -0.5449
 8584SOL    HW137214   1.850   0.590   8.761 -0.0328 -0.8593 -0.1400
 8584SOL    HW237215   1.908   0.621   8.895 -0.0361 -0.4475 -0.3678
 8585SOL     OW37216   4.586   4.632   3.363  0.5315 -0.5125 -0.0426
 8585SOL    HW137217   4.619   4.695   3.426  1.0394 -0.1639 -0.6609
 8585SOL    HW237218   4.509   4.681   3.335  0.8586  0.1659  0.2432
 8586SOL     OW37219   1.128   4.203   8.608  0.3488 -0.1624  0.1530
 8586SOL    HW137220   1.051   4.169   8.654 -0.4780  1.8082  0.2508
 8586SOL    HW237221   1.201   4.144   8.628  1.2653  0.1289 -2.2986
 8587SOL     OW37222   3.877   2.209   9.788  0.1769  0.1837  0.8943
 8587SOL    HW137223   3.805   2.170   9.738  0.5768  0.5503  0.0381
 8587SOL    HW237224   3.828   2.249   9.860  0.3211  0.7967  0.6536
 8588SOL     OW37225   0.510   2.662   4.217  0.5262  0.1282  0.0356
 8588SOL    HW137226   0.450   2.654   4.143  0.8797 -0.8371 -0.1427
 8588SOL    HW237227   0.587   2.623   4.175  1.0979  1.8615 -0.5577
 8589SOL     OW37228   4.204   0.492   6.244  0.3230  0.2816 -0.3324
 8589SOL    HW137229   4.264   0.557   6.208  0.6984 -0.0814 -0.3587
 8589SOL    HW237230   4.262   0.439   6.299 -1.0273 -0.5170  0.3414
 8590SOL     OW37231   1.004   0.665   4.180 -0.0542 -0.1612  0.1064
 8590SOL    HW137232   0.942   0.596   4.204 -1.6401  0.4019 -2.3981
 8590SOL    HW237233   1.004   0.661   4.085  0.3792  0.2461  0.0875
 8591SOL     OW37234   4.337   3.612   2.738  0.3139 -0.0512 -0.3313
 8591SOL    HW137235   4.431   3.601   2.723  0.4674  1.8176 -0.7748
 8591SOL    HW237236   4.308   3.524   2.714 -2.9235  0.9049  0.1012
 8592SOL     OW37237   1.980   3.827   5.563 -0.8862  0.5731  0.1421
 8592SOL    HW137238   1.968   3.756   5.500 -1.5011  0.5946  0.2406
 8592SOL    HW237239   2.047   3.879   5.518 -1.6487  1.3483 -0.0764
 8593SOL     OW37240   2.692   0.834   7.598  0.1045  0.4199  0.1349
 8593SOL    HW137241   2.724   0.752   7.635 -2.6926 -0.4281  0.6877
 8593SOL    HW237242   2.757   0.842   7.529  0.4756  0.8905  0.5409
 8594SOL     OW37243   2.234   2.208   3.995 -0.0240 -0.1503  0.2751
 8594SOL    HW137244   2.221   2.197   4.089  0.5792  1.0063  0.4998
 8594SOL    HW237245   2.149   2.181   3.959 -0.1229  0.7547 -0.1900
 8595SOL     OW37246   0.950   3.252  10.229  0.1500  0.0362  0.2866
 8595SOL    HW137247   0.953   3.337  10.273 -0.9929  0.6021 -0.7157
 8595SOL    HW237248   0.986   3.185  10.287 -1.5400 -1.3628 -0.2937
 8596SOL     OW37249   3.657   3.225  13.577  0.2594 -0.7950  0.1729
 8596SOL    HW137250   3.601   3.219  13.500 -1.4853  3.0180  1.1083
 8596SOL    HW237251   3.699   3.140  13.572  1.4008 -0.3881  2.9685
 8597SOL     OW37252   3.235   1.622   3.308  0.1337 -0.1150  0.0491
 8597SOL    HW137253   3.324   1.626   3.342 -0.5773  0.1579  1.8525
 8597SOL    HW237254   3.238   1.534   3.270 -2.9385  0.9377 -2.6584
 8598SOL     OW37255   3.110   0.334   0.459  0.2307  0.4475 -0.3271
 8598SOL    HW137256   3.023   0.297   0.472 -0.2066  0.8863 -2.0954
 8598SOL    HW237257   3.161   0.259   0.491 -4.4742 -1.9400  1.5890
 8599SOL     OW37258   1.210   4.336   3.899  0.3081  0.1592  0.0596
 8599SOL    HW137259   1.207   4.330   3.995 -1.0025  0.7404  0.0600
 8599SOL    HW237260   1.212   4.244   3.872  1.0986 -0.1117  1.0533
 8600SOL     OW37261   1.754   2.130   6.758 -0.4081  0.2669 -0.6000
 8600SOL    HW137262   1.660   2.135   6.775 -0.1478 -2.9253  1.7306
 8600SOL    HW237263   1.795   2.111   6.842 -1.9244 -1.2516 -0.2107
 8601SOL     OW37264   3.673   0.775   3.370 -0.3214  0.0741  0.0612
 8601SOL    HW137265   3.703   0.764   3.460  1.1928  0.5564 -0.3822
 8601SOL    HW237266   3.740   0.834   3.336 -0.3750  0.9614  1.5007
 8602SOL     OW37267   1.597   4.033   7.312 -0.0045  0.8356  0.3422
 8602SOL    HW137268   1.524   4.040   7.373  0.2501  0.5803  0.6795
 8602SOL    HW237269   1.575   3.941   7.297 -0.1720  0.8730  0.3637
 8603SOL     OW37270   3.801   0.109   1.973  0.2404 -0.7011  0.0741
 8603SOL    HW137271   3.705   0.109   1.981 -0.0276 -2.1851 -2.9997
 8603SOL    HW237272   3.799   0.086   1.880  2.1278 -0.2148 -0.0800
 8604SOL     OW37273   0.671   2.750   8.220 -0.1127 -0.1507 -0.4676
 8604SOL    HW137274   0.633   2.664   8.237 -0.2949  0.3850  1.9434
 8604SOL    HW237275   0.671   2.753   8.125  0.9932  2.1812 -0.3885
 8605SOL     OW37276   3.097   4.115  14.497 -0.3964  0.2900  0.7559
 8605SOL    HW137277   3.062   4.161  14.574 -1.1024  0.0704  0.5689
 8605SOL    HW237278   3.139   4.185  14.446  0.4628  0.0314  1.1090
 8606SOL     OW37279   1.125   1.264  13.875 -0.3964 -0.2380 -0.8687
 8606SOL    HW137280   1.133   1.187  13.818 -1.5522 -0.9899 -0.0332
 8606SOL    HW237281   1.184   1.246  13.948  0.7618 -0.1271 -1.7790
 8607SOL     OW37282   4.710   2.824   3.310 -0.0403  0.1087 -0.7298
 8607SOL    HW137283   4.651   2.753   3.290  0.1110 -0.3115  0.2838
 8607SOL    HW237284   4.712   2.878   3.231 -1.2547  0.0625 -0.7803
 8608SOL     OW37285   2.691   3.189  13.469 -0.0223  0.1978 -0.4019
 8608SOL    HW137286   2.607   3.225  13.498 -0.5566  0.1985 -1.9332
 8608SOL    HW237287   2.691   3.196  13.374 -2.5838  1.7169 -0.3011
 8609SOL     OW37288   3.735   1.079   5.807  0.5302 -0.1900  0.1883
 8609SOL    HW137289   3.761   1.060   5.896 -0.2191 -2.6975 -0.1483
 8609SOL    HW237290   3.779   1.012   5.755 -0.9830  0.0904 -1.4890
 8610SOL     OW37291   4.410   4.450   1.894 -0.2627 -0.9258 -0.2614
 8610SOL    HW137292   4.404   4.440   1.799  0.5360 -0.5682 -0.3464
 8610SOL    HW237293   4.386   4.541   1.909 -0.6567 -0.8169 -1.5059
 8611SOL     OW37294   0.345   2.696   7.333 -0.2558  0.5145 -0.1341
 8611SOL    HW137295   0.310   2.698   7.244 -0.2807 -2.3092 -0.1867
 8611SOL    HW237296   0.416   2.633   7.325  0.1201  0.6771  1.8639
 8612SOL     OW37297   0.900   4.107   3.902  0.4120  0.1675 -0.9861
 8612SOL    HW137298   0.914   4.126   3.809  0.5434  1.2870 -0.7471
 8612SOL    HW237299   0.863   4.193   3.924 -1.2840 -1.0395  0.8450
 8613SOL     OW37300   3.662   1.204   0.117  0.3979 -0.0046 -0.2182
 8613SOL    HW137301   3.590   1.143   0.134  0.1631  0.4051  0.2354
 8613SOL    HW237302   3.614   1.285   0.103 -0.6302 -0.9718 -2.3928
 8614SOL     OW37303   2.367   1.186   5.285 -0.7060  0.0873 -0.3011
 8614SOL    HW137304   2.288   1.152   5.243  0.0889  1.2767 -2.7558
 8614SOL    HW237305   2.387   1.110   5.341  0.7853  0.7846  0.1277
 8615SOL     OW37306   4.269   2.682   4.483  0.1350 -0.5667 -0.5810
 8615SOL    HW137307   4.322   2.735   4.542 -0.3534  0.1788 -0.8113
 8615SOL    HW237308   4.337   2.670   4.417  1.6511  2.8208  0.3449
 8616SOL     OW37309   3.527   1.512   9.449  0.7232  0.5905  0.0832
 8616SOL    HW137310   3.466   1.467   9.507  1.5293 -0.1299  0.3758
 8616SOL    HW237311   3.466   1.568   9.401 -0.9590  1.3271  3.1278
 8617SOL     OW37312   3.294   1.670   7.140  0.2030 -0.3782 -0.2173
 8617SOL    HW137313   3.306   1.750   7.191 -1.0218 -1.4292  1.7151
 8617SOL    HW237314   3.338   1.609   7.200  2.2780  0.0582 -1.3092
 8618SOL     OW37315   4.707   0.708   9.163  0.6058 -0.4744 -0.3220
 8618SOL    HW137316   0.002   0.797   9.132  0.9289 -0.6921 -0.7349
 8618SOL    HW237317   0.034   0.654   9.104  2.1011  1.1042 -0.4632
 8619SOL     OW37318   1.799   1.555   7.249 -0.5125 -0.5493 -0.4584
 8619SOL    HW137319   1.873   1.498   7.267 -0.1969 -0.1322 -0.4372
 8619SOL    HW237320   1.721   1.501   7.261 -1.0382  0.2008 -0.5018
 8620SOL     OW37321   4.352   2.245   4.889  0.0639  0.1119  0.8421
 8620SOL    HW137322   4.352   2.170   4.829  0.5067 -0.0945  1.0954
 8620SOL    HW237323   4.417   2.230   4.958  0.3713 -2.8861 -0.0757
 8621SOL     OW37324   3.365   4.330   2.855  0.2179  0.3379 -0.2847
 8621SOL    HW137325   3.446   4.281   2.868  0.8446  1.3388 -0.4386
 8621SOL    HW237326   3.381   4.398   2.920  0.4946 -1.1506  1.2042
 8622SOL     OW37327   1.245   2.761   7.085  0.1664 -0.1076  0.5211
 8622SOL    HW137328   1.305   2.701   7.040  0.0993  0.2401 -0.0285
 8622SOL    HW237329   1.176   2.755   7.019 -0.3287  0.0785  1.0324
 8623SOL     OW37330   4.188   1.198  15.982 -0.0475  0.0640  0.0839
 8623SOL    HW137331   4.271   1.235  15.951 -0.9076  1.6611 -0.3545
 8623SOL    HW237332   4.169   1.249  16.061 -1.5882  1.8742 -1.4274
 8624SOL     OW37333   1.639   1.986   2.279 -0.4009 -0.3465 -0.2729
 8624SOL    HW137334   1.718   1.977   2.225 -0.5392 -1.0050 -0.3643
 8624SOL    HW237335   1.569   1.957   2.220 -0.0218  0.7984 -1.2907
 8625SOL     OW37336   4.001   0.444  16.183  0.0999  0.1367 -0.3127
 8625SOL    HW137337   4.029   0.372  16.126 -0.5652 -0.2763 -0.1099
 8625SOL    HW237338   3.959   0.493  16.113 -0.8875 -0.4308 -0.1089
 8626SOL     OW37339   0.798   4.088  14.145 -0.0978  0.0834 -0.2737
 8626SOL    HW137340   0.828   4.177  14.126 -0.4965  0.3213  0.1904
 8626SOL    HW237341   0.866   4.062  14.208 -0.3768  0.8432  0.3487
 8627SOL     OW37342   1.982   3.867  13.010 -0.4101  0.8761 -0.0073
 8627SOL    HW137343   1.903   3.913  13.039 -1.1760 -0.9594  0.8358
 8627SOL    HW237344   1.982   3.791  13.068  1.7503 -1.4828 -3.1120
 8628SOL     OW37345   4.035   0.429   7.322  0.3713 -0.7839 -0.1311
 8628SOL    HW137346   4.046   0.465   7.234  1.5742 -1.9916 -0.4882
 8628SOL    HW237347   3.973   0.358   7.304  1.9687 -1.7264 -2.0313
 8629SOL     OW37348   2.310   4.264   8.750  0.3001 -0.1691  0.6634
 8629SOL    HW137349   2.255   4.277   8.827 -1.2656  0.2782 -0.5297
 8629SOL    HW237350   2.391   4.304   8.783  1.1111 -0.0804 -1.4627
 8630SOL     OW37351   1.779   1.022   4.913  0.0326 -0.2478 -0.2567
 8630SOL    HW137352   1.720   1.024   4.988  1.1709  0.7186  0.6055
 8630SOL    HW237353   1.853   0.991   4.965  0.1052  1.8564  0.8880
 8631SOL     OW37354   0.569   0.603   2.436 -0.2969 -0.0208  0.0108
 8631SOL    HW137355   0.617   0.590   2.354 -2.0837 -0.9447 -0.9086
 8631SOL    HW237356   0.494   0.657   2.409 -1.1683 -1.7960 -1.1269
 8632SOL     OW37357   0.449   3.624  14.842 -0.3048  0.5034 -0.5887
 8632SOL    HW137358   0.452   3.549  14.782 -2.5650  0.7408 -1.0185
 8632SOL    HW237359   0.427   3.695  14.782  0.1972  0.3860 -0.9140
 8633SOL     OW37360   4.554   0.442   0.818 -0.4393 -0.5448 -0.3896
 8633SOL    HW137361   4.580   0.512   0.758  0.8744 -1.5912 -1.0412
 8633SOL    HW237362   4.551   0.365   0.761 -1.0655 -1.5117  0.9323
 8634SOL     OW37363   4.441   2.231   2.475 -0.3877 -0.0433 -0.0741
 8634SOL    HW137364   4.395   2.264   2.398  2.2733  1.9212 -0.8383
 8634SOL    HW237365   4.516   2.201   2.423  0.0608 -1.4599  1.3886
 8635SOL     OW37366   2.564   3.350   2.119 -0.0064 -0.5764  0.0607
 8635SOL    HW137367   2.510   3.414   2.072  2.0699  1.0808 -0.0878
 8635SOL    HW237368   2.557   3.375   2.211  1.9182 -0.9660  0.3187
 8636SOL     OW37369   1.212   4.333  11.974 -0.1736  0.1144  0.1052
 8636SOL    HW137370   1.268   4.410  11.959 -0.7351  0.5674  0.3588
 8636SOL    HW237371   1.268   4.259  11.997 -0.0574  0.1210 -0.1565
 8637SOL     OW37372   2.848   1.605  13.473  0.5464 -0.1110  0.3856
 8637SOL    HW137373   2.792   1.540  13.430  0.4072  0.6108 -0.5134
 8637SOL    HW237374   2.898   1.645  13.402  0.7410 -1.4713 -0.2511
 8638SOL     OW37375   1.218   4.437   2.530  0.3038 -0.0400  0.4437
 8638SOL    HW137376   1.182   4.522   2.507  0.6816  0.3478  1.2688
 8638SOL    HW237377   1.253   4.411   2.445 -0.5727  1.1640 -0.2822
 8639SOL     OW37378   1.459   4.297   8.821 -0.5971 -0.3795 -0.0940
 8639SOL    HW137379   1.503   4.380   8.843  3.2703 -1.7998 -2.4205
 8639SOL    HW237380   1.399   4.284   8.894 -2.9658  0.9508 -1.8184
 8640SOL     OW37381   2.488   1.445   5.614  1.2858 -0.0510 -0.4341
 8640SOL    HW137382   2.434   1.441   5.535  0.9582  0.2648 -0.2225
 8640SOL    HW237383   2.554   1.511   5.589  2.4752 -1.4737 -1.0526
 8641SOL     OW37384   4.252   4.338   3.368  0.0810  0.2766  0.5008
 8641SOL    HW137385   4.259   4.410   3.430 -1.3181  2.5440 -1.9872
 8641SOL    HW237386   4.326   4.285   3.399  1.0960 -0.0155 -2.4303
 8642SOL     OW37387   1.802   0.318   8.216 -0.1321  0.2785  0.5883
 8642SOL    HW137388   1.732   0.375   8.249  1.0942  1.3338  1.3492
 8642SOL    HW237389   1.873   0.381   8.206 -1.5743  1.9047  0.5346
 8643SOL     OW37390   2.075   2.669  14.993  0.1402 -0.2537 -0.2021
 8643SOL    HW137391   2.090   2.665  14.898  0.5423 -4.1494  0.0188
 8643SOL    HW237392   2.079   2.761  15.018  1.2636 -0.5712  0.7810
 8644SOL     OW37393   1.366   4.637   2.728  0.4447  0.9763 -0.1339
 8644SOL    HW137394   1.297   4.703   2.717  1.2679  1.9221  0.3250
 8644SOL    HW237395   1.315   4.560   2.703  2.6719 -0.4812 -0.1001
 8645SOL     OW37396   0.610   2.092   8.983  0.8665 -0.0421  0.2065
 8645SOL    HW137397   0.700   2.061   8.989  1.0746  0.3739 -0.7815
 8645SOL    HW237398   0.559   2.011   8.984 -1.2784  1.2874  0.4692
 8646SOL     OW37399   1.293   2.748   4.165  0.1359 -0.0907 -0.6087
 8646SOL    HW137400   1.252   2.806   4.101  0.1943  2.3281  1.5718
 8646SOL    HW237401   1.320   2.679   4.104  4.7449  0.6840  0.5215
 8647SOL     OW37402   3.575   3.554   2.256  0.6385  0.0125 -0.2108
 8647SOL    HW137403   3.624   3.474   2.272  2.3570  0.9336 -0.8714
 8647SOL    HW237404   3.519   3.532   2.182  1.6729  2.1226 -1.6317
 8648SOL     OW37405   0.794   1.472  10.897  0.0672 -0.5078 -0.9306
 8648SOL    HW137406   0.735   1.543  10.920 -0.4258 -1.1246 -0.2745
 8648SOL    HW237407   0.876   1.487  10.946 -0.3541  0.2909 -0.4738
 8649SOL     OW37408   1.443   4.526  11.559 -0.4971  0.5894 -0.3062
 8649SOL    HW137409   1.522   4.542  11.507  1.0341 -1.7306  1.2882
 8649SOL    HW237410   1.379   4.564  11.498 -0.1080  1.0724 -0.4155
 8650SOL     OW37411   4.669   1.510  11.968  0.1603 -0.6343  0.8310
 8650SOL    HW137412   4.655   1.508  12.063 -1.8981  1.0905  0.5703
 8650SOL    HW237413   0.039   1.505  11.964  0.2654  1.3619  0.6747
 8651SOL     OW37414   0.149   1.623   5.424 -0.1620 -0.2060 -0.4158
 8651SOL    HW137415   0.236   1.659   5.414  0.1956 -0.3009  2.3826
 8651SOL    HW237416   0.119   1.630   5.333  0.9935 -1.8931 -0.9320
 8652SOL     OW37417   0.548   2.972   5.866  0.2371  0.2495 -0.4589
 8652SOL    HW137418   0.513   3.042   5.812  0.8554  1.3871  0.5952
 8652SOL    HW237419   0.492   2.896   5.853  0.8449 -0.2560 -0.1346
 8653SOL     OW37420   0.809   3.093   3.662  0.1618 -0.3804 -0.1644
 8653SOL    HW137421   0.725   3.050   3.646  0.4122 -0.6708 -0.7346
 8653SOL    HW237422   0.783   3.184   3.678  0.9363 -0.0399 -0.8239
 8654SOL     OW37423   3.527   2.903   2.592  0.3225  0.1579 -0.0508
 8654SOL    HW137424   3.464   2.942   2.531  0.2555  1.5048  0.8815
 8654SOL    HW237425   3.475   2.910   2.671 -2.5497 -1.4925 -1.8139
 8655SOL     OW37426   1.181   2.886   5.027  0.0413  0.8736  0.4806
 8655SOL    HW137427   1.113   2.847   5.082 -1.3174 -0.1442 -1.9255
 8655SOL    HW237428   1.185   2.813   4.965  0.3537  0.6516  0.7598
 8656SOL     OW37429   4.499   4.462   4.464 -0.2982  0.3392  0.4060
 8656SOL    HW137430   4.435   4.397   4.435  1.0881 -0.1168 -1.6487
 8656SOL    HW237431   4.518   4.434   4.553 -1.4838  2.6304  1.3774
 8657SOL     OW37432   3.565   1.474   7.579  0.0762 -0.2873  0.1160
 8657SOL    HW137433   3.567   1.380   7.599 -1.6992 -0.3048  0.1777
 8657SOL    HW237434   3.633   1.482   7.512  1.2304 -2.5276  1.0084
 8658SOL     OW37435   4.558   1.821   3.221 -0.6736  0.4346  0.2915
 8658SOL    HW137436   4.641   1.786   3.189 -0.9018  0.5498 -0.4349
 8658SOL    HW237437   4.547   1.776   3.305 -2.9302 -0.9720 -0.7422
 8659SOL     OW37438   1.209   0.587   1.963  0.1887 -0.0771 -0.3348
 8659SOL    HW137439   1.296   0.622   1.981 -0.0379 -0.9458  2.3991
 8659SOL    HW237440   1.228   0.531   1.888 -2.0543  2.5593 -2.9059
 8660SOL     OW37441   4.167   4.536   7.717 -0.1257  0.5484 -0.0625
 8660SOL    HW137442   4.250   4.581   7.704  0.8809 -1.0931  0.6173
 8660SOL    HW237443   4.157   4.530   7.812 -1.1938 -1.9454 -0.3142
 8661SOL     OW37444   1.249   2.892   2.403  0.6878  0.3527 -0.1253
 8661SOL    HW137445   1.234   2.891   2.309  1.0443 -1.6366 -0.1690
 8661SOL    HW237446   1.316   2.961   2.408  0.7787  0.3814 -1.8298
 8662SOL     OW37447   1.645   3.039   7.438 -0.3218 -0.7981 -0.2309
 8662SOL    HW137448   1.646   2.973   7.508 -0.9358  1.3793  1.8554
 8662SOL    HW237449   1.552   3.054   7.422  0.0622  3.8051  2.0161
 8663SOL     OW37450   2.775   3.220   4.195 -0.5187  0.2935  0.0080
 8663SOL    HW137451   2.837   3.289   4.174 -0.3944 -0.2573 -1.3990
 8663SOL    HW237452   2.807   3.147   4.142 -0.1888  0.1069  0.4699
 8664SOL     OW37453   2.306   1.312   8.023  0.5890 -0.6070 -0.7049
 8664SOL    HW137454   2.322   1.276   8.111  0.8463  3.0577  0.7695
 8664SOL    HW237455   2.217   1.282   8.005  1.3055 -2.4891 -1.1018
 8665SOL     OW37456   4.047   3.159   2.839 -0.3785  0.5685 -0.2481
 8665SOL    HW137457   3.973   3.102   2.860 -0.0987  1.0651  2.1140
 8665SOL    HW237458   4.077   3.138   2.751 -1.3412 -0.8741 -0.2234
 8666SOL     OW37459   0.249   0.547   4.154 -0.0447  0.4831 -0.1586
 8666SOL    HW137460   0.321   0.609   4.154  0.5177 -0.1379  2.6522
 8666SOL    HW237461   0.241   0.539   4.250  2.3141  0.2548  0.0017
 8667SOL     OW37462   4.098   3.763  17.171  1.2562  0.0234  0.5585
 8667SOL    HW137463   4.133   3.852  17.180  0.7065  0.2932 -0.0003
 8667SOL    HW237464   4.071   3.745  17.261  0.4530 -0.7243  0.1606
 8668SOL     OW37465   2.467   4.195   4.632  0.1417 -0.1919 -0.5854
 8668SOL    HW137466   2.528   4.223   4.701 -0.6995 -1.9810  0.8809
 8668SOL    HW237467   2.513   4.122   4.590  0.4694 -0.1793 -0.2448
 8669SOL     OW37468   0.648   2.693   4.868  0.0668  0.3891 -0.5104
 8669SOL    HW137469   0.645   2.787   4.852 -0.9811  0.4282 -0.0957
 8669SOL    HW237470   0.685   2.688   4.957 -1.6399 -0.0463  0.1799
 8670SOL     OW37471   2.798   4.111   5.653 -0.1006 -0.1551  0.5108
 8670SOL    HW137472   2.851   4.170   5.706  0.3780  1.2572 -1.5261
 8670SOL    HW237473   2.777   4.157   5.572  2.6341  2.8331  1.4923
 8671SOL     OW37474   4.177   1.114   3.410  0.3151  0.6263  0.1540
 8671SOL    HW137475   4.092   1.157   3.397 -0.6874 -1.2088  0.5594
 8671SOL    HW237476   4.211   1.178   3.472  0.4031 -0.5740  1.3648
 8672SOL     OW37477   2.995   3.713  12.472 -0.0569 -0.2238 -0.2772
 8672SOL    HW137478   2.955   3.780  12.528 -1.9324 -1.8013  0.2410
 8672SOL    HW237479   3.045   3.762  12.407 -2.4404  2.5504 -0.0073
 8673SOL     OW37480   0.658   3.116   1.518  1.3558 -0.2094  0.3311
 8673SOL    HW137481   0.593   3.122   1.589  1.0678 -1.5568  0.1860
 8673SOL    HW237482   0.607   3.124   1.437 -0.9002  1.8392  1.9689
 8674SOL     OW37483   4.211   1.390   3.447  0.4499 -0.2279  0.5467
 8674SOL    HW137484   4.161   1.440   3.512  1.4125 -0.6139  1.5888
 8674SOL    HW237485   4.293   1.436   3.466  0.0549  1.3163 -1.5598
 8675SOL     OW37486   2.067   2.562   5.515 -0.2234 -0.6029  0.0510
 8675SOL    HW137487   2.125   2.599   5.582  1.9616 -2.2142 -0.9551
 8675SOL    HW237488   2.037   2.487   5.567 -0.2826 -2.1544 -2.2406
 8676SOL     OW37489   3.614   2.264  15.741 -0.9951  0.8842 -0.0916
 8676SOL    HW137490   3.600   2.344  15.691  1.3311  2.7212  2.2233
 8676SOL    HW237491   3.640   2.202  15.673  1.3148  0.4038  1.2024
 8677SOL     OW37492   2.821   3.915   9.457  0.0333 -0.5914  0.2982
 8677SOL    HW137493   2.810   3.883   9.546  2.8758 -0.0457  0.8491
 8677SOL    HW237494   2.914   3.939   9.459 -0.4260  1.1783  0.3389
 8678SOL     OW37495   0.754   2.217  11.986 -0.3575 -0.4513 -0.1715
 8678SOL    HW137496   0.712   2.138  12.022  2.3953 -1.7204  0.2614
 8678SOL    HW237497   0.683   2.279  11.971  0.2731  0.6279  1.2733
 8679SOL     OW37498   2.543   1.759  16.173 -0.1947 -0.2389  0.4188
 8679SOL    HW137499   2.541   1.854  16.164 -0.5409 -0.4200 -1.4215
 8679SOL    HW237500   2.450   1.745  16.153 -0.2905 -0.1382  0.7999
 8680SOL     OW37501   0.550   4.714   8.447  0.1767  0.0362  0.0247
 8680SOL    HW137502   0.471   0.006   8.396  0.9502 -1.2600 -1.5861
 8680SOL    HW237503   0.532   0.048   8.520  2.7290  1.3499 -0.3840
 8681SOL     OW37504   4.164   0.672  16.622 -0.4930 -0.1834  0.2540
 8681SOL    HW137505   4.143   0.676  16.529  0.1143  1.5105  0.1929
 8681SOL    HW237506   4.131   0.583  16.634 -0.7220  0.1686  2.1653
 8682SOL     OW37507   3.392   0.372   3.686 -1.1868 -0.0077  0.2442
 8682SOL    HW137508   3.364   0.441   3.626  3.4526  0.6784 -1.1244
 8682SOL    HW237509   3.380   0.417   3.770 -3.4033 -2.4497  1.2553
 8683SOL     OW37510   2.056   0.151   6.454  0.0608  0.2524 -0.0007
 8683SOL    HW137511   2.027   0.239   6.480 -0.5028  0.6412 -1.9726
 8683SOL    HW237512   1.972   0.125   6.416 -0.3204  0.4927  0.6816
 8684SOL     OW37513   4.194   3.636   3.345  0.3276  0.0224 -0.4084
 8684SOL    HW137514   4.110   3.676   3.366 -0.4405 -0.1226 -3.2250
 8684SOL    HW237515   4.175   3.615   3.254 -0.0192 -0.6937 -0.1755
 8685SOL     OW37516   3.302   2.771   4.089  0.7496 -0.3417  0.3300
 8685SOL    HW137517   3.375   2.832   4.101  1.0569 -0.2384 -1.8924
 8685SOL    HW237518   3.293   2.793   3.996 -0.5744 -0.2783  0.4794
 8686SOL     OW37519   0.960   2.264   9.737 -0.6518 -0.6718 -0.1636
 8686SOL    HW137520   0.880   2.265   9.789 -1.1884  0.8630 -1.0209
 8686SOL    HW237521   0.998   2.178   9.755 -0.1209 -0.3309  0.3596
 8687SOL     OW37522   2.146   2.568  17.151  0.3615  0.6283 -0.3918
 8687SOL    HW137523   2.111   2.571  17.240  1.3021  0.8279 -0.0312
 8687SOL    HW237524   2.118   2.654  17.118  2.5519  1.2466 -0.6273
 8688SOL     OW37525   3.812   1.645   7.828 -0.0031 -0.4117 -0.4783
 8688SOL    HW137526   3.838   1.722   7.777 -0.1797  1.0295  1.6132
 8688SOL    HW237527   3.890   1.628   7.881  0.2058  0.2604 -0.5687
 8689SOL     OW37528   4.366   3.425   2.460  0.1551  0.3053  0.6548
 8689SOL    HW137529   4.286   3.425   2.513 -0.4871 -2.1368 -0.3128
 8689SOL    HW237530   4.334   3.465   2.378  1.5138  1.1384  0.5265
 8690SOL     OW37531   0.675   3.781   4.842  0.3115  0.2017 -0.6026
 8690SOL    HW137532   0.617   3.728   4.788  0.1996  1.2608 -1.5190
 8690SOL    HW237533   0.761   3.740   4.829 -0.4178 -2.1498  1.9606
 8691SOL     OW37534   4.159   1.762   4.245  0.3686  0.3453 -0.2747
 8691SOL    HW137535   4.116   1.742   4.162 -0.5540 -1.0638  0.5427
 8691SOL    HW237536   4.092   1.723   4.300 -0.8246  0.6285 -1.5307
 8692SOL     OW37537   3.571   3.702   7.624 -0.1446 -0.4121  0.2901
 8692SOL    HW137538   3.645   3.665   7.673 -0.3726  1.2627  1.9041
 8692SOL    HW237539   3.522   3.621   7.610  2.0739 -2.3293  3.5561
 8693SOL     OW37540   2.175   1.714   6.591  0.1214  0.0714  0.1931
 8693SOL    HW137541   2.238   1.740   6.524  0.2300 -0.6733  0.0070
 8693SOL    HW237542   2.101   1.769   6.566 -0.7646 -1.4084 -0.4700
 8694SOL     OW37543   2.451   0.487   2.973  0.1079 -0.2009  0.1773
 8694SOL    HW137544   2.480   0.578   2.979 -0.7332  0.0638  0.3167
 8694SOL    HW237545   2.491   0.472   2.888  2.4466  2.2220  0.8491
 8695SOL     OW37546   1.749   1.070   3.575  0.3680 -0.6957 -0.1463
 8695SOL    HW137547   1.833   1.092   3.616  1.0406 -1.0892 -1.2893
 8695SOL    HW237548   1.724   0.999   3.634  0.8239  0.3622  1.3166
 8696SOL     OW37549   0.908   1.256   9.697 -0.2307 -0.5056  0.0554
 8696SOL    HW137550   0.956   1.267   9.615 -0.6473  1.4280  0.0712
 8696SOL    HW237551   0.913   1.350   9.715  2.1043 -1.1933  2.8806
 8697SOL     OW37552   1.075   0.757   8.061  0.5897 -0.2279 -0.2429
 8697SOL    HW137553   1.060   0.722   8.148  2.1815 -2.2913 -0.7968
 8697SOL    HW237554   1.125   0.680   8.034  0.0747 -0.8695  0.6320
 8698SOL     OW37555   3.226   1.155  12.502 -0.3472  0.2883 -0.0637
 8698SOL    HW137556   3.196   1.077  12.548  1.6771 -1.4504 -1.6487
 8698SOL    HW237557   3.153   1.216  12.509 -0.4529  0.4247 -2.1598
 8699SOL     OW37558   2.707   1.152   8.350 -0.0767  0.1537  0.2809
 8699SOL    HW137559   2.699   1.206   8.428 -2.1229 -0.3957  0.4601
 8699SOL    HW237560   2.733   1.067   8.387 -0.3087 -0.9000 -1.9706
 8700SOL     OW37561   1.283   1.768  12.693 -0.0665  0.0871  0.2451
 8700SOL    HW137562   1.232   1.805  12.621 -0.9536  0.0254  0.8424
 8700SOL    HW237563   1.279   1.675  12.673  1.4153  0.4884 -1.9254
 8701SOL     OW37564   0.264   2.345  11.778 -0.0119 -0.0993  0.1600
 8701SOL    HW137565   0.279   2.345  11.683 -1.3791 -0.3806 -0.0576
 8701SOL    HW237566   0.305   2.430  11.792 -2.3837  1.1344 -0.3419
 8702SOL     OW37567   2.570   4.334   5.291  0.4816 -0.1942 -0.1090
 8702SOL    HW137568   2.591   4.427   5.296  0.2071 -0.1583  0.3669
 8702SOL    HW237569   2.650   4.292   5.325 -0.9044 -1.8172  1.1381
 8703SOL     OW37570   0.642   0.748   7.710 -0.4808  0.4490  0.4992
 8703SOL    HW137571   0.578   0.677   7.715 -1.4221  1.2033 -1.0544
 8703SOL    HW237572   0.588   0.820   7.744 -2.8973 -0.4822 -1.3935
 8704SOL     OW37573   1.471   3.883   0.283  0.1430 -0.2051  0.3382
 8704SOL    HW137574   1.439   3.960   0.329  1.3780  0.6022 -0.1623
 8704SOL    HW237575   1.391   3.855   0.239 -0.1716  2.0205 -0.5065
 8705SOL     OW37576   3.880   0.189  16.769 -0.6294 -0.5128  0.0471
 8705SOL    HW137577   3.900   0.256  16.835 -1.8955 -0.5560  0.4713
 8705SOL    HW237578   3.787   0.206  16.756 -0.7678 -1.8732 -0.7235
 8706SOL     OW37579   1.405   3.662  12.962 -0.1215 -0.1672 -0.4868
 8706SOL    HW137580   1.335   3.712  13.005  0.2588 -1.2939  1.4321
 8706SOL    HW237581   1.477   3.708  13.006  0.8285  1.2085 -3.4787
 8707SOL     OW37582   2.168   3.550   1.800 -0.0331 -0.5657 -0.4328
 8707SOL    HW137583   2.109   3.617   1.766  0.6683  0.0667 -0.4053
 8707SOL    HW237584   2.105   3.478   1.815 -2.4768  1.8701  1.0861
 8708SOL     OW37585   0.167   0.067   4.574 -0.5584 -0.0957 -0.6560
 8708SOL    HW137586   0.207   0.014   4.642 -0.3222 -1.2050 -1.6580
 8708SOL    HW237587   0.094   0.095   4.629 -1.0370 -2.3170 -0.1953
 8709SOL     OW37588   1.194   3.459   3.580 -0.0995  0.1706  0.6642
 8709SOL    HW137589   1.202   3.485   3.488  1.2711 -0.1661  0.6786
 8709SOL    HW237590   1.154   3.541   3.608 -0.8595  0.0975 -0.2015
 8710SOL     OW37591   3.386   3.372   7.058 -0.3497  0.0295  0.2975
 8710SOL    HW137592   3.332   3.404   6.985 -0.5474  0.3534  0.5865
 8710SOL    HW237593   3.340   3.409   7.133  1.5367  1.1683  0.8879
 8711SOL     OW37594   4.191   0.733   3.032  0.1075 -0.1335  0.1328
 8711SOL    HW137595   4.149   0.649   3.053  1.7091 -0.3939  2.3414
 8711SOL    HW237596   4.257   0.737   3.102  0.4859  2.2987 -0.3422
 8712SOL     OW37597   4.406   3.453   6.480  0.2833 -0.4672  0.0141
 8712SOL    HW137598   4.326   3.404   6.461 -0.4310  0.1193  1.5222
 8712SOL    HW237599   4.412   3.495   6.395  3.5572 -0.1369  0.4149
 8713SOL     OW37600   4.424   1.311  15.884 -0.1320 -0.0585  0.0924
 8713SOL    HW137601   4.437   1.360  15.965 -1.3594  0.2310  0.1074
 8713SOL    HW237602   4.513   1.296  15.852 -0.4781  1.5515 -1.5514
 8714SOL     OW37603   1.957   1.607   1.518 -0.1596  0.2890  0.3795
 8714SOL    HW137604   1.952   1.701   1.534  0.1808  0.8429 -2.6647
 8714SOL    HW237605   2.039   1.583   1.560 -1.0350  0.5306  2.1880
 8715SOL     OW37606   1.569   3.837   7.973  0.3399  0.2936  0.2676
 8715SOL    HW137607   1.491   3.822   7.920  0.5411  0.0892  0.0291
 8715SOL    HW237608   1.561   3.925   8.010 -1.2378  0.4529 -0.4574
 8716SOL     OW37609   1.427   1.184   4.811  0.5048 -0.7673 -0.7584
 8716SOL    HW137610   1.432   1.119   4.882 -3.0505 -0.1108  0.1198
 8716SOL    HW237611   1.368   1.146   4.746  0.5224 -1.0022 -0.6385
 8717SOL     OW37612   4.632   2.901   9.076  0.2196  0.2674 -0.0714
 8717SOL    HW137613   4.640   2.886   9.170 -0.5035  0.3791  0.0087
 8717SOL    HW237614   4.652   2.816   9.037 -0.6590 -0.6163  1.4025
 8718SOL     OW37615   2.285   4.410  15.796 -0.3252  0.4864 -0.3492
 8718SOL    HW137616   2.280   4.335  15.855 -1.1400 -0.4366 -1.6148
 8718SOL    HW237617   2.208   4.460  15.826 -1.4763 -1.7914  0.4766
 8719SOL     OW37618   4.325   2.783   9.350  0.5038  0.4663  0.3895
 8719SOL    HW137619   4.370   2.866   9.328 -2.8497  2.4076  0.9147
 8719SOL    HW237620   4.380   2.739   9.414  1.1523 -1.8457 -1.7584
 8720SOL     OW37621   2.222   0.488   4.489  0.9424  0.1223 -0.0342
 8720SOL    HW137622   2.235   0.511   4.397 -1.7185 -0.4828 -0.5734
 8720SOL    HW237623   2.213   0.393   4.476  3.2445 -0.0777 -0.2120
 8721SOL     OW37624   2.349   1.209   8.298 -0.6998 -0.0449 -0.6938
 8721SOL    HW137625   2.401   1.275   8.343 -0.2131 -0.8809 -0.0278
 8721SOL    HW237626   2.422   1.154   8.271 -1.8309 -1.2024 -1.4074
 8722SOL     OW37627   3.608   1.196   7.307  0.2944  0.2092 -0.1264
 8722SOL    HW137628   3.525   1.242   7.305  1.0395  1.6130  2.2626
 8722SOL    HW237629   3.603   1.135   7.380 -0.6003 -0.3020 -0.6109
 8723SOL     OW37630   0.358   3.431   6.341  0.3125  0.3603  0.1439
 8723SOL    HW137631   0.288   3.443   6.277  1.0337  0.9663 -0.5285
 8723SOL    HW237632   0.394   3.519   6.332  1.3508 -0.2675 -1.7316
 8724SOL     OW37633   0.300   0.127   4.160 -0.4805 -0.0989 -0.1182
 8724SOL    HW137634   0.393   0.131   4.182 -0.9515  1.1545  1.6464
 8724SOL    HW237635   0.263   0.151   4.245 -2.3269 -1.1092 -0.6324
 8725SOL     OW37636   3.107   0.935   9.026 -0.1556 -0.1040 -0.1044
 8725SOL    HW137637   3.172   0.865   9.027  1.7503  1.6729 -0.1749
 8725SOL    HW237638   3.085   0.947   8.933  1.1071  0.8723 -0.2810
 8726SOL     OW37639   1.503   0.423  12.042  0.3549  0.4168  0.2625
 8726SOL    HW137640   1.568   0.380  11.987  0.3957 -0.8867  1.3209
 8726SOL    HW237641   1.556   0.408  12.120  1.7455  0.3315 -0.6872
 8727SOL     OW37642   3.610   2.031   2.998  0.5763 -0.5771 -0.2045
 8727SOL    HW137643   3.664   2.077   3.062  1.4476 -1.1823 -0.5024
 8727SOL    HW237644   3.647   2.054   2.913 -0.4742 -0.5665 -0.6631
 8728SOL     OW37645   0.628   2.926   3.028 -0.3444 -0.8989 -0.0632
 8728SOL    HW137646   0.647   2.973   2.947 -0.4389 -0.8145 -0.0369
 8728SOL    HW237647   0.619   2.833   3.007  0.1386 -0.9849  0.1146
 8729SOL     OW37648   0.287   0.280   1.641 -0.2915 -0.7291 -0.3129
 8729SOL    HW137649   0.302   0.371   1.616 -1.6958 -0.0846  1.2224
 8729SOL    HW237650   0.192   0.278   1.646 -0.2880  0.6626  0.2317
 8730SOL     OW37651   0.964   0.382   5.150 -0.0516 -0.2488  0.4529
 8730SOL    HW137652   0.976   0.331   5.230  0.5136 -2.5598 -1.1160
 8730SOL    HW237653   0.928   0.322   5.085 -1.0459  2.4323 -1.4361
 8731SOL     OW37654   4.377   2.833   1.047  0.1453 -0.6746  0.4977
 8731SOL    HW137655   4.430   2.769   1.001  0.4814  0.1247 -0.2268
 8731SOL    HW237656   4.425   2.841   1.129 -0.5534  0.8944  0.7648
 8732SOL     OW37657   2.206   0.894   0.239 -0.2194 -0.3048  0.3026
 8732SOL    HW137658   2.279   0.878   0.299  1.7533  1.0610 -1.7437
 8732SOL    HW237659   2.243   0.870   0.154 -0.0743  1.2874 -0.0829
 8733SOL     OW37660   0.853   1.547   5.858  0.3638  0.0300 -0.6818
 8733SOL    HW137661   0.925   1.492   5.827 -3.4243 -4.3604 -1.7602
 8733SOL    HW237662   0.791   1.482   5.890 -0.6682  1.2121 -0.2995
 8734SOL     OW37663   2.353   2.176  13.991 -0.1787  0.3878 -0.3588
 8734SOL    HW137664   2.285   2.113  13.968  0.0413 -0.6891  1.9805
 8734SOL    HW237665   2.298   2.231  14.046  0.8278  1.6601 -0.6108
 8735SOL     OW37666   1.656   2.384   0.366  0.3222 -0.6433 -0.3068
 8735SOL    HW137667   1.646   2.480   0.364 -0.8460 -0.7387  1.0417
 8735SOL    HW237668   1.562   2.367   0.361  0.3459 -0.8219 -0.1112
 8736SOL     OW37669   4.196   2.779   7.473  0.1725  0.0823  0.0937
 8736SOL    HW137670   4.119   2.739   7.434  0.0671  0.6859 -0.3075
 8736SOL    HW237671   4.163   2.778   7.563  0.4022  0.0364  0.1785
 8737SOL     OW37672   0.119   0.861   1.782  0.3682  0.5526 -0.3345
 8737SOL    HW137673   0.038   0.904   1.756 -0.9276 -0.5404  1.8384
 8737SOL    HW237674   0.104   0.862   1.877 -0.8319  0.2739 -0.5289
 8738SOL     OW37675   0.790   2.089  11.041  0.0137  0.0262  0.0607
 8738SOL    HW137676   0.838   2.006  11.042 -2.1925 -1.3258 -2.6193
 8738SOL    HW237677   0.826   2.133  10.964  1.4699 -0.5171  0.4239
 8739SOL     OW37678   0.314   2.784   3.146  0.3882  0.2744 -0.5007
 8739SOL    HW137679   0.269   2.767   3.063 -0.4909  2.0246 -0.3870
 8739SOL    HW237680   0.325   2.698   3.187  0.2464 -0.2740 -1.6134
 8740SOL     OW37681   4.174   1.573  11.746 -0.0092 -0.8245  0.0075
 8740SOL    HW137682   4.187   1.482  11.775 -0.2911 -0.4804  1.2050
 8740SOL    HW237683   4.155   1.555  11.654  0.9404  0.4254 -0.4247
 8741SOL     OW37684   4.612   0.917  11.732  0.6487 -0.0325  0.3306
 8741SOL    HW137685   4.592   0.835  11.778  0.4972  1.1487  2.3953
 8741SOL    HW237686   4.648   0.971  11.802 -0.3184 -0.5192  1.2062
 8742SOL     OW37687   3.957   1.550   7.193 -0.2284 -0.2594 -0.1798
 8742SOL    HW137688   3.867   1.545   7.161 -0.0744 -1.1674 -0.4512
 8742SOL    HW237689   4.002   1.571   7.112  2.0896 -0.8617  0.9461
 8743SOL     OW37690   0.850   1.800   2.952 -0.0380  1.1354  0.6783
 8743SOL    HW137691   0.852   1.893   2.930  1.7743  0.9966  0.2448
 8743SOL    HW237692   0.937   1.784   2.988 -0.1515  1.2426  1.0005
 8744SOL     OW37693   3.241   2.072   8.846  0.0123 -0.1415 -0.2035
 8744SOL    HW137694   3.325   2.101   8.810 -0.3095  1.6096  0.4676
 8744SOL    HW237695   3.209   2.023   8.771 -0.3546  0.3394 -0.3601
 8745SOL     OW37696   0.616   1.303   5.621 -0.0956 -0.3405 -0.1657
 8745SOL    HW137697   0.554   1.361   5.665  0.1361  1.2251 -1.8871
 8745SOL    HW237698   0.563   1.227   5.598 -0.5739 -0.3674  1.0474
 8746SOL     OW37699   0.788   0.715   8.896  0.4061  0.0098 -0.3807
 8746SOL    HW137700   0.756   0.685   8.811  1.4726 -2.5724  0.1328
 8746SOL    HW237701   0.702   0.749   8.920  0.6005  0.3984 -0.2305
 8747SOL     OW37702   1.754   2.411   8.123  0.1235 -0.1384  0.0432
 8747SOL    HW137703   1.832   2.373   8.082  2.1492  1.3137  2.5691
 8747SOL    HW237704   1.749   2.391   8.216  1.4089 -1.1436 -0.1003
 8748SOL     OW37705   1.896   4.228   8.165 -0.5806  0.1627 -0.2039
 8748SOL    HW137706   1.986   4.255   8.180 -0.5390 -1.0913  1.8286
 8748SOL    HW237707   1.856   4.246   8.250 -0.5846 -2.1658  0.2915
 8749SOL     OW37708   3.549   3.855  16.201 -0.1632 -0.0105 -0.6418
 8749SOL    HW137709   3.635   3.828  16.167  0.6401  0.6284  0.8997
 8749SOL    HW237710   3.528   3.915  16.130  0.9172  1.6414  0.4386
 8750SOL     OW37711   0.278   2.412   5.513  0.0720 -0.4559  0.0085
 8750SOL    HW137712   0.303   2.339   5.568 -1.1751  1.1251  2.6472
 8750SOL    HW237713   0.217   2.452   5.574  0.3046  1.1559 -0.8181
 8751SOL     OW37714   4.014   4.427   5.736 -0.0157  0.4476 -0.2309
 8751SOL    HW137715   3.919   4.418   5.734  0.0406 -0.8202  3.0377
 8751SOL    HW237716   4.012   4.520   5.715  0.8647  0.9395  1.8642
 8752SOL     OW37717   1.711   0.720   6.151 -0.7144  0.1932 -0.2307
 8752SOL    HW137718   1.661   0.639   6.145  1.6274 -1.2446 -0.3518
 8752SOL    HW237719   1.734   0.722   6.244 -1.8829 -1.5371  0.0993
 8753SOL     OW37720   2.932   0.371   8.344 -0.0590  0.2741  0.2024
 8753SOL    HW137721   2.866   0.312   8.380 -0.3519  0.9678  0.8009
 8753SOL    HW237722   2.944   0.431   8.417  1.6990 -0.5877  0.6187
 8754SOL     OW37723   0.797   3.567   3.282  0.4635 -0.6476  0.0678
 8754SOL    HW137724   0.803   3.472   3.288 -0.7601 -0.7136  0.3032
 8754SOL    HW237725   0.765   3.569   3.192  0.0264 -0.7447  0.2194
 8755SOL     OW37726   4.389   2.602  16.775  0.0246  0.2735  0.1371
 8755SOL    HW137727   4.376   2.695  16.793  1.5682  0.8237 -1.6222
 8755SOL    HW237728   4.303   2.579  16.739  0.8149 -2.7503  0.2448
 8756SOL     OW37729   3.878   3.877  13.614 -0.4003  0.0285  0.6299
 8756SOL    HW137730   3.958   3.929  13.614 -1.3461  1.5093  0.6624
 8756SOL    HW237731   3.910   3.806  13.670 -0.7199 -0.8140 -0.2492
 8757SOL     OW37732   2.043   4.481  16.586  0.4930 -0.2051 -0.0236
 8757SOL    HW137733   2.085   4.562  16.615 -1.8943  0.9038  0.3165
 8757SOL    HW237734   2.008   4.502  16.500  0.2893  1.1503  0.3845
 8758SOL     OW37735   0.269   4.316   5.397 -0.5863 -0.7690 -0.2072
 8758SOL    HW137736   0.320   4.395   5.377 -3.1151  1.2152  1.1747
 8758SOL    HW237737   0.229   4.287   5.316 -1.1288  0.2436 -0.2982
 8759SOL     OW37738   2.390   0.405  17.420 -0.1168  0.4936  0.0853
 8759SOL    HW137739   2.322   0.345  17.452 -0.3123  0.7449  0.1398
 8759SOL    HW237740   2.334   0.477  17.392 -1.0037 -0.1037  0.3143
 8760SOL     OW37741   0.354   3.269  11.090  0.1358  0.4433 -0.6019
 8760SOL    HW137742   0.383   3.320  11.166 -1.5995 -0.4836  0.6961
 8760SOL    HW237743   0.328   3.342  11.034 -0.1798 -0.2922 -1.4168
 8761SOL     OW37744   1.823   1.167   2.744 -0.1197 -0.6278 -0.2268
 8761SOL    HW137745   1.763   1.241   2.738 -0.3903 -0.9480 -1.5036
 8761SOL    HW237746   1.911   1.204   2.747  0.0679 -0.9790 -1.4568
 8762SOL     OW37747   3.816   0.685   2.943 -0.4992  0.2836  0.1015
 8762SOL    HW137748   3.847   0.747   3.008  0.1068 -0.6339  0.6924
 8762SOL    HW237749   3.798   0.614   3.005  1.6746  0.1929  0.6173
 8763SOL     OW37750   3.287   3.406   3.292 -0.0514 -0.2097  0.4724
 8763SOL    HW137751   3.349   3.353   3.241 -2.5934  0.4609 -3.3905
 8763SOL    HW237752   3.251   3.463   3.223 -0.3841 -1.0055 -0.0132
 8764SOL     OW37753   4.393   2.902   0.633  0.8430  0.5536  0.0160
 8764SOL    HW137754   4.451   2.841   0.587  2.4532  2.7219 -0.8290
 8764SOL    HW237755   4.399   2.985   0.587 -0.4462  1.5388  1.5997
 8765SOL     OW37756   3.097   3.977   0.310 -0.1696 -0.1864  0.1022
 8765SOL    HW137757   3.095   3.963   0.405  1.0202 -0.5998  0.0645
 8765SOL    HW237758   3.111   3.887   0.282  0.2374  0.0639 -0.4809
 8766SOL     OW37759   1.883   0.850   7.116 -0.0729 -0.1427  0.2572
 8766SOL    HW137760   1.818   0.780   7.122 -0.8931  0.5794 -0.2236
 8766SOL    HW237761   1.952   0.809   7.064 -0.4965 -3.0310  1.9751
 8767SOL     OW37762   2.162   2.576   7.691  0.1416 -0.4272 -0.6525
 8767SOL    HW137763   2.195   2.511   7.629 -0.8749 -0.6091 -1.0044
 8767SOL    HW237764   2.132   2.642   7.629  1.3971  0.1921 -0.5875
 8768SOL     OW37765   4.150   3.577   4.188  0.2318  0.1658 -0.5225
 8768SOL    HW137766   4.101   3.537   4.116  0.7517 -2.3929  0.5751
 8768SOL    HW237767   4.091   3.651   4.200 -0.1382 -0.1616 -0.3384
 8769SOL     OW37768   1.838   1.310   8.583 -0.6533 -0.1528 -0.0711
 8769SOL    HW137769   1.883   1.354   8.511  0.2534  1.3002  1.3834
 8769SOL    HW237770   1.752   1.352   8.577 -0.0295  0.9338 -1.2762
 8770SOL     OW37771   4.291   3.391   3.672  0.0447 -0.3268  0.2872
 8770SOL    HW137772   4.367   3.336   3.691 -1.2048 -2.2880 -0.3247
 8770SOL    HW237773   4.330   3.468   3.631 -1.0751 -0.3711 -0.8761
 8771SOL     OW37774   4.548   4.171  13.989 -0.1498  0.4984  0.1499
 8771SOL    HW137775   4.634   4.210  13.974  0.3999 -0.2769  1.3222
 8771SOL    HW237776   4.564   4.123  14.070  1.1719  0.7355  0.0248
 8772SOL     OW37777   1.541   4.696   2.240  0.0198  0.0375 -0.1740
 8772SOL    HW137778   1.497   4.649   2.168  2.0395 -0.1113 -1.3224
 8772SOL    HW237779   1.472   0.027   2.275  0.0683 -0.3776  0.5758
 8773SOL     OW37780   4.561   0.509   5.771 -0.1562  0.0880 -0.6635
 8773SOL    HW137781   4.519   0.462   5.699 -1.0482  0.3821 -0.3453
 8773SOL    HW237782   4.598   0.589   5.733 -2.5926  1.7834  0.4470
 8774SOL     OW37783   3.619   0.728  16.970  0.0315 -0.2558  0.4041
 8774SOL    HW137784   3.525   0.707  16.964  0.5860 -3.0347  1.2366
 8774SOL    HW237785   3.627   0.760  17.060 -5.2030 -0.9468  1.1281
 8775SOL     OW37786   4.394   2.991   4.067  0.3805  0.1981  0.6143
 8775SOL    HW137787   4.304   2.995   4.035  0.5475  1.0307  0.2291
 8775SOL    HW237788   4.386   2.915   4.124  0.3510  1.6373  2.5173
 8776SOL     OW37789   0.038   3.802   6.105 -0.1222 -0.5845  0.6760
 8776SOL    HW137790   4.685   3.832   6.058  0.4206  0.8979  0.7182
 8776SOL    HW237791   0.101   3.856   6.056 -2.4125  1.6136  0.1727
 8777SOL     OW37792   1.829   0.111   2.488  0.5598 -0.1033 -0.2221
 8777SOL    HW137793   1.851   0.020   2.504 -0.4471 -0.2131  0.5484
 8777SOL    HW237794   1.916   0.149   2.479  0.2003  0.5744 -0.9245
 8778SOL     OW37795   3.754   0.382   6.350 -0.1287 -0.7926  0.3123
 8778SOL    HW137796   3.676   0.414   6.396 -1.8926  0.6200 -3.7088
 8778SOL    HW237797   3.810   0.353   6.422  0.9616 -1.3076 -0.7397
 8779SOL     OW37798   2.438   1.527   3.748  0.0333 -0.2647  0.0191
 8779SOL    HW137799   2.489   1.605   3.770  1.5434 -1.1438 -0.3690
 8779SOL    HW237800   2.487   1.502   3.670  0.2323  0.8281 -0.2089
 8780SOL     OW37801   3.366   3.396   3.697  0.0661 -0.5094  0.7501
 8780SOL    HW137802   3.315   3.362   3.623  0.4239  1.5014 -0.4161
 8780SOL    HW237803   3.305   3.409   3.769 -0.8593  0.6562 -0.2446
 8781SOL     OW37804   3.531   0.277   4.421  0.3815  0.1605  0.4643
 8781SOL    HW137805   3.460   0.272   4.357 -0.9311 -2.5418  2.1449
 8781SOL    HW237806   3.564   0.188   4.421  1.5731  0.5938 -0.6306
 8782SOL     OW37807   4.383   3.060   2.745 -0.3726 -0.8269 -0.2766
 8782SOL    HW137808   4.364   2.967   2.749  1.0402 -1.0364  1.7991
 8782SOL    HW237809   4.313   3.090   2.688  0.0038 -0.8269 -0.7412
 8783SOL     OW37810   2.630   0.132   7.165  0.0755 -0.2614 -0.1511
 8783SOL    HW137811   2.582   0.144   7.083 -0.7870 -0.8714  0.2651
 8783SOL    HW237812   2.568   0.081   7.217  0.9447 -1.9034 -0.7005
 8784SOL     OW37813   1.179   3.503  16.824  0.5544 -0.7614  0.1066
 8784SOL    HW137814   1.200   3.594  16.804  0.8652 -0.8860 -0.1276
 8784SOL    HW237815   1.143   3.514  16.912  0.3385 -1.4568  0.1082
 8785SOL     OW37816   3.652   3.069   6.479  0.1241  1.2283  0.0048
 8785SOL    HW137817   3.706   3.009   6.531 -2.4841  1.0445  2.5061
 8785SOL    HW237818   3.579   3.088   6.539 -0.7629  2.1930 -1.3686
 8786SOL     OW37819   1.293   0.146  17.245 -0.8736 -0.2029 -0.2000
 8786SOL    HW137820   1.219   0.111  17.295 -1.0752  1.2068  0.5188
 8786SOL    HW237821   1.313   0.083  17.177  0.3279 -0.9789  0.8875
 8787SOL     OW37822   2.998   1.917   4.996  0.3295 -0.5747  0.0687
 8787SOL    HW137823   3.009   1.837   4.945  0.5947 -0.5758  0.1293
 8787SOL    HW237824   3.089   1.944   5.010 -0.1449  1.1860 -0.2351
 8788SOL     OW37825   0.495   3.442  10.145  0.0207 -0.0790 -0.0587
 8788SOL    HW137826   0.575   3.489  10.120  0.7865 -1.6260 -0.4917
 8788SOL    HW237827   0.429   3.510  10.134 -1.0929 -1.2541 -0.5209
 8789SOL     OW37828   2.369   2.340   4.597  0.3999 -0.3201  1.0001
 8789SOL    HW137829   2.274   2.356   4.597  0.0020 -2.6741  0.9732
 8789SOL    HW237830   2.388   2.395   4.673 -4.3009  1.0538  1.2207
 8790SOL     OW37831   3.491   3.788   3.684  0.0576  0.0360 -0.4011
 8790SOL    HW137832   3.513   3.843   3.609 -0.8356  0.3351 -0.4376
 8790SOL    HW237833   3.530   3.703   3.661 -0.5130 -0.1998 -0.4924
 8791SOL     OW37834   0.984   3.141   2.795  0.4050  0.7809 -0.0180
 8791SOL    HW137835   0.975   3.156   2.701 -0.0237  0.7465  0.0154
 8791SOL    HW237836   0.994   3.046   2.802  1.4387  0.7678 -1.8487
 8792SOL     OW37837   2.563   0.846   5.627 -0.2569 -0.3297  0.4171
 8792SOL    HW137838   2.582   0.917   5.688  0.4800 -0.7438  0.6651
 8792SOL    HW237839   2.497   0.794   5.674  0.7094 -0.5800  1.4817
 8793SOL     OW37840   1.758   0.346   7.845 -0.1880 -0.2126 -0.0149
 8793SOL    HW137841   1.817   0.406   7.891  0.2940 -1.6949  1.3077
 8793SOL    HW237842   1.827   0.281   7.828 -0.3417 -0.3378 -0.1604
 8794SOL     OW37843   0.455   4.484   9.182 -0.3876  0.2886 -0.7960
 8794SOL    HW137844   0.427   4.492   9.091 -5.3569 -0.5311  0.6551
 8794SOL    HW237845   0.534   4.537   9.176  0.0490 -0.1492  0.9180
 8795SOL     OW37846   1.069   2.419   3.451 -0.4293 -0.3909  0.1571
 8795SOL    HW137847   1.060   2.324   3.454 -0.7209 -0.3725 -0.2388
 8795SOL    HW237848   1.158   2.427   3.486 -0.4426 -0.0527  0.1091
 8796SOL     OW37849   1.113   1.035   2.755 -0.0756 -0.4869 -1.0232
 8796SOL    HW137850   1.179   1.103   2.767 -2.4037  1.6095 -0.3308
 8796SOL    HW237851   1.128   0.977   2.830  1.1828 -0.0825 -0.9545
 8797SOL     OW37852   3.024   3.681   7.320  0.0872  0.1620  0.6252
 8797SOL    HW137853   3.060   3.769   7.328 -1.6100  0.9437 -0.2933
 8797SOL    HW237854   2.989   3.671   7.231  1.0584 -1.1605  0.3858
 8798SOL     OW37855   4.491   3.813  13.622 -0.6791  0.2852 -0.5660
 8798SOL    HW137856   4.478   3.882  13.686 -0.9030 -0.7068  0.4701
 8798SOL    HW237857   4.440   3.841  13.546 -1.9335 -0.3710  0.0290
 8799SOL     OW37858   4.098   3.710   3.801 -0.3423  0.3008  0.1887
 8799SOL    HW137859   4.013   3.732   3.838 -0.3127 -2.3410  1.8859
 8799SOL    HW237860   4.075   3.625   3.763 -0.3759  1.3213 -2.0586
 8800SOL     OW37861   1.415   2.849   3.209 -0.1835  0.0803  0.1858
 8800SOL    HW137862   1.401   2.758   3.181 -1.0427  0.0243  0.8108
 8800SOL    HW237863   1.456   2.835   3.294 -1.2710  1.5038  0.9216
 8801SOL     OW37864   1.096   2.391   7.236  0.0184 -0.2750 -0.2632
 8801SOL    HW137865   1.191   2.386   7.245 -0.1792 -1.4626  1.0631
 8801SOL    HW237866   1.065   2.388   7.326 -1.1284 -1.3874 -0.6868
 8802SOL     OW37867   1.682   4.596   1.894 -0.8275 -0.2563 -0.0158
 8802SOL    HW137868   1.718   4.646   1.967  1.1517  0.5588 -1.5383
 8802SOL    HW237869   1.595   4.578   1.929 -0.2047  0.4841  1.8931
 8803SOL     OW37870   0.039   3.714  13.622 -0.3571 -0.2617  0.1973
 8803SOL    HW137871   0.072   3.781  13.563  1.0915 -2.0277 -0.9801
 8803SOL    HW237872   4.672   3.731  13.640 -0.8210 -1.6022 -0.9599
 8804SOL     OW37873   0.002   2.855  12.781 -0.3731  0.5648 -0.1877
 8804SOL    HW137874   0.049   2.889  12.857  0.3790  0.0962 -0.4398
 8804SOL    HW237875   4.654   2.810  12.824  0.0253 -2.3934 -2.5926
 8805SOL     OW37876   3.875   4.447   3.995  0.7711 -0.6321  0.6632
 8805SOL    HW137877   3.940   4.504   3.955  0.5963 -2.2644 -1.9498
 8805SOL    HW237878   3.925   4.408   4.067 -1.4334 -0.1213  2.4753
 8806SOL     OW37879   2.687   1.936   6.063 -0.0310 -0.3096 -0.0495
 8806SOL    HW137880   2.687   2.032   6.059 -2.6681 -0.2682  0.9512
 8806SOL    HW237881   2.703   1.924   5.970 -0.5883  1.2080 -0.3338
 8807SOL     OW37882   0.993   2.718   7.973  0.6229 -0.0711 -0.0521
 8807SOL    HW137883   0.925   2.785   7.968 -1.2221 -1.7662  2.1695
 8807SOL    HW237884   0.937   2.649   8.009 -1.9996  1.0499 -2.0059
 8808SOL     OW37885   4.580   4.090   2.745 -0.1881 -0.1251  0.4571
 8808SOL    HW137886   4.574   4.044   2.662 -1.1058  1.7231 -0.5108
 8808SOL    HW237887   4.565   4.023   2.812  0.3907 -2.2899 -1.5680
 8809SOL     OW37888   3.783   0.364   1.844  0.4041 -0.6011  0.1646
 8809SOL    HW137889   3.813   0.282   1.884 -0.8322  0.1875  2.6332
 8809SOL    HW237890   3.854   0.422   1.870  1.4590 -1.6835 -0.2704
 8810SOL     OW37891   2.397   3.211   1.753 -0.3110 -0.2092  0.3798
 8810SOL    HW137892   2.390   3.124   1.712  1.3029 -0.3983  0.4814
 8810SOL    HW237893   2.490   3.215   1.778 -0.6694  0.3359  1.6173
 8811SOL     OW37894   3.625   2.853   5.054  0.2437  0.1339 -0.2596
 8811SOL    HW137895   3.636   2.933   5.105  1.9515 -1.3942  1.7467
 8811SOL    HW237896   3.678   2.790   5.102  0.8960 -0.6756 -2.0335
 8812SOL     OW37897   2.555   0.711   2.226  0.2711  0.5526  0.4825
 8812SOL    HW137898   2.626   0.648   2.212 -1.1833 -0.9796  0.0150
 8812SOL    HW237899   2.566   0.730   2.319 -1.2962  0.9348  0.5976
 8813SOL     OW37900   4.363   1.942   6.618  0.2744 -0.2461 -0.5422
 8813SOL    HW137901   4.398   1.870   6.672  1.4029  1.0804  0.4881
 8813SOL    HW237902   4.437   1.985   6.575 -0.7069  2.4237  0.4326
 8814SOL     OW37903   3.574   4.312  10.010 -0.0851 -0.0871 -0.4656
 8814SOL    HW137904   3.585   4.357  10.094  0.4030  0.4912 -0.8456
 8814SOL    HW237905   3.578   4.220  10.038  0.5972 -0.2710 -1.1849
 8815SOL     OW37906   2.583   4.516  13.420 -0.7644 -0.0137 -0.5218
 8815SOL    HW137907   2.504   4.533  13.472  0.5078  0.7280  1.1517
 8815SOL    HW237908   2.656   4.549  13.472 -0.7301 -1.2078  0.1881
 8816SOL     OW37909   4.267   4.723   5.543  0.3123 -0.3228 -0.3994
 8816SOL    HW137910   4.339   0.060   5.542  0.0030 -0.0028 -2.0034
 8816SOL    HW237911   4.226   0.046   5.615 -0.5996  1.0045 -1.8017
 8817SOL     OW37912   4.100   3.929   9.456 -0.0537 -0.2572 -0.1240
 8817SOL    HW137913   4.111   3.877   9.376  1.6584 -1.1947  0.7445
 8817SOL    HW237914   4.035   3.990   9.420  2.1021  2.9877  1.5070
 8818SOL     OW37915   0.924   3.602   2.813 -0.7302  0.4119  0.1097
 8818SOL    HW137916   0.860   3.651   2.761 -0.1978  2.4022  1.3305
 8818SOL    HW237917   0.876   3.569   2.889 -1.1609  0.0429 -0.3236
 8819SOL     OW37918   4.642   3.348   9.303  0.1202 -0.3558 -0.6296
 8819SOL    HW137919   4.703   3.289   9.348 -0.2372 -0.8379 -0.7719
 8819SOL    HW237920   4.625   3.296   9.225  3.5280 -1.2160 -0.8230
 8820SOL     OW37921   2.482   2.348   7.150 -0.6466  0.0082 -0.0827
 8820SOL    HW137922   2.574   2.325   7.132 -1.1630  0.5279 -3.3531
 8820SOL    HW237923   2.451   2.281   7.211  0.0683  0.1823  0.4867
 8821SOL     OW37924   0.951   4.156   1.819  0.0276 -0.1285  0.5145
 8821SOL    HW137925   0.918   4.230   1.767 -0.2025  1.2711  2.6564
 8821SOL    HW237926   0.881   4.145   1.883 -0.2668 -0.1784  0.1831
 8822SOL     OW37927   3.497   2.072   6.662 -0.0242  0.2430 -0.1538
 8822SOL    HW137928   3.406   2.047   6.679  0.6136 -2.0952 -0.2194
 8822SOL    HW237929   3.487   2.127   6.584  1.8599 -0.1043 -0.6294
 8823SOL     OW37930   3.044   2.124   4.675 -0.5572 -0.0832 -0.0389
 8823SOL    HW137931   3.065   2.217   4.672  2.0943 -0.6419  0.9405
 8823SOL    HW237932   3.000   2.116   4.591 -0.2338  0.9701 -0.3061
 8824SOL     OW37933   4.154   0.647  12.476 -0.3132  0.3698  0.2119
 8824SOL    HW137934   4.123   0.621  12.390 -0.1472 -0.9872  0.5656
 8824SOL    HW237935   4.245   0.670  12.454 -0.9751  2.0975 -0.7834
 8825SOL     OW37936   0.652   3.684  17.449  0.1760  0.0260 -0.3348
 8825SOL    HW137937   0.670   3.598  17.412  2.1079  0.0756  0.4469
 8825SOL    HW237938   0.583   3.720  17.394 -0.6214 -0.3730  0.4031
 8826SOL     OW37939   0.964   2.279   6.409  0.3512 -0.5588  0.0197
 8826SOL    HW137940   0.962   2.197   6.458  1.9115  0.9007  2.5351
 8826SOL    HW237941   1.047   2.316   6.438  1.2813 -1.3775 -1.6505
 8827SOL     OW37942   4.556   4.346   8.533  0.1672  0.3680  0.3428
 8827SOL    HW137943   4.484   4.292   8.502  0.3895 -0.5259  1.3586
 8827SOL    HW237944   4.563   4.415   8.468  0.1496  1.4797  1.5181
 8828SOL     OW37945   1.031   1.841   7.724  0.6341 -0.0121 -0.1190
 8828SOL    HW137946   1.087   1.840   7.646  1.8178 -1.2566  0.7576
 8828SOL    HW237947   1.059   1.927   7.756 -0.9704  0.9695 -1.3098
 8829SOL     OW37948   2.281   1.979  17.195 -0.2221  0.4740  0.2850
 8829SOL    HW137949   2.232   2.004  17.274 -2.8158 -3.2721 -0.1194
 8829SOL    HW237950   2.347   1.919  17.228  0.1120  1.1179  0.7867
 8830SOL     OW37951   0.696   0.561   8.283  0.0778 -0.2610  0.0510
 8830SOL    HW137952   0.686   0.471   8.313 -2.6162 -0.3708 -1.1531
 8830SOL    HW237953   0.679   0.548   8.190  0.5895  1.5237 -0.2961
 8831SOL     OW37954   4.465   3.204   0.274 -0.0933  0.9302  0.5699
 8831SOL    HW137955   4.560   3.199   0.281 -0.2613 -0.4230  1.8976
 8831SOL    HW237956   4.460   3.111   0.297  2.3199  0.6155 -0.1554
 8832SOL     OW37957   2.734   2.446   7.826 -0.3331  0.2679 -0.1200
 8832SOL    HW137958   2.683   2.522   7.798 -0.2577  0.6403  0.7328
 8832SOL    HW237959   2.707   2.374   7.769  3.4371 -0.2662 -1.2312
 8833SOL     OW37960   2.657   1.345   3.288  0.2814 -0.3904 -0.8114
 8833SOL    HW137961   2.595   1.272   3.281 -0.5647  0.2181  0.2981
 8833SOL    HW237962   2.598   1.415   3.260 -0.3824 -0.3695  0.5871
 8834SOL     OW37963   2.875   2.168   5.006 -0.0466  0.0456 -0.2488
 8834SOL    HW137964   2.926   2.088   4.993  0.1868 -0.0117  1.0766
 8834SOL    HW237965   2.924   2.214   5.074  2.0715  1.2257 -2.5616
 8835SOL     OW37966   3.791   2.787   4.449 -0.4215  0.6480 -0.1154
 8835SOL    HW137967   3.877   2.816   4.419  0.0465 -0.6368  0.0068
 8835SOL    HW237968   3.777   2.850   4.521 -0.7582 -0.7825  1.0745
 8836SOL     OW37969   2.116   2.106   4.650 -0.3540  0.1402 -0.0296
 8836SOL    HW137970   2.196   2.063   4.680 -0.7477  0.6909  1.8640
 8836SOL    HW237971   2.115   2.183   4.708 -3.2882 -0.1568  0.3095
 8837SOL     OW37972   0.839   1.874  15.035  0.0726  0.3379  0.2414
 8837SOL    HW137973   0.780   1.905  15.104 -0.1832  1.0496 -0.3010
 8837SOL    HW237974   0.850   1.779  15.047  1.7769  0.2865 -1.6755
 8838SOL     OW37975   3.772   1.245   7.009  0.0339 -0.5845 -0.2438
 8838SOL    HW137976   3.690   1.214   7.046 -0.7796  1.0324 -0.6651
 8838SOL    HW237977   3.770   1.336   7.039  0.6607 -1.2184  1.7306
 8839SOL     OW37978   4.011   4.055   2.734  0.0187 -0.5241  0.3365
 8839SOL    HW137979   4.105   4.036   2.728  0.0126 -0.7705  0.9714
 8839SOL    HW237980   4.012   4.145   2.769  1.5315 -0.5374  0.3224
 8840SOL     OW37981   3.574   2.293   5.996 -0.5414 -0.0234  0.2088
 8840SOL    HW137982   3.605   2.315   5.908  0.0947 -0.0463  0.4280
 8840SOL    HW237983   3.548   2.376   6.036  0.1534 -0.1105  0.8522
 8841SOL     OW37984   0.924   4.402  17.302  0.0616 -0.1625  0.2029
 8841SOL    HW137985   0.997   4.460  17.324  1.8138 -1.4157 -2.4099
 8841SOL    HW237986   0.902   4.418  17.210 -2.2623 -2.0068  0.4278
 8842SOL     OW37987   3.747   2.086  15.584 -0.0652 -0.1984 -0.7202
 8842SOL    HW137988   3.837   2.109  15.609 -0.1098  0.8191 -1.4668
 8842SOL    HW237989   3.733   2.000  15.623 -1.3556 -0.3540 -1.5246
 8843SOL     OW37990   2.600   3.327   4.888 -0.1955 -0.2798 -0.9293
 8843SOL    HW137991   2.615   3.418   4.912 -1.8998  0.0183 -0.9502
 8843SOL    HW237992   2.626   3.285   4.970  1.5674  1.1573 -0.7671
 8844SOL     OW37993   1.287   4.338   2.015  0.6443  0.0484 -0.0830
 8844SOL    HW137994   1.216   4.369   1.959  0.0036  0.7330  1.1080
 8844SOL    HW237995   1.249   4.255   2.043  0.2299  0.6101  1.0359
 8845SOL     OW37996   2.791   4.054  12.867  0.0070 -0.1287  0.0599
 8845SOL    HW137997   2.762   4.144  12.852  2.1074  0.6938  0.8902
 8845SOL    HW237998   2.844   4.067  12.946  1.4826 -2.1226 -0.6187
 8846SOL     OW37999   3.022   2.972   9.719  0.0952 -0.3762  0.3500
 8846SOL    HW138000   2.993   2.887   9.752 -0.3942 -0.0416  0.7779
 8846SOL    HW238001   3.008   3.026   9.796 -1.7351 -0.1851 -0.1240
 8847SOL     OW38002   3.076   1.385  11.739  0.2536  0.0803 -0.2131
 8847SOL    HW138003   3.115   1.366  11.825 -1.9190 -1.2766  0.4674
 8847SOL    HW238004   2.984   1.384  11.764  0.5014 -3.6600  0.6190
 8848SOL     OW38005   0.161   1.422   6.192  0.6605  0.1348  0.5296
 8848SOL    HW138006   0.128   1.347   6.241  0.6721 -1.7082 -2.3080
 8848SOL    HW238007   0.148   1.402   6.099 -0.5961  1.1610  0.4888
 8849SOL     OW38008   3.233   2.855  12.314 -0.0436  0.5223  0.4866
 8849SOL    HW138009   3.287   2.922  12.356  0.1636 -2.1262  4.4330
 8849SOL    HW238010   3.304   2.800  12.282  0.7203  2.2562 -0.8129
 8850SOL     OW38011   2.458   0.686  17.589  0.2473  0.2716 -0.1088
 8850SOL    HW138012   2.473   0.609  17.535  0.5054  0.0460  0.2915
 8850SOL    HW238013   2.532   0.680  17.648 -0.1488 -0.9852  0.2407
 8851SOL     OW38014   2.158   3.325   5.499  0.3049  0.5249  0.4488
 8851SOL    HW138015   2.069   3.337   5.532  0.1991  3.0141 -0.7342
 8851SOL    HW238016   2.183   3.417   5.484  1.6315 -0.3291 -2.5063
 8852SOL     OW38017   2.828   4.633   5.222  0.1124 -0.0382  0.0719
 8852SOL    HW138018   2.874   4.600   5.146 -2.5176  0.4000 -1.7031
 8852SOL    HW238019   2.871   4.718   5.229 -0.3294  0.1560  0.4508
 8853SOL     OW38020   4.260   4.378  17.016  0.7520  0.0031  0.9112
 8853SOL    HW138021   4.168   4.404  17.024  0.4254 -0.7286 -0.3777
 8853SOL    HW238022   4.278   4.361  17.108  0.8277 -1.0127  0.7007
 8854SOL     OW38023   1.786   3.797   9.955 -0.0342  0.5514  0.4535
 8854SOL    HW138024   1.867   3.775   9.910 -0.0954 -0.1024  0.6561
 8854SOL    HW238025   1.800   3.757  10.041 -1.8943 -0.3802  0.3255
 8855SOL     OW38026   1.214   0.337  12.502  0.0388  0.2350 -0.4270
 8855SOL    HW138027   1.286   0.390  12.468 -1.5516  2.0981 -0.8293
 8855SOL    HW238028   1.217   0.355  12.596  3.2542 -1.3969 -0.1917
 8856SOL     OW38029   3.272   1.037   7.308 -0.1241  1.3432 -0.5307
 8856SOL    HW138030   3.347   0.977   7.312 -0.3192  0.9257 -3.2357
 8856SOL    HW238031   3.273   1.060   7.215  0.8384  1.7810 -0.4184
 8857SOL     OW38032   0.065   3.728   5.312  0.4643 -0.1034 -0.2902
 8857SOL    HW138033   0.038   3.713   5.222  2.3922  0.5910 -0.9726
 8857SOL    HW238034   0.118   3.649   5.324  1.5003  0.5000 -1.0129
 8858SOL     OW38035   2.143   0.413   7.288  0.0117  0.4582 -0.0803
 8858SOL    HW138036   2.082   0.354   7.331  0.3795 -0.4238 -0.7731
 8858SOL    HW238037   2.228   0.380   7.319 -0.8429 -2.0658 -0.4085
 8859SOL     OW38038   0.018   4.160  11.115 -1.0499  1.0562  0.5100
 8859SOL    HW138039   0.105   4.180  11.151  0.1284 -2.9384 -0.0876
 8859SOL    HW238040   4.687   4.229  11.150  0.4206  1.3035  2.3663
 8860SOL     OW38041   3.762   1.343  12.985  0.1903 -0.2990  0.0094
 8860SOL    HW138042   3.727   1.281  12.921 -2.3532  0.6511  0.5072
 8860SOL    HW238043   3.854   1.328  12.961  0.2794  1.7594 -0.9332
 8861SOL     OW38044   2.615   4.015   9.871 -0.1335  0.4575 -0.1487
 8861SOL    HW138045   2.609   3.978   9.959 -1.0219  0.6701 -0.1238
 8861SOL    HW238046   2.561   4.092   9.889 -1.4097 -0.2921 -0.8671
 8862SOL     OW38047   2.261   4.078   5.122 -0.1436  0.2554  0.3250
 8862SOL    HW138048   2.181   4.130   5.123  0.3959  1.0839  0.1557
 8862SOL    HW238049   2.236   3.995   5.080  3.8922  0.3754 -2.2758
 8863SOL     OW38050   3.744   3.743   6.036  0.5007  0.2045 -0.0935
 8863SOL    HW138051   3.779   3.671   5.983  0.2738 -1.0920  1.5232
 8863SOL    HW238052   3.810   3.740   6.106 -0.5212 -1.0332  0.8054
 8864SOL     OW38053   2.848   2.026   6.984 -0.2458 -0.3918 -0.2538
 8864SOL    HW138054   2.878   2.055   6.897 -0.0251 -0.4450 -0.1956
 8864SOL    HW238055   2.854   1.931   6.977 -1.7824 -0.4750 -0.5066
 8865SOL     OW38056   3.388   0.612   5.303  0.9849 -0.0151 -0.1994
 8865SOL    HW138057   3.438   0.541   5.343 -0.9168 -1.2870 -0.1027
 8865SOL    HW238058   3.439   0.689   5.330  1.6664 -0.2283 -0.8560
 8866SOL     OW38059   4.105   2.744   9.592  0.0654  0.5608  0.0925
 8866SOL    HW138060   4.167   2.777   9.526 -0.5579  2.2661  0.3647
 8866SOL    HW238061   4.119   2.649   9.593 -0.8237  0.4440  0.7920
 8867SOL     OW38062   0.848   1.329  13.859  0.1930  0.6104  0.1367
 8867SOL    HW138063   0.935   1.307  13.826  0.4347 -0.2842  1.3363
 8867SOL    HW238064   0.871   1.332  13.952 -0.1002 -1.4955  0.2864
 8868SOL     OW38065   1.960   1.543  14.225 -0.2566  0.0846 -0.3970
 8868SOL    HW138066   2.029   1.577  14.167  1.3861  1.0379  2.1365
 8868SOL    HW238067   2.009   1.472  14.267 -1.2868  0.0601  0.7484
 8869SOL     OW38068   3.621   1.747   7.231  0.0097 -0.6354 -0.1428
 8869SOL    HW138069   3.696   1.732   7.289  0.6641  3.1953  0.0265
 8869SOL    HW238070   3.560   1.800   7.282  0.5327  2.1156 -2.3589
 8870SOL     OW38071   0.504   3.934   6.565 -0.2424 -0.0764  0.0337
 8870SOL    HW138072   0.451   3.951   6.487  2.2889  2.0896 -1.2077
 8870SOL    HW238073   0.516   4.023   6.597 -0.2241 -0.2475  0.4969
 8871SOL     OW38074   0.776   3.018   8.646  0.3660  0.2347  0.0995
 8871SOL    HW138075   0.716   3.061   8.707  0.6291  4.3533 -2.5409
 8871SOL    HW238076   0.743   3.031   8.557  1.0923 -1.2375 -0.3709
 8872SOL     OW38077   1.130   4.160   8.945 -0.0775  0.1424 -0.0294
 8872SOL    HW138078   1.052   4.146   8.891 -0.9299  0.8575  1.0135
 8872SOL    HW238079   1.097   4.223   9.009 -0.7363  0.5307 -0.7577
 8873SOL     OW38080   1.112   3.325   5.646  0.0188  0.1722 -0.0438
 8873SOL    HW138081   1.045   3.392   5.630  0.7404  0.9701  0.2491
 8873SOL    HW238082   1.097   3.295   5.736 -0.9029 -0.4543 -0.4204
 8874SOL     OW38083   3.625   0.621  15.026  0.0635 -0.1427  0.0820
 8874SOL    HW138084   3.593   0.685  14.963 -0.8362  0.0067  0.6872
 8874SOL    HW238085   3.537   0.584  15.036 -0.0299 -0.0505 -0.3832
 8875SOL     OW38086   3.124   4.003   4.326  0.2854 -0.7652  0.2666
 8875SOL    HW138087   3.167   4.088   4.317 -0.4969 -0.6252 -2.2525
 8875SOL    HW238088   3.167   3.950   4.258 -2.1595  0.7684 -2.4467
 8876SOL     OW38089   2.135   2.778   3.775 -0.1029  0.4453 -0.0562
 8876SOL    HW138090   2.109   2.691   3.803  1.8358 -0.7079 -1.8155
 8876SOL    HW238091   2.071   2.797   3.706  1.7067  0.8340 -1.6528
 8877SOL     OW38092   0.084   1.769   3.094  0.1140  0.6732 -0.2396
 8877SOL    HW138093   0.138   1.835   3.138  1.2415  0.8555 -1.8621
 8877SOL    HW238094   0.150   1.700   3.097 -1.7009 -0.9891  1.0300
 8878SOL     OW38095   3.712   3.904  12.787  0.4118  0.1506 -0.2975
 8878SOL    HW138096   3.750   3.830  12.739 -2.5918 -0.3799 -1.8740
 8878SOL    HW238097   3.679   3.868  12.869 -2.2248  0.6450 -1.1297
 8879SOL     OW38098   0.070   3.912   7.783  0.1702 -0.3323 -0.1509
 8879SOL    HW138099   0.088   3.911   7.689 -1.3978 -1.8840 -0.4296
 8879SOL    HW238100   0.153   3.884   7.822  0.2857  0.3076  0.0676
 8880SOL     OW38101   4.004   0.459   7.949 -0.5903 -0.2957 -0.6756
 8880SOL    HW138102   3.925   0.506   7.921 -1.1648  0.1024  1.6525
 8880SOL    HW238103   4.052   0.463   7.866  0.1339  0.7436 -0.2087
 8881SOL     OW38104   4.452   1.366  16.149  0.4424  0.9394  0.2663
 8881SOL    HW138105   4.517   1.301  16.177  1.6186  2.1440  0.3101
 8881SOL    HW238106   4.368   1.322  16.161  0.5324  0.7057  0.0648
 8882SOL     OW38107   2.432   2.305   5.645 -0.4074 -0.2124  0.2863
 8882SOL    HW138108   2.506   2.274   5.699  0.3705  0.1745 -0.5538
 8882SOL    HW238109   2.348   2.288   5.688 -2.3881 -0.8000 -3.8614
 8883SOL     OW38110   1.131   0.055   0.519  0.3607  0.2782  0.5703
 8883SOL    HW138111   1.154   0.109   0.594 -0.2042 -0.3192  1.1833
 8883SOL    HW238112   1.036   0.064   0.523  0.4165 -0.0217  2.3796
 8884SOL     OW38113   4.112   3.480   4.839 -0.0591 -0.3080 -0.4209
 8884SOL    HW138114   4.091   3.478   4.745  0.0599 -0.2229 -0.4492
 8884SOL    HW238115   4.052   3.543   4.877  0.5025  1.2779 -2.1787
 8885SOL     OW38116   2.873   1.698   5.601 -0.2894 -0.0055  0.0823
 8885SOL    HW138117   2.782   1.699   5.572 -0.1243  0.2957 -0.4173
 8885SOL    HW238118   2.868   1.654   5.686 -0.6855 -1.2052 -0.5709
 8886SOL     OW38119   2.142   4.650   9.742 -0.6135  0.4262 -0.8465
 8886SOL    HW138120   2.180   4.574   9.698 -0.3667 -0.6761  1.2698
 8886SOL    HW238121   2.054   4.652   9.705 -1.0376  0.6573  0.1756
 8887SOL     OW38122   1.144   0.759  15.412  0.5205 -0.5796  0.0387
 8887SOL    HW138123   1.082   0.815  15.365 -0.6515 -2.3433 -0.5256
 8887SOL    HW238124   1.225   0.808  15.394  0.9201 -1.9244 -1.9350
 8888SOL     OW38125   3.826   3.036  15.185 -0.4066 -0.0177 -0.4385
 8888SOL    HW138126   3.737   3.041  15.152  0.3178 -2.0873 -2.7099
 8888SOL    HW238127   3.863   2.953  15.154 -0.5988 -0.1701 -0.2622
 8889SOL     OW38128   1.345   0.588   9.972 -0.1199 -0.6778 -0.3110
 8889SOL    HW138129   1.415   0.653   9.977 -2.8116  2.2721 -0.8277
 8889SOL    HW238130   1.278   0.644  10.012  0.7459  0.4289 -0.4040
 8890SOL     OW38131   0.837   4.519   8.987 -0.7575 -0.4131  0.0719
 8890SOL    HW138132   0.831   4.574   8.909 -1.4759  1.8790  1.7452
 8890SOL    HW238133   0.780   4.565   9.049  2.1099  0.0362  2.3916
 8891SOL     OW38134   2.100   4.199  16.557 -0.2722  0.3009 -0.3562
 8891SOL    HW138135   2.184   4.210  16.602 -1.7947 -0.5075  2.6512
 8891SOL    HW238136   2.070   4.289  16.545 -0.5318  0.5207  2.0019
 8892SOL     OW38137   3.966   4.167   3.399  0.3669 -0.5872  0.4303
 8892SOL    HW138138   3.973   4.177   3.304  0.6177 -2.8558  0.2039
 8892SOL    HW238139   4.057   4.159   3.426 -0.6988 -0.4028  3.9640
 8893SOL     OW38140   0.793   2.262   3.503  0.7279 -0.4174  0.5740
 8893SOL    HW138141   0.786   2.303   3.589 -0.6482 -0.2827  0.4054
 8893SOL    HW238142   0.708   2.218   3.512 -0.7209  2.0822 -0.6698
 8894SOL     OW38143   4.288   0.271  10.215  0.4801 -0.5523 -0.0894
 8894SOL    HW138144   4.264   0.179  10.224  0.0806 -0.3715  0.6795
 8894SOL    HW238145   4.230   0.305  10.147 -1.8106  0.8134  2.5524
 8895SOL     OW38146   3.325   4.392   3.305  0.5177 -0.4139  0.3377
 8895SOL    HW138147   3.259   4.324   3.321  1.5930 -2.5598 -4.2631
 8895SOL    HW238148   3.290   4.466   3.353  1.3519  1.1208 -1.4364
 8896SOL     OW38149   3.621   2.667   2.490  0.7372 -0.1029  1.0535
 8896SOL    HW138150   3.621   2.735   2.557  0.9991 -0.5824  1.5436
 8896SOL    HW238151   3.592   2.722   2.418  0.5625 -1.7722 -0.1537
 8897SOL     OW38152   0.991   0.195   2.185 -0.1506  0.1714  0.4112
 8897SOL    HW138153   1.085   0.195   2.168  0.1578 -0.7482  2.0995
 8897SOL    HW238154   0.948   0.135   2.123  0.6671 -0.1846  0.1831
 8898SOL     OW38155   3.982   1.985   7.257  0.1753  0.1025 -0.0213
 8898SOL    HW138156   3.989   1.993   7.162 -0.6778 -0.9714 -0.1811
 8898SOL    HW238157   4.030   2.060   7.290 -1.3543  1.1206 -0.0879
 8899SOL     OW38158   2.280   3.677   4.794 -0.0365  0.0881 -0.1072
 8899SOL    HW138159   2.202   3.637   4.756 -0.3833  0.2533  0.4295
 8899SOL    HW238160   2.348   3.620   4.758  0.0805  0.8834 -1.1539
 8900SOL     OW38161   1.600   4.252   8.311 -0.0192 -0.2607 -0.0124
 8900SOL    HW138162   1.626   4.344   8.312 -0.8118 -0.0373 -0.3000
 8900SOL    HW238163   1.541   4.249   8.386 -0.0907 -0.2846 -0.0701
 8901SOL     OW38164   0.401   1.673  13.445  0.3681  0.5127 -0.1721
 8901SOL    HW138165   0.367   1.683  13.356 -0.7582  0.4445  0.2415
 8901SOL    HW238166   0.346   1.607  13.488  0.7393 -0.1480 -0.7216
 8902SOL     OW38167   3.045   3.464  13.327 -0.5047  0.5200 -0.3791
 8902SOL    HW138168   3.065   3.489  13.417 -2.3239  2.8627 -0.6083
 8902SOL    HW238169   3.129   3.425  13.302  0.3589  3.0403 -1.3887
 8903SOL     OW38170   2.290   0.763  17.088  0.0643 -0.1632  0.6123
 8903SOL    HW138171   2.200   0.733  17.100 -0.4387  0.7649 -0.7852
 8903SOL    HW238172   2.301   0.828  17.157 -2.1158 -0.5556  1.3341
 8904SOL     OW38173   2.781   2.825   4.883  0.2571 -0.0754 -0.1449
 8904SOL    HW138174   2.781   2.919   4.867 -1.4304 -0.1833 -0.7696
 8904SOL    HW238175   2.869   2.808   4.850 -0.2023 -1.7906 -0.4959
 8905SOL     OW38176   1.418   2.060   7.404 -0.2609  0.4177 -0.4547
 8905SOL    HW138177   1.476   1.998   7.361 -1.9913  0.4817 -2.8845
 8905SOL    HW238178   1.334   2.045   7.360 -0.0466  0.7937 -0.9985
 8906SOL     OW38179   2.879   2.895  17.186 -0.0012 -0.7323 -0.2971
 8906SOL    HW138180   2.947   2.861  17.128  0.5124 -0.8202  0.3569
 8906SOL    HW238181   2.900   2.987  17.171  0.7584 -0.7855  0.4126
 8907SOL     OW38182   2.506   2.447  12.189 -0.0927 -0.1490 -0.3807
 8907SOL    HW138183   2.415   2.447  12.161  0.0697 -1.1090 -0.8864
 8907SOL    HW238184   2.557   2.451  12.108 -0.9595 -0.9029 -0.9662
 8908SOL     OW38185   0.616   2.953   4.822 -0.0525  0.0146 -0.4201
 8908SOL    HW138186   0.598   3.026   4.764 -0.9769 -0.0500 -0.2145
 8908SOL    HW238187   0.589   2.997   4.903 -1.4534 -1.5421 -0.0409
 8909SOL     OW38188   3.655   3.207   2.980  0.0714  0.5074 -0.4082
 8909SOL    HW138189   3.578   3.179   2.931  1.2131  0.1739 -2.0178
 8909SOL    HW238190   3.719   3.143   2.949  0.0491  0.5048 -0.4483
 8910SOL     OW38191   2.859   2.845  10.682  0.4563 -0.3530  0.8705
 8910SOL    HW138192   2.826   2.894  10.757  0.8386 -0.8380  1.3524
 8910SOL    HW238193   2.907   2.916  10.640 -1.3672  1.0734  1.1752
 8911SOL     OW38194   1.546   4.047   7.736  0.7035 -0.5751 -0.6578
 8911SOL    HW138195   1.496   4.090   7.806  1.9086 -0.4557  0.1255
 8911SOL    HW238196   1.493   4.045   7.657  1.7977 -1.6436 -1.3486
 8912SOL     OW38197   3.024   3.737   8.104 -0.1576 -0.1508  0.2182
 8912SOL    HW138198   2.947   3.789   8.125  0.0439 -0.7757  2.5063
 8912SOL    HW238199   3.052   3.778   8.022 -1.6127  1.9462  0.8026
 8913SOL     OW38200   0.474   3.228  13.859  0.4214  0.3800 -0.9064
 8913SOL    HW138201   0.409   3.284  13.815  0.9202  1.6493 -0.0159
 8913SOL    HW238202   0.488   3.280  13.938  0.4317  1.8989 -1.9080
 8914SOL     OW38203   4.609   4.413   1.315 -0.2641 -0.4922 -0.0037
 8914SOL    HW138204   4.633   4.397   1.407 -0.2348 -1.1644 -0.1282
 8914SOL    HW238205   4.645   4.343   1.260 -0.0189  0.6792 -1.3336
 8915SOL     OW38206   3.523   1.320   8.517  0.0715  0.3332 -0.0514
 8915SOL    HW138207   3.616   1.340   8.526 -0.1078  1.0608  0.2086
 8915SOL    HW238208   3.520   1.306   8.423  2.2322 -3.8839  0.5073
 8916SOL     OW38209   3.835   1.879   6.500 -0.2462 -0.1853 -0.2579
 8916SOL    HW138210   3.814   1.902   6.409  1.9068  0.1879 -0.6609
 8916SOL    HW238211   3.929   1.863   6.499  0.0069  1.2928  0.5140
 8917SOL     OW38212   3.059   2.516   8.349  0.3371  0.2971 -0.1955
 8917SOL    HW138213   3.142   2.477   8.376  0.4118  1.6322  1.5055
 8917SOL    HW238214   3.014   2.443   8.306  1.5690 -0.9209  0.6039
 8918SOL     OW38215   1.576   1.153   8.396 -0.3716  0.0039  0.8797
 8918SOL    HW138216   1.652   1.130   8.449  0.8468  4.5188  1.0303
 8918SOL    HW238217   1.508   1.163   8.463 -0.6607 -2.0213  0.8983
 8919SOL     OW38218   3.141   2.390  12.800  0.7573  0.6574 -0.6752
 8919SOL    HW138219   3.210   2.324  12.800  0.5259  0.4158 -1.0926
 8919SOL    HW238220   3.186   2.458  12.850 -0.6388  0.8810  0.2928
 8920SOL     OW38221   2.250   4.300   3.581 -0.1975  0.2063  0.5263
 8920SOL    HW138222   2.291   4.237   3.641  1.8181  2.7082  1.8015
 8920SOL    HW238223   2.271   4.385   3.620 -1.1212  1.6765 -2.1696
 8921SOL     OW38224   2.297   4.436   9.915 -0.3268 -0.8781  0.1181
 8921SOL    HW138225   2.204   4.419   9.905 -0.5524  0.4701 -0.0769
 8921SOL    HW238226   2.293   4.464  10.007  3.1411 -0.2851  0.1049
 8922SOL     OW38227   0.728   3.049   9.718 -0.2479 -0.0220 -0.0033
 8922SOL    HW138228   0.691   2.962   9.705 -0.9828  0.2334  0.4353
 8922SOL    HW238229   0.748   3.050   9.812 -0.8503 -1.8061  0.1442
 8923SOL     OW38230   4.688   1.790   7.297 -0.0860 -0.4251  0.5674
 8923SOL    HW138231   0.036   1.735   7.327  1.2541  1.0172 -0.0983
 8923SOL    HW238232   0.013   1.867   7.271  1.4849 -1.0133  1.7750
 8924SOL     OW38233   1.072   0.299  14.437  0.2116  0.3840 -0.4030
 8924SOL    HW138234   1.029   0.367  14.386 -0.9537 -0.5485 -0.6633
 8924SOL    HW238235   1.059   0.228  14.373 -1.0062  0.6191 -0.4223
 8925SOL     OW38236   1.245   0.245   2.089 -0.2213  0.4291 -0.0069
 8925SOL    HW138237   1.242   0.169   2.030 -0.2193  0.1549  0.3431
 8925SOL    HW238238   1.230   0.319   2.031 -0.7309  0.3057 -0.0323
 8926SOL     OW38239   4.201   1.886   5.611  0.5286 -0.6332  0.2831
 8926SOL    HW138240   4.201   1.952   5.680 -2.1900 -1.6359  1.2612
 8926SOL    HW238241   4.125   1.835   5.639  0.7856 -0.5374  1.1584
 8927SOL     OW38242   1.332   4.317   9.073  0.6050  0.1377  0.0563
 8927SOL    HW138243   1.268   4.248   9.062  0.8412 -0.2875  1.3528
 8927SOL    HW238244   1.375   4.302   9.157  1.4716  1.2832 -0.1719
 8928SOL     OW38245   3.522   1.331  14.553 -0.0994 -0.2651 -0.0344
 8928SOL    HW138246   3.511   1.245  14.512  0.0453 -0.9921  1.4740
 8928SOL    HW238247   3.586   1.320  14.623 -0.0072  0.3327 -0.0270
 8929SOL     OW38248   1.694   2.051  11.695 -0.2693 -0.2245  0.4836
 8929SOL    HW138249   1.601   2.052  11.718 -0.5582 -0.4971 -0.6305
 8929SOL    HW238250   1.705   1.955  11.694  0.5355 -0.1286  0.1075
 8930SOL     OW38251   1.085   4.710   3.281 -0.0877 -0.1867  0.0429
 8930SOL    HW138252   1.128   0.014   3.200  0.0514  2.4922  1.0847
 8930SOL    HW238253   1.091   0.065   3.333  1.5053 -0.9684  1.0886
 8931SOL     OW38254   4.296   2.540   4.802 -0.2743 -0.2241 -0.0924
 8931SOL    HW138255   4.219   2.590   4.777  0.4692  1.3577  0.7846
 8931SOL    HW238256   4.263   2.452   4.785 -0.9558 -0.7397  3.7606
 8932SOL     OW38257   4.072   3.032  10.815 -0.1236 -0.1161  0.2441
 8932SOL    HW138258   4.111   3.046  10.901 -0.0515 -2.3316  0.5739
 8932SOL    HW238259   4.149   2.994  10.772  0.5877  2.2881 -0.5667
 8933SOL     OW38260   4.589   1.011   5.843 -0.4348 -0.0549  0.0459
 8933SOL    HW138261   4.533   1.072   5.891  0.1979 -0.1418  0.9025
 8933SOL    HW238262   4.629   1.080   5.789  0.0548 -0.6660 -0.3695
 8934SOL     OW38263   2.164   0.383   4.002  0.0672 -0.9508  0.1945
 8934SOL    HW138264   2.141   0.471   4.032  2.1223 -1.1154  2.2499
 8934SOL    HW238265   2.081   0.336   4.016 -0.5196 -0.2419 -0.8808
 8935SOL     OW38266   0.363   3.238   5.506  0.7162 -0.5432 -0.3066
 8935SOL    HW138267   0.283   3.190   5.484 -0.5240  1.2810  0.1932
 8935SOL    HW238268   0.380   3.193   5.589 -2.6798 -0.1918  0.5975
 8936SOL     OW38269   3.310   3.074  13.076  0.3802  0.1753 -0.3152
 8936SOL    HW138270   3.276   3.001  13.025  0.6075 -1.3448  1.7205
 8936SOL    HW238271   3.402   3.070  13.051  0.9306  0.6316  1.6203
 8937SOL     OW38272   2.426   2.717   6.440 -0.2836  0.3375 -0.2797
 8937SOL    HW138273   2.369   2.707   6.364  2.0006 -1.0143 -1.8136
 8937SOL    HW238274   2.471   2.798   6.415  0.2804 -0.8806 -3.2014
 8938SOL     OW38275   0.510   1.737   8.776  0.3426  0.0154  0.0903
 8938SOL    HW138276   0.468   1.658   8.810 -3.0558  1.4556 -0.7786
 8938SOL    HW238277   0.496   1.795   8.851 -0.4337 -0.2783  0.1719
 8939SOL     OW38278   0.763   1.840   5.021  0.2027 -0.2271  0.3721
 8939SOL    HW138279   0.702   1.780   5.063 -0.5161  1.7414  2.1515
 8939SOL    HW238280   0.809   1.777   4.966  1.6548  1.9497 -0.9254
 8940SOL     OW38281   0.671   1.753  16.486 -0.5572 -0.3667 -0.2543
 8940SOL    HW138282   0.642   1.707  16.407  0.5669 -1.2585 -0.1476
 8940SOL    HW238283   0.764   1.739  16.469 -0.2652  0.7920  0.4080
 8941SOL     OW38284   1.931   4.144   0.946 -0.1227  0.5439  0.0108
 8941SOL    HW138285   1.862   4.192   0.994 -0.8618  0.8235 -1.3437
 8941SOL    HW238286   1.957   4.215   0.888  0.3496  0.0296 -0.4013
 8942SOL     OW38287   0.493   2.887   5.523  0.1162  0.0504 -0.3027
 8942SOL    HW138288   0.555   2.958   5.536 -0.8519  1.2288 -2.2402
 8942SOL    HW238289   0.540   2.805   5.538  1.2295  0.4006 -1.9318
 8943SOL     OW38290   1.472   1.021   2.899 -0.2028 -0.3032  0.3895
 8943SOL    HW138291   1.503   0.994   2.813 -1.0137  2.4983 -0.7827
 8943SOL    HW238292   1.517   0.957   2.954  1.1108  0.4591  0.1993
 8944SOL     OW38293   3.906   4.601   8.808 -0.0869  0.2973 -0.3737
 8944SOL    HW138294   3.987   4.589   8.859  0.0085 -0.5822 -0.7339
 8944SOL    HW238295   3.917   4.693   8.782  1.0900  0.6651  1.3622
 8945SOL     OW38296   1.494   0.572   6.159 -0.1855 -0.0670 -0.3908
 8945SOL    HW138297   1.442   0.517   6.100  0.2478 -1.5127  0.5560
 8945SOL    HW238298   1.435   0.592   6.231  0.8891  0.2119  0.4075
 8946SOL     OW38299   3.711   2.930   1.728 -0.5028 -0.7282 -0.7057
 8946SOL    HW138300   3.628   2.946   1.682 -0.2568  1.7899 -0.3058
 8946SOL    HW238301   3.780   2.955   1.666 -0.0778 -1.1704 -0.4150
 8947SOL     OW38302   0.810   3.095   6.721  0.3486 -0.3329  0.2694
 8947SOL    HW138303   0.815   3.157   6.795 -0.3863  0.3122 -0.2324
 8947SOL    HW238304   0.735   3.043   6.747 -0.1166  1.6097  2.8517
 8948SOL     OW38305   1.988   0.763   8.119  0.3797 -0.5219  0.4135
 8948SOL    HW138306   1.941   0.730   8.196  0.3870 -0.6730  0.3541
 8948SOL    HW238307   2.050   0.823   8.160  0.9903 -0.8894  0.0358
 8949SOL     OW38308   1.238   2.864  12.852 -0.4663  0.1678 -0.1224
 8949SOL    HW138309   1.271   2.937  12.905 -2.5919 -0.8186  2.5287
 8949SOL    HW238310   1.309   2.801  12.866 -0.2767  0.3758 -0.1465
 8950SOL     OW38311   4.610   2.209  14.376 -0.3220 -0.8064  0.2068
 8950SOL    HW138312   4.581   2.292  14.414  0.0216 -0.0483 -1.2010
 8950SOL    HW238313   4.696   2.208  14.419  1.0509 -2.2458 -2.5480
 8951SOL     OW38314   4.146   3.109   2.603 -0.0006 -0.3366  0.5796
 8951SOL    HW138315   4.131   3.190   2.554  1.1231  1.0999  2.6069
 8951SOL    HW238316   4.164   3.044   2.535  2.2126  1.7709 -0.8422
 8952SOL     OW38317   0.449   0.038   1.181 -0.2945  0.2111  0.1479
 8952SOL    HW138318   0.434   0.064   1.271  3.2814 -1.8101  1.3195
 8952SOL    HW238319   0.487   0.114   1.138  0.8185 -1.3097 -1.5972
 8953SOL     OW38320   3.103   2.454   3.899 -0.0483 -0.0584 -0.0529
 8953SOL    HW138321   3.046   2.387   3.937  0.4958 -1.8796 -2.4362
 8953SOL    HW238322   3.107   2.512   3.975 -1.0164 -1.5720  1.1429
 8954SOL     OW38323   0.333   2.784   5.859  0.2043 -0.3482 -0.7734
 8954SOL    HW138324   0.248   2.744   5.840  0.8080 -2.0027  0.0513
 8954SOL    HW238325   0.389   2.707   5.862  0.3326 -0.1799  1.1077
 8955SOL     OW38326   3.699   2.899   8.110  0.1061  0.3746  0.3803
 8955SOL    HW138327   3.738   2.961   8.047  2.0387 -1.2548 -0.0287
 8955SOL    HW238328   3.756   2.827   8.085 -0.0771  0.4366 -0.2175
 8956SOL     OW38329   0.404   1.484   6.018  0.4495 -0.5369 -0.0530
 8956SOL    HW138330   0.422   1.568   6.059 -0.9880 -0.4792  0.4434
 8956SOL    HW238331   0.326   1.460   6.068  1.3019 -0.0995  1.4904
 8957SOL     OW38332   1.458   1.654   3.509 -0.1829  0.6666  0.4558
 8957SOL    HW138333   1.408   1.582   3.547 -0.4039  0.8729  0.5542
 8957SOL    HW238334   1.548   1.635   3.536 -0.1321 -3.3515 -2.4572
 8958SOL     OW38335   2.215   1.709  15.070  0.1412  0.1253  0.2238
 8958SOL    HW138336   2.211   1.795  15.111 -0.1938 -0.7274  1.9546
 8958SOL    HW238337   2.297   1.712  15.021  0.4989  0.3623  0.8440
 8959SOL     OW38338   0.638   3.263   4.260  0.4625  0.0285  0.7538
 8959SOL    HW138339   0.713   3.306   4.220  0.8634  1.6869  3.2573
 8959SOL    HW238340   0.566   3.325   4.243  0.2865 -0.0610  1.1547
 8960SOL     OW38341   1.186   0.108   6.650  0.1021  0.8700 -0.3165
 8960SOL    HW138342   1.247   0.093   6.577  0.1372  1.9200 -0.4988
 8960SOL    HW238343   1.143   0.191   6.627  0.7044  0.9313 -1.2487
 8961SOL     OW38344   3.916   1.855   1.037 -0.0705  0.6161  0.3011
 8961SOL    HW138345   3.964   1.803   1.102 -0.3252 -3.6271 -2.9132
 8961SOL    HW238346   3.835   1.876   1.085 -2.1204 -0.3513 -2.7274
 8962SOL     OW38347   3.128   4.409   0.101 -0.5109  0.3232  0.3256
 8962SOL    HW138348   3.059   4.401   0.035  0.3651  2.6451 -0.8759
 8962SOL    HW238349   3.099   4.339   0.159  0.5836 -1.3388 -1.1344
 8963SOL     OW38350   2.144   2.829  17.032 -0.4715  0.2760  0.2182
 8963SOL    HW138351   2.186   2.881  16.962 -1.7796  0.8129 -0.1660
 8963SOL    HW238352   2.078   2.892  17.060  0.3082  1.1531  0.0875
 8964SOL     OW38353   3.876   0.777  14.151  0.3861 -0.5346 -0.7082
 8964SOL    HW138354   3.852   0.867  14.172  0.5519 -0.8504  0.9084
 8964SOL    HW238355   3.881   0.778  14.056 -1.5264  3.5969 -0.7187
 8965SOL     OW38356   4.471   1.938   2.760 -0.0788 -0.0007  0.4505
 8965SOL    HW138357   4.414   1.997   2.711 -2.3810 -3.2810 -0.8349
 8965SOL    HW238358   4.540   1.935   2.693  0.0931  0.4153  0.6102
 8966SOL     OW38359   0.111   2.262   9.174  0.0021 -0.5219  0.1942
 8966SOL    HW138360   0.090   2.351   9.145 -0.3801 -0.3339  1.0327
 8966SOL    HW238361   0.076   2.268   9.263  0.4501 -0.1981  0.3509
 8967SOL     OW38362   3.380   2.530   3.060  0.0563  0.2573 -0.1596
 8967SOL    HW138363   3.328   2.527   3.141  1.1836 -1.4268  0.5057
 8967SOL    HW238364   3.445   2.596   3.087 -0.9800  0.8888  0.8146
 8968SOL     OW38365   4.265   0.484  10.375 -0.3823  0.1388 -0.0166
 8968SOL    HW138366   4.260   0.403  10.323 -4.2982  0.2033  0.2145
 8968SOL    HW238367   4.359   0.497  10.367 -0.3156 -0.2358  0.1340
 8969SOL     OW38368   0.154   2.394   6.486  0.5382  0.2068 -0.6662
 8969SOL    HW138369   0.076   2.409   6.432  0.1265 -0.0152 -0.1350
 8969SOL    HW238370   0.161   2.479   6.530  0.9692  0.6210 -1.5368
 8970SOL     OW38371   3.047   2.282   9.318 -0.2668 -0.5460  0.0322
 8970SOL    HW138372   3.053   2.187   9.306 -0.6961 -0.4281 -1.0667
 8970SOL    HW238373   2.955   2.291   9.343 -0.2070 -0.0667  0.0907
 8971SOL     OW38374   4.320   3.446   0.459 -0.3521 -0.1313  0.3957
 8971SOL    HW138375   4.376   3.444   0.381  0.9831 -1.4851  1.3928
 8971SOL    HW238376   4.302   3.540   0.452  0.3558  0.0320  0.8286
 8972SOL     OW38377   4.146   2.365   8.058  0.1410 -0.1376 -0.8319
 8972SOL    HW138378   4.125   2.389   7.967  0.6567 -2.2525 -1.4971
 8972SOL    HW238379   4.060   2.372   8.100  0.3885 -1.4875 -0.1382
 8973SOL     OW38380   0.832   3.952   6.034 -0.1717 -0.2716  0.0785
 8973SOL    HW138381   0.840   3.924   5.943  1.5964 -0.4249  0.2846
 8973SOL    HW238382   0.853   3.867   6.072  1.3314  0.3882  0.7324
 8974SOL     OW38383   1.742   1.416   2.993 -0.3862 -0.8030 -0.3526
 8974SOL    HW138384   1.764   1.501   3.030 -1.7668 -0.8156  0.4612
 8974SOL    HW238385   1.689   1.430   2.914 -0.2983 -1.2649 -0.4977
 8975SOL     OW38386   2.910   3.313   5.381 -0.2232 -0.5079 -0.1430
 8975SOL    HW138387   2.866   3.245   5.431 -2.5270  2.1059  1.3740
 8975SOL    HW238388   2.894   3.394   5.429 -1.2552  0.8053 -2.6585
 8976SOL     OW38389   0.630   3.328   7.074 -0.5837 -0.6370 -0.0276
 8976SOL    HW138390   0.616   3.299   7.164  2.1716  1.5061  1.0698
 8976SOL    HW238391   0.639   3.423   7.082 -0.9363 -0.5884 -0.1920
 8977SOL     OW38392   4.593   0.340  11.087  0.1006 -0.2682  0.0981
 8977SOL    HW138393   4.536   0.412  11.110  1.4895  0.9323 -0.1884
 8977SOL    HW238394   4.680   0.379  11.093  0.6719 -1.5116 -0.0759
 8978SOL     OW38395   2.356   0.500   9.158  0.3497  0.3708  0.5368
 8978SOL    HW138396   2.265   0.471   9.146  0.3932 -0.1511  1.4494
 8978SOL    HW238397   2.392   0.477   9.072 -0.3742  2.2732 -0.2642
 8979SOL     OW38398   2.817   0.791   0.674  0.2021 -0.1812  0.9122
 8979SOL    HW138399   2.778   0.802   0.761 -0.7513  1.0613  0.3415
 8979SOL    HW238400   2.873   0.715   0.690 -0.4289 -0.2943  2.5958
 8980SOL     OW38401   0.373   3.311   6.060  0.1669  0.2910  0.2493
 8980SOL    HW138402   0.308   3.377   6.035 -0.8220 -0.9751 -0.5386
 8980SOL    HW238403   0.448   3.362   6.090  0.3697 -0.5918  1.2168
 8981SOL     OW38404   2.430   1.967   8.455 -0.5886 -0.1980 -0.1198
 8981SOL    HW138405   2.412   1.963   8.549 -2.9390  2.7052 -0.4297
 8981SOL    HW238406   2.373   2.043   8.440 -1.2744 -0.9371 -1.2400
 8982SOL     OW38407   2.061   4.498  15.904 -0.0261  0.0399  0.4308
 8982SOL    HW138408   1.987   4.553  15.930 -0.7277 -0.7838  0.1628
 8982SOL    HW238409   2.031   4.415  15.940 -1.9760  0.7111  0.3461
 8983SOL     OW38410   3.486   3.009   3.717 -0.3921 -0.4569 -0.0243
 8983SOL    HW138411   3.434   3.089   3.706 -1.0602 -1.3480 -3.3207
 8983SOL    HW238412   3.537   3.010   3.636 -0.8948 -2.1056 -0.3646
 8984SOL     OW38413   1.933   3.908   7.692  0.0069 -0.1183  0.1061
 8984SOL    HW138414   1.983   3.979   7.733  0.0571  0.4340 -0.9109
 8984SOL    HW238415   1.918   3.853   7.769 -0.7586 -0.3849 -0.2257
 8985SOL     OW38416   2.363   1.667   2.744  0.2068  0.4527  0.3718
 8985SOL    HW138417   2.384   1.589   2.694 -0.3438  1.1519 -0.9465
 8985SOL    HW238418   2.351   1.724   2.668 -0.3844  0.4030  0.4206
 8986SOL     OW38419   0.584   1.431  13.614  0.0569 -0.0972 -0.2244
 8986SOL    HW138420   0.492   1.439  13.589 -0.0239 -0.4316 -0.0348
 8986SOL    HW238421   0.606   1.370  13.543 -0.1264 -1.5019  0.9148
 8987SOL     OW38422   1.274   1.308   4.033 -0.5560 -0.5778  0.3323
 8987SOL    HW138423   1.182   1.334   4.045  0.5699  2.9902  1.2506
 8987SOL    HW238424   1.261   1.256   3.954  0.5584 -1.3842  0.6774
 8988SOL     OW38425   0.139   2.563   7.434  0.2577  0.2086 -0.0441
 8988SOL    HW138426   0.220   2.596   7.394 -0.7583  2.7636  0.0059
 8988SOL    HW238427   0.171   2.479   7.466 -1.4305 -1.0568 -1.7398
 8989SOL     OW38428   4.686   4.401   3.487  0.1216  0.0448 -0.6297
 8989SOL    HW138429   4.649   4.456   3.419  1.1371  1.0053 -0.4138
 8989SOL    HW238430   4.640   4.318   3.477 -1.4989  0.9022 -0.2640
 8990SOL     OW38431   2.622   4.033   3.866  0.2740 -0.1602  0.2612
 8990SOL    HW138432   2.597   4.082   3.788 -2.3553 -0.2137  1.0913
 8990SOL    HW238433   2.579   3.953   3.835 -3.5395  1.1720  2.1762
 8991SOL     OW38434   1.216   2.383  17.523  0.2689 -0.0344 -0.2071
 8991SOL    HW138435   1.126   2.414  17.537  0.3005  0.5236 -1.2385
 8991SOL    HW238436   1.227   2.310  17.584 -0.7929  1.3975  1.7012
 8992SOL     OW38437   2.467   1.770   0.170  0.0026 -0.3712  0.1982
 8992SOL    HW138438   2.560   1.759   0.190 -0.2426 -1.2934  0.8111
 8992SOL    HW238439   2.442   1.800   0.257 -1.0582  1.0670 -0.6012
 8993SOL     OW38440   2.873   1.510   3.596  0.0990 -0.3081 -0.5398
 8993SOL    HW138441   2.787   1.544   3.574  0.5495  0.6430 -0.8152
 8993SOL    HW238442   2.922   1.522   3.515  2.7341 -1.6838  0.8171
 8994SOL     OW38443   2.721   3.247   8.017 -0.0888  0.1887  0.3557
 8994SOL    HW138444   2.649   3.205   8.063 -1.1931  1.3627 -0.2855
 8994SOL    HW238445   2.667   3.286   7.948  2.2952 -1.3281 -2.3347
 8995SOL     OW38446   1.473   3.972   3.478 -0.1735  0.2390 -0.1618
 8995SOL    HW138447   1.429   3.967   3.394  0.1379  2.4671 -0.4568
 8995SOL    HW238448   1.558   3.937   3.453 -0.0419  1.0367 -0.8305
 8996SOL     OW38449   2.155   3.256   4.404  0.7638 -0.3356 -0.2137
 8996SOL    HW138450   2.083   3.318   4.394  2.4173  1.3099 -1.7051
 8996SOL    HW238451   2.223   3.312   4.369  0.5902  0.7012  1.1285
 8997SOL     OW38452   2.146   1.440  13.961  0.1190  0.0751  0.5394
 8997SOL    HW138453   2.201   1.454  13.884  0.3495 -2.3070  0.2937
 8997SOL    HW238454   2.162   1.523  14.007 -1.7013  1.0704 -0.6096
 8998SOL     OW38455   4.267   4.554   1.616 -0.4899 -0.2337  0.4062
 8998SOL    HW138456   4.193   4.589   1.665 -0.7279 -0.6253  0.3257
 8998SOL    HW238457   4.254   4.459   1.610  1.5815 -0.4046 -1.3291
 8999SOL     OW38458   3.231   1.043   9.696 -0.8923  0.3799  0.0007
 8999SOL    HW138459   3.282   1.052   9.616 -0.3296 -0.8238  0.2266
 8999SOL    HW238460   3.295   1.089   9.751 -1.1564 -0.5625  1.0961
 9000SOL     OW38461   3.045   4.260   0.312  0.1381 -0.1489 -0.0735
 9000SOL    HW138462   3.095   4.267   0.392  0.5963 -1.0523 -0.2904
 9000SOL    HW238463   3.054   4.167   0.293  0.3245  0.0092 -0.7911
 9001SOL     OW38464   2.437   2.003  14.274  0.1467 -0.0716  0.2164
 9001SOL    HW138465   2.398   1.919  14.248  0.3164  0.1107 -0.6299
 9001SOL    HW238466   2.412   1.999  14.366  2.7456 -0.5107  0.9078
 9002SOL     OW38467   2.116   4.193   5.895 -0.3457  0.0118 -0.1260
 9002SOL    HW138468   2.136   4.275   5.850  0.8732  0.0791  0.5443
 9002SOL    HW238469   2.137   4.205   5.988 -1.6882 -0.9085  0.2905
 9003SOL     OW38470   3.591   1.394   2.055  0.1671  0.4787  0.3574
 9003SOL    HW138471   3.528   1.383   2.127  2.1889 -0.8890  1.9254
 9003SOL    HW238472   3.541   1.353   1.984  0.2572  0.2762  0.4112
 9004SOL     OW38473   0.850   2.088   2.919 -0.0833  0.1078 -0.0267
 9004SOL    HW138474   0.838   2.163   2.861  1.4115  0.7964  0.5522
 9004SOL    HW238475   0.945   2.094   2.927 -0.1416  1.1732 -0.1313
 9005SOL     OW38476   0.149   3.197   3.127  0.1991  0.2201  0.2631
 9005SOL    HW138477   0.121   3.265   3.188 -0.6636  1.8410 -1.9114
 9005SOL    HW238478   0.212   3.151   3.182  0.3280 -0.2077 -0.2429
 9006SOL     OW38479   3.101   3.245   6.804  0.0088  0.1040 -0.4407
 9006SOL    HW138480   3.108   3.165   6.856  3.1991 -0.0283 -1.1212
 9006SOL    HW238481   3.007   3.265   6.804 -0.3282 -1.5457 -1.9351
 9007SOL     OW38482   4.585   3.958  10.833  0.6606  0.0457 -0.3330
 9007SOL    HW138483   4.659   3.902  10.807  1.0293  0.3544  0.0470
 9007SOL    HW238484   4.609   4.030  10.773 -0.7429  1.1587  0.4534
 9008SOL     OW38485   3.358   0.413   4.586 -0.5321  0.2539  0.0334
 9008SOL    HW138486   3.429   0.379   4.531 -0.3802 -0.5771  0.7382
 9008SOL    HW238487   3.282   0.378   4.540  0.2430 -2.2557  0.6577
 9009SOL     OW38488   4.076   0.488   6.539  0.7625 -0.4918  0.6375
 9009SOL    HW138489   4.089   0.567   6.486  0.2635 -1.0334 -0.3026
 9009SOL    HW238490   4.033   0.433   6.473 -0.6592  2.0259 -0.5534
 9010SOL     OW38491   1.212   4.273   1.409 -0.1271  0.2962  0.1824
 9010SOL    HW138492   1.252   4.283   1.495  2.2380  0.9718 -0.9915
 9010SOL    HW238493   1.282   4.237   1.353 -0.8015  0.8588 -1.0342
 9011SOL     OW38494   3.766   2.548   5.377  0.3326  0.2815  0.5730
 9011SOL    HW138495   3.684   2.586   5.410 -0.3374 -0.2789 -0.4589
 9011SOL    HW238496   3.759   2.462   5.418  1.5145 -0.2105 -0.2787
 9012SOL     OW38497   4.286   3.718   0.502 -0.5819 -0.1910  0.5848
 9012SOL    HW138498   4.263   3.810   0.494  0.0109 -0.1984 -1.3127
 9012SOL    HW238499   4.368   3.715   0.550 -0.8347  0.6625  1.0556
 9013SOL     OW38500   2.585   4.624   2.423 -0.2693 -0.3150  0.0319
 9013SOL    HW138501   2.642   4.634   2.347 -0.5545  0.5573 -0.0689
 9013SOL    HW238502   2.539   4.545   2.394 -0.4216 -0.3777  0.4460
 9014SOL     OW38503   1.275   0.254  14.033 -0.1820  0.1961 -0.2979
 9014SOL    HW138504   1.264   0.180  13.973 -1.9603  0.4795 -0.3044
 9014SOL    HW238505   1.226   0.216  14.106 -0.1958  1.0774  0.1546
 9015SOL     OW38506   0.883   3.277   4.133 -0.3151 -0.2811 -0.2994
 9015SOL    HW138507   0.895   3.182   4.138  1.4296  0.0359  1.4081
 9015SOL    HW238508   0.973   3.310   4.132 -0.5931  0.5031  2.0354
 9016SOL     OW38509   0.068   2.747  15.979  0.4320 -0.0720  0.0798
 9016SOL    HW138510   4.707   2.706  15.990  0.3395 -0.3920 -1.9451
 9016SOL    HW238511   0.069   2.791  16.065  2.3370  0.7703 -0.3769
 9017SOL     OW38512   1.564   1.473  10.324 -0.1321 -0.0067 -0.0926
 9017SOL    HW138513   1.592   1.544  10.266  0.9740  0.2596  0.7893
 9017SOL    HW238514   1.628   1.407  10.299 -0.4560 -0.8634  1.3456
 9018SOL     OW38515   1.112   3.280  13.884 -0.1485  0.5757  0.2532
 9018SOL    HW138516   1.016   3.281  13.887 -0.1673 -0.2867 -0.0777
 9018SOL    HW238517   1.125   3.301  13.792  1.0350 -1.1210  0.0421
 9019SOL     OW38518   1.758   1.903   8.556 -0.3552 -0.0554 -0.1124
 9019SOL    HW138519   1.723   1.877   8.472  0.7434  1.2063 -0.9730
 9019SOL    HW238520   1.735   1.828   8.611 -1.7318  1.0505  0.8218
 9020SOL     OW38521   1.908   1.780   5.419  0.0338 -0.4033 -0.8556
 9020SOL    HW138522   1.965   1.731   5.477 -0.9834  1.9063  2.0583
 9020SOL    HW238523   1.854   1.831   5.479  1.1568 -0.2447  0.0150
 9021SOL     OW38524   1.347   2.329   8.415 -0.0211 -0.0415  0.3541
 9021SOL    HW138525   1.311   2.398   8.471  0.5749  1.0776 -0.6257
 9021SOL    HW238526   1.379   2.262   8.476  0.5472 -0.8353 -0.8280
 9022SOL     OW38527   4.130   1.565   3.979 -0.0277  0.4842  0.0385
 9022SOL    HW138528   4.056   1.589   4.036  1.5540  0.3879  2.1612
 9022SOL    HW238529   4.117   1.472   3.964 -0.3292  0.7945 -1.5299
 9023SOL     OW38530   0.706   4.093  11.031  0.1129 -0.0128  0.2171
 9023SOL    HW138531   0.774   4.099  11.099  2.5731 -0.2626 -2.2369
 9023SOL    HW238532   0.624   4.107  11.077  0.4149  0.7997  0.5104
 9024SOL     OW38533   3.647   3.779   3.303  0.0265  0.3397 -0.2389
 9024SOL    HW138534   3.630   3.854   3.359  1.4177  0.3200  0.2133
 9024SOL    HW238535   3.594   3.809   3.230 -3.1851 -2.0835  1.1077
 9025SOL     OW38536   4.697   4.571   2.550 -0.5457  0.5043 -0.5658
 9025SOL    HW138537   0.017   4.493   2.518 -3.5881 -1.2446 -0.5502
 9025SOL    HW238538   0.037   4.638   2.526 -0.7213  1.3338  1.3312
 9026SOL     OW38539   3.541   3.564   5.570 -0.2725 -0.4819 -0.1212
 9026SOL    HW138540   3.574   3.532   5.654 -1.4302 -0.2386  0.4393
 9026SOL    HW238541   3.610   3.559   5.504  0.7618 -0.7650  0.9859
 9027SOL     OW38542   3.605   2.511   8.139  0.4514 -0.4544  0.0813
 9027SOL    HW138543   3.594   2.417   8.121 -2.0497 -0.6095  2.4240
 9027SOL    HW238544   3.680   2.493   8.196  1.2588  0.4017 -0.7189
 9028SOL     OW38545   2.664   1.550   1.048 -0.2286 -0.1850  0.2859
 9028SOL    HW138546   2.571   1.529   1.041 -0.4358  0.0298  2.3019
 9028SOL    HW238547   2.686   1.526   1.138  0.8761  1.6719  0.5203
 9029SOL     OW38548   3.682   2.955   6.956  0.0713 -0.1458  0.4121
 9029SOL    HW138549   3.669   2.862   6.971  0.2963  0.0981  2.1497
 9029SOL    HW238550   3.767   2.967   6.998  0.1472  1.1332 -0.0924
 9030SOL     OW38551   0.979   0.967   5.508 -0.2241  1.0181 -0.4580
 9030SOL    HW138552   0.911   0.907   5.538  2.0624 -0.6893  1.2360
 9030SOL    HW238553   0.959   1.044   5.562 -2.6105 -0.8835  1.3667
 9031SOL     OW38554   3.762   3.037   8.352 -0.2266  0.1363 -0.5845
 9031SOL    HW138555   3.701   3.059   8.422 -0.2669 -0.4098 -0.4481
 9031SOL    HW238556   3.712   2.991   8.285  0.5337 -1.4758 -0.0404
 9032SOL     OW38557   1.252   0.578   5.698 -0.0284  0.4029  0.1137
 9032SOL    HW138558   1.286   0.666   5.685 -2.2457  1.0957 -0.9005
 9032SOL    HW238559   1.159   0.599   5.696 -0.4940 -1.8240 -1.7157
 9033SOL     OW38560   1.124   4.424   4.173  0.0993 -0.4051  0.0522
 9033SOL    HW138561   1.035   4.457   4.163  0.0871 -0.2041  0.8344
 9033SOL    HW238562   1.168   4.498   4.132 -0.2354  0.5054  1.3451
 9034SOL     OW38563   2.453   3.137   4.512 -0.5832  0.2040  0.4005
 9034SOL    HW138564   2.375   3.192   4.515 -0.5137  0.4362 -1.8304
 9034SOL    HW238565   2.431   3.085   4.589  0.1749 -0.9218 -0.1374
 9035SOL     OW38566   1.180   4.559   1.250  0.2089 -0.3606 -0.9770
 9035SOL    HW138567   1.189   4.546   1.344  0.2216 -2.3926 -1.2706
 9035SOL    HW238568   1.246   4.502   1.212 -0.0290 -1.5471  0.4110
 9036SOL     OW38569   4.002   3.062   8.896 -1.5234  0.0013  0.2663
 9036SOL    HW138570   4.056   2.983   8.893  0.0822  1.0585  1.5310
 9036SOL    HW238571   3.914   3.029   8.916 -2.2040  0.5408 -1.7957
 9037SOL     OW38572   1.644   4.062  14.244 -0.6809 -0.6953  0.1313
 9037SOL    HW138573   1.739   4.050  14.235 -0.5452 -1.0219  1.9552
 9037SOL    HW238574   1.606   3.991  14.192  2.4232 -1.5712 -0.9378
 9038SOL     OW38575   1.741   0.348   3.078  0.5257  1.0666  0.0460
 9038SOL    HW138576   1.699   0.271   3.040  1.7911 -0.3351  1.5191
 9038SOL    HW238577   1.662   0.399   3.099 -0.0997  0.2204 -0.2808
 9039SOL     OW38578   0.667   3.949   2.944 -0.2475 -0.1564 -0.3696
 9039SOL    HW138579   0.673   4.004   2.866  0.7719 -0.4757 -0.5170
 9039SOL    HW238580   0.635   3.865   2.909 -1.5213 -0.2935  1.1387
 9040SOL     OW38581   4.718   2.181   0.234 -0.6165  0.0803 -0.2643
 9040SOL    HW138582   4.679   2.182   0.322 -1.1236 -0.5750 -0.4860
 9040SOL    HW238583   0.078   2.218   0.261  0.2094 -3.4090  1.9527
 9041SOL     OW38584   2.266   0.678   8.383 -0.0105 -0.0121 -0.2732
 9041SOL    HW138585   2.326   0.603   8.382  0.3770  0.3238 -1.5159
 9041SOL    HW238586   2.182   0.639   8.405 -0.5915  1.4161  0.0830
 9042SOL     OW38587   0.271   4.519   8.206 -0.8724  0.5916 -0.4311
 9042SOL    HW138588   0.296   4.468   8.283 -1.2640 -2.2610 -2.2161
 9042SOL    HW238589   0.352   4.516   8.156  0.2960  0.5881  1.4547
 9043SOL     OW38590   0.268   1.856   2.430 -0.0103 -0.4697  0.0298
 9043SOL    HW138591   0.298   1.882   2.343  1.7801  0.3424  0.8923
 9043SOL    HW238592   0.268   1.761   2.420 -1.6218 -0.5091  0.3310
 9044SOL     OW38593   4.214   3.856   7.202  0.3469  0.2307  0.2738
 9044SOL    HW138594   4.167   3.936   7.224 -1.8431 -1.0320  0.1158
 9044SOL    HW238595   4.183   3.858   7.112 -1.0321  0.7267  0.7574
 9045SOL     OW38596   3.357   3.428   8.392  0.0389  0.2899  0.2023
 9045SOL    HW138597   3.294   3.368   8.431 -0.2939  0.0305 -0.7276
 9045SOL    HW238598   3.368   3.494   8.461  1.8090  1.0588 -0.8163
 9046SOL     OW38599   0.823   2.110  13.762 -0.1747 -0.3410  0.0126
 9046SOL    HW138600   0.778   2.141  13.841 -1.1663 -0.8466 -0.3437
 9046SOL    HW238601   0.910   2.146  13.778  0.8339 -1.7188 -2.3988
 9047SOL     OW38602   2.736   3.257  13.154  0.5276 -0.5718 -0.5203
 9047SOL    HW138603   2.785   3.338  13.136 -0.2061 -0.0859 -0.3361
 9047SOL    HW238604   2.650   3.296  13.166  0.8989 -0.0758  0.5330
 9048SOL     OW38605   3.785   0.031  15.607 -0.1975 -0.7082 -0.0072
 9048SOL    HW138606   3.825   0.015  15.521  0.1917 -1.7911  0.3758
 9048SOL    HW238607   3.850   0.093  15.639  0.8787 -2.0535  0.4514
 9049SOL     OW38608   4.642   0.971   3.215  0.1783  0.0261  0.5679
 9049SOL    HW138609   4.652   0.929   3.301 -0.4460 -0.1278  0.5654
 9049SOL    HW238610   4.604   0.896   3.171 -2.0818  0.9360  0.9827
 9050SOL     OW38611   0.634   1.665   6.845 -0.0856 -0.3015 -0.6072
 9050SOL    HW138612   0.582   1.621   6.779  0.0344  0.3237 -1.1145
 9050SOL    HW238613   0.584   1.746   6.854  0.5945  0.2073 -1.4663
 9051SOL     OW38614   4.565   1.981   1.871 -0.2049  0.3269 -0.0276
 9051SOL    HW138615   4.546   1.888   1.880 -0.5025  0.4056  0.1568
 9051SOL    HW238616   4.510   2.014   1.801 -0.2360  0.4963  0.0770
 9052SOL     OW38617   1.258   2.089   4.821 -0.0919 -0.4847  0.6422
 9052SOL    HW138618   1.166   2.100   4.797 -0.0628 -1.5895  0.0720
 9052SOL    HW238619   1.254   2.033   4.898  1.7158  0.8977  1.7443
 9053SOL     OW38620   2.426   0.064   5.140 -0.6585 -0.4131 -0.5116
 9053SOL    HW138621   2.405   0.031   5.053 -2.2239  0.2270 -0.3852
 9053SOL    HW238622   2.464   0.147   5.110 -0.5940  0.6493  2.4809
 9054SOL     OW38623   3.353   2.115   2.472  0.4763 -0.7196 -0.0417
 9054SOL    HW138624   3.395   2.163   2.401  1.4498 -0.5878  0.6231
 9054SOL    HW238625   3.296   2.180   2.513  1.0471 -1.0428  1.2880
 9055SOL     OW38626   1.909   0.892   6.514 -0.1674  0.2055  0.3048
 9055SOL    HW138627   1.934   0.817   6.461  0.1200 -0.7222  1.7598
 9055SOL    HW238628   1.989   0.945   6.512  1.5153 -2.4528 -2.4969
 9056SOL     OW38629   3.427   4.699   4.525  0.2455 -0.4469  0.5709
 9056SOL    HW138630   3.384   4.659   4.450 -1.0772  0.8021  0.6541
 9056SOL    HW238631   3.354   0.016   4.570 -0.2511 -0.4692 -0.2191
 9057SOL     OW38632   4.447   1.189   9.955  0.4657 -0.3097 -0.1403
 9057SOL    HW138633   4.465   1.282   9.971 -2.6907  0.5288 -1.4991
 9057SOL    HW238634   4.456   1.148  10.041  2.0136  1.3000  0.4690
 9058SOL     OW38635   4.258   3.131   1.170  0.5263 -0.6396  0.2364
 9058SOL    HW138636   4.325   3.097   1.228  1.2923 -2.1578 -1.5333
 9058SOL    HW238637   4.255   3.061   1.105 -0.8827  0.5605 -0.9900
 9059SOL     OW38638   2.757   0.206   3.668  0.4826  0.2170 -0.1300
 9059SOL    HW138639   2.800   0.290   3.653 -1.4738  1.8371  3.2454
 9059SOL    HW238640   2.687   0.243   3.723  1.5534  0.4559  1.0774
 9060SOL     OW38641   3.796   1.508   9.337 -0.1805  0.7234  0.7860
 9060SOL    HW138642   3.802   1.493   9.432 -0.7079  1.6752  0.9642
 9060SOL    HW238643   3.701   1.510   9.328 -0.2638 -2.3702  0.7710
 9061SOL     OW38644   1.003   1.530   7.487  0.7403  0.2002  0.1832
 9061SOL    HW138645   0.929   1.519   7.547  1.4321 -1.5277  0.7087
 9061SOL    HW238646   0.966   1.519   7.399 -0.8443 -0.8934  0.9899
 9062SOL     OW38647   3.417   0.137   5.299  0.0523 -0.0806 -0.6482
 9062SOL    HW138648   3.393   0.210   5.355  0.9519 -0.6219  0.4385
 9062SOL    HW238649   3.471   0.183   5.234  2.8516 -0.7434  1.2163
 9063SOL     OW38650   2.467   3.997   6.241  0.5752  0.1600 -0.0222
 9063SOL    HW138651   2.445   3.955   6.158  0.4643 -2.9560  1.6095
 9063SOL    HW238652   2.563   3.997   6.236  0.5443 -2.6388 -0.4488
 9064SOL     OW38653   0.530   0.712   4.214 -0.1041 -0.4826 -0.3130
 9064SOL    HW138654   0.567   0.624   4.221  0.9850 -0.0075 -0.1660
 9064SOL    HW238655   0.565   0.744   4.131 -1.8496  0.5055 -0.6778
 9065SOL     OW38656   1.948   4.004  11.237  0.5664  0.0044 -0.1143
 9065SOL    HW138657   1.875   4.053  11.198  0.7902  1.3906  1.1639
 9065SOL    HW238658   1.936   4.031  11.329 -0.2578  1.1460 -0.5566
 9066SOL     OW38659   2.923   3.342  12.074  0.1175 -0.5718  0.0218
 9066SOL    HW138660   2.901   3.249  12.071  0.0460 -0.5317 -0.6318
 9066SOL    HW238661   2.981   3.354  12.149 -0.3953 -0.1540  0.3536
 9067SOL     OW38662   4.284   0.166  15.686 -0.6760 -0.1036  0.0686
 9067SOL    HW138663   4.204   0.116  15.700  1.0472 -2.5637  1.1318
 9067SOL    HW238664   4.255   0.243  15.735 -0.5637  0.2131 -0.3576
 9068SOL     OW38665   3.339   4.269   7.967  0.8244  0.3421 -0.3305
 9068SOL    HW138666   3.292   4.257   8.049 -1.8940 -1.6609 -2.1742
 9068SOL    HW238667   3.368   4.181   7.943  0.0606  0.2330 -0.8796
 9069SOL     OW38668   4.208   1.266   4.732  0.0837  0.1973  0.6163
 9069SOL    HW138669   4.268   1.328   4.691  0.0850  0.0376  0.3792
 9069SOL    HW238670   4.149   1.256   4.658  0.1440  1.2806  0.4273
 9070SOL     OW38671   0.410   2.845   8.659 -0.4722 -0.6164  0.0757
 9070SOL    HW138672   0.496   2.811   8.684  1.4348  2.1257 -2.5483
 9070SOL    HW238673   0.386   2.889   8.740  1.4107  0.6902 -0.0815
 9071SOL     OW38674   0.607   4.120  13.241 -0.3680 -0.5685  0.3834
 9071SOL    HW138675   0.563   4.035  13.232 -1.3718 -0.0351  0.2537
 9071SOL    HW238676   0.664   4.107  13.316  1.9488  0.9475 -1.1057
 9072SOL     OW38677   1.279   0.115   0.278  0.0740 -0.5125 -0.1324
 9072SOL    HW138678   1.352   0.056   0.256 -0.4175 -0.5557 -1.6465
 9072SOL    HW238679   1.246   0.079   0.360  1.1691  0.7226  0.8372
 9073SOL     OW38680   3.353   0.971   3.547  0.1179 -0.0617 -0.2920
 9073SOL    HW138681   3.267   0.991   3.511 -1.2299 -0.4579  2.6969
 9073SOL    HW238682   3.357   1.037   3.616 -2.0139 -0.0175 -0.2103
 9074SOL     OW38683   1.120   4.677   5.844  0.2627 -0.5800  0.4777
 9074SOL    HW138684   1.089   4.588   5.827 -3.0179  0.1130  2.7115
 9074SOL    HW238685   1.044   0.006   5.820  0.8789  0.3517  0.6429
 9075SOL     OW38686   0.185   2.542  15.162 -0.3081 -0.1717  0.3328
 9075SOL    HW138687   0.196   2.578  15.074 -2.0860 -2.5686 -0.8920
 9075SOL    HW238688   0.258   2.480  15.169 -0.7520 -0.6000  1.1721
 9076SOL     OW38689   1.488   2.875  16.617  0.4483 -0.1654 -0.0964
 9076SOL    HW138690   1.462   2.959  16.653  2.2571  0.7337 -0.8361
 9076SOL    HW238691   1.524   2.903  16.532  0.7362 -3.0584 -0.9327
 9077SOL     OW38692   0.518   2.241   5.011  0.2226  0.0312 -0.2047
 9077SOL    HW138693   0.534   2.268   4.920  1.9897  0.3170  0.1936
 9077SOL    HW238694   0.610   2.247   5.035 -0.2506  2.4764  0.9199
 9078SOL     OW38695   1.630   4.576  12.218  0.6471 -0.3408  0.1625
 9078SOL    HW138696   1.569   4.647  12.240 -0.8729 -2.0385  1.4190
 9078SOL    HW238697   1.613   4.521  12.294 -1.5185  0.3470  0.1941
 9079SOL     OW38698   4.119   2.269   1.018  0.1516 -0.0765  0.1008
 9079SOL    HW138699   4.191   2.308   0.968 -1.0182  1.7032 -0.2029
 9079SOL    HW238700   4.154   2.181   1.031  0.5398  0.1787  0.7455
 9080SOL     OW38701   0.908   0.015   4.289  0.2182 -0.2040  0.6304
 9080SOL    HW138702   0.882   0.105   4.303 -0.4473 -0.0692 -1.5701
 9080SOL    HW238703   1.004   0.015   4.283  0.2043  1.0587  0.4265
 9081SOL     OW38704   3.735   2.488   9.175 -0.0963 -0.1554  0.1956
 9081SOL    HW138705   3.749   2.558   9.239  3.5607 -0.6495 -0.0747
 9081SOL    HW238706   3.748   2.408   9.227  2.7995 -1.0393 -1.9406
 9082SOL     OW38707   3.169   4.157  15.008 -0.0794 -0.5270 -0.8534
 9082SOL    HW138708   3.208   4.221  14.948 -1.4640  0.5105 -0.6495
 9082SOL    HW238709   3.249   4.127  15.052  0.6741 -0.1582 -1.9663
 9083SOL     OW38710   2.942   3.373   9.466 -0.1992  0.7714 -0.0570
 9083SOL    HW138711   3.031   3.344   9.447  0.1950 -0.1260  3.0703
 9083SOL    HW238712   2.911   3.309   9.531  0.1207 -1.8402 -2.4685
 9084SOL     OW38713   1.823   2.893  15.074 -0.3624  0.1380  0.2864
 9084SOL    HW138714   1.783   2.880  14.988 -0.0434 -3.2975  0.6894
 9084SOL    HW238715   1.748   2.902  15.131 -0.3740  1.0523  0.1266
 9085SOL     OW38716   3.302   3.991   3.401 -0.1458 -0.2501  0.6267
 9085SOL    HW138717   3.235   4.053   3.371 -0.2752 -0.6735  0.0311
 9085SOL    HW238718   3.273   3.965   3.488 -0.0949 -1.3763  0.3005
 9086SOL     OW38719   4.665   3.654   7.085  0.0453 -0.1000  0.0967
 9086SOL    HW138720   4.585   3.706   7.085  0.7322  0.9889  1.4486
 9086SOL    HW238721   4.634   3.564   7.079  1.2223 -0.4054 -1.4861
 9087SOL     OW38722   4.604   3.187   7.584 -0.2400 -0.3069 -0.4886
 9087SOL    HW138723   4.666   3.114   7.580 -0.3511 -0.2144 -3.5464
 9087SOL    HW238724   4.533   3.149   7.636 -0.3889  1.5183  0.6369
 9088SOL     OW38725   0.952   4.120   0.543 -0.0773  0.3806 -0.5421
 9088SOL    HW138726   1.028   4.081   0.500 -0.3508 -0.6287 -0.1309
 9088SOL    HW238727   0.889   4.091   0.477  0.1731  0.0691 -0.6449
 9089SOL     OW38728   2.761   2.682   8.648  0.2539 -0.2953 -0.6189
 9089SOL    HW138729   2.752   2.600   8.599  0.4497 -1.1902  0.8445
 9089SOL    HW238730   2.849   2.682   8.683 -0.0240 -1.4149  0.0982
 9090SOL     OW38731   2.555   3.056   7.087  0.4274 -0.0252  0.4748
 9090SOL    HW138732   2.465   3.059   7.117  0.3223 -0.0265  0.1666
 9090SOL    HW238733   2.592   3.100   7.163  2.8041  0.0922 -0.7195
 9091SOL     OW38734   3.232   4.677   5.246  0.3648 -0.5931 -0.5912
 9091SOL    HW138735   3.302   0.014   5.265 -0.1204 -0.1243 -0.3139
 9091SOL    HW238736   3.167   4.687   5.315  1.0616 -2.4772  0.3225
 9092SOL     OW38737   3.390   3.677   6.482  0.0872 -0.0553 -0.1435
 9092SOL    HW138738   3.335   3.599   6.481 -0.0803  0.0296  1.6035
 9092SOL    HW238739   3.480   3.647   6.466  0.8157  2.4281 -0.5784
 9093SOL     OW38740   4.510   1.408   6.030 -0.3534  0.2664 -0.0734
 9093SOL    HW138741   4.438   1.467   6.054  0.0899  1.2182 -1.0936
 9093SOL    HW238742   4.564   1.481   6.002  0.6740 -0.1318  0.8629
 9094SOL     OW38743   3.018   4.339   9.493  0.2020  0.1529  0.2017
 9094SOL    HW138744   3.106   4.375   9.485 -0.0954  1.0070  0.7533
 9094SOL    HW238745   3.003   4.339   9.588  1.1680 -2.4471  0.3664
 9095SOL     OW38746   0.462   3.157   1.684 -0.5904 -0.2386  0.2137
 9095SOL    HW138747   0.448   3.251   1.680  0.1156 -0.1831 -1.0483
 9095SOL    HW238748   0.373   3.123   1.688  0.0569 -2.0252 -0.5532
 9096SOL     OW38749   0.107   1.160   4.330 -0.1261  0.1634 -0.1390
 9096SOL    HW138750   0.194   1.123   4.316 -0.8553 -1.6315  0.0085
 9096SOL    HW238751   0.051   1.083   4.320  1.2436 -0.7536 -0.7493
 9097SOL     OW38752   0.526   3.086   4.558  0.0325 -0.3505  0.3317
 9097SOL    HW138753   0.488   2.999   4.550  0.9232 -0.7811  0.7874
 9097SOL    HW238754   0.586   3.084   4.484  1.4336 -0.6341  1.4887
 9098SOL     OW38755   1.715   0.477  17.420  0.2704  0.0489  0.2810
 9098SOL    HW138756   1.619   0.481  17.409  0.6642  4.2951 -1.7057
 9098SOL    HW238757   1.738   0.433  17.338  1.3659 -1.2678  1.3140
 9099SOL     OW38758   3.792   4.710  10.930 -0.1219  0.2798  0.0537
 9099SOL    HW138759   3.710   4.718  10.979 -1.8862  0.7069 -2.9663
 9099SOL    HW238760   3.766   0.010  10.841 -1.3689 -0.8077  0.0950
 9100SOL     OW38761   1.814   2.436   2.286 -0.2958  0.6358 -0.2191
 9100SOL    HW138762   1.832   2.524   2.253 -1.1257  0.5236 -0.9570
 9100SOL    HW238763   1.812   2.453   2.380 -1.9820  0.8813 -0.3041
 9101SOL     OW38764   1.291   1.557   1.046  0.3090 -0.2653 -0.0915
 9101SOL    HW138765   1.385   1.566   1.032  0.1133  2.2151  0.1328
 9101SOL    HW238766   1.285   1.488   1.112 -1.3423 -0.5252 -0.5278
 9102SOL     OW38767   1.413   2.458   2.427 -0.4536  0.6425 -0.5016
 9102SOL    HW138768   1.440   2.434   2.338 -3.0105 -0.1463 -1.0663
 9102SOL    HW238769   1.454   2.387   2.478 -1.6215  0.0325 -0.4029
 9103SOL     OW38770   3.730   4.558   9.331 -0.1156  0.0321 -0.3114
 9103SOL    HW138771   3.698   4.582   9.418  1.5772  0.4222  0.2194
 9103SOL    HW238772   3.729   4.463   9.338  0.5480  0.0606  0.2365
 9104SOL     OW38773   2.259   4.215   7.200  0.8128  0.0924 -0.1102
 9104SOL    HW138774   2.180   4.200   7.251 -0.3624  2.5412 -1.2349
 9104SOL    HW238775   2.258   4.311   7.198  0.8255  0.1594  2.8777
 9105SOL     OW38776   2.305   4.706   4.642  0.2429 -0.9150  0.0587
 9105SOL    HW138777   2.217   4.669   4.631 -1.4509  2.9608  0.8500
 9105SOL    HW238778   2.351   4.653   4.576  2.3272  2.2276 -1.0071
 9106SOL     OW38779   4.333   4.345  14.111  0.4551 -0.6957  0.7693
 9106SOL    HW138780   4.399   4.279  14.090  2.8054  1.3970  1.6017
 9106SOL    HW238781   4.331   4.345  14.206  1.5286  1.3669  0.7820
 9107SOL     OW38782   0.957   0.776  10.272  0.0908 -0.6619 -0.6164
 9107SOL    HW138783   0.932   0.812  10.357  1.4508 -1.4448  0.1228
 9107SOL    HW238784   0.953   0.854  10.216 -1.9348 -0.0010  0.4630
 9108SOL     OW38785   0.736   0.577   2.928  0.1437 -0.1139  0.1350
 9108SOL    HW138786   0.676   0.569   2.854  1.0546  0.1094 -0.6258
 9108SOL    HW238787   0.819   0.607   2.891 -0.0172  0.4876  0.2675
 9109SOL     OW38788   3.496   1.511   6.801  0.3188 -0.3033 -0.3276
 9109SOL    HW138789   3.414   1.559   6.797  0.4406 -0.0798 -0.1203
 9109SOL    HW238790   3.560   1.582   6.794 -1.1926  0.9940 -0.8278
 9110SOL     OW38791   0.618   2.688   8.787 -0.3927  0.0631  0.3654
 9110SOL    HW138792   0.706   2.688   8.825 -0.8704 -0.4761  1.4941
 9110SOL    HW238793   0.637   2.608   8.738  0.3979  1.1041 -1.0313
 9111SOL     OW38794   4.720   0.078   3.571  0.7154 -0.3704  0.0170
 9111SOL    HW138795   4.689   0.142   3.635 -0.5254 -0.4026 -0.5601
 9111SOL    HW238796   4.720   0.003   3.630  0.5606  0.9709  1.7291
 9112SOL     OW38797   4.713   0.049   6.224 -0.8658  0.6110 -0.4974
 9112SOL    HW138798   0.066   4.720   6.209 -1.1575  0.3524 -1.0820
 9112SOL    HW238799   4.641   4.712   6.220  0.3758 -1.0199  2.4227
 9113SOL     OW38800   0.332   4.457   7.598  0.2566  0.6166 -0.0425
 9113SOL    HW138801   0.272   4.506   7.654 -0.0754 -0.0391  0.1774
 9113SOL    HW238802   0.276   4.380   7.590 -0.1980  0.9066  0.3124
 9114SOL     OW38803   2.597   0.749   5.289  0.2397 -0.4722  0.6431
 9114SOL    HW138804   2.691   0.741   5.306  0.3331  0.8049  0.7149
 9114SOL    HW238805   2.569   0.669   5.332 -3.2851  0.0897 -0.5436
 9115SOL     OW38806   0.643   0.479   5.193  0.4630 -0.2039  0.7209
 9115SOL    HW138807   0.588   0.424   5.137  1.3650  0.7168 -1.0791
 9115SOL    HW238808   0.734   0.452   5.180  0.2476 -0.9951  0.8574
 9116SOL     OW38809   1.789   0.306  13.674 -0.3465  0.3272  0.5603
 9116SOL    HW138810   1.752   0.300  13.762 -0.0058 -1.6908  0.5819
 9116SOL    HW238811   1.870   0.257  13.688 -0.7252 -1.1271 -2.4792
 9117SOL     OW38812   0.443   1.481   7.919  0.1559  0.1120 -0.1130
 9117SOL    HW138813   0.404   1.509   7.837 -0.8172 -0.5809  0.1111
 9117SOL    HW238814   0.430   1.565   7.964 -2.0630 -0.1556 -0.2656
 9118SOL     OW38815   4.453   1.964   6.251  0.5883 -0.4817  0.4169
 9118SOL    HW138816   4.488   1.904   6.318  2.2068  1.7435  1.5472
 9118SOL    HW238817   4.528   1.990   6.198  1.1908  1.0119  2.0164
 9119SOL     OW38818   2.366   1.756   4.252 -0.5019 -0.1445  0.0747
 9119SOL    HW138819   2.397   1.846   4.246  0.9567 -0.5801  1.0401
 9119SOL    HW238820   2.341   1.749   4.344  3.4504  1.3577  1.2369
 9120SOL     OW38821   4.144   2.860   3.526 -0.1541  0.2112 -0.6882
 9120SOL    HW138822   4.211   2.811   3.478  0.1075  0.9895 -1.1241
 9120SOL    HW238823   4.188   2.944   3.539 -0.5182  0.1951  0.6164
 9121SOL     OW38824   2.848   2.600   9.101 -0.7385 -0.3899  0.3022
 9121SOL    HW138825   2.912   2.671   9.089  1.1271 -2.5644 -2.7587
 9121SOL    HW238826   2.800   2.619   9.181  2.0849  0.8946  1.6741
 9122SOL     OW38827   1.642   3.684   7.030 -0.4298  0.2684  0.7596
 9122SOL    HW138828   1.710   3.751   7.041 -0.8231  0.9479 -0.9400
 9122SOL    HW238829   1.607   3.692   7.118  0.0816  2.7275  0.7377
 9123SOL     OW38830   4.342   4.327   8.829  0.0123 -0.0117  0.5889
 9123SOL    HW138831   4.428   4.359   8.801 -1.8113  3.2322 -1.2211
 9123SOL    HW238832   4.348   4.236   8.801 -0.1456 -0.1327  0.9495
 9124SOL     OW38833   4.389   3.813   9.455 -0.5093  0.8899 -0.7031
 9124SOL    HW138834   4.331   3.774   9.389  0.3400 -2.6653  0.6480
 9124SOL    HW238835   4.362   3.904   9.461  0.4150  1.4157 -4.5166
 9125SOL     OW38836   3.728   3.261  14.890 -0.1027  0.1397  0.1353
 9125SOL    HW138837   3.760   3.216  14.811 -0.0461 -0.7228  0.6494
 9125SOL    HW238838   3.725   3.190  14.954  1.5901  0.2883  0.3803
 9126SOL     OW38839   0.143   0.922  14.945  0.2642 -0.2331  0.0790
 9126SOL    HW138840   0.143   0.831  14.976 -1.3627  0.0202  0.8118
 9126SOL    HW238841   0.101   0.969  15.017  0.1968 -2.4112  1.4760
 9127SOL     OW38842   1.966   1.196  10.962 -0.2794  0.8949 -0.1453
 9127SOL    HW138843   1.878   1.173  10.991  0.6200 -2.7333 -0.2023
 9127SOL    HW238844   2.004   1.232  11.041 -2.3382  1.2688  0.6715
 9128SOL     OW38845   0.717   4.280   8.904  0.2384 -0.1651  0.0316
 9128SOL    HW138846   0.704   4.245   8.992  0.0691 -0.0585  0.0491
 9128SOL    HW238847   0.747   4.368   8.927 -1.8518  0.7359 -0.6368
 9129SOL     OW38848   3.525   0.616   3.957  0.7738 -0.0698 -0.2744
 9129SOL    HW138849   3.552   0.593   4.046 -0.3493  3.4205  0.9552
 9129SOL    HW238850   3.429   0.608   3.955  0.2459  5.1837  3.8399
 9130SOL     OW38851   1.746   2.519  10.920  0.6257 -0.3641  0.3638
 9130SOL    HW138852   1.691   2.464  10.977 -1.4395  0.2296 -1.0616
 9130SOL    HW238853   1.833   2.484  10.938  0.0485  0.4361  4.7198
 9131SOL     OW38854   3.015   2.791   4.445  0.6687  0.6936 -0.3745
 9131SOL    HW138855   2.977   2.726   4.504 -2.1673  1.3603 -1.4430
 9131SOL    HW238856   2.955   2.864   4.463  0.2550 -0.0823  1.4046
 9132SOL     OW38857   1.318   1.207   2.782  0.3519 -0.3970 -0.1954
 9132SOL    HW138858   1.360   1.128   2.817 -0.8761 -1.6157 -1.5193
 9132SOL    HW238859   1.376   1.274   2.819 -0.2274 -0.7999  1.4639
 9133SOL     OW38860   3.926   1.989   2.053 -0.2703 -0.3088 -0.0558
 9133SOL    HW138861   3.907   1.934   1.977  1.6244 -1.1249  0.0492
 9133SOL    HW238862   4.008   2.027   2.022 -0.1100 -0.0363  0.7100
 9134SOL     OW38863   3.805   1.126   8.094  0.1810  0.2018 -0.2757
 9134SOL    HW138864   3.898   1.123   8.072  0.9044 -1.2937  2.9603
 9134SOL    HW238865   3.781   1.207   8.050 -0.8838 -0.7438 -1.4594
 9135SOL     OW38866   3.709   2.911   0.764  0.1503 -0.0150  0.2165
 9135SOL    HW138867   3.780   2.947   0.816  1.9920 -1.8761 -1.0305
 9135SOL    HW238868   3.702   2.826   0.807 -2.3841 -0.1293 -0.4093
 9136SOL     OW38869   1.806   2.377   3.779  0.1446 -0.0072 -0.0342
 9136SOL    HW138870   1.720   2.343   3.755  0.1060 -0.5761  0.9048
 9136SOL    HW238871   1.847   2.400   3.696  1.8387 -1.5744  0.3384
 9137SOL     OW38872   0.904   1.702   4.382  0.1990 -0.0093  0.4622
 9137SOL    HW138873   0.937   1.612   4.374 -0.9421 -0.1695 -2.2366
 9137SOL    HW238874   0.974   1.758   4.414 -0.6424  1.7921 -0.8578
 9138SOL     OW38875   0.069   2.663   9.033 -0.0690 -0.3689 -0.2092
 9138SOL    HW138876   0.079   2.576   8.995 -1.0468 -1.8402  2.8376
 9138SOL    HW238877   0.091   2.643   9.124  1.6627  0.4507 -0.4426
 9139SOL     OW38878   1.676   0.685   3.968  0.1378 -0.2224  0.1441
 9139SOL    HW138879   1.676   0.592   3.993  0.7756 -0.5712 -1.1645
 9139SOL    HW238880   1.640   0.717   4.051 -1.6363  1.6003 -1.3027
 9140SOL     OW38881   1.095   1.542  13.948 -0.4509  0.1520  0.1828
 9140SOL    HW138882   1.054   1.456  13.941 -2.4592  1.1382 -0.2797
 9140SOL    HW238883   1.150   1.537  13.869  0.7733  1.1899  0.9591
 9141SOL     OW38884   4.463   2.627   8.286  0.4480 -0.3122  0.0422
 9141SOL    HW138885   4.387   2.591   8.240 -0.3646  0.4701  0.7906
 9141SOL    HW238886   4.416   2.650   8.366  0.2219 -0.0411 -0.1691
 9142SOL     OW38887   1.594   4.149   3.154  0.2410  0.3405  0.3041
 9142SOL    HW138888   1.676   4.111   3.120  0.9085  0.4452  1.8095
 9142SOL    HW238889   1.549   4.070   3.186  0.6462 -0.9883 -2.3603
 9143SOL     OW38890   1.876   4.472   3.646  0.5713  0.4511  0.1456
 9143SOL    HW138891   1.851   4.561   3.622  0.1982  0.0401 -0.9900
 9143SOL    HW238892   1.821   4.473   3.724  1.4085  1.3406  0.7332
 9144SOL     OW38893   2.217   2.434  13.383 -0.2725  0.0074  0.1766
 9144SOL    HW138894   2.267   2.418  13.303 -1.2691 -2.0354 -0.0470
 9144SOL    HW238895   2.278   2.494  13.425 -1.2542  1.5126 -0.5754
 9145SOL     OW38896   3.065   1.569  13.151  0.1465 -0.2753  0.4292
 9145SOL    HW138897   3.076   1.481  13.187  2.0491 -0.4395 -0.5302
 9145SOL    HW238898   3.137   1.572  13.088  0.0966 -0.6076  0.3566
 9146SOL     OW38899   3.301   1.826   7.697 -0.0489 -0.3019  0.0628
 9146SOL    HW138900   3.357   1.901   7.673 -1.7446  0.5630 -1.2457
 9146SOL    HW238901   3.271   1.860   7.781  2.4789  0.4738  0.6426
 9147SOL     OW38902   4.643   0.224   3.807 -0.0989 -0.0156 -0.0816
 9147SOL    HW138903   4.608   0.147   3.852  1.1349 -0.5305  0.0157
 9147SOL    HW238904   0.007   0.216   3.841 -0.5678  0.3384  1.2491
 9148SOL     OW38905   3.959   1.449  14.124  0.0093  0.2383  0.5488
 9148SOL    HW138906   4.031   1.444  14.186 -1.1004  0.0738  1.8275
 9148SOL    HW238907   3.992   1.525  14.077 -1.0884 -0.9236 -2.1142
 9149SOL     OW38908   2.998   3.496   6.262 -0.7189  0.9570 -0.0911
 9149SOL    HW138909   3.066   3.529   6.203 -2.2113  3.1829 -0.5737
 9149SOL    HW238910   2.919   3.532   6.222 -1.7979 -2.1080 -0.7083
 9150SOL     OW38911   0.728   4.248   4.515 -0.1055 -0.5510  0.5096
 9150SOL    HW138912   0.775   4.199   4.447  0.2751  1.7317 -0.8675
 9150SOL    HW238913   0.711   4.177   4.577  0.4589 -0.3855  0.8487
 9151SOL     OW38914   1.370   2.582   2.885 -0.1809 -0.2447 -0.2264
 9151SOL    HW138915   1.362   2.678   2.891  1.3609 -0.1867  1.0394
 9151SOL    HW238916   1.433   2.574   2.813  0.9390 -0.2136  0.7453
 9152SOL     OW38917   4.581   0.898   8.335  0.0388 -0.0532  0.2295
 9152SOL    HW138918   4.500   0.860   8.368  0.4373 -0.0754  1.1808
 9152SOL    HW238919   4.624   0.822   8.295 -1.7555 -1.3378  0.7821
 9153SOL     OW38920   2.843   2.923   8.802  0.1261 -0.0144  0.0985
 9153SOL    HW138921   2.892   2.994   8.844 -1.5324  1.6691 -0.8238
 9153SOL    HW238922   2.888   2.920   8.717 -1.1943  2.0501 -0.6610
 9154SOL     OW38923   1.455   3.568   6.021  0.6074 -0.1723  0.2318
 9154SOL    HW138924   1.382   3.629   6.031  1.4214  1.0812 -1.4970
 9154SOL    HW238925   1.421   3.479   6.032 -0.4325 -0.1301 -2.6466
 9155SOL     OW38926   4.518   2.067   6.903 -0.0888  0.0673  0.2713
 9155SOL    HW138927   4.568   1.998   6.948  0.4673 -0.4121 -1.0701
 9155SOL    HW238928   4.437   2.017   6.897  0.1397 -0.1937 -0.6968
 9156SOL     OW38929   1.698   4.048  10.276 -0.4161  0.5398  0.2476
 9156SOL    HW138930   1.655   3.962  10.277  0.4559  0.1051  0.9222
 9156SOL    HW238931   1.755   4.044  10.353  0.4310 -3.2438 -0.5384
 9157SOL     OW38932   1.509   3.442   6.968 -0.7956  0.2048  0.4530
 9157SOL    HW138933   1.480   3.435   6.877  0.7428  0.7983 -0.0865
 9157SOL    HW238934   1.544   3.531   6.971 -1.5684  0.5070  0.6062
 9158SOL     OW38935   0.040   4.673   7.428 -0.0618  0.0993  0.3114
 9158SOL    HW138936   4.719   4.594   7.400 -0.6229  0.8157 -0.7783
 9158SOL    HW238937   4.698   4.710   7.485  0.0626 -4.8635  3.6077
 9159SOL     OW38938   3.368   3.068   8.873 -0.0521 -0.3182 -0.5247
 9159SOL    HW138939   3.415   3.054   8.955  0.1238  0.3481 -0.5056
 9159SOL    HW238940   3.383   3.162   8.857  0.5956 -0.2443  0.4869
 9160SOL     OW38941   2.750   3.459   2.844  0.1325  0.1042  0.2648
 9160SOL    HW138942   2.692   3.490   2.914 -2.0718  0.5392 -1.7344
 9160SOL    HW238943   2.838   3.471   2.880 -0.5174 -0.0761  1.9126
 9161SOL     OW38944   3.856   2.588   1.589 -0.1523  0.2462  0.4167
 9161SOL    HW138945   3.923   2.522   1.569 -1.8510 -1.9283  1.8771
 9161SOL    HW238946   3.913   2.655   1.627 -0.4628  1.4079 -1.1626
 9162SOL     OW38947   4.360   3.772   3.755 -0.2125 -0.4463 -0.0500
 9162SOL    HW138948   4.266   3.771   3.776 -1.1415 -1.7275 -4.1397
 9162SOL    HW238949   4.362   3.724   3.672 -1.2886  2.3631 -1.7355
 9163SOL     OW38950   1.566   3.822   5.402 -0.0454 -0.3699 -0.0359
 9163SOL    HW138951   1.612   3.905   5.408  0.2843 -0.3478 -3.0929
 9163SOL    HW238952   1.505   3.832   5.329 -0.3508  1.5353  0.4744
 9164SOL     OW38953   4.592   0.327   8.515  0.2352 -0.1919  0.3878
 9164SOL    HW138954   4.572   0.407   8.564  3.6521  0.0580  1.3565
 9164SOL    HW238955   4.598   0.258   8.580 -0.6899 -0.8290 -0.1937
 9165SOL     OW38956   0.409   1.424   1.314 -0.1982  0.5486 -0.1913
 9165SOL    HW138957   0.472   1.480   1.361  0.6062 -0.0979 -0.4968
 9165SOL    HW238958   0.331   1.479   1.318 -0.2322  0.6217 -2.0399
 9166SOL     OW38959   0.402   2.089   8.429  0.0088  0.3568  0.0365
 9166SOL    HW138960   0.481   2.064   8.476 -0.0926  0.0310  0.0320
 9166SOL    HW238961   0.347   2.015   8.454  1.8797 -1.7568 -2.1385
 9167SOL     OW38962   2.782   2.464   3.979  0.2961  0.5529 -0.3327
 9167SOL    HW138963   2.769   2.370   3.984  2.9552  0.1875 -0.3012
 9167SOL    HW238964   2.699   2.480   3.933 -0.2761  0.4787  0.6640
 9168SOL     OW38965   0.144   3.802   7.514 -0.2358  0.1202  1.0476
 9168SOL    HW138966   0.153   3.708   7.528 -0.4795  0.0618  0.8138
 9168SOL    HW238967   0.168   3.803   7.421 -1.9157  0.0118  0.6212
 9169SOL     OW38968   3.802   2.696   2.947 -0.4447 -0.0177  0.3169
 9169SOL    HW138969   3.721   2.645   2.937  0.0852 -1.1790  1.8577
 9169SOL    HW238970   3.859   2.626   2.979  0.9266  0.1586 -1.8032
 9170SOL     OW38971   1.535   3.811  14.158  0.0746 -0.0965 -0.3238
 9170SOL    HW138972   1.504   3.743  14.098 -2.1397  0.3710  0.2830
 9170SOL    HW238973   1.625   3.783  14.169  0.1436 -0.3056 -1.3873
 9171SOL     OW38974   2.065   1.800  14.847 -0.6482 -0.1049 -0.2935
 9171SOL    HW138975   2.106   1.755  14.921  0.2405  1.3489  0.0980
 9171SOL    HW238976   1.982   1.753  14.846 -0.7793  0.0574  2.0641
 9172SOL     OW38977   0.025   0.337   1.777 -0.5312 -0.3272 -0.2746
 9172SOL    HW138978   0.014   0.260   1.833 -3.5197  0.9776  0.9218
 9172SOL    HW238979   0.057   0.407   1.833 -0.4603 -1.3461  0.9496
 9173SOL     OW38980   2.636   0.688   5.017 -0.0631  0.0128 -0.6010
 9173SOL    HW138981   2.614   0.709   5.108 -1.3733 -2.5853 -0.3380
 9173SOL    HW238982   2.729   0.670   5.032  0.2195  0.6856 -1.5413
 9174SOL     OW38983   0.708   1.130   2.090 -0.5100  0.1803  0.5579
 9174SOL    HW138984   0.685   1.042   2.062 -0.6873  0.6902 -0.9126
 9174SOL    HW238985   0.671   1.140   2.178 -1.8393 -1.2110  0.1607
 9175SOL     OW38986   1.275   4.115   4.573  0.0061  0.0952 -0.0046
 9175SOL    HW138987   1.180   4.129   4.580 -0.5010 -3.5876  0.3660
 9175SOL    HW238988   1.299   4.173   4.501 -3.9689  0.2065 -1.2630
 9176SOL     OW38989   1.888   0.266   6.013 -0.2430  0.0190 -0.3370
 9176SOL    HW138990   1.940   0.230   5.942 -0.9530  0.5003 -1.0928
 9176SOL    HW238991   1.820   0.293   5.952 -1.5089 -0.5866  0.7792
 9177SOL     OW38992   2.186   2.988   8.448 -0.4220  0.0279 -0.3000
 9177SOL    HW138993   2.239   2.909   8.453  3.0186  2.2030 -2.5902
 9177SOL    HW238994   2.113   2.980   8.509 -0.5097 -0.8236 -0.5179
 9178SOL     OW38995   4.063   2.627  17.672 -0.3088  0.1950 -0.5359
 9178SOL    HW138996   4.150   2.648  17.638 -0.4863  1.0698 -0.4682
 9178SOL    HW238997   4.024   2.712  17.691  1.3923  0.7673  0.4684
 9179SOL     OW38998   0.638   1.999   5.492 -0.4638 -0.4653 -0.0334
 9179SOL    HW138999   0.646   2.045   5.409 -0.4348 -0.0825  0.1766
 9179SOL    HW239000   0.665   1.911   5.469 -0.2129  0.0340 -1.6008
 9180SOL     OW39001   2.850   0.851   9.769 -0.0984  0.3192  0.2061
 9180SOL    HW139002   2.769   0.819   9.808  0.6621 -0.6677  0.9923
 9180SOL    HW239003   2.875   0.926   9.822 -1.7764  0.7843  0.3217
 9181SOL     OW39004   1.332   1.040  13.907  0.0481 -0.2225 -0.7053
 9181SOL    HW139005   1.376   1.079  13.832 -1.8852  2.9662 -0.1673
 9181SOL    HW239006   1.344   1.111  13.969  0.2559  0.7087 -1.8209
 9182SOL     OW39007   3.443   2.542   2.659  0.3950 -0.0194 -0.1665
 9182SOL    HW139008   3.522   2.572   2.614  0.5890  0.3151  0.3954
 9182SOL    HW239009   3.434   2.453   2.625  0.7320  0.1768 -0.7606
 9183SOL     OW39010   2.431   3.497   1.376 -0.4862  0.9038  0.3211
 9183SOL    HW139011   2.377   3.480   1.453 -2.3540 -1.6299 -1.5510
 9183SOL    HW239012   2.399   3.580   1.339 -0.3806 -0.4031 -2.6680
 9184SOL     OW39013   3.855   2.734   5.752 -0.3175  0.4794  0.1394
 9184SOL    HW139014   3.884   2.805   5.809  1.6173 -1.1050  1.1607
 9184SOL    HW239015   3.771   2.772   5.728 -1.3831 -1.4369  0.8347
 9185SOL     OW39016   4.201   3.508  17.085 -0.0658  0.7646 -0.0449
 9185SOL    HW139017   4.171   3.586  17.132 -1.5980  1.4271 -2.0907
 9185SOL    HW239018   4.256   3.542  17.014 -0.8437  0.7263 -0.6767
 9186SOL     OW39019   0.027   2.873  15.230 -0.6066  0.0383  0.4183
 9186SOL    HW139020   4.670   2.901  15.188  0.0752  2.2076  0.5111
 9186SOL    HW239021   0.003   2.785  15.260  0.1355 -0.3737 -0.2087
 9187SOL     OW39022   1.081   0.238   5.371 -0.6441  0.4900 -0.0120
 9187SOL    HW139023   1.087   0.233   5.466 -0.5211  0.6803 -0.0107
 9187SOL    HW239024   1.159   0.186   5.354 -0.4610  1.2308 -1.4283
 9188SOL     OW39025   2.098   4.603   8.157 -0.1702  0.3115  0.4729
 9188SOL    HW139026   2.189   4.629   8.149  0.0103 -0.3423  0.4108
 9188SOL    HW239027   2.076   4.613   8.250  0.7212  1.7604  0.5210
 9189SOL     OW39028   1.669   4.030   6.564  0.1115 -0.4598  0.1450
 9189SOL    HW139029   1.757   4.065   6.582 -0.2031  0.9034 -1.0474
 9189SOL    HW239030   1.673   3.936   6.582  0.0045 -0.8697 -1.9469
 9190SOL     OW39031   2.623   3.275   6.477  0.3587  0.0068 -0.1074
 9190SOL    HW139032   2.561   3.203   6.469  0.7663 -0.0098 -2.9677
 9190SOL    HW239033   2.691   3.237   6.532  0.0357 -3.5103 -2.2034
 9191SOL     OW39034   3.151   3.714  14.956 -0.0495 -0.3622 -0.4885
 9191SOL    HW139035   3.104   3.794  14.931  0.3884  0.6211  1.7783
 9191SOL    HW239036   3.225   3.729  14.897  0.4323 -0.6743  0.0375
 9192SOL     OW39037   0.893   1.415   4.365  0.2198 -0.0775  0.2080
 9192SOL    HW139038   0.810   1.443   4.327  0.4924  0.9713  0.3928
 9192SOL    HW239039   0.878   1.326   4.397  0.0546  0.3129  1.1879
 9193SOL     OW39040   2.846   3.762  12.150 -0.4299  0.2263  0.4972
 9193SOL    HW139041   2.782   3.741  12.217  1.9071 -2.6708  1.8432
 9193SOL    HW239042   2.920   3.794  12.202  0.2531  0.8504 -0.8580
 9194SOL     OW39043   3.063   4.458   0.646 -0.1375  0.1457  0.0078
 9194SOL    HW139044   3.139   4.499   0.605 -0.2128  1.3637  1.0770
 9194SOL    HW239045   3.088   4.367   0.663  0.8372  0.1698 -1.2851
 9195SOL     OW39046   2.592   4.626   0.450 -0.5047  0.3245 -0.3893
 9195SOL    HW139047   2.622   4.581   0.371 -4.2716  0.6229 -1.9763
 9195SOL    HW239048   2.668   4.632   0.508  0.5099 -4.1212 -1.2812
 9196SOL     OW39049   0.028   0.221   0.916  0.6586 -0.1936 -0.6510
 9196SOL    HW139050   4.691   0.264   0.975 -0.1505 -1.2884 -0.6991
 9196SOL    HW239051   4.693   0.165   0.866 -1.5940  0.8490  0.8840
 9197SOL     OW39052   1.304   1.480   9.817  0.0214  0.0377 -0.3172
 9197SOL    HW139053   1.281   1.519   9.733  2.2459 -0.7898 -1.3152
 9197SOL    HW239054   1.237   1.497   9.884 -0.0267  2.8350 -1.0566
 9198SOL     OW39055   2.688   1.767  11.948  0.5687 -0.2104  0.1810
 9198SOL    HW139056   2.762   1.767  12.009  0.5034  1.1577  0.2502
 9198SOL    HW239057   2.726   1.727  11.870 -0.7626 -1.6245  0.2624
 9199SOL     OW39058   1.892   3.685  12.563 -0.4323 -0.0823  0.3439
 9199SOL    HW139059   1.804   3.652  12.546 -0.0904 -0.6770 -0.2710
 9199SOL    HW239060   1.937   3.602  12.581 -0.6528  0.0566  1.5276
 9200SOL     OW39061   0.049   0.344   1.486  0.1199 -0.2189 -0.1992
 9200SOL    HW139062   0.002   0.391   1.418 -1.6055  0.2916  1.3510
 9200SOL    HW239063   4.725   0.328   1.566  0.9365  0.4017  0.4283
 9201SOL     OW39064   0.757   2.400   4.423 -0.0914  0.5456 -0.5116
 9201SOL    HW139065   0.760   2.456   4.500  1.8603 -2.2858  1.4505
 9201SOL    HW239066   0.678   2.353   4.449  0.7722  0.0595  1.2325
 9202SOL     OW39067   2.133   2.978   7.581 -0.4282  0.2976  0.1437
 9202SOL    HW139068   2.059   2.976   7.642 -0.7960  0.5217 -0.2920
 9202SOL    HW239069   2.132   3.073   7.567  3.5328  0.5946  2.0883
 9203SOL     OW39070   4.540   4.365   2.425 -0.7732  0.3276 -0.2130
 9203SOL    HW139071   4.515   4.454   2.402 -0.6341 -0.1805 -2.3121
 9203SOL    HW239072   4.468   4.317   2.385 -0.3185  0.2931 -1.0028
 9204SOL     OW39073   4.159   2.655  10.448 -0.3128 -0.1792  0.4314
 9204SOL    HW139074   4.165   2.578  10.504 -1.4953  0.2070  1.0741
 9204SOL    HW239075   4.225   2.628  10.384  0.0576  2.1832 -0.1910
 9205SOL     OW39076   3.269   1.562  12.691 -0.5011 -0.2737 -0.1241
 9205SOL    HW139077   3.332   1.491  12.676 -1.3755 -0.9748 -0.4933
 9205SOL    HW239078   3.237   1.573  12.602 -1.2038  0.1887  0.1878
 9206SOL     OW39079   2.832   0.617   3.183  0.2420  0.1109 -0.0081
 9206SOL    HW139080   2.833   0.548   3.116 -1.5333  0.8628 -0.7900
 9206SOL    HW239081   2.744   0.592   3.212  0.1850 -1.3617 -1.4236
 9207SOL     OW39082   4.062   2.731   1.243 -0.0195  0.0992 -0.2217
 9207SOL    HW139083   4.079   2.640   1.221 -0.2107 -0.1101  0.4902
 9207SOL    HW239084   4.115   2.734   1.322 -0.7575  0.6232  0.2548
 9208SOL     OW39085   4.132   1.792   8.266  0.5718  0.4509  0.2105
 9208SOL    HW139086   4.132   1.838   8.182 -2.0810  1.1537  0.5800
 9208SOL    HW239087   4.171   1.846   8.334 -0.9872 -2.3184  3.3235
 9209SOL     OW39088   0.723   3.345   3.739 -0.0167  0.0802  0.7895
 9209SOL    HW139089   0.733   3.418   3.799  2.9534 -0.4009  0.9022
 9209SOL    HW239090   0.642   3.358   3.689  0.1832 -2.8767 -0.3431
 9210SOL     OW39091   0.913   3.521   5.635  0.1437 -0.8029 -0.7314
 9210SOL    HW139092   0.905   3.567   5.551  4.2573  1.2996  0.0303
 9210SOL    HW239093   0.821   3.497   5.637  0.1464 -0.5924  2.3085
 9211SOL     OW39094   0.059   4.542  16.219  0.7837  0.2475 -0.1996
 9211SOL    HW139095   0.138   4.488  16.225 -0.0558 -1.2032 -2.2174
 9211SOL    HW239096   0.095   4.624  16.187  2.0201 -0.2633 -0.1231
 9212SOL     OW39097   0.304   0.880   9.052  0.0669 -0.4608  0.4858
 9212SOL    HW139098   0.355   0.961   9.053  1.2775 -1.2163  0.7193
 9212SOL    HW239099   0.217   0.919   9.045 -0.3167 -1.0188  2.0420
 9213SOL     OW39100   2.363   3.796   5.167  0.1059 -0.0509  0.0744
 9213SOL    HW139101   2.350   3.870   5.226  0.1418 -0.5199  0.6664
 9213SOL    HW239102   2.378   3.716   5.217  0.2849 -0.2339 -0.2751
 9214SOL     OW39103   4.077   1.537   0.506 -0.3639  0.1484  0.3827
 9214SOL    HW139104   4.077   1.631   0.489  1.1946 -0.0547 -0.7877
 9214SOL    HW239105   4.095   1.525   0.599  0.6356  2.0136  0.4277
 9215SOL     OW39106   2.441   3.728  10.037 -0.0658 -0.3520  0.6253
 9215SOL    HW139107   2.383   3.654  10.019 -1.2769  0.8113 -0.3401
 9215SOL    HW239108   2.532   3.700  10.039  0.0161 -0.0405  1.4987
 9216SOL     OW39109   4.544   2.057  16.854  0.0600 -0.2228  0.0101
 9216SOL    HW139110   4.596   2.060  16.773 -1.4509  0.3703 -0.9360
 9216SOL    HW239111   4.517   2.148  16.858  2.1089  0.3149  1.3680
 9217SOL     OW39112   1.922   4.345   0.262  0.0817 -0.1724  0.4473
 9217SOL    HW139113   1.951   4.254   0.270  1.0772 -0.1006 -2.3731
 9217SOL    HW239114   1.834   4.341   0.300 -1.5275  1.4505 -3.1802
 9218SOL     OW39115   2.284   3.146  13.171  0.0252 -0.0486  0.0032
 9218SOL    HW139116   2.294   3.062  13.215  0.5040  0.1841  0.3408
 9218SOL    HW239117   2.245   3.198  13.241 -1.1155 -0.9634  0.0416
 9219SOL     OW39118   4.568   4.189   3.874  0.1600 -0.0436  0.2412
 9219SOL    HW139119   4.656   4.199   3.837 -0.7177  1.1680 -1.5106
 9219SOL    HW239120   4.581   4.117   3.936  3.0227  0.1479 -0.1607
 9220SOL     OW39121   1.344   1.333   6.257 -0.5033  0.5409  0.4692
 9220SOL    HW139122   1.295   1.298   6.331 -1.4839  0.5488 -0.1673
 9220SOL    HW239123   1.364   1.257   6.202  2.2232  0.2866  1.8121
 9221SOL     OW39124   2.932   3.333   8.609 -0.4346 -0.5545 -0.3258
 9221SOL    HW139125   2.985   3.399   8.564 -0.3353  0.8574  1.8744
 9221SOL    HW239126   2.888   3.380   8.680  2.5481  0.1772  1.0542
 9222SOL     OW39127   0.277   0.754   2.943 -0.2783 -0.1059 -0.3198
 9222SOL    HW139128   0.225   0.782   3.019  0.4648 -1.2331  0.6225
 9222SOL    HW239129   0.207   0.754   2.879 -0.5559  2.4042 -0.0072
 9223SOL     OW39130   2.781   2.599   6.515  0.4962  0.0704  0.1841
 9223SOL    HW139131   2.690   2.629   6.511  0.3438 -0.8883 -3.5637
 9223SOL    HW239132   2.774   2.532   6.584  2.2121  0.5952  0.8596
 9224SOL     OW39133   2.514   0.674   5.958 -0.4844  0.4611 -0.4125
 9224SOL    HW139134   2.506   0.589   6.002 -0.9102  1.0528  0.6795
 9224SOL    HW239135   2.580   0.706   6.020  1.0204 -1.6662 -0.9534
 9225SOL     OW39136   3.315   3.378  12.638  0.3600  0.2815 -0.1129
 9225SOL    HW139137   3.232   3.332  12.657 -0.1709  2.1510  2.1558
 9225SOL    HW239138   3.312   3.401  12.546 -0.9942 -2.0067 -0.6667
 9226SOL     OW39139   1.441   4.693  16.335 -0.0631  0.0566  0.0816
 9226SOL    HW139140   1.482   0.035  16.391 -2.1710  0.8455  0.6762
 9226SOL    HW239141   1.395   0.019  16.269  0.0525 -1.3803 -1.0977
 9227SOL     OW39142   4.030   3.900   0.628  0.2835  0.0709  0.0462
 9227SOL    HW139143   3.986   3.913   0.544  0.2958  0.3411  0.0832
 9227SOL    HW239144   4.117   3.938   0.615  0.6876 -1.1290 -0.8563
 9228SOL     OW39145   2.180   2.825   8.991 -0.2525 -0.2536  0.4396
 9228SOL    HW139146   2.189   2.920   8.994 -0.1471 -0.2407 -0.5770
 9228SOL    HW239147   2.236   2.806   8.916 -0.1229 -2.0450  0.9654
 9229SOL     OW39148   3.919   1.298   4.980  0.4624  0.0114  0.4782
 9229SOL    HW139149   3.923   1.390   4.954  1.2712  0.2639  1.4854
 9229SOL    HW239150   3.838   1.270   4.937  0.8616 -1.1349  0.4728
 9230SOL     OW39151   0.509   2.601   1.587  0.6411  0.1074  0.5467
 9230SOL    HW139152   0.569   2.673   1.603  1.2547 -0.2724 -0.0686
 9230SOL    HW239153   0.562   2.525   1.613 -0.2791 -1.2445 -1.5087
 9231SOL     OW39154   2.288   2.118  11.590 -0.5997 -0.4507  0.1487
 9231SOL    HW139155   2.329   2.032  11.592 -0.0136 -0.1889 -0.7175
 9231SOL    HW239156   2.359   2.181  11.581 -1.7141  0.9980  1.3547
 9232SOL     OW39157   2.891   0.273   8.698  0.2950 -0.2464  0.5774
 9232SOL    HW139158   2.874   0.366   8.715 -1.2930 -0.6025  0.9460
 9232SOL    HW239159   2.880   0.243   8.788 -2.5518  1.3222  0.7304
 9233SOL     OW39160   0.811   1.480   8.562  0.0986  0.0913 -0.1041
 9233SOL    HW139161   0.847   1.560   8.522  2.3591  0.2861  2.2526
 9233SOL    HW239162   0.839   1.489   8.653  1.0566  0.2720 -0.4070
 9234SOL     OW39163   0.498   4.701  10.281 -0.2854 -0.4465 -0.5107
 9234SOL    HW139164   0.471   4.714  10.190  1.7434  0.4330 -0.9834
 9234SOL    HW239165   0.455   0.053  10.318  1.0542  1.9436 -3.9906
 9235SOL     OW39166   1.559   2.869  15.145  0.0103  0.5714  0.7860
 9235SOL    HW139167   1.502   2.892  15.218  0.0694  0.2862  0.9205
 9235SOL    HW239168   1.520   2.786  15.117  1.4255 -1.4991  4.9632
 9236SOL     OW39169   4.704   4.158   5.467 -0.1212  0.8155  0.1527
 9236SOL    HW139170   0.032   4.112   5.403 -0.0177  1.4550 -0.2180
 9236SOL    HW239171   4.655   4.080   5.495  0.2600  0.2763 -0.6929
 9237SOL     OW39172   3.688   2.503  13.418  0.1733 -0.0326  0.0247
 9237SOL    HW139173   3.759   2.540  13.366  1.2943 -0.7243  1.0900
 9237SOL    HW239174   3.625   2.490  13.346  0.1098  1.9759 -0.2873
 9238SOL     OW39175   3.507   4.143   7.182 -0.2236  0.0362  0.3102
 9238SOL    HW139176   3.440   4.211   7.186  0.6455  0.8896  0.4750
 9238SOL    HW239177   3.457   4.080   7.130  0.3687 -1.0796  1.0916
 9239SOL     OW39178   4.672   3.774   2.296 -0.1081 -0.3169 -0.3528
 9239SOL    HW139179   4.651   3.747   2.207 -1.0622 -1.3040  0.1703
 9239SOL    HW239180   4.652   3.704   2.359  1.0921 -0.1596  0.2083
 9240SOL     OW39181   1.914   1.914   6.911  0.8908 -0.3335  0.3366
 9240SOL    HW139182   1.888   1.875   6.995  0.1985 -0.4160  0.0756
 9240SOL    HW239183   2.009   1.905   6.922  0.9334  1.5035  1.3612
 9241SOL     OW39184   2.475   0.550   4.574 -0.0323  0.0901 -0.6617
 9241SOL    HW139185   2.392   0.518   4.537 -2.0041  1.6723  2.3405
 9241SOL    HW239186   2.522   0.473   4.603  1.2825  0.6190 -1.3903
 9242SOL     OW39187   3.371   4.674   8.105  1.2160 -0.6105  0.1940
 9242SOL    HW139188   3.417   0.010   8.047 -0.3234  0.5452  0.1925
 9242SOL    HW239189   3.395   4.592   8.063  1.7063 -0.3870  0.0419
 9243SOL     OW39190   2.060   1.502  15.499 -0.1385  0.0925  0.4101
 9243SOL    HW139191   2.082   1.587  15.461 -0.6137  0.2954  0.5745
 9243SOL    HW239192   2.049   1.438  15.429  0.7323 -1.2527  1.5016
 9244SOL     OW39193   0.027   2.960   4.991 -0.3621  0.3872 -0.0743
 9244SOL    HW139194   0.066   2.879   4.958 -0.8037 -0.7328  2.1109
 9244SOL    HW239195   0.085   3.021   4.946  2.6873 -2.2930  0.2992
 9245SOL     OW39196   1.713   1.684   6.306 -0.4291 -0.2388  0.7511
 9245SOL    HW139197   1.648   1.753   6.296  0.7054  0.8609  0.8885
 9245SOL    HW239198   1.676   1.610   6.259 -0.3805 -0.9810  1.8751
 9246SOL     OW39199   3.046   0.548  11.656 -0.1438 -0.1193 -0.3510
 9246SOL    HW139200   3.131   0.578  11.688 -0.5740  0.2685  0.4052
 9246SOL    HW239201   3.058   0.453  11.666  1.0568  0.0487 -0.2100
 9247SOL     OW39202   0.179   1.452  15.811  0.1190 -0.0827  0.5286
 9247SOL    HW139203   0.248   1.506  15.770 -0.7609  2.3663  2.2696
 9247SOL    HW239204   0.165   1.492  15.897 -1.0102 -1.0720  0.8033
 9248SOL     OW39205   0.002   0.950   6.283 -0.6536  0.4970 -0.1334
 9248SOL    HW139206   0.086   0.916   6.254 -0.4409  0.0281  1.0197
 9248SOL    HW239207   0.021   0.934   6.376 -0.7159  2.3048  0.1858
 9249SOL     OW39208   1.866   3.480  14.103  0.6920  0.0654  0.4876
 9249SOL    HW139209   1.916   3.407  14.139 -0.1276 -1.7462 -2.0398
 9249SOL    HW239210   1.789   3.494  14.159  0.0594 -1.1708 -0.0683
 9250SOL     OW39211   4.311   3.174   0.538  0.4732  0.2400 -0.5952
 9250SOL    HW139212   4.326   3.179   0.444 -0.6755  1.0737 -0.7388
 9250SOL    HW239213   4.330   3.264   0.565 -0.2591 -0.2713  1.6342
 9251SOL     OW39214   0.554   3.362   3.133  0.6563  0.1271 -0.5227
 9251SOL    HW139215   0.608   3.365   3.211 -2.6338  2.1244  1.6898
 9251SOL    HW239216   0.476   3.346   3.186  0.0533 -0.2886 -1.5311
 9252SOL     OW39217   0.263   4.383   3.234  0.2981 -0.5073 -0.4888
 9252SOL    HW139218   0.195   4.366   3.169 -1.4544  0.9717  0.9480
 9252SOL    HW239219   0.331   4.435   3.191 -0.5248 -0.2785 -1.5196
 9253SOL     OW39220   4.315   2.571   5.285 -0.2375  0.1445  0.1318
 9253SOL    HW139221   4.335   2.484   5.249  2.8470  1.0873 -0.4483
 9253SOL    HW239222   4.257   2.552   5.359  0.1188 -1.4536  0.0095
 9254SOL     OW39223   2.515   0.444  15.916  0.1487  0.1818 -0.3019
 9254SOL    HW139224   2.440   0.488  15.955 -0.5216 -0.9539 -0.2933
 9254SOL    HW239225   2.591   0.493  15.948 -1.0565  0.9943  1.3075
 9255SOL     OW39226   2.560   3.489  16.873  0.7567 -0.0541  0.2395
 9255SOL    HW139227   2.639   3.525  16.833  1.5704  0.3412  2.2029
 9255SOL    HW239228   2.590   3.398  16.869 -2.4956 -1.1187  0.0643
 9256SOL     OW39229   4.263   2.678   3.839  0.5301  0.3284  0.1879
 9256SOL    HW139230   4.182   2.660   3.887  0.2091  0.9161 -0.1222
 9256SOL    HW239231   4.322   2.682   3.914 -0.8604  0.5911  1.2778
 9257SOL     OW39232   2.319   2.912   2.980  0.6855 -0.1871  0.4537
 9257SOL    HW139233   2.272   2.918   2.896 -0.5640 -2.4478  0.9788
 9257SOL    HW239234   2.377   2.985   2.959  0.1886 -0.1524 -0.8341
 9258SOL     OW39235   0.696   2.154   7.757  0.3010 -0.0703 -0.0301
 9258SOL    HW139236   0.634   2.180   7.689  1.4620  2.1420 -0.2415
 9258SOL    HW239237   0.694   2.060   7.738  0.1901  0.0910 -0.8441
 9259SOL     OW39238   1.753   1.112  13.844  0.2312  0.1727  0.5938
 9259SOL    HW139239   1.814   1.175  13.807 -0.3471  0.3458 -0.0611
 9259SOL    HW239240   1.807   1.061  13.905  1.3077 -1.0620 -1.3904
 9260SOL     OW39241   3.549   4.376   6.264 -0.2313  0.3314 -0.2198
 9260SOL    HW139242   3.623   4.322   6.239  0.7324  0.7972  1.6243
 9260SOL    HW239243   3.536   4.342   6.353  0.5225 -2.8287 -1.3266
 9261SOL     OW39244   3.369   4.579  10.214 -0.2836 -0.2983 -0.1581
 9261SOL    HW139245   3.442   4.517  10.211 -0.9652 -1.0320 -1.7300
 9261SOL    HW239246   3.348   4.594  10.122  0.3789 -1.5935 -0.5224
 9262SOL     OW39247   3.257   1.023   5.643  0.1154 -0.2043  0.1614
 9262SOL    HW139248   3.243   1.111   5.678 -1.2951 -0.4339  0.1445
 9262SOL    HW239249   3.353   1.018   5.637  0.1933  0.5550  0.7932
 9263SOL     OW39250   4.396   3.475   0.707 -0.3575  0.3099  0.2090
 9263SOL    HW139251   4.373   3.488   0.615 -0.9530  0.1456  0.3389
 9263SOL    HW239252   4.400   3.560   0.751 -0.9307  0.9220 -0.9209
 9264SOL     OW39253   1.894   1.745   2.781 -0.0984 -0.0251 -0.3543
 9264SOL    HW139254   1.905   1.695   2.862  0.5392 -1.8565 -1.5803
 9264SOL    HW239255   1.872   1.831   2.816 -0.0082 -1.4627  3.2059
 9265SOL     OW39256   3.649   3.988   6.049  0.1443 -0.3498  0.4720
 9265SOL    HW139257   3.701   4.003   6.128  0.0640  3.5575 -0.2027
 9265SOL    HW239258   3.656   3.893   6.047  2.5123 -0.2376  2.1175
 9266SOL     OW39259   2.389   1.458   1.129  0.4658 -0.5162  0.5473
 9266SOL    HW139260   2.318   1.483   1.187  0.5650  2.0058 -0.4210
 9266SOL    HW239261   2.468   1.468   1.182 -0.8803 -0.2960  2.5023
 9267SOL     OW39262   0.518   2.679  10.487 -0.1807 -0.5266 -0.3632
 9267SOL    HW139263   0.425   2.697  10.494  0.4577  1.5598  2.9760
 9267SOL    HW239264   0.560   2.764  10.475 -1.9360  0.1986 -1.2751
 9268SOL     OW39265   3.037   0.965   5.475 -0.3275  0.7202  0.3772
 9268SOL    HW139266   3.004   1.055   5.477  1.5732  1.4056  0.4465
 9268SOL    HW239267   3.105   0.977   5.540 -0.9399  2.1053  0.7586
 9269SOL     OW39268   3.628   0.407  17.173  0.1052 -0.5822  0.5127
 9269SOL    HW139269   3.546   0.437  17.134  1.6269  1.6085 -1.0141
 9269SOL    HW239270   3.691   0.470  17.136 -2.6105  2.5826  1.2941
 9270SOL     OW39271   0.554   4.606   7.679 -0.2147 -0.0213 -0.5350
 9270SOL    HW139272   0.488   4.561   7.627  1.7500 -0.7722 -2.3454
 9270SOL    HW239273   0.505   4.659   7.743  0.3242 -0.9197  0.6212
 9271SOL     OW39274   4.705   3.223   6.410  0.1885  0.6723 -0.5435
 9271SOL    HW139275   0.063   3.196   6.371 -0.3979 -0.0526 -1.2792
 9271SOL    HW239276   4.653   3.152   6.371 -1.2492  1.9001 -0.8713
 9272SOL     OW39277   2.574   2.171  12.359 -0.2962  0.4005 -0.3905
 9272SOL    HW139278   2.501   2.149  12.302  0.8516  1.2221 -2.1501
 9272SOL    HW239279   2.599   2.080  12.376  3.4172  1.2758 -1.0897
 9273SOL     OW39280   4.477   1.558  16.452 -0.4413  0.0537  0.1871
 9273SOL    HW139281   4.439   1.646  16.463  1.6860  1.0503 -0.4267
 9273SOL    HW239282   4.491   1.557  16.358 -0.8103  3.0499  0.0780
 9274SOL     OW39283   4.229   2.434   7.445 -0.2087 -0.1763  0.3326
 9274SOL    HW139284   4.310   2.441   7.395 -0.8342  2.6030 -0.2628
 9274SOL    HW239285   4.260   2.376   7.514 -1.8462 -0.2308  1.0225
 9275SOL     OW39286   1.525   3.514   3.629 -0.4306 -0.0291  0.2797
 9275SOL    HW139287   1.566   3.570   3.695 -1.8155  1.3471 -0.0097
 9275SOL    HW239288   1.484   3.449   3.687 -1.0501 -0.5678 -0.7535
 9276SOL     OW39289   2.045   0.517   3.487 -0.1699  0.3117  0.1392
 9276SOL    HW139290   1.975   0.477   3.435  0.9082  0.4471 -1.4146
 9276SOL    HW239291   2.092   0.567   3.420  0.4115  0.0113  0.3289
 9277SOL     OW39292   3.922   0.965  10.235  0.3074  0.0878  0.2812
 9277SOL    HW139293   4.009   0.965  10.194 -0.1226 -0.9604 -0.6206
 9277SOL    HW239294   3.941   0.942  10.326  1.2876  2.2221  0.6158
 9278SOL     OW39295   1.994   4.499  16.316 -0.6994 -0.1314  0.2101
 9278SOL    HW139296   1.902   4.515  16.336 -1.3736 -3.9486  0.1921
 9278SOL    HW239297   2.000   4.425  16.255  0.7455  0.9734 -0.9865
 9279SOL     OW39298   1.614   0.199   2.626 -0.1990 -0.7224  0.1421
 9279SOL    HW139299   1.678   0.143   2.582 -0.5135 -0.3411 -0.8088
 9279SOL    HW239300   1.647   0.203   2.715  1.6491  1.3474 -0.6436
 9280SOL     OW39301   2.151   3.971  15.280  0.0027 -0.2848 -0.0289
 9280SOL    HW139302   2.163   3.882  15.249 -0.7266 -0.9798  1.6910
 9280SOL    HW239303   2.179   3.969  15.372 -0.5002  2.2582  0.1927
 9281SOL     OW39304   4.020   3.856   4.973  0.0797 -0.0135 -0.2044
 9281SOL    HW139305   4.074   3.883   4.899 -0.8641  1.2384 -0.4189
 9281SOL    HW239306   3.999   3.942   5.010  1.6612  0.2085  0.2029
 9282SOL     OW39307   2.891   1.146   7.737 -0.1051  0.0675 -0.1363
 9282SOL    HW139308   2.863   1.180   7.652  1.4518 -0.6452 -0.9304
 9282SOL    HW239309   2.917   1.055   7.723  2.7015  0.8848 -0.1957
 9283SOL     OW39310   0.134   4.058   2.814 -0.6621 -0.5382 -0.1269
 9283SOL    HW139311   0.143   4.097   2.901 -1.4176  1.2658 -0.8783
 9283SOL    HW239312   0.049   4.085   2.782  0.0590  1.5449 -0.2918
 9284SOL     OW39313   3.792   0.490  11.141  0.0934 -0.0038  0.1423
 9284SOL    HW139314   3.801   0.555  11.071 -3.2110 -0.9492 -1.2126
 9284SOL    HW239315   3.815   0.543  11.217 -0.7394 -0.5865  0.8003
 9285SOL     OW39316   1.048   0.885   5.904  0.5742 -0.4507 -0.1818
 9285SOL    HW139317   1.007   0.825   5.966  3.7256 -0.8397  1.5268
 9285SOL    HW239318   1.013   0.969   5.935 -1.0218 -1.1208 -0.1947
 9286SOL     OW39319   3.293   3.427   4.586  0.4307 -0.5801  0.2415
 9286SOL    HW139320   3.283   3.332   4.587  0.3733 -0.5732  0.3003
 9286SOL    HW239321   3.383   3.433   4.554  0.2679  1.6488  0.2169
 9287SOL     OW39322   4.028   2.434   9.165  0.7143  0.2836 -0.1486
 9287SOL    HW139323   3.995   2.359   9.215 -0.7731  0.8787 -0.2337
 9287SOL    HW239324   3.966   2.421   9.093  0.0054  2.9151  0.0059
 9288SOL     OW39325   0.744   3.845   9.603 -0.4418  0.3912 -0.7846
 9288SOL    HW139326   0.723   3.924   9.552  0.4667  0.9661 -0.2805
 9288SOL    HW239327   0.799   3.803   9.537 -0.2128  0.1587 -0.4463
 9289SOL     OW39328   0.610   2.769   3.451 -0.1253  0.6901 -0.3662
 9289SOL    HW139329   0.675   2.700   3.466 -1.5905 -0.6592 -0.1873
 9289SOL    HW239330   0.537   2.716   3.420  1.0185  0.0471 -1.9649
 9290SOL     OW39331   1.709   0.761  14.123  0.4944 -0.3746 -0.2703
 9290SOL    HW139332   1.632   0.815  14.140  0.9014 -0.1955  0.9892
 9290SOL    HW239333   1.769   0.835  14.131 -1.5453  1.4513 -1.6652
 9291SOL     OW39334   0.334   0.519   7.323 -0.8257 -0.3110  0.0878
 9291SOL    HW139335   0.415   0.558   7.356 -1.5074 -2.0864  3.8532
 9291SOL    HW239336   0.318   0.456   7.393 -0.5980 -0.6922 -0.2074
 9292SOL     OW39337   4.543   3.665   1.232 -0.4011 -0.1291 -0.5070
 9292SOL    HW139338   4.547   3.706   1.145 -2.9660  0.5197 -0.3310
 9292SOL    HW239339   4.517   3.579   1.199  1.8199 -0.5662 -1.1046
 9293SOL     OW39340   3.624   2.646  11.790 -0.6417 -0.2454  0.2083
 9293SOL    HW139341   3.656   2.584  11.855  0.9340 -0.1988 -0.5270
 9293SOL    HW239342   3.555   2.691  11.840  0.0556  0.0802  0.8691
 9294SOL     OW39343   3.639   3.431   6.931 -0.0234 -0.4881  0.0618
 9294SOL    HW139344   3.563   3.418   6.988 -0.7054  1.1917 -0.4594
 9294SOL    HW239345   3.635   3.341   6.899  1.5633 -0.2983 -0.6727
 9295SOL     OW39346   2.989   4.694   5.759  0.0375 -0.3440 -0.0105
 9295SOL    HW139347   2.910   4.642   5.747 -1.6915  2.3626 -0.3608
 9295SOL    HW239348   2.958   0.044   5.810 -1.8067 -1.2462  0.1781
 9296SOL     OW39349   3.187   1.751   0.686 -0.1447 -0.0387  0.1050
 9296SOL    HW139350   3.226   1.668   0.715 -0.2005 -0.0671  0.0976
 9296SOL    HW239351   3.264   1.789   0.643  1.1442 -2.8816 -0.1047
 9297SOL     OW39352   0.134   1.367   7.262  0.0649 -0.1384  0.3198
 9297SOL    HW139353   0.052   1.317   7.259 -0.7162  1.3007 -2.3027
 9297SOL    HW239354   0.155   1.346   7.171  0.5486  1.1884  0.1318
 9298SOL     OW39355   2.665   4.301   3.404  0.0699  0.3720  0.6598
 9298SOL    HW139356   2.647   4.208   3.395  0.3724  0.2005  1.7993
 9298SOL    HW239357   2.655   4.329   3.313  0.9490 -0.0428  0.4336
 9299SOL     OW39358   0.048   3.979  13.916  0.3178 -0.2879 -0.0352
 9299SOL    HW139359   0.063   4.073  13.904  2.8075 -0.8809 -1.5583
 9299SOL    HW239360   4.678   3.975  13.910  0.1224  0.0993  2.6289
 9300SOL     OW39361   0.531   1.326  13.904 -0.1119  0.2842 -0.0737
 9300SOL    HW139362   0.550   1.239  13.940  1.1520  0.3747 -0.5254
 9300SOL    HW239363   0.444   1.330  13.945  0.3170 -1.8538  1.0645
 9301SOL     OW39364   3.577   3.118   9.129  0.2204  0.1579 -0.1565
 9301SOL    HW139365   3.628   3.099   9.208 -0.8847  2.4962  1.1174
 9301SOL    HW239366   3.639   3.095   9.060  0.5261 -0.2170  0.2424
 9302SOL     OW39367   0.250   3.935  13.046 -0.0297  0.3917  0.0414
 9302SOL    HW139368   0.224   3.995  12.976  0.8342  0.6948 -0.0263
 9302SOL    HW239369   0.158   3.912  13.061 -0.1829  0.7510 -0.3482
 9303SOL     OW39370   2.646   0.853   2.477 -0.4023 -0.2559 -0.7264
 9303SOL    HW139371   2.657   0.834   2.570 -0.6154 -0.6798 -0.7879
 9303SOL    HW239372   2.608   0.941   2.484  0.3418 -0.0485  0.5980
 9304SOL     OW39373   1.265   1.857   5.002  0.5127  0.0204  0.8172
 9304SOL    HW139374   1.282   1.763   4.994 -0.5334  0.1563 -2.9661
 9304SOL    HW239375   1.170   1.859   5.004  0.4607  0.8307 -1.9451
 9305SOL     OW39376   3.742   0.513   3.148 -0.9580 -0.3421 -0.0742
 9305SOL    HW139377   3.789   0.544   3.226  1.5527 -3.3262 -0.4346
 9305SOL    HW239378   3.789   0.430   3.145  3.5311  2.1527  0.3311
 9306SOL     OW39379   3.612   0.662  14.196 -0.3583 -0.1532 -0.3334
 9306SOL    HW139380   3.698   0.706  14.195 -1.2862  1.6633  0.6006
 9306SOL    HW239381   3.635   0.570  14.207  1.1268  0.4831  1.8540
 9307SOL     OW39382   2.327   4.259  16.060  0.5325  0.3731 -0.2840
 9307SOL    HW139383   2.296   4.195  15.995 -2.5686  0.6036  0.9874
 9307SOL    HW239384   2.304   4.227  16.147  0.2273  1.7670  0.1372
 9308SOL     OW39385   0.449   4.260  13.729  0.0491  0.2152 -0.1875
 9308SOL    HW139386   0.372   4.290  13.777 -1.7951 -3.6483 -0.7769
 9308SOL    HW239387   0.432   4.167  13.717  0.9772 -0.0546  0.6017
 9309SOL     OW39388   0.695   3.598   3.859  0.5843 -0.5374  0.7995
 9309SOL    HW139389   0.650   3.658   3.800  0.1940 -1.5023  0.1195
 9309SOL    HW239390   0.734   3.649   3.931  1.2320 -1.2883  0.9780
 9310SOL     OW39391   0.646   3.742  11.032  0.0885  0.1216 -0.3028
 9310SOL    HW139392   0.738   3.756  11.010 -0.1775  0.7436 -1.0576
 9310SOL    HW239393   0.645   3.648  11.019 -1.8219 -0.1659  2.0031
 9311SOL     OW39394   1.702   2.110  16.336  0.4867 -0.5118  0.0914
 9311SOL    HW139395   1.741   2.194  16.360  0.2224  0.0345 -1.3407
 9311SOL    HW239396   1.706   2.061  16.418 -3.0023 -1.6178 -0.4010
 9312SOL     OW39397   0.900   4.421   2.642  0.6149 -0.1827 -0.2859
 9312SOL    HW139398   0.823   4.375   2.676  0.6771 -0.6928 -0.8484
 9312SOL    HW239399   0.857   4.496   2.600 -2.8345 -1.5400  0.7630
 9313SOL     OW39400   3.661   3.474  10.392 -0.5140  0.1072  0.4667
 9313SOL    HW139401   3.753   3.458  10.414 -0.7489  1.7470  2.6378
 9313SOL    HW239402   3.630   3.390  10.359 -0.0399  0.5611 -1.1141
 9314SOL     OW39403   3.033   3.004   2.281  0.0194 -0.1136  0.3291
 9314SOL    HW139404   2.938   2.997   2.287 -0.0702  0.1153 -0.7688
 9314SOL    HW239405   3.047   3.094   2.251 -3.0161  0.9978  2.2609
 9315SOL     OW39406   3.595   4.225   7.413 -0.0116 -0.5304 -0.3762
 9315SOL    HW139407   3.566   4.183   7.332 -0.4268 -0.0491 -0.4779
 9315SOL    HW239408   3.689   4.236   7.399 -0.2190  1.2910 -0.3297
 9316SOL     OW39409   3.764   2.442   3.824 -0.2242 -0.2268  0.2026
 9316SOL    HW139410   3.821   2.448   3.747  0.2606  1.9848  0.7119
 9316SOL    HW239411   3.815   2.382   3.878 -3.3042 -2.8097  0.1979
 9317SOL     OW39412   1.958   1.679  13.516  0.2980  0.3605 -0.8954
 9317SOL    HW139413   1.989   1.768  13.499  2.2636 -0.8394 -3.5702
 9317SOL    HW239414   2.039   1.628  13.511  1.4498  1.9200  1.8331
 9318SOL     OW39415   1.434   4.616   4.783 -0.2173  0.4906 -0.3863
 9318SOL    HW139416   1.437   4.698   4.733  0.0970 -0.4297 -1.8793
 9318SOL    HW239417   1.433   4.548   4.716  1.5109 -0.7558  0.8576
 9319SOL     OW39418   1.232   0.706  17.017  0.1238 -0.1872  0.0498
 9319SOL    HW139419   1.209   0.613  17.014 -1.4336  0.1943  0.1031
 9319SOL    HW239420   1.166   0.745  17.074 -0.5239 -0.8772 -0.2257
 9320SOL     OW39421   1.165   2.333   2.189 -0.5202  0.6274  0.2890
 9320SOL    HW139422   1.197   2.259   2.137  1.8969  0.6810  1.7304
 9320SOL    HW239423   1.088   2.291   2.229  0.8316 -1.8770  0.2435
 9321SOL     OW39424   1.073   2.204   5.847 -0.4550 -0.0151  0.6394
 9321SOL    HW139425   1.013   2.272   5.878  0.3354  0.9076  0.1454
 9321SOL    HW239426   1.031   2.170   5.768 -0.5195  1.2009  0.1533
 9322SOL     OW39427   4.164   0.532   7.092  0.2232 -0.1061 -0.3084
 9322SOL    HW139428   4.154   0.627   7.086 -0.4688 -0.1338  0.3588
 9322SOL    HW239429   4.162   0.509   6.999 -2.2572 -1.4176  0.0669
 9323SOL     OW39430   0.422   2.054   0.285 -0.1091 -0.1421  0.4824
 9323SOL    HW139431   0.392   1.989   0.349 -0.9383 -0.3716 -0.1468
 9323SOL    HW239432   0.501   2.016   0.246 -0.8438 -2.2239  1.0377
 9324SOL     OW39433   3.104   3.488  12.943  0.5370 -0.0633  0.2965
 9324SOL    HW139434   3.122   3.427  12.872  1.3227  0.6045 -0.0804
 9324SOL    HW239435   3.196   3.499  12.969  1.3497 -0.3808 -2.4402
 9325SOL     OW39436   2.907   3.510   1.437  0.1629  0.0082 -0.0538
 9325SOL    HW139437   2.888   3.468   1.521 -0.2313 -0.5401 -0.4121
 9325SOL    HW239438   2.961   3.586   1.458 -0.9500  0.2316  2.0239
 9326SOL     OW39439   4.582   2.314   5.915 -0.3707  0.7043  0.3503
 9326SOL    HW139440   4.529   2.360   5.851  0.6589 -0.8575 -1.6235
 9326SOL    HW239441   4.516   2.285   5.978  1.8310 -1.7586  1.5586
 9327SOL     OW39442   1.113   1.633   3.378 -0.7263 -0.1218  0.3552
 9327SOL    HW139443   1.090   1.554   3.329 -2.1913 -0.7680  2.1170
 9327SOL    HW239444   1.113   1.704   3.314 -1.5929 -1.2823 -0.9496
 9328SOL     OW39445   3.504   0.041   5.728 -0.2355  0.3826 -0.1399
 9328SOL    HW139446   3.583   0.084   5.697  1.0997 -0.9367  1.4541
 9328SOL    HW239447   3.490   4.700   5.661  2.4025  0.7092 -1.0088
 9329SOL     OW39448   0.494   0.669  14.239 -0.8222  0.2831 -0.2846
 9329SOL    HW139449   0.562   0.724  14.278  0.1104 -0.1677 -1.2810
 9329SOL    HW239450   0.525   0.658  14.150  0.6734  1.1186  0.1367
 9330SOL     OW39451   4.643   1.621  15.437 -0.6741  0.2286  0.7771
 9330SOL    HW139452   0.005   1.646  15.406 -1.9970 -0.2376 -3.2133
 9330SOL    HW239453   4.648   1.526  15.444  0.6252  0.2006 -0.6039
 9331SOL     OW39454   3.608   3.214   2.189  0.2548 -0.6387 -0.0610
 9331SOL    HW139455   3.513   3.216   2.184  0.2837  0.8863 -0.0300
 9331SOL    HW239456   3.620   3.126   2.225 -1.0942 -0.1353  1.5802
 9332SOL     OW39457   4.022   1.386   1.894 -0.1066  0.1065 -0.1521
 9332SOL    HW139458   3.931   1.358   1.899 -0.3283  0.7821 -0.3506
 9332SOL    HW239459   4.037   1.414   1.804  0.3528 -1.3383 -0.5189
 9333SOL     OW39460   0.870   3.717  17.159  0.6116 -0.0966  0.2488
 9333SOL    HW139461   0.920   3.750  17.084 -1.7251 -0.7106 -1.5570
 9333SOL    HW239462   0.787   3.755  17.131 -0.3096 -1.6154  0.9432
 9334SOL     OW39463   4.723   3.376   5.667  0.4806  0.3716 -0.6649
 9334SOL    HW139464   4.702   3.283   5.671  0.3751  0.4666  1.0656
 9334SOL    HW239465   4.695   3.395   5.577 -2.5305 -2.7137 -0.3480
 9335SOL     OW39466   1.613   0.827   2.434 -0.6656  0.1482  0.1980
 9335SOL    HW139467   1.609   0.913   2.392 -1.1391  0.3211  0.5905
 9335SOL    HW239468   1.679   0.844   2.500 -0.0242 -1.5554 -0.0115
 9336SOL     OW39469   2.323   3.546   7.103 -0.1817  0.0794  0.1001
 9336SOL    HW139470   2.250   3.589   7.148 -1.8432 -0.5505 -1.9573
 9336SOL    HW239471   2.373   3.517   7.179 -0.4444 -0.5606  0.0296
 9337SOL     OW39472   3.704   4.652  14.646 -0.5380  0.1266 -0.0069
 9337SOL    HW139473   3.663   4.579  14.599  1.0034 -1.5973  1.3392
 9337SOL    HW239474   3.632   4.714  14.659 -0.0062  0.5731  0.7613
 9338SOL     OW39475   4.259   3.845  11.379 -0.6920  0.3082 -0.4730
 9338SOL    HW139476   4.261   3.843  11.283  0.5317  1.6939 -0.4840
 9338SOL    HW239477   4.354   3.853  11.387 -0.5680 -0.4621 -1.1493
 9339SOL     OW39478   3.387   3.333  14.036 -0.7283  0.0252  0.4933
 9339SOL    HW139479   3.422   3.407  14.085 -0.3732 -0.7265  1.3768
 9339SOL    HW239480   3.358   3.381  13.958  1.7801  1.6052  0.5376
 9340SOL     OW39481   0.126   3.991  12.521 -0.3045  0.0410  0.3382
 9340SOL    HW139482   0.187   4.036  12.579 -0.5273  2.2860 -1.1654
 9340SOL    HW239483   0.043   3.999  12.568 -1.1127  0.0205 -1.0651
 9341SOL     OW39484   4.685   2.114   1.300 -0.0317 -0.3287 -0.2901
 9341SOL    HW139485   4.598   2.084   1.277 -0.7055  0.7924  0.8117
 9341SOL    HW239486   0.000   2.111   1.213  2.6179 -3.1952  1.0150
 9342SOL     OW39487   4.024   1.726   9.909 -1.0851 -0.3481  0.0160
 9342SOL    HW139488   4.103   1.712   9.960  0.3334  0.8375 -1.8422
 9342SOL    HW239489   4.006   1.636   9.884  0.2689 -0.3233 -1.0144
 9343SOL     OW39490   3.350   3.933   3.132 -0.0902 -0.0704 -0.1607
 9343SOL    HW139491   3.265   3.890   3.124 -0.0400 -0.6886  2.5705
 9343SOL    HW239492   3.357   3.945   3.227  2.5070 -2.7340  0.0013
 9344SOL     OW39493   1.153   1.297   3.501 -0.4951 -0.0464 -0.1127
 9344SOL    HW139494   1.216   1.242   3.456 -1.0896  1.2109 -2.4760
 9344SOL    HW239495   1.104   1.327   3.424 -0.0278  0.9029 -0.0415
 9345SOL     OW39496   0.920   1.904   2.382  0.2257  0.2659 -0.1253
 9345SOL    HW139497   0.876   1.989   2.377 -0.8175 -0.1197  2.1930
 9345SOL    HW239498   0.933   1.893   2.477  0.2765 -0.5247 -0.2197
 9346SOL     OW39499   3.413   4.013   8.716  0.6606 -0.3341  0.1108
 9346SOL    HW139500   3.392   3.953   8.645  2.6445 -0.2719 -0.5149
 9346SOL    HW239501   3.375   3.978   8.797  1.5760  0.4934  0.9060
 9347SOL     OW39502   4.135   4.543   4.397  0.6276  0.4138  0.1499
 9347SOL    HW139503   4.096   4.622   4.358  2.8834  0.9689 -0.9692
 9347SOL    HW239504   4.213   4.586   4.432  0.8294  0.9020 -0.8662
 9348SOL     OW39505   0.982   1.246   4.743 -0.2744 -0.4902  1.0420
 9348SOL    HW139506   1.024   1.237   4.829  1.6580 -0.5324  0.1031
 9348SOL    HW239507   1.011   1.170   4.692 -0.8853 -0.7181  1.0316
 9349SOL     OW39508   0.661   1.381   5.966 -0.1893 -0.0019 -0.0484
 9349SOL    HW139509   0.576   1.424   5.972 -0.0477 -0.1021  2.4191
 9349SOL    HW239510   0.624   1.294   5.953 -0.8480  0.4923 -1.5020
 9350SOL     OW39511   1.706   2.220   3.197  0.3800  0.0882 -0.0891
 9350SOL    HW139512   1.667   2.200   3.283  3.5754  0.2976  1.3988
 9350SOL    HW239513   1.740   2.306   3.221  1.2581 -0.5570  0.9718
 9351SOL     OW39514   2.393   3.400   6.315 -0.1276 -0.4788 -1.1879
 9351SOL    HW139515   2.487   3.415   6.317 -0.2343  0.0482 -0.1030
 9351SOL    HW239516   2.369   3.350   6.237 -1.2037 -1.4579 -0.2333
 9352SOL     OW39517   2.796   0.432  15.328 -0.3490  0.4192  0.5122
 9352SOL    HW139518   2.792   0.408  15.420 -0.3500  2.2215  0.9720
 9352SOL    HW239519   2.713   0.480  15.322 -0.0846  0.9241  0.8714
 9353SOL     OW39520   1.869   3.108   3.488 -0.2852 -0.5689 -0.0008
 9353SOL    HW139521   1.831   3.081   3.572 -1.0960  1.3387  0.2404
 9353SOL    HW239522   1.797   3.090   3.427 -0.3980 -1.5205  0.4056
 9354SOL     OW39523   1.614   0.210  16.238 -0.1160 -0.0365  0.4489
 9354SOL    HW139524   1.523   0.240  16.238  0.2736  1.1472 -2.8238
 9354SOL    HW239525   1.620   0.153  16.162  1.6429  1.1439 -0.3120
 9355SOL     OW39526   1.601   3.792  10.280  0.1945  0.6100 -0.2192
 9355SOL    HW139527   1.615   3.724  10.214  2.3431  0.4061  0.4562
 9355SOL    HW239528   1.506   3.806  10.284  0.3467  1.3302  0.6391
 9356SOL     OW39529   2.738   4.531   8.169  0.1500  0.1402  0.3781
 9356SOL    HW139530   2.645   4.550   8.175  0.4627  0.9565  2.6374
 9356SOL    HW239531   2.736   4.436   8.171  0.9854  0.1686  2.0504
 9357SOL     OW39532   2.613   4.646   0.848 -0.2924 -0.0340 -0.4252
 9357SOL    HW139533   2.573   4.582   0.907 -0.0081  0.1455 -0.0376
 9357SOL    HW239534   2.638   4.594   0.772 -1.4665 -1.1598 -0.0249
 9358SOL     OW39535   1.524   0.846  16.193 -0.3173  0.4125 -0.2826
 9358SOL    HW139536   1.490   0.824  16.107  1.4394 -2.4275 -0.2372
 9358SOL    HW239537   1.534   0.755  16.220 -3.3176  0.4933  1.1593
 9359SOL     OW39538   1.591   2.253   8.785  0.3802  0.1383  0.6438
 9359SOL    HW139539   1.563   2.291   8.869 -0.3874  0.9832  0.0112
 9359SOL    HW239540   1.607   2.166   8.823  1.4420  0.2396  0.4237
 9360SOL     OW39541   3.551   4.410   5.901 -0.4877 -0.1661  0.2560
 9360SOL    HW139542   3.517   4.384   5.816 -1.3294 -0.1610  0.5922
 9360SOL    HW239543   3.487   4.355   5.946  0.6791 -1.1696  0.6849
 9361SOL     OW39544   1.644   0.414   4.083  0.6910  0.6834 -0.7745
 9361SOL    HW139545   1.658   0.442   4.173 -2.4999 -1.6857  0.4614
 9361SOL    HW239546   1.707   0.342   4.085  1.2774  1.2753  1.5592
 9362SOL     OW39547   1.686   3.848  15.380 -0.2232 -0.5373  0.1645
 9362SOL    HW139548   1.719   3.902  15.452  1.8770  0.3186 -1.4465
 9362SOL    HW239549   1.732   3.888  15.307  2.6664 -0.3993  2.0589
 9363SOL     OW39550   2.901   3.171  14.766 -0.2495  0.3192 -0.5563
 9363SOL    HW139551   2.914   3.203  14.855 -0.0686  0.3596 -0.5976
 9363SOL    HW239552   2.913   3.253  14.718 -0.2137  0.3174 -0.5502
 9364SOL     OW39553   2.726   3.342  15.127  0.2052  0.5578 -0.3322
 9364SOL    HW139554   2.715   3.419  15.183 -0.2608 -0.5531  1.1099
 9364SOL    HW239555   2.649   3.350  15.070  1.4900 -1.5383 -2.4042
 9365SOL     OW39556   2.616   3.806   9.109  0.0816  0.2334  0.0430
 9365SOL    HW139557   2.646   3.893   9.082  1.6948 -0.3215  0.0358
 9365SOL    HW239558   2.654   3.743   9.047 -2.0800 -0.3795 -0.6457
 9366SOL     OW39559   0.714   3.320   2.673 -0.0979 -0.0424 -0.0346
 9366SOL    HW139560   0.752   3.403   2.702  1.1812 -0.1991 -1.2542
 9366SOL    HW239561   0.652   3.347   2.606 -0.1589  0.9151  0.4133
 9367SOL     OW39562   4.533   2.693   2.438  0.0404  0.1786  0.1314
 9367SOL    HW139563   4.592   2.686   2.513 -0.5255  0.2646  0.5951
 9367SOL    HW239564   4.461   2.633   2.460 -0.7006  0.7948 -0.6449
 9368SOL     OW39565   1.169   4.219   1.035 -0.2090  0.1735 -0.4911
 9368SOL    HW139566   1.222   4.141   1.053 -2.4489 -1.1561  0.2910
 9368SOL    HW239567   1.222   4.294   1.063  0.8682 -2.1558  3.6318
 9369SOL     OW39568   4.612   0.669   8.151  0.2122 -0.0111  0.2587
 9369SOL    HW139569   4.623   0.574   8.143  1.0487  0.2753 -1.9371
 9369SOL    HW239570   4.700   0.701   8.135  0.9855 -1.4269  1.7211
 9370SOL     OW39571   0.538   3.768   1.668  0.0267  0.2068  0.5017
 9370SOL    HW139572   0.473   3.782   1.599 -0.1897  1.0003  0.8626
 9370SOL    HW239573   0.482   3.723   1.731 -2.0542  2.1514  0.0475
 9371SOL     OW39574   0.380   3.268   4.857 -0.2411  0.0655 -0.0900
 9371SOL    HW139575   0.412   3.276   4.767 -1.9300 -0.0143 -0.7056
 9371SOL    HW239576   0.366   3.358   4.884  2.7675  0.9132 -1.3803
 9372SOL     OW39577   4.521   2.397   3.223 -0.0139 -0.0607 -0.1821
 9372SOL    HW139578   4.474   2.313   3.232 -1.1467  0.6957  0.9486
 9372SOL    HW239579   4.556   2.378   3.136 -0.8149  3.6082 -1.2958
 9373SOL     OW39580   4.292   2.290   7.684  0.2999 -0.1262  0.3071
 9373SOL    HW139581   4.371   2.342   7.703  0.7290 -0.9727  0.8029
 9373SOL    HW239582   4.328   2.205   7.708  0.9398  0.6272  2.0097
 9374SOL     OW39583   1.463   1.723   4.317 -0.1656 -0.0494  0.0812
 9374SOL    HW139584   1.395   1.671   4.275 -0.8412  0.7782  0.1361
 9374SOL    HW239585   1.501   1.655   4.372 -2.1108  0.8808  2.5934
 9375SOL     OW39586   2.939   1.149  14.013 -0.1524 -0.1792 -0.3780
 9375SOL    HW139587   2.872   1.116  13.953  0.0483 -1.3272  0.0425
 9375SOL    HW239588   3.019   1.135  13.963 -0.5244 -1.7912 -0.5119
 9376SOL     OW39589   2.455   4.206  11.454 -0.5885 -0.1830  0.1636
 9376SOL    HW139590   2.535   4.156  11.475 -2.5861 -3.5895 -0.4070
 9376SOL    HW239591   2.453   4.191  11.360 -0.5378 -0.1075  0.1499
 9377SOL     OW39592   0.143   0.698   6.479 -0.1518 -0.7144  0.4676
 9377SOL    HW139593   0.200   0.663   6.548  1.0911 -0.2137 -0.3054
 9377SOL    HW239594   0.109   0.777   6.521 -0.5442  0.1014 -1.4054
 9378SOL     OW39595   1.880   4.288   5.288  0.3298  0.5733  0.1699
 9378SOL    HW139596   1.899   4.245   5.372  0.0840 -0.1911 -0.1594
 9378SOL    HW239597   1.789   4.317   5.292 -0.2158 -1.0192 -0.5775
 9379SOL     OW39598   2.303   1.416   2.603  0.0055 -0.0108 -0.1153
 9379SOL    HW139599   2.291   1.333   2.649  3.0533 -1.4524 -1.9068
 9379SOL    HW239600   2.288   1.389   2.512  0.3207 -1.8267  0.3748
 9380SOL     OW39601   1.760   4.116  10.035 -0.2559 -0.5986  0.0945
 9380SOL    HW139602   1.852   4.102  10.060  0.2529 -0.5787 -1.7609
 9380SOL    HW239603   1.726   4.115  10.124  0.5309 -0.4567  0.4012
 9381SOL     OW39604   1.894   3.995   1.355 -0.1762  0.2816  0.1321
 9381SOL    HW139605   1.850   3.911   1.368 -0.6525  0.6926  1.2392
 9381SOL    HW239606   1.972   3.959   1.314 -1.8226 -3.0410 -0.0820
 9382SOL     OW39607   3.540   0.572   5.623  0.3697 -0.2167 -0.8742
 9382SOL    HW139608   3.476   0.634   5.659  1.2127  1.1796 -1.7795
 9382SOL    HW239609   3.503   0.485   5.638 -0.2137  0.3717  1.0590
 9383SOL     OW39610   0.752   3.530   5.083  0.1148  0.1144 -0.3519
 9383SOL    HW139611   0.733   3.445   5.122 -0.6476  0.0590 -0.8470
 9383SOL    HW239612   0.780   3.494   4.999 -1.7456 -2.3766  0.0640
 9384SOL     OW39613   3.198   0.654  14.504 -0.1515 -0.1178 -0.1342
 9384SOL    HW139614   3.239   0.706  14.573 -0.9659  0.5736 -0.1707
 9384SOL    HW239615   3.133   0.610  14.560  0.6161 -0.6657  0.3262
 9385SOL     OW39616   2.167   4.072   2.610  0.2555  0.1281  0.2018
 9385SOL    HW139617   2.168   4.074   2.515  0.2500 -0.5886  0.1826
 9385SOL    HW239618   2.073   4.069   2.625  0.6032 -1.4415  2.0878
 9386SOL     OW39619   0.785   2.392   2.083 -0.3584  0.0191 -0.3812
 9386SOL    HW139620   0.746   2.464   2.034 -1.9593  0.6081  1.7234
 9386SOL    HW239621   0.790   2.422   2.174 -1.0569  0.0564 -0.3532
 9387SOL     OW39622   4.289   2.087   4.677 -0.3360 -0.0467 -0.2343
 9387SOL    HW139623   4.298   2.004   4.724  2.7016 -0.2807 -1.2730
 9387SOL    HW239624   4.309   2.059   4.588  1.4634 -0.5190  0.3164
 9388SOL     OW39625   1.858   0.644  15.429  0.2178  0.1556 -0.5180
 9388SOL    HW139626   1.768   0.667  15.404  0.5950  1.3848 -0.7185
 9388SOL    HW239627   1.856   0.643  15.524 -1.2023 -1.0597 -0.5663
 9389SOL     OW39628   0.018   0.976  14.673  0.2616  0.3149 -0.6225
 9389SOL    HW139629   0.056   0.888  14.664  0.1521  0.3152 -1.0579
 9389SOL    HW239630   4.716   0.972  14.765 -0.3611  0.4975 -0.7939
 9390SOL     OW39631   1.436   3.791   7.571  0.3623  0.1814 -0.7730
 9390SOL    HW139632   1.378   3.801   7.647 -2.1486  0.7373 -2.7454
 9390SOL    HW239633   1.518   3.775   7.618  0.3370  0.9460 -0.4662
 9391SOL     OW39634   0.364   3.107   8.366 -0.0311 -0.8948 -0.4040
 9391SOL    HW139635   0.370   3.012   8.375  1.8391 -0.8015 -0.6064
 9391SOL    HW239636   0.286   3.118   8.421  0.4612 -1.6290  0.4483
 9392SOL     OW39637   2.905   1.799   3.724 -0.0565  0.6297  0.3168
 9392SOL    HW139638   2.953   1.776   3.644  1.0565 -0.9643  1.4371
 9392SOL    HW239639   2.880   1.891   3.714  0.9936  0.7491 -1.3231
 9393SOL     OW39640   0.775   0.737  11.811  0.2401 -0.1101  0.0197
 9393SOL    HW139641   0.782   0.702  11.723 -0.4427 -0.7712  0.2279
 9393SOL    HW239642   0.752   0.657  11.858 -1.4203  1.1766  1.4060
 9394SOL     OW39643   0.263   0.983   2.272  0.7528 -0.6323  0.4714
 9394SOL    HW139644   0.273   0.932   2.353 -0.2603 -0.3210  0.7847
 9394SOL    HW239645   0.189   1.037   2.299  0.0431 -1.6229  0.5005
 9395SOL     OW39646   2.731   0.618   8.458 -0.0406 -0.0227  0.4990
 9395SOL    HW139647   2.662   0.640   8.520  0.8067  1.4302  0.9208
 9395SOL    HW239648   2.796   0.604   8.527  2.6023  1.6826 -1.6501
 9396SOL     OW39649   3.059   0.410   7.392  0.1797 -0.2326 -0.2788
 9396SOL    HW139650   3.152   0.391   7.401  0.7394  1.6274 -2.0352
 9396SOL    HW239651   3.023   0.352   7.458  0.5979 -0.5087 -0.2931
 9397SOL     OW39652   1.762   2.645   1.905  0.0508 -0.2586 -0.1891
 9397SOL    HW139653   1.853   2.618   1.920 -0.8513 -2.7354  0.8436
 9397SOL    HW239654   1.719   2.559   1.906  2.0813 -1.2988 -1.6046
 9398SOL     OW39655   2.362   1.120   7.440 -0.0585 -0.5265  0.2970
 9398SOL    HW139656   2.294   1.135   7.506  1.3339  1.1370  1.3501
 9398SOL    HW239657   2.438   1.158   7.484 -1.1803  0.6150  1.2295
 9399SOL     OW39658   1.670   2.733  15.394 -0.2078  0.3405 -0.1884
 9399SOL    HW139659   1.688   2.741  15.301 -1.9904 -0.0297 -0.5695
 9399SOL    HW239660   1.673   2.827  15.411 -0.2569  0.0738  1.3207
 9400SOL     OW39661   2.409   3.553   5.306 -0.4787 -0.0039  0.6223
 9400SOL    HW139662   2.387   3.460   5.298  1.6270 -0.3962 -0.6589
 9400SOL    HW239663   2.503   3.536   5.310 -0.7545 -1.3089  1.8131
 9401SOL     OW39664   1.566   4.221   7.983 -0.4615 -0.0929 -0.2799
 9401SOL    HW139665   1.601   4.277   8.051 -1.4285  1.1690 -0.8330
 9401SOL    HW239666   1.501   4.172   8.032 -1.7350  1.6080 -0.3039
 9402SOL     OW39667   0.475   1.632  13.818  0.2704  0.4709  0.9390
 9402SOL    HW139668   0.476   1.705  13.880  2.0173  0.6175  0.7465
 9402SOL    HW239669   0.386   1.610  13.791  1.4477 -1.0096 -1.6872
 9403SOL     OW39670   4.593   2.071  10.816  0.1109 -0.4407 -0.7337
 9403SOL    HW139671   4.632   2.152  10.781  2.1169 -1.1728 -0.1523
 9403SOL    HW239672   4.603   2.092  10.909 -3.9152  1.2205 -0.6577
 9404SOL     OW39673   0.300   3.780  14.269 -0.3868 -0.2863  0.2944
 9404SOL    HW139674   0.263   3.723  14.201  0.4647 -0.8990  0.3443
 9404SOL    HW239675   0.391   3.753  14.268 -0.3897 -0.2080 -1.7421
 9405SOL     OW39676   0.513   2.345   3.127  0.3262 -0.3087 -0.5968
 9405SOL    HW139677   0.495   2.255   3.100  1.4155 -1.1402  1.4986
 9405SOL    HW239678   0.458   2.390   3.062 -0.1939 -0.4564 -0.2547
 9406SOL     OW39679   0.463   2.274   7.603 -0.2512 -0.2401 -0.0244
 9406SOL    HW139680   0.394   2.311   7.548  0.9198  0.8275 -0.7759
 9406SOL    HW239681   0.426   2.280   7.691 -2.2374 -4.1622 -0.5989
 9407SOL     OW39682   2.056   3.078  17.079 -0.1442  0.2846 -0.0056
 9407SOL    HW139683   2.120   3.127  17.028 -2.8108  1.9495 -1.7877
 9407SOL    HW239684   2.047   3.133  17.156  2.0993  0.0995  0.3813
 9408SOL     OW39685   4.247   3.998   0.803 -0.0388  0.3649 -0.3400
 9408SOL    HW139686   4.312   4.048   0.754 -1.2014  1.6633 -0.5451
 9408SOL    HW239687   4.183   4.064   0.826 -0.4760  0.2195 -1.1255
 9409SOL     OW39688   2.636   4.001   8.127  0.0410  0.4257  0.2035
 9409SOL    HW139689   2.698   4.040   8.188  0.9120 -0.8704  0.1320
 9409SOL    HW239690   2.607   3.925   8.177 -1.5426 -1.1561 -3.1105
 9410SOL     OW39691   1.044   2.514  16.851 -0.1973  0.0606 -0.4802
 9410SOL    HW139692   1.122   2.545  16.806  0.4632  1.9937  1.9681
 9410SOL    HW239693   0.979   2.584  16.846 -1.1152 -0.5129  2.8331
 9411SOL     OW39694   3.259   2.691   4.568 -0.5106 -0.5914  0.9349
 9411SOL    HW139695   3.289   2.621   4.509 -1.4032 -0.3882  0.2301
 9411SOL    HW239696   3.208   2.741   4.504  1.3065 -0.8486 -0.7341
 9412SOL     OW39697   2.755   4.432   3.164 -0.7398 -0.6596  0.0128
 9412SOL    HW139698   2.780   4.388   3.083  2.2092 -0.2110  0.6808
 9412SOL    HW239699   2.743   4.522   3.133 -3.1336 -1.3382 -1.0485
 9413SOL     OW39700   0.613   0.816   9.232 -0.5029 -0.3161  0.1646
 9413SOL    HW139701   0.587   0.907   9.240 -1.1147 -0.4696 -0.0593
 9413SOL    HW239702   0.701   0.820   9.194  0.4954 -1.8862  2.2753
 9414SOL     OW39703   2.673   2.861   5.893 -0.6400  0.4294 -0.1057
 9414SOL    HW139704   2.730   2.933   5.921  1.4955 -0.8801 -1.1112
 9414SOL    HW239705   2.736   2.795   5.922 -0.6591 -0.0124 -1.0730
 9415SOL     OW39706   1.636   4.631   0.592 -0.3357  0.5444 -0.5638
 9415SOL    HW139707   1.688   4.610   0.670 -1.2383  1.2060  0.2101
 9415SOL    HW239708   1.626   0.001   0.601 -2.1645  0.3603 -0.6460
 9416SOL     OW39709   4.040   3.041   5.333 -0.3523 -0.0156  0.0053
 9416SOL    HW139710   4.051   3.036   5.238  2.3183 -0.2882  0.3303
 9416SOL    HW239711   4.128   3.005   5.348 -0.0152  0.8882  0.2014
 9417SOL     OW39712   1.325   1.453   7.278 -0.5496 -0.1465  0.3580
 9417SOL    HW139713   1.255   1.388   7.284  0.2867 -1.2159 -1.4588
 9417SOL    HW239714   1.334   1.498   7.361  1.7190 -0.9300  0.5126
 9418SOL     OW39715   2.882   0.922  10.068 -0.5911  0.3133 -0.6336
 9418SOL    HW139716   2.932   0.989  10.020 -2.1748  0.3028 -2.3254
 9418SOL    HW239717   2.905   0.940  10.159 -1.1071  1.7637 -0.7796
 9419SOL     OW39718   1.745   1.844   1.540  0.2154 -0.5912  0.0953
 9419SOL    HW139719   1.759   1.884   1.626  3.1726 -1.8785  0.2049
 9419SOL    HW239720   1.715   1.917   1.486  0.2232  1.2329  2.5078
 9420SOL     OW39721   2.218   2.266   4.864  0.1778 -0.2664  0.2485
 9420SOL    HW139722   2.298   2.309   4.894  1.1150 -2.0856  0.3132
 9420SOL    HW239723   2.219   2.189   4.920  0.7440  0.4514  1.2307
 9421SOL     OW39724   2.650   1.406   1.802 -0.3549 -0.1029 -0.1809
 9421SOL    HW139725   2.598   1.474   1.845 -1.4358  0.2161 -1.9880
 9421SOL    HW239726   2.630   1.329   1.854 -1.3345  0.0181 -0.3760
 9422SOL     OW39727   2.390   3.302   9.121 -0.0614 -0.1166  0.6315
 9422SOL    HW139728   2.328   3.372   9.100  0.2986  0.4506  1.4939
 9422SOL    HW239729   2.389   3.310   9.216 -2.7206  0.1948  0.5918
 9423SOL     OW39730   1.632   0.944   5.878  0.2258  0.0124  0.5886
 9423SOL    HW139731   1.650   1.036   5.898 -0.2462  0.0030  1.0680
 9423SOL    HW239732   1.569   0.916   5.945  0.2953 -1.0751  0.1968
 9424SOL     OW39733   2.351   1.021  17.581  0.2046  0.2039 -0.4773
 9424SOL    HW139734   2.268   0.974  17.577  0.7464 -0.9832  1.8664
 9424SOL    HW239735   2.329   1.112  17.604  0.0356 -0.4366  1.8905
 9425SOL     OW39736   3.323   1.392   3.192 -0.3945  0.3723 -0.1149
 9425SOL    HW139737   3.414   1.410   3.216 -0.5415  1.5099 -0.3935
 9425SOL    HW239738   3.333   1.335   3.116  2.5626  0.5609  0.1148
 9426SOL     OW39739   1.970   1.996   2.651 -0.7794  0.0339 -0.1111
 9426SOL    HW139740   1.896   1.970   2.595  0.8630 -0.6015 -1.9939
 9426SOL    HW239741   1.928   1.998   2.737 -1.1576  2.1548 -0.3504
 9427SOL     OW39742   0.247   1.459   6.656 -0.0070 -0.5416 -0.1306
 9427SOL    HW139743   0.158   1.467   6.623 -0.8757 -0.5122  2.2208
 9427SOL    HW239744   0.292   1.520   6.598  0.2431 -0.4482  0.1576
 9428SOL     OW39745   1.366   0.463   7.633  0.1799 -0.6260 -0.6539
 9428SOL    HW139746   1.455   0.498   7.634  0.7091 -1.9339 -1.0020
 9428SOL    HW239747   1.330   0.496   7.715 -1.5819 -0.1227 -1.6362
 9429SOL     OW39748   1.228   2.449  15.258  0.3342  0.5080 -0.2000
 9429SOL    HW139749   1.244   2.522  15.198 -0.7239  0.5507 -0.4431
 9429SOL    HW239750   1.304   2.461  15.315  0.6445  1.9696 -0.9123
 9430SOL     OW39751   1.462   0.517   5.137 -0.4141 -0.0719  0.1372
 9430SOL    HW139752   1.369   0.492   5.132  0.2337 -2.3843 -0.3094
 9430SOL    HW239753   1.492   0.437   5.094  0.8899  2.0305 -2.8733
 9431SOL     OW39754   0.853   2.981   9.105  0.2119  0.2139 -0.4352
 9431SOL    HW139755   0.827   3.068   9.077  0.4079  0.2295 -0.5651
 9431SOL    HW239756   0.786   2.964   9.172  1.3207  0.0153  0.6219
 9432SOL     OW39757   1.562   1.861   7.872 -0.6068 -0.2736 -0.6378
 9432SOL    HW139758   1.544   1.896   7.785  0.8994 -0.2830 -0.9610
 9432SOL    HW239759   1.617   1.786   7.850  0.4649  0.1255  0.6644
 9433SOL     OW39760   0.687   1.834   6.118  0.2078 -0.5562 -0.0682
 9433SOL    HW139761   0.619   1.783   6.162 -1.3261  1.6449  0.1598
 9433SOL    HW239762   0.759   1.776   6.141  2.7146  2.7925  0.6268
 9434SOL     OW39763   1.834   3.141   2.916 -0.1835 -0.1539  0.2750
 9434SOL    HW139764   1.831   3.237   2.913 -2.7282 -0.3296 -3.6607
 9434SOL    HW239765   1.754   3.135   2.969 -1.4968  1.6870 -1.4749
 9435SOL     OW39766   1.490   3.603   9.936  0.0737 -0.5867 -0.0808
 9435SOL    HW139767   1.478   3.696   9.917 -1.3484 -1.2404 -2.4491
 9435SOL    HW239768   1.581   3.608   9.965  0.0089 -0.3844  0.0865
 9436SOL     OW39769   0.980   1.712  16.124  0.3646  0.2063  0.0334
 9436SOL    HW139770   0.938   1.766  16.057 -0.8368  1.3378  1.6911
 9436SOL    HW239771   1.032   1.651  16.072 -1.0439 -0.2457 -0.8212
 9437SOL     OW39772   2.069   1.895   5.975  0.1170  0.0405  0.4294
 9437SOL    HW139773   2.041   1.986   5.981 -0.7321 -0.2942  1.4090
 9437SOL    HW239774   2.015   1.852   6.041 -0.1438  0.3083  0.3894
 9438SOL     OW39775   4.166   3.139   6.831 -0.0207 -0.2109  0.0297
 9438SOL    HW139776   4.252   3.138   6.789 -0.2059  0.1422 -0.3533
 9438SOL    HW239777   4.203   3.167   6.915 -2.4562  0.1743  0.9781
 9439SOL     OW39778   2.443   2.696   9.304  0.1580 -0.0872 -0.7021
 9439SOL    HW139779   2.429   2.700   9.399 -1.7525 -1.6333 -0.9040
 9439SOL    HW239780   2.449   2.791   9.294  2.1521 -0.1695 -0.2493
 9440SOL     OW39781   2.108   4.060  12.861 -0.4785 -0.0529 -0.2412
 9440SOL    HW139782   2.051   3.990  12.894  1.3416 -0.8448  1.1839
 9440SOL    HW239783   2.098   4.047  12.767  0.7081 -1.1428 -0.2109
 9441SOL     OW39784   0.408   2.313   1.639 -0.5701  0.0512  0.0527
 9441SOL    HW139785   0.384   2.223   1.616 -2.4839  0.8354 -1.0352
 9441SOL    HW239786   0.452   2.294   1.722  0.6122 -1.1895 -0.8646
 9442SOL     OW39787   2.745   4.254   0.528 -0.0615 -0.0894 -0.3423
 9442SOL    HW139788   2.675   4.231   0.588 -1.2617  1.9283 -0.9569
 9442SOL    HW239789   2.777   4.165   0.508 -1.1219 -0.5230 -0.0692
 9443SOL     OW39790   2.030   3.557   4.743 -1.0330 -0.0016 -0.0270
 9443SOL    HW139791   1.968   3.623   4.775  1.0364  2.1320 -0.4242
 9443SOL    HW239792   1.983   3.476   4.763 -0.5608 -0.7762 -2.0674
 9444SOL     OW39793   2.073   2.174  17.700  0.2411 -0.7090  0.3773
 9444SOL    HW139794   2.073   2.262   0.036  1.4513 -1.2631  1.7263
 9444SOL    HW239795   2.012   2.169  17.627 -0.4642  1.4337  0.8256
 9445SOL     OW39796   4.242   3.584   7.297  0.1378 -0.1062  0.1929
 9445SOL    HW139797   4.161   3.561   7.250 -0.4818 -1.2394  1.8380
 9445SOL    HW239798   4.248   3.679   7.290 -2.8537  0.1297  0.7768
 9446SOL     OW39799   0.516   0.947  17.176  0.0294  0.0570  0.2763
 9446SOL    HW139800   0.513   1.043  17.181 -0.4504  0.0300  0.5053
 9446SOL    HW239801   0.487   0.933  17.085 -0.9549 -0.3493  0.6573
 9447SOL     OW39802   3.189   3.955  16.182 -0.9000 -0.0436 -0.1712
 9447SOL    HW139803   3.136   4.031  16.159  0.2867  0.4483 -1.3163
 9447SOL    HW239804   3.270   3.958  16.131 -0.5962  0.1222  0.3215
 9448SOL     OW39805   0.914   4.507   6.474  0.1948  0.2524 -0.6000
 9448SOL    HW139806   0.879   4.501   6.563 -0.5884  2.3398 -0.7458
 9448SOL    HW239807   0.902   4.601   6.460 -2.0927 -0.1664 -1.4653
 9449SOL     OW39808   0.581   3.680   5.916  0.2203  0.0291  0.6527
 9449SOL    HW139809   0.672   3.653   5.913  0.0862 -0.3741  0.2470
 9449SOL    HW239810   0.598   3.768   5.882 -2.0644  1.0196  2.0496
 9450SOL     OW39811   1.398   1.093  12.196  0.8399 -0.1816 -0.3805
 9450SOL    HW139812   1.469   1.156  12.204  0.6231 -0.1270  0.9595
 9450SOL    HW239813   1.439   1.023  12.246 -1.4166 -0.8950  0.4761
 9451SOL     OW39814   0.088   3.152  14.727  0.1533  0.2843 -0.0200
 9451SOL    HW139815   0.079   3.086  14.796 -1.8383 -1.6613 -2.1434
 9451SOL    HW239816   0.064   3.230  14.777 -0.1482 -0.5819  1.1964
 9452SOL     OW39817   3.093   1.504   8.563  0.5152 -0.1486 -0.1085
 9452SOL    HW139818   3.174   1.518   8.613 -0.6780  1.7920  1.3167
 9452SOL    HW239819   3.107   1.583   8.510  1.7109 -1.3484 -1.5925
 9453SOL     OW39820   4.667   4.333   1.012 -0.4367 -0.2274 -0.3546
 9453SOL    HW139821   4.622   4.417   1.002  0.0786  0.1576  0.5804
 9453SOL    HW239822   4.600   4.266   1.023  1.8411 -2.9212 -2.7660
 9454SOL     OW39823   1.961   0.926   2.676  0.0150 -0.6457  0.1006
 9454SOL    HW139824   1.963   0.882   2.592  1.1867  1.9713 -1.2411
 9454SOL    HW239825   1.979   1.015   2.645 -2.2445  0.3734  1.6635
 9455SOL     OW39826   3.172   0.304   5.010  0.0298  0.3497 -0.3457
 9455SOL    HW139827   3.138   0.346   4.931 -0.9596 -2.1298 -1.2208
 9455SOL    HW239828   3.192   0.377   5.070 -1.7487 -0.2247  0.9501
 9456SOL     OW39829   2.279   3.942   8.477  0.3509 -0.6810 -0.0638
 9456SOL    HW139830   2.342   3.974   8.541 -0.2054  0.7287 -0.2196
 9456SOL    HW239831   2.192   3.967   8.508  0.6248  0.2637 -0.0700
 9457SOL     OW39832   0.829   4.611   3.529  0.5069  0.1602 -0.5827
 9457SOL    HW139833   0.847   4.529   3.575 -0.8711  1.4184  2.2231
 9457SOL    HW239834   0.738   4.591   3.508  0.6110 -1.4272  0.4794
 9458SOL     OW39835   3.753   0.610  16.483 -0.1529  0.2347 -0.3062
 9458SOL    HW139836   3.671   0.645  16.448  0.2503  2.5685  1.0897
 9458SOL    HW239837   3.802   0.634  16.404  2.0052  1.4515  1.4140
 9459SOL     OW39838   4.371   4.170  15.543  0.4610  0.0973 -0.5627
 9459SOL    HW139839   4.445   4.147  15.599  1.8440  3.7485 -0.8967
 9459SOL    HW239840   4.410   4.173  15.456 -0.6348  0.4979 -1.0467
 9460SOL     OW39841   0.299   1.345   1.865 -0.6523  0.5675  0.1751
 9460SOL    HW139842   0.364   1.326   1.933  0.3647 -1.9517 -1.5031
 9460SOL    HW239843   0.218   1.337   1.915  1.2649  0.0581  3.2551
 9461SOL     OW39844   4.422   4.683   8.771  0.1412  0.4228  0.4552
 9461SOL    HW139845   4.328   4.675   8.756  0.5715 -1.5183 -1.2011
 9461SOL    HW239846   4.427   4.653   8.862  2.1280 -0.8661 -0.0819
 9462SOL     OW39847   4.108   0.496   3.189  0.0492 -0.4886  0.4449
 9462SOL    HW139848   4.168   0.480   3.261 -0.1141 -0.8294  0.5067
 9462SOL    HW239849   4.031   0.513   3.242 -1.3432 -0.6565 -1.5091
 9463SOL     OW39850   3.346   1.554   4.434 -0.4334 -0.3178 -0.1601
 9463SOL    HW139851   3.441   1.560   4.425 -0.3276  0.9383  1.7945
 9463SOL    HW239852   3.320   1.520   4.349  0.4731 -2.8503  0.5812
 9464SOL     OW39853   0.294   3.890   6.783 -0.3600 -0.0280 -0.2748
 9464SOL    HW139854   0.267   3.942   6.707 -1.0690 -1.1436 -0.7918
 9464SOL    HW239855   0.299   3.806   6.737  0.3284  0.4941 -1.1440
 9465SOL     OW39856   0.467   0.813   8.241 -0.3199 -0.4068 -0.3966
 9465SOL    HW139857   0.491   0.894   8.285  1.4146 -0.5488 -1.0709
 9465SOL    HW239858   0.495   0.828   8.150 -2.7454 -0.7765 -1.1954
 9466SOL     OW39859   2.919   3.373   1.675  0.6067  0.0751 -0.2929
 9466SOL    HW139860   2.890   3.282   1.678 -3.3336  1.4547  2.8719
 9466SOL    HW239861   2.901   3.411   1.761 -0.7415 -0.5627 -0.3003
 9467SOL     OW39862   2.702   4.666  10.528 -0.1665  0.7054  0.0197
 9467SOL    HW139863   2.683   4.626  10.443 -0.7620 -1.3678  1.1436
 9467SOL    HW239864   2.618   4.684  10.571 -1.2459 -0.3917 -1.6124
 9468SOL     OW39865   3.939   0.389   5.748 -0.1765 -0.1632 -0.1930
 9468SOL    HW139866   3.889   0.462   5.786  1.2027  0.2519  0.8438
 9468SOL    HW239867   4.022   0.434   5.732  0.1699 -0.9480 -0.5950
 9469SOL     OW39868   2.409   2.495  17.023 -0.1620 -0.2018 -0.2302
 9469SOL    HW139869   2.467   2.535  16.958 -0.9016 -0.9175 -1.3427
 9469SOL    HW239870   2.329   2.470  16.975 -0.1794  1.4948 -1.0981
 9470SOL     OW39871   3.761   3.708   9.913  0.1448  0.4035 -0.1045
 9470SOL    HW139872   3.731   3.628   9.958  0.1403  0.2040 -0.4618
 9470SOL    HW239873   3.840   3.729   9.962 -0.7259 -1.0744  1.9898
 9471SOL     OW39874   2.997   2.218   3.959 -0.7571  0.4291 -0.0840
 9471SOL    HW139875   2.904   2.203   3.942 -1.0302 -2.1948  3.6478
 9471SOL    HW239876   3.032   2.189   3.875 -1.4656 -0.5562 -0.0436
 9472SOL     OW39877   0.487   2.674   5.154 -0.3527  0.9880  0.1809
 9472SOL    HW139878   0.578   2.651   5.137 -0.3609  0.6500  0.6020
 9472SOL    HW239879   0.469   2.637   5.241  1.3972  0.7232  0.4199
 9473SOL     OW39880   1.775   2.910  16.107 -0.1837  0.1679 -0.0514
 9473SOL    HW139881   1.738   2.885  16.192  0.9718  2.2070  1.0604
 9473SOL    HW239882   1.823   2.831  16.084 -0.1390 -0.5111  2.3906
 9474SOL     OW39883   0.001   0.903   4.356  0.8194  0.9068  0.0131
 9474SOL    HW139884   4.646   0.872   4.399  2.0072  0.3648  1.8229
 9474SOL    HW239885   4.724   0.846   4.278 -1.0460  0.9008  0.0535
 9475SOL     OW39886   2.427   0.177   2.479 -0.2702  0.0144  0.3096
 9475SOL    HW139887   2.354   0.238   2.491 -0.5039 -0.1201 -0.4393
 9475SOL    HW239888   2.456   0.223   2.400 -0.5425  2.7240  1.7800
 9476SOL     OW39889   3.821   1.067  12.075 -0.1494  0.1531  0.0378
 9476SOL    HW139890   3.914   1.074  12.097 -0.3415  2.6817  0.1188
 9476SOL    HW239891   3.787   1.022  12.152 -1.2859 -0.6258 -0.9237
 9477SOL     OW39892   0.777   2.886   7.945 -0.0450  0.4367 -0.1329
 9477SOL    HW139893   0.702   2.945   7.957 -0.2880  0.3041 -0.9827
 9477SOL    HW239894   0.736   2.825   7.882  0.9710 -0.7874  0.3986
 9478SOL     OW39895   1.071   3.951   7.463  0.2831  0.1479 -0.0245
 9478SOL    HW139896   1.081   3.978   7.554  1.8647 -1.7512  0.3659
 9478SOL    HW239897   1.035   3.862   7.467  0.0657  0.2914  1.2655
 9479SOL     OW39898   1.143   0.442   2.488  0.7959 -0.2494  0.1363
 9479SOL    HW139899   1.224   0.398   2.516  0.6309 -0.9263 -0.4492
 9479SOL    HW239900   1.175   0.492   2.413 -0.5300  0.5929  0.1325
 9480SOL     OW39901   0.826   4.655   8.756 -0.4717  0.6216  0.0659
 9480SOL    HW139902   0.833   4.720   8.686 -2.6730  0.8531  0.0440
 9480SOL    HW239903   0.823   4.579   8.699  1.8206 -0.1229  0.9326
 9481SOL     OW39904   3.796   2.870   6.199  0.1954  0.3976  0.5937
 9481SOL    HW139905   3.781   2.965   6.194 -0.0648  0.3282 -0.0114
 9481SOL    HW239906   3.831   2.858   6.287  0.5242 -0.7041  0.3100
 9482SOL     OW39907   0.161   3.310  16.985  0.3637  0.4941 -0.1007
 9482SOL    HW139908   0.130   3.276  17.069 -1.1148 -0.0310 -0.8659
 9482SOL    HW239909   0.182   3.401  17.009 -3.4570  1.8504 -1.8267
 9483SOL     OW39910   0.079   2.342   1.983 -0.1674 -0.1281 -0.3005
 9483SOL    HW139911   0.064   2.251   2.009 -1.3755  0.0828 -0.2639
 9483SOL    HW239912   0.174   2.349   1.988 -0.0624 -1.7731  0.1471
 9484SOL     OW39913   0.093   3.287   1.020  0.6316  0.0994  0.4904
 9484SOL    HW139914   0.003   3.316   1.001  0.9429  0.8122  0.0730
 9484SOL    HW239915   0.097   3.198   0.986  0.4339  0.5582 -0.7527
 9485SOL     OW39916   2.419   4.462   0.596  0.0024 -0.2796 -0.4166
 9485SOL    HW139917   2.329   4.492   0.585  1.0041  1.8037 -2.8409
 9485SOL    HW239918   2.458   4.531   0.543 -3.0796 -0.7486 -3.2758
 9486SOL     OW39919   3.184   4.620   6.956 -0.3635  0.5914 -0.2464
 9486SOL    HW139920   3.138   4.573   7.026  0.7050  0.2014  0.1890
 9486SOL    HW239921   3.204   4.697   7.009  1.2265  1.0116 -1.4783
 9487SOL     OW39922   3.116   3.821   9.269  0.1376 -0.2977  0.2132
 9487SOL    HW139923   3.071   3.802   9.187  0.1015  1.8220 -0.2466
 9487SOL    HW239924   3.078   3.901   9.304  0.7280  0.6950 -1.4333
 9488SOL     OW39925   0.538   1.385   3.128 -0.2163  0.5082 -0.3331
 9488SOL    HW139926   0.557   1.338   3.209  2.3452  1.6703 -0.2481
 9488SOL    HW239927   0.573   1.320   3.067  1.4269  1.5976 -0.5491
 9489SOL     OW39928   4.564   4.624   8.393  0.1751  0.1774  0.0473
 9489SOL    HW139929   4.623   4.647   8.464 -0.8120  3.6501 -0.2875
 9489SOL    HW239930   4.633   4.618   8.328 -1.6852 -3.0251 -1.6651
 9490SOL     OW39931   2.599   3.292   8.335 -0.3472 -0.6965 -0.1411
 9490SOL    HW139932   2.671   3.238   8.367 -0.0773 -0.5704 -0.5326
 9490SOL    HW239933   2.535   3.233   8.373 -3.2674  1.6537 -1.4277
 9491SOL     OW39934   0.703   1.652  16.221  0.0088  0.1672 -0.0412
 9491SOL    HW139935   0.784   1.651  16.169 -0.9909 -2.2389 -1.5401
 9491SOL    HW239936   0.667   1.563  16.218 -1.3742  0.6423  2.5912
 9492SOL     OW39937   4.438   3.595  16.398  0.1019  0.2213  0.0709
 9492SOL    HW139938   4.477   3.627  16.317  2.2729 -3.0765 -0.1636
 9492SOL    HW239939   4.369   3.662  16.405  0.1033  0.4515 -2.1798
 9493SOL     OW39940   3.589   4.087   2.276 -0.8113 -0.3217 -0.1059
 9493SOL    HW139941   3.594   4.139   2.196 -0.7389  0.2281  0.2548
 9493SOL    HW239942   3.634   4.005   2.257 -0.7682  0.3845 -3.1136
 9494SOL     OW39943   0.721   1.872   7.982 -0.0352  0.1755 -0.5257
 9494SOL    HW139944   0.727   1.879   7.886 -0.5100 -4.9501 -0.9371
 9494SOL    HW239945   0.702   1.964   8.001 -1.2576 -0.2929  0.4801
 9495SOL     OW39946   1.868   3.369  14.381 -0.0683  0.2108  0.0305
 9495SOL    HW139947   1.877   3.304  14.452  0.9958  0.7128  0.3568
 9495SOL    HW239948   1.780   3.361  14.346  0.8398  0.6623 -2.3041
 9496SOL     OW39949   2.558   0.078   1.524  0.4492  0.4431 -0.1482
 9496SOL    HW139950   2.549   4.711   1.545 -1.2364  0.2513 -1.6736
 9496SOL    HW239951   2.590   0.121   1.604 -0.7645  0.8599  0.1223
 9497SOL     OW39952   3.218   3.466   6.446 -0.2953 -0.0188  0.1413
 9497SOL    HW139953   3.142   3.446   6.391 -2.2853 -0.3070  3.0013
 9497SOL    HW239954   3.288   3.411   6.413 -0.2386  0.8114 -1.1408
 9498SOL     OW39955   2.270   3.252  15.278  0.1297  0.4811  0.1063
 9498SOL    HW139956   2.318   3.207  15.209  1.0574  0.7278  0.5752
 9498SOL    HW239957   2.315   3.336  15.266 -0.3657  0.8340  0.6859
 9499SOL     OW39958   4.327   0.343   4.855  0.4577 -0.8714  0.2815
 9499SOL    HW139959   4.328   0.410   4.787  2.6102 -0.4649  0.7160
 9499SOL    HW239960   4.359   0.387   4.934  2.4255 -0.6264 -0.6444
 9500SOL     OW39961   3.654   1.110   2.334 -0.0310 -0.1136 -0.3869
 9500SOL    HW139962   3.618   1.043   2.276  1.8659 -0.3833 -1.2474
 9500SOL    HW239963   3.741   1.129   2.300  0.2931 -1.9876 -0.5590
 9501SOL     OW39964   0.723   4.044   1.939  0.8949 -0.1996  0.2775
 9501SOL    HW139965   0.629   4.033   1.950  0.8295  2.0666  1.9563
 9501SOL    HW239966   0.749   3.960   1.903  0.1408 -0.2051 -0.2529
 9502SOL     OW39967   1.288   4.052   6.226  0.4375 -0.3786  0.2082
 9502SOL    HW139968   1.378   4.020   6.225  0.2664 -0.8463 -2.1474
 9502SOL    HW239969   1.302   4.142   6.252  0.1758 -1.0254  2.5275
 9503SOL     OW39970   1.370   2.887  15.343  0.0329 -0.1895 -0.4712
 9503SOL    HW139971   1.302   2.936  15.298 -0.0642  1.3830  1.3675
 9503SOL    HW239972   1.356   2.924  15.431 -0.4389  3.1732 -1.9851
 9504SOL     OW39973   4.007   0.084   4.945 -0.0664  0.0477 -0.7628
 9504SOL    HW139974   3.927   0.079   4.998  2.0568 -1.6078  2.2648
 9504SOL    HW239975   3.985   0.026   4.872 -1.7632 -1.1782  0.7191
 9505SOL     OW39976   1.012   0.233  10.369  0.1614  0.5480  0.0182
 9505SOL    HW139977   1.034   0.190  10.287 -0.6049 -0.7198  0.4792
 9505SOL    HW239978   1.099   0.239  10.409  1.2282 -1.5743 -1.9750
 9506SOL     OW39979   1.237   4.101  17.287  0.2100  0.0368 -0.2484
 9506SOL    HW139980   1.193   4.143  17.213 -0.1819 -1.5356 -0.9036
 9506SOL    HW239981   1.167   4.076  17.346  0.4467 -0.8221 -0.3363
 9507SOL     OW39982   2.987   1.085   4.954  0.2001 -0.1018 -0.0099
 9507SOL    HW139983   2.955   1.117   5.038  1.3846  1.7303 -0.2524
 9507SOL    HW239984   2.944   1.144   4.892 -2.1436  0.4238  2.1601
 9508SOL     OW39985   0.873   3.184   8.334 -0.1918  0.1957  0.3393
 9508SOL    HW139986   0.785   3.146   8.333  0.7727 -2.0304 -0.2044
 9508SOL    HW239987   0.915   3.125   8.396  0.7928  1.5497  0.9577
 9509SOL     OW39988   2.364   1.990   4.702 -0.2323 -0.6410 -0.7043
 9509SOL    HW139989   2.436   2.032   4.656  1.1091 -2.6721 -0.4885
 9509SOL    HW239990   2.404   1.910   4.738 -1.1377 -0.4010  0.8262
 9510SOL     OW39991   0.012   1.183  11.541  0.3458 -0.1304  0.5707
 9510SOL    HW139992   0.106   1.175  11.523 -0.1836 -2.4221 -1.1692
 9510SOL    HW239993   0.007   1.254  11.605  0.0207 -2.0957  2.7246
 9511SOL     OW39994   3.176   4.318   3.929 -0.9783  0.2893  0.0254
 9511SOL    HW139995   3.202   4.364   3.848  1.0088  1.5652  1.4025
 9511SOL    HW239996   3.257   4.286   3.967 -0.8341  1.7077  0.8903
 9512SOL     OW39997   0.342   2.714   6.217 -0.1137 -0.1144  0.3191
 9512SOL    HW139998   0.409   2.711   6.285  0.8450  0.5634 -0.6078
 9512SOL    HW239999   0.349   2.802   6.180  1.4820 -1.6461 -2.9632
 9513SOL     OW40000   3.612   2.562  10.826  0.2016 -0.0158  0.0814
 9513SOL    HW140001   3.694   2.531  10.866 -0.1543 -1.6050 -0.4251
 9513SOL    HW240002   3.575   2.594  10.908 -1.2899 -1.4307 -0.0391
 9514SOL     OW40003   3.850   3.883   4.472 -0.2533 -0.1755  0.2502
 9514SOL    HW140004   3.807   3.926   4.398  0.8646 -0.8100 -0.7740
 9514SOL    HW240005   3.852   3.953   4.537 -0.0530  0.2137 -0.1746
 9515SOL     OW40006   2.719   4.583  13.613  0.3327  0.6796  0.2641
 9515SOL    HW140007   2.731   4.496  13.651 -0.5997  1.0889  1.4975
 9515SOL    HW240008   2.745   4.647  13.679  3.0765 -0.1800 -0.0069
 9516SOL     OW40009   0.554   3.019   7.942  0.0501 -0.3009  0.3383
 9516SOL    HW140010   0.505   2.973   8.010  0.7241  0.3958  1.2855
 9516SOL    HW240011   0.533   3.112   7.946  2.0678  0.2133 -0.9639
 9517SOL     OW40012   2.107   3.740   8.091 -0.8030 -0.3663  0.6933
 9517SOL    HW140013   2.173   3.720   8.157 -1.6763 -0.5877  1.4954
 9517SOL    HW240014   2.050   3.809   8.125  0.0012  0.2572  0.7841
 9518SOL     OW40015   3.801   2.676  11.170 -0.3129  0.5308  0.7653
 9518SOL    HW140016   3.858   2.664  11.247  0.4049 -0.3311  0.1001
 9518SOL    HW240017   3.728   2.724  11.208 -1.0872 -1.2427  1.5559
 9519SOL     OW40018   1.485   4.492   3.595  0.1819  0.4982 -0.8214
 9519SOL    HW140019   1.488   4.445   3.512 -1.0797 -1.7578  0.3773
 9519SOL    HW240020   1.489   4.582   3.565 -1.7816  2.0114  3.3933
 9520SOL     OW40021   2.505   4.236   6.069 -0.4474 -0.5619  0.0502
 9520SOL    HW140022   2.524   4.186   5.990  1.2268  3.2223 -1.9244
 9520SOL    HW240023   2.485   4.167   6.132  0.0780 -0.8189 -0.0740
 9521SOL     OW40024   3.593   0.285   4.078 -0.6522  0.1429 -0.4869
 9521SOL    HW140025   3.583   0.192   4.055 -0.4613 -0.1735  0.6902
 9521SOL    HW240026   3.511   0.314   4.118  0.4105  1.3390  0.8447
 9522SOL     OW40027   0.944   0.241   2.459  0.0685  0.1716  0.1365
 9522SOL    HW140028   1.017   0.303   2.453  1.3859 -1.4544 -0.5402
 9522SOL    HW240029   0.938   0.219   2.366  0.4440  0.9592 -0.0753
 9523SOL     OW40030   4.451   2.939   7.303  0.4383  0.2749 -0.4017
 9523SOL    HW140031   4.371   2.983   7.330 -1.2354 -2.9094 -0.1426
 9523SOL    HW240032   4.462   2.899   7.389  2.0502  0.3967 -0.5456
 9524SOL     OW40033   0.956   3.541   3.755  0.4905  0.5336  0.2594
 9524SOL    HW140034   0.869   3.530   3.794  1.0726 -2.3627  0.7808
 9524SOL    HW240035   0.938   3.554   3.662 -1.5454 -0.7842  0.4707
 9525SOL     OW40036   1.813   0.140   8.825 -0.2660  0.0814 -0.4067
 9525SOL    HW140037   1.747   0.209   8.832  0.3396  0.6370 -0.1982
 9525SOL    HW240038   1.836   0.143   8.732  1.3775 -2.1302 -0.0454
 9526SOL     OW40039   1.591   2.621  11.203  0.7961 -0.0534 -0.2343
 9526SOL    HW140040   1.684   2.644  11.207  0.6825  0.5031 -0.9928
 9526SOL    HW240041   1.597   2.525  11.199  2.4675  0.2039 -3.3784
 9527SOL     OW40042   2.352   0.286   8.598 -0.1466  0.5642 -0.0167
 9527SOL    HW140043   2.424   0.345   8.575 -1.0477  1.7070  0.0717
 9527SOL    HW240044   2.309   0.277   8.513 -2.1296 -1.4869  1.2154
 9528SOL     OW40045   0.673   4.010   3.203 -0.2738  0.2844 -0.0734
 9528SOL    HW140046   0.665   3.984   3.111  0.1305 -1.3796  0.3527
 9528SOL    HW240047   0.613   3.945   3.240  2.1076 -1.2605  1.1079
 9529SOL     OW40048   3.164   2.435  11.531 -0.0761 -0.5075 -0.4545
 9529SOL    HW140049   3.083   2.401  11.569 -0.3873 -2.8640 -3.2707
 9529SOL    HW240050   3.162   2.409  11.439  0.9292 -0.2156 -0.5593
 9530SOL     OW40051   3.902   0.488   4.380  0.0525  0.3873  0.2091
 9530SOL    HW140052   3.871   0.420   4.321 -1.4511  1.9850 -0.8657
 9530SOL    HW240053   3.975   0.526   4.331 -0.0724 -0.9149 -0.9551
 9531SOL     OW40054   1.679   2.651   0.401  0.2263 -0.0439  0.0111
 9531SOL    HW140055   1.643   2.731   0.363 -1.4032 -1.1145 -0.6802
 9531SOL    HW240056   1.665   2.660   0.496 -1.0669 -1.1233 -0.0909
 9532SOL     OW40057   4.576   2.832   5.701  0.1355 -0.0861  0.2294
 9532SOL    HW140058   4.496   2.864   5.660 -0.7198 -0.3684  1.6623
 9532SOL    HW240059   4.582   2.749   5.654 -2.9699 -0.4042  0.4171
 9533SOL     OW40060   0.188   3.534   1.011 -0.0659  0.4882 -0.1447
 9533SOL    HW140061   0.139   3.452   1.023 -1.5658  1.4707  0.4552
 9533SOL    HW240062   0.250   3.500   0.946 -1.3881 -1.0114 -0.6345
 9534SOL     OW40063   0.866   1.135   4.423 -0.6124 -0.0978 -0.1709
 9534SOL    HW140064   0.953   1.134   4.384  0.7242 -0.4900  2.7828
 9534SOL    HW240065   0.877   1.069   4.492 -0.2284  0.0936 -0.0462
 9535SOL     OW40066   3.421   2.845   6.658 -0.2079 -0.2045 -0.8841
 9535SOL    HW140067   3.438   2.937   6.640  1.5356 -0.5052 -0.7220
 9535SOL    HW240068   3.332   2.846   6.693  0.4435  0.0610  0.7595
 9536SOL     OW40069   2.855   1.625  11.767  0.2927 -0.0516  0.3387
 9536SOL    HW140070   2.860   1.554  11.831 -0.1209 -0.2750  0.1231
 9536SOL    HW240071   2.804   1.589  11.694 -0.6377 -2.1454  2.0201
 9537SOL     OW40072   2.722   2.215   3.957 -0.5770  0.0559  0.4657
 9537SOL    HW140073   2.647   2.215   4.016 -0.1804 -0.1329  0.9693
 9537SOL    HW240074   2.699   2.142   3.899 -0.5119 -1.3381  2.2094
 9538SOL     OW40075   2.876   3.405   1.039 -0.1454  0.1562 -1.1431
 9538SOL    HW140076   2.936   3.392   0.966  2.4919 -1.5435  1.3298
 9538SOL    HW240077   2.816   3.466   0.996 -1.1597 -1.5606 -2.1275
 9539SOL     OW40078   3.507   4.045   3.998  0.0478 -0.5471 -0.1061
 9539SOL    HW140079   3.580   4.027   3.939  0.7557 -0.5338  0.7629
 9539SOL    HW240080   3.453   3.966   3.991 -1.5823  0.6346 -0.8062
 9540SOL     OW40081   0.980   0.943   4.658 -0.2441  0.5597 -0.0541
 9540SOL    HW140082   0.937   0.921   4.740 -1.3767  1.5843 -0.3721
 9540SOL    HW240083   0.935   0.882   4.600  0.1447  1.5424 -1.3912
 9541SOL     OW40084   3.134   0.583  10.579 -0.2301 -0.4467 -0.1174
 9541SOL    HW140085   3.042   0.569  10.602 -0.4343  0.4242 -0.3978
 9541SOL    HW240086   3.125   0.574  10.484 -0.7419 -0.2412 -0.0907
 9542SOL     OW40087   1.888   0.652   0.567  0.1224 -0.1486  0.1114
 9542SOL    HW140088   1.956   0.656   0.499  0.6886 -2.8247  0.4994
 9542SOL    HW240089   1.855   0.741   0.558 -1.1386 -0.7204 -0.9882
 9543SOL     OW40090   2.408   1.426   6.994 -0.3289 -0.0519 -0.1014
 9543SOL    HW140091   2.372   1.491   7.054  0.0165 -0.8511  0.9812
 9543SOL    HW240092   2.363   1.447   6.913 -0.1676  0.0529 -0.1611
 9544SOL     OW40093   1.481   3.781   7.285  0.2264  0.0988 -0.0416
 9544SOL    HW140094   1.470   3.795   7.379 -0.2186  0.0741 -0.0907
 9544SOL    HW240095   1.391   3.786   7.252 -0.3359 -2.1038  1.1323
 9545SOL     OW40096   4.352   2.229   2.785  0.4192 -0.2600 -0.1115
 9545SOL    HW140097   4.445   2.252   2.793  0.9917 -1.8767 -2.0463
 9545SOL    HW240098   4.350   2.228   2.689  0.6929  1.5437 -0.1277
 9546SOL     OW40099   3.985   4.401   5.065 -0.1584 -0.5816 -0.1434
 9546SOL    HW140100   3.896   4.380   5.036 -0.4335  1.9677 -1.1482
 9546SOL    HW240101   4.015   4.449   4.988 -0.6846 -0.6517 -0.3964
 9547SOL     OW40102   3.341   1.619   9.217  0.1348 -0.3055 -0.6831
 9547SOL    HW140103   3.429   1.648   9.192  1.5438 -3.8959  0.0923
 9547SOL    HW240104   3.297   1.622   9.132  2.4702 -0.0354 -1.9101
 9548SOL     OW40105   3.713   0.470   6.079  0.2162 -0.0570 -0.5094
 9548SOL    HW140106   3.680   0.436   6.162  1.7868  1.2084  0.6260
 9548SOL    HW240107   3.774   0.403   6.050 -1.7548 -1.7424 -0.7359
 9549SOL     OW40108   1.612   4.539   8.315  0.2750  0.2481 -0.3535
 9549SOL    HW140109   1.520   4.565   8.311 -0.0269 -0.7624 -0.0537
 9549SOL    HW240110   1.661   4.581   8.244  0.7938  2.9775  1.6196
 9550SOL     OW40111   2.921   2.765   3.308  0.8055 -0.5375 -0.7792
 9550SOL    HW140112   2.829   2.769   3.333  1.1506  1.2131  0.2443
 9550SOL    HW240113   2.934   2.857   3.284  2.6553 -1.0777 -1.8407
 9551SOL     OW40114   1.729   4.665   1.310  0.2216  0.4194 -0.0747
 9551SOL    HW140115   1.805   4.696   1.359  2.6268 -2.3104 -1.9967
 9551SOL    HW240116   1.677   0.017   1.330  0.6388  1.0099 -1.2388
 9552SOL     OW40117   3.105   0.650  16.676 -0.1838 -0.3247  0.3840
 9552SOL    HW140118   3.033   0.588  16.674  1.7465 -2.6026  1.2945
 9552SOL    HW240119   3.095   0.697  16.593  1.4233  1.7499  1.3437
 9553SOL     OW40120   3.737   2.528   6.314  0.2158 -0.2640 -0.0022
 9553SOL    HW140121   3.732   2.595   6.383 -0.5457 -0.5588  0.2275
 9553SOL    HW240122   3.760   2.454   6.371 -0.1901 -1.6514 -1.6677
 9554SOL     OW40123   2.108   1.007  12.942  0.9766  0.1580 -0.2257
 9554SOL    HW140124   2.058   1.008  13.023 -0.4008 -0.0926 -1.0845
 9554SOL    HW240125   2.044   1.055  12.890  0.1942 -0.9168 -0.2391
 9555SOL     OW40126   0.496   1.677   6.232  0.1917  0.3460  0.2591
 9555SOL    HW140127   0.401   1.673   6.240  0.3856 -2.9870  1.3050
 9555SOL    HW240128   0.522   1.591   6.266  0.1333  0.2794  0.1335
 9556SOL     OW40129   2.512   0.518   5.458 -0.3467  0.1551 -0.2010
 9556SOL    HW140130   2.420   0.495   5.461 -0.1197 -0.7914 -0.4837
 9556SOL    HW240131   2.555   0.458   5.519  0.4128  1.9172  1.0105
 9557SOL     OW40132   4.421   2.151   3.351  0.4957 -0.0966 -0.2963
 9557SOL    HW140133   4.364   2.109   3.416 -1.7803 -0.1738 -2.3072
 9557SOL    HW240134   4.375   2.132   3.269  2.3941 -0.5431 -1.2635
 9558SOL     OW40135   4.199   1.398  14.209 -0.3304 -0.3450  0.0131
 9558SOL    HW140136   4.215   1.426  14.118 -0.1787  0.9074  0.4237
 9558SOL    HW240137   4.247   1.315  14.202  1.2056  0.7188 -2.4624
 9559SOL     OW40138   1.499   2.867  10.433 -0.6662  0.3917 -0.0714
 9559SOL    HW140139   1.459   2.946  10.469  2.8885 -0.6955  6.3483
 9559SOL    HW240140   1.526   2.903  10.348  0.9711  0.7377  0.5900
 9560SOL     OW40141   1.519   1.680  12.792  0.3026 -0.3672 -0.1779
 9560SOL    HW140142   1.524   1.621  12.716 -0.2303  0.1115 -0.5801
 9560SOL    HW240143   1.450   1.740  12.764 -0.0240 -1.5478 -1.9056
 9561SOL     OW40144   2.101   4.050   4.596 -0.1898 -0.4372 -0.3526
 9561SOL    HW140145   2.053   4.052   4.679 -1.7047  2.5778 -1.2883
 9561SOL    HW240146   2.178   3.996   4.615  2.2810  2.3353 -2.5630
 9562SOL     OW40147   1.022   1.692   4.067 -0.8730  0.5027 -0.2719
 9562SOL    HW140148   0.952   1.743   4.108  0.6279 -0.0736  2.9808
 9562SOL    HW240149   0.974   1.651   3.995 -0.1952 -0.7940  0.0226
 9563SOL     OW40150   2.785   4.162  10.111 -0.5531  0.0694  0.2265
 9563SOL    HW140151   2.852   4.226  10.135  3.3462 -3.4388 -1.3850
 9563SOL    HW240152   2.711   4.203  10.157 -1.0247  0.9929 -1.3478
 9564SOL     OW40153   2.453   1.523   7.345 -0.3265 -0.1960 -0.4338
 9564SOL    HW140154   2.502   1.590   7.392  1.0935 -0.2857 -1.7737
 9564SOL    HW240155   2.512   1.448   7.351  0.5331  0.4875 -0.2920
 9565SOL     OW40156   2.838   4.650   6.062  0.1356 -0.2546 -0.0800
 9565SOL    HW140157   2.915   4.683   6.107 -0.4625 -0.9780  1.4621
 9565SOL    HW240158   2.847   4.554   6.062 -1.2811 -0.3878  0.0925
 9566SOL     OW40159   4.281   1.066   3.151  0.1513 -0.0774 -0.7276
 9566SOL    HW140160   4.269   1.112   3.234  0.4011  1.3826 -1.4906
 9566SOL    HW240161   4.286   0.975   3.181  1.0098 -0.2892 -1.5120
 9567SOL     OW40162   1.262   3.243  14.402 -0.1871 -0.2945 -0.3896
 9567SOL    HW140163   1.262   3.285  14.488 -2.1345  1.9099 -1.4458
 9567SOL    HW240164   1.341   3.190  14.411  0.8370  1.3510  0.3498
 9568SOL     OW40165   3.535   1.634   6.360  0.4842 -0.0833 -0.0152
 9568SOL    HW140166   3.446   1.634   6.394 -0.3351  2.6721 -2.1967
 9568SOL    HW240167   3.541   1.714   6.309  4.0300  0.0390  0.5539
   4.72504   4.72504  17.70156
